                         Program Version 6.0.0  -   RELEASE  -
|  1> ! r2scan-3c def2/J RI DEFGRID2 scfconv6 printgap
|  2> %output
|  3>     printlevel normal
|  4> end
|  5> %cpcm
|  6>     smd true
|  7>     smdsolvent "water"
|  8> end
|  9> * xyz 0 1
| 10> C 5.4735654843 -1.1090525948 -1.281502474
| 11> C 4.1781219811 -0.4664926434 -1.7326870706
| 12> O 3.626701438 0.3738074326 -0.6869115957
| 13> P 2.5525095389 -0.1086186026 0.3635167
| 14> S 2.2337938776 1.2579620911 1.7225632456
| 15> O 3.1359302654 -1.4882073622 0.894434761
| 16> C 2.6943028094 -2.0784191457 2.1304660769
| 17> C 1.2262927553 -2.4497312465 2.0925847357
| 18> S 0.916566595 -0.7369859956 -0.8675761305
| 19> C 0.4335414892 0.9115152798 -1.4344478052
| 20> S -0.6314515762 1.7968263145 -0.2551089997
| 21> P -2.2335441329 0.4238572383 -0.3195752008
| 22> S -2.6040029815 -0.3921656133 -2.0668833595
| 23> O -3.4382258806 1.2450211753 0.3085737083
| 24> C -4.1766400312 2.2139860738 -0.4626103641
| 25> C -5.5072247214 2.4427292071 0.2256152442
| 26> O -1.8614825878 -0.5605052427 0.8593994398
| 27> C -2.3946974402 -1.9024693765 0.9224633909
| 28> C -3.8871146653 -1.8984579216 1.1746173405
| 29> H 5.2896373841 -1.7934347503 -0.4581134561
| 30> H 5.9052145522 -1.6565771627 -2.1135860377
| 31> H 6.172811425 -0.344825517 -0.9533410553
| 32> H 3.4363967227 -1.2202315708 -2.010404785
| 33> H 4.3451500434 0.2163287391 -2.567831653
| 34> H 3.3302861306 -2.9575418097 2.2428220624
| 35> H 2.8892328269 -1.3680560349 2.9395694564
| 36> H 0.9677312761 -2.9855148278 3.0004386958
| 37> H 0.6204165623 -1.5453496791 2.0305591666
| 38> H 1.0155317617 -3.0748511041 1.2277554458
| 39> H -0.1115218168 0.7704198139 -2.3675108697
| 40> H 1.3172620285 1.5303313409 -1.5776073898
| 41> H -3.5870826274 3.1337261807 -0.5086928294
| 42> H -4.3107556475 1.8231993425 -1.477235404
| 43> H -6.065236346 3.1958814674 -0.3208503791
| 44> H -6.0801526594 1.5201869806 0.2514032686
| 45> H -5.3423503711 2.7837642222 1.2435338713
| 46> H -2.1583338272 -2.4104815416 -0.0179232168
| 47> H -1.8448348604 -2.3639308755 1.7433307718
| 48> H -4.4031098396 -1.4555828193 0.3233687856
| 49> H -4.2333437977 -2.9187663105 1.3060079472
| 50> H -4.1154939425 -1.3181690298 2.0647744915
| 51> *
| 52>
| 53>                          ****END OF INPUT****

CARTESIAN COORDINATES (ANGSTROEM)
---------------------------------
  C      5.473565   -1.109053   -1.281502
  C      4.178122   -0.466493   -1.732687
  O      3.626701    0.373807   -0.686912
  P      2.552510   -0.108619    0.363517
  S      2.233794    1.257962    1.722563
  O      3.135930   -1.488207    0.894435
  C      2.694303   -2.078419    2.130466
  C      1.226293   -2.449731    2.092585
  S      0.916567   -0.736986   -0.867576
  C      0.433541    0.911515   -1.434448
  S     -0.631452    1.796826   -0.255109
  P     -2.233544    0.423857   -0.319575
  S     -2.604003   -0.392166   -2.066883
  O     -3.438226    1.245021    0.308574
  C     -4.176640    2.213986   -0.462610
  C     -5.507225    2.442729    0.225615
  O     -1.861483   -0.560505    0.859399
  C     -2.394697   -1.902469    0.922463
  C     -3.887115   -1.898458    1.174617
  H      5.289637   -1.793435   -0.458113
  H      5.905215   -1.656577   -2.113586
  H      6.172811   -0.344826   -0.953341
  H      3.436397   -1.220232   -2.010405
  H      4.345150    0.216329   -2.567832
  H      3.330286   -2.957542    2.242822
  H      2.889233   -1.368056    2.939569
  H      0.967731   -2.985515    3.000439
  H      0.620417   -1.545350    2.030559
  H      1.015532   -3.074851    1.227755
  H     -0.111522    0.770420   -2.367511
  H      1.317262    1.530331   -1.577607
  H     -3.587083    3.133726   -0.508693
  H     -4.310756    1.823199   -1.477235
  H     -6.065236    3.195881   -0.320850
  H     -6.080153    1.520187    0.251403
  H     -5.342350    2.783764    1.243534
  H     -2.158334   -2.410482   -0.017923
  H     -1.844835   -2.363931    1.743331
  H     -4.403110   -1.455583    0.323369
  H     -4.233344   -2.918766    1.306008
  H     -4.115494   -1.318169    2.064774

 Total Charge           Charge          ....    0
 Multiplicity           Mult            ....    1
 Number of Electrons    NEL             ....  202
 Basis Dimension        Dim             ....  539

ORBITAL ENERGIES
----------------

  NO   OCC          E(Eh)            E(eV)
   0   2.0000     -88.577007     -2410.3029
   1   2.0000     -88.575494     -2410.2617
   2   2.0000     -88.527652     -2408.9599
   3   2.0000     -88.527448     -2408.9543
   4   2.0000     -76.919013     -2093.0728
   5   2.0000     -76.917747     -2093.0383
   6   2.0000     -18.996649      -516.9251
   7   2.0000     -18.995169      -516.8848
   8   2.0000     -18.994267      -516.8603
   9   2.0000     -18.993592      -516.8419
  10   2.0000     -10.104931      -274.9692
  11   2.0000     -10.091047      -274.5913
  12   2.0000     -10.091020      -274.5906
  13   2.0000     -10.090004      -274.5630
  14   2.0000     -10.089534      -274.5502
  15   2.0000     -10.019568      -272.6463
  16   2.0000     -10.019489      -272.6441
  17   2.0000     -10.018740      -272.6238
  18   2.0000     -10.018045      -272.6049
  19   2.0000      -7.871148      -214.1848
  20   2.0000      -7.869691      -214.1452
  21   2.0000      -7.822716      -212.8669
  22   2.0000      -7.822594      -212.8636
  23   2.0000      -6.597407      -179.5246
  24   2.0000      -6.596553      -179.5013
  25   2.0000      -5.817987      -158.3155
  26   2.0000      -5.816527      -158.2758
  27   2.0000      -5.815008      -158.2344
  28   2.0000      -5.813611      -158.1964
  29   2.0000      -5.808344      -158.0531
  30   2.0000      -5.806798      -158.0110
  31   2.0000      -5.770374      -157.0199
  32   2.0000      -5.770071      -157.0116
  33   2.0000      -5.762951      -156.8179
  34   2.0000      -5.762871      -156.8157
  35   2.0000      -5.762709      -156.8113
  36   2.0000      -5.762695      -156.8109
  37   2.0000      -4.743342      -129.0729
  38   2.0000      -4.742364      -129.0463
  39   2.0000      -4.741889      -129.0334
  40   2.0000      -4.741450      -129.0214
  41   2.0000      -4.740768      -129.0029
  42   2.0000      -4.740451      -128.9942
  43   2.0000      -1.053664       -28.6717
  44   2.0000      -1.052987       -28.6532
  45   2.0000      -1.013620       -27.5820
  46   2.0000      -1.013451       -27.5774
  47   2.0000      -0.801701       -21.8154
  48   2.0000      -0.755300       -20.5528
  49   2.0000      -0.744592       -20.2614
  50   2.0000      -0.726719       -19.7750
  51   2.0000      -0.724524       -19.7153
  52   2.0000      -0.707844       -19.2614
  53   2.0000      -0.688393       -18.7321
  54   2.0000      -0.675231       -18.3740
  55   2.0000      -0.628417       -17.1001
  56   2.0000      -0.621061       -16.8999
  57   2.0000      -0.603363       -16.4184
  58   2.0000      -0.592900       -16.1336
  59   2.0000      -0.587958       -15.9992
  60   2.0000      -0.526335       -14.3223
  61   2.0000      -0.520785       -14.1713
  62   2.0000      -0.494377       -13.4527
  63   2.0000      -0.490686       -13.3522
  64   2.0000      -0.474975       -12.9247
  65   2.0000      -0.464176       -12.6309
  66   2.0000      -0.454880       -12.3779
  67   2.0000      -0.445657       -12.1269
  68   2.0000      -0.439243       -11.9524
  69   2.0000      -0.435041       -11.8381
  70   2.0000      -0.424370       -11.5477
  71   2.0000      -0.411022       -11.1845
  72   2.0000      -0.406560       -11.0631
  73   2.0000      -0.394756       -10.7419
  74   2.0000      -0.392369       -10.6769
  75   2.0000      -0.383158       -10.4263
  76   2.0000      -0.383028       -10.4227
  77   2.0000      -0.371270       -10.1028
  78   2.0000      -0.364392        -9.9156
  79   2.0000      -0.362869        -9.8742
  80   2.0000      -0.356105        -9.6901
  81   2.0000      -0.353145        -9.6096
  82   2.0000      -0.352199        -9.5838
  83   2.0000      -0.348742        -9.4898
  84   2.0000      -0.342159        -9.3106
  85   2.0000      -0.329422        -8.9640
  86   2.0000      -0.322904        -8.7867
  87   2.0000      -0.312429        -8.5016
  88   2.0000      -0.307971        -8.3803
  89   2.0000      -0.302897        -8.2423
  90   2.0000      -0.300086        -8.1657
  91   2.0000      -0.290014        -7.8917
  92   2.0000      -0.284004        -7.7281
  93   2.0000      -0.278195        -7.5701
  94   2.0000      -0.275139        -7.4869
  95   2.0000      -0.254544        -6.9265
  96   2.0000      -0.234918        -6.3924
  97   2.0000      -0.233449        -6.3525
  98   2.0000      -0.227913        -6.2018
  99   2.0000      -0.222053        -6.0424
 100   2.0000      -0.212721        -5.7884
 101   0.0000      -0.048756        -1.3267
 102   0.0000      -0.032480        -0.8838
 103   0.0000      -0.004384        -0.1193
 104   0.0000       0.004397         0.1196
 105   0.0000       0.009846         0.2679

MULLIKEN ATOMIC CHARGES
-----------------------
   0 C :   -0.501239
   1 C :   -0.096322
   2 O :   -0.314093
   3 P :    0.652844
   4 S :   -0.468227
   5 O :   -0.306270
   6 C :   -0.150919
   7 C :   -0.509628
   8 S :   -0.166768
   9 C :   -0.251846
  10 S :   -0.122489
  11 P :    0.730805
  12 S :   -0.539398
  13 O :   -0.310327
  14 C :   -0.149389
  15 C :   -0.483338
  16 O :   -0.321248
  17 C :   -0.127361
  18 C :   -0.498983
  19 H :    0.169826
  20 H :    0.170827
  21 H :    0.166727
  22 H :    0.174108
  23 H :    0.176562
  24 H :    0.176936
  25 H :    0.179900
  26 H :    0.175596
  27 H :    0.182951
  28 H :    0.177224
  29 H :    0.237945
  30 H :    0.225786
  31 H :    0.171957
  32 H :    0.172131
  33 H :    0.169580
  34 H :    0.166186
  35 H :    0.166022
  36 H :    0.180725
  37 H :    0.179334
  38 H :    0.170110
  39 H :    0.173268
  40 H :    0.170495
Sum of atomic charges:    0.0000000

LOEWDIN ATOMIC CHARGES
----------------------
   0 C :   -0.396744
   1 C :    0.029413
   2 O :   -0.679201
   3 P :    0.382770
   4 S :   -0.132113
   5 O :   -0.676874
   6 C :    0.027838
   7 C :   -0.413335
   8 S :    0.146344
   9 C :   -0.408883
  10 S :    0.153257
  11 P :    0.371517
  12 S :   -0.165015
  13 O :   -0.678417
  14 C :    0.024028
  15 C :   -0.389446
  16 O :   -0.683487
  17 C :    0.022170
  18 C :   -0.403124
  19 H :    0.165424
  20 H :    0.168665
  21 H :    0.163281
  22 H :    0.181998
  23 H :    0.189963
  24 H :    0.191815
  25 H :    0.182284
  26 H :    0.170134
  27 H :    0.165378
  28 H :    0.165130
  29 H :    0.197867
  30 H :    0.198800
  31 H :    0.179819
  32 H :    0.181743
  33 H :    0.168895
  34 H :    0.162586
  35 H :    0.163339
  36 H :    0.182600
  37 H :    0.192383
  38 H :    0.163335
  39 H :    0.169289
  40 H :    0.164573

  Mayer bond orders larger than 0.100000
B(  0-C ,  1-C ) :   0.9319 B(  0-C , 19-H ) :   0.9672 B(  0-C , 20-H ) :   0.9587
B(  0-C , 21-H ) :   0.9696 B(  1-C ,  2-O ) :   0.7485 B(  1-C , 22-H ) :   0.9581
B(  1-C , 23-H ) :   0.9514 B(  2-O ,  3-P ) :   1.1406 B(  3-P ,  4-S ) :   1.8602
B(  3-P ,  5-O ) :   1.0451 B(  3-P ,  8-S ) :   0.9994 B(  5-O ,  6-C ) :   0.8056
B(  6-C ,  7-C ) :   0.8972 B(  6-C , 24-H ) :   0.9498 B(  6-C , 25-H ) :   0.9672
B(  7-C , 26-H ) :   0.9489 B(  7-C , 27-H ) :   0.9600 B(  7-C , 28-H ) :   0.9599
B(  8-S ,  9-C ) :   0.8809 B(  9-C , 10-S ) :   0.9253 B(  9-C , 29-H ) :   0.9077
B(  9-C , 30-H ) :   0.9056 B( 10-S , 11-P ) :   1.0905 B( 11-P , 12-S ) :   1.6783
B( 11-P , 13-O ) :   1.0884 B( 11-P , 16-O ) :   1.1936 B( 13-O , 14-C ) :   0.7711
B( 14-C , 15-C ) :   0.9526 B( 14-C , 31-H ) :   0.9379 B( 14-C , 32-H ) :   0.9478
B( 15-C , 33-H ) :   0.9584 B( 15-C , 34-H ) :   0.9690 B( 15-C , 35-H ) :   0.9689
B( 16-O , 17-C ) :   0.7728 B( 17-C , 18-C ) :   0.9164 B( 17-C , 36-H ) :   0.9599
B( 17-C , 37-H ) :   0.9462 B( 18-C , 38-H ) :   0.9589 B( 18-C , 39-H ) :   0.9555
B( 18-C , 40-H ) :   0.9710

Dispersion correction           -0.021082448
FINAL SINGLE POINT ENERGY     -2932.471959968508

DIPOLE MOMENT
-------------

Method             : SCF
Type of density    : Electron Density
Multiplicity       :   1
Irrep              :   0
Energy             : -2932.4970285956592306 Eh
Relativity type    :
Basis              : AO
                                X                 Y                 Z
Electronic contribution:      6.743385747      10.489775604      -4.132807855
Nuclear contribution   :     -6.792931243     -12.014140549       3.776700400
                        -----------------------------------------
Total Dipole Moment    :     -0.049545497      -1.524364945      -0.356107454
                        -----------------------------------------
Magnitude (a.u.)       :      1.566191483
Magnitude (Debye)      :      3.980942378

Rotational constants in cm-1:             0.013933             0.004402             0.004166
Rotational constants in MHz :           417.686105           131.982047           124.892512

                             ****ORCA TERMINATED NORMALLY****
TOTAL RUN TIME: 0 days 0 hours 1 minutes 47 seconds 164 msec
