                         Program Version 6.0.0  -   RELEASE  -
|  1> ! r2scan-3c def2/J RI DEFGRID2 scfconv6 printgap
|  2> %output
|  3>     printlevel normal
|  4> end
|  5> * xyz 0 1
|  6> C 4.6774355104 -2.0066106416 -0.3674662981
|  7> C 4.0296684056 -1.6752158556 0.9608204919
|  8> O 3.3396151507 -0.4107097553 0.9493558912
|  9> P 2.2547306666 0.0407261602 -0.1165882984
| 10> S 2.8956439289 0.6732197534 -1.8635976276
| 11> O 1.4760398938 1.1357387268 0.7370471451
| 12> C 1.6641234015 2.5463961365 0.5341005908
| 13> C 2.9796076704 3.0056836201 1.1260334675
| 14> S 0.8771895957 -1.5592536367 -0.1235772134
| 15> C -0.0512763585 -1.0410102328 -1.5900368849
| 16> S -0.7366111169 0.6435791813 -1.4795772034
| 17> P -2.3783243443 0.2693315647 -0.2027421813
| 18> S -3.3629691473 1.8540183038 0.3888019375
| 19> O -1.8299802084 -0.6564208989 0.969335968
| 20> C -1.3563712844 -0.1515852498 2.2299794791
| 21> C -1.4424832525 -1.2809867955 3.2364955132
| 22> O -3.1532681165 -0.7796015443 -1.1020115345
| 23> C -4.5560674184 -1.0594005122 -0.9037004281
| 24> C -4.8184592831 -1.7216631016 0.4320248383
| 25> H 3.9156680305 -2.1444584228 -1.1336213242
| 26> H 5.3370318876 -1.2007913987 -0.6807887202
| 27> H 5.2509739293 -2.9227583758 -0.2699357387
| 28> H 4.7748063741 -1.552205226 1.7488014951
| 29> H 3.3119984685 -2.4496143326 1.2453169494
| 30> H 1.6225314838 2.7553599647 -0.5405517242
| 31> H 0.8066477798 3.0091044109 1.0261867476
| 32> H 3.8015864811 2.5112808217 0.609030107
| 33> H 3.076611698 4.079773156 1.0044944916
| 34> H 3.0253863806 2.7517422686 2.1815322684
| 35> H -0.8564650005 -1.7566806604 -1.7301452162
| 36> H 0.6195113443 -1.0178622897 -2.4481624228
| 37> H -0.323267489 0.1854855862 2.1043965325
| 38> H -1.9770667942 0.7035041121 2.518876677
| 39> H -0.8528115335 -2.124871081 2.8891707525
| 40> H -1.0546517275 -0.9372638172 4.1896733289
| 41> H -2.4742989835 -1.5966630452 3.3614089152
| 42> H -5.1088391722 -0.1184415646 -0.9841278345
| 43> H -4.8094698973 -1.7123437767 -1.7399187037
| 44> H -5.8626294108 -2.0129151112 0.4893662944
| 45> H -4.1892508882 -2.6003302725 0.5474841668
| 46> H -4.6025745788 -1.0215618788 1.2380520927
| 47> *
| 48>
| 49>                          ****END OF INPUT****

CARTESIAN COORDINATES (ANGSTROEM)
---------------------------------
  C      4.677436   -2.006611   -0.367466
  C      4.029668   -1.675216    0.960820
  O      3.339615   -0.410710    0.949356
  P      2.254731    0.040726   -0.116588
  S      2.895644    0.673220   -1.863598
  O      1.476040    1.135739    0.737047
  C      1.664123    2.546396    0.534101
  C      2.979608    3.005684    1.126033
  S      0.877190   -1.559254   -0.123577
  C     -0.051276   -1.041010   -1.590037
  S     -0.736611    0.643579   -1.479577
  P     -2.378324    0.269332   -0.202742
  S     -3.362969    1.854018    0.388802
  O     -1.829980   -0.656421    0.969336
  C     -1.356371   -0.151585    2.229979
  C     -1.442483   -1.280987    3.236496
  O     -3.153268   -0.779602   -1.102012
  C     -4.556067   -1.059401   -0.903700
  C     -4.818459   -1.721663    0.432025
  H      3.915668   -2.144458   -1.133621
  H      5.337032   -1.200791   -0.680789
  H      5.250974   -2.922758   -0.269936
  H      4.774806   -1.552205    1.748801
  H      3.311998   -2.449614    1.245317
  H      1.622531    2.755360   -0.540552
  H      0.806648    3.009104    1.026187
  H      3.801586    2.511281    0.609030
  H      3.076612    4.079773    1.004494
  H      3.025386    2.751742    2.181532
  H     -0.856465   -1.756681   -1.730145
  H      0.619511   -1.017862   -2.448162
  H     -0.323267    0.185486    2.104397
  H     -1.977067    0.703504    2.518877
  H     -0.852812   -2.124871    2.889171
  H     -1.054652   -0.937264    4.189673
  H     -2.474299   -1.596663    3.361409
  H     -5.108839   -0.118442   -0.984128
  H     -4.809470   -1.712344   -1.739919
  H     -5.862629   -2.012915    0.489366
  H     -4.189251   -2.600330    0.547484
  H     -4.602575   -1.021562    1.238052

 Total Charge           Charge          ....    0
 Multiplicity           Mult            ....    1
 Number of Electrons    NEL             ....  202
 Basis Dimension        Dim             ....  539

ORBITAL ENERGIES
----------------

  NO   OCC          E(Eh)            E(eV)
   0   2.0000     -88.579684     -2410.3757
   1   2.0000     -88.572976     -2410.1932
   2   2.0000     -88.522136     -2408.8098
   3   2.0000     -88.520402     -2408.7626
   4   2.0000     -76.917620     -2093.0349
   5   2.0000     -76.912667     -2092.9001
   6   2.0000     -18.996288      -516.9153
   7   2.0000     -18.990887      -516.7683
   8   2.0000     -18.988912      -516.7146
   9   2.0000     -18.987356      -516.6722
  10   2.0000     -10.111418      -275.1457
  11   2.0000     -10.108117      -275.0559
  12   2.0000     -10.100002      -274.8350
  13   2.0000     -10.091432      -274.6018
  14   2.0000     -10.091102      -274.5928
  15   2.0000     -10.031257      -272.9644
  16   2.0000     -10.031074      -272.9594
  17   2.0000     -10.030153      -272.9343
  18   2.0000     -10.024871      -272.7906
  19   2.0000      -7.874333      -214.2715
  20   2.0000      -7.866968      -214.0711
  21   2.0000      -7.816811      -212.7062
  22   2.0000      -7.815040      -212.6581
  23   2.0000      -6.595800      -179.4808
  24   2.0000      -6.591047      -179.3515
  25   2.0000      -5.821143      -158.4014
  26   2.0000      -5.818088      -158.3182
  27   2.0000      -5.814345      -158.2164
  28   2.0000      -5.811553      -158.1404
  29   2.0000      -5.810533      -158.1126
  30   2.0000      -5.803916      -157.9326
  31   2.0000      -5.764527      -156.8608
  32   2.0000      -5.762649      -156.8096
  33   2.0000      -5.757165      -156.6604
  34   2.0000      -5.756709      -156.6480
  35   2.0000      -5.755416      -156.6128
  36   2.0000      -5.755006      -156.6017
  37   2.0000      -4.741340      -129.0184
  38   2.0000      -4.740862      -129.0054
  39   2.0000      -4.739401      -128.9657
  40   2.0000      -4.736351      -128.8827
  41   2.0000      -4.736142      -128.8770
  42   2.0000      -4.734825      -128.8411
  43   2.0000      -1.051369       -28.6092
  44   2.0000      -1.048984       -28.5443
  45   2.0000      -1.011173       -27.5154
  46   2.0000      -1.009614       -27.4730
  47   2.0000      -0.803496       -21.8642
  48   2.0000      -0.760442       -20.6927
  49   2.0000      -0.750130       -20.4121
  50   2.0000      -0.732561       -19.9340
  51   2.0000      -0.730716       -19.8838
  52   2.0000      -0.710540       -19.3348
  53   2.0000      -0.690242       -18.7824
  54   2.0000      -0.670515       -18.2456
  55   2.0000      -0.631272       -17.1778
  56   2.0000      -0.627047       -17.0628
  57   2.0000      -0.608186       -16.5496
  58   2.0000      -0.598509       -16.2863
  59   2.0000      -0.596555       -16.2331
  60   2.0000      -0.528491       -14.3810
  61   2.0000      -0.519030       -14.1235
  62   2.0000      -0.496919       -13.5219
  63   2.0000      -0.490104       -13.3364
  64   2.0000      -0.480976       -13.0880
  65   2.0000      -0.466771       -12.7015
  66   2.0000      -0.456325       -12.4172
  67   2.0000      -0.449869       -12.2416
  68   2.0000      -0.444704       -12.1010
  69   2.0000      -0.437412       -11.9026
  70   2.0000      -0.432223       -11.7614
  71   2.0000      -0.418273       -11.3818
  72   2.0000      -0.408263       -11.1094
  73   2.0000      -0.404311       -11.0019
  74   2.0000      -0.396461       -10.7883
  75   2.0000      -0.393625       -10.7111
  76   2.0000      -0.381297       -10.3756
  77   2.0000      -0.372819       -10.1449
  78   2.0000      -0.371193       -10.1007
  79   2.0000      -0.364151        -9.9091
  80   2.0000      -0.363402        -9.8887
  81   2.0000      -0.360948        -9.8219
  82   2.0000      -0.358641        -9.7591
  83   2.0000      -0.357266        -9.7217
  84   2.0000      -0.346360        -9.4249
  85   2.0000      -0.334853        -9.1118
  86   2.0000      -0.325381        -8.8541
  87   2.0000      -0.315048        -8.5729
  88   2.0000      -0.310433        -8.4473
  89   2.0000      -0.304472        -8.2851
  90   2.0000      -0.300335        -8.1725
  91   2.0000      -0.292664        -7.9638
  92   2.0000      -0.289483        -7.8772
  93   2.0000      -0.280987        -7.6461
  94   2.0000      -0.268797        -7.3143
  95   2.0000      -0.245302        -6.6750
  96   2.0000      -0.230414        -6.2699
  97   2.0000      -0.221042        -6.0149
  98   2.0000      -0.219731        -5.9792
  99   2.0000      -0.217392        -5.9155
 100   2.0000      -0.213991        -5.8230
 101   0.0000      -0.047317        -1.2876
 102   0.0000      -0.016402        -0.4463
 103   0.0000      -0.013447        -0.3659
 104   0.0000       0.001994         0.0543
 105   0.0000       0.005797         0.1578

MULLIKEN ATOMIC CHARGES
-----------------------
   0 C :   -0.423796
   1 C :   -0.155841
   2 O :   -0.277636
   3 P :    0.618735
   4 S :   -0.449402
   5 O :   -0.269266
   6 C :   -0.152083
   7 C :   -0.442314
   8 S :   -0.122011
   9 C :   -0.254119
  10 S :   -0.116250
  11 P :    0.675727
  12 S :   -0.473487
  13 O :   -0.261176
  14 C :   -0.133361
  15 C :   -0.463158
  16 O :   -0.300121
  17 C :   -0.154107
  18 C :   -0.438039
  19 H :    0.168429
  20 H :    0.166055
  21 H :    0.147838
  22 H :    0.151335
  23 H :    0.151729
  24 H :    0.177620
  25 H :    0.159649
  26 H :    0.166101
  27 H :    0.147969
  28 H :    0.151973
  29 H :    0.200078
  30 H :    0.212843
  31 H :    0.174048
  32 H :    0.167824
  33 H :    0.157526
  34 H :    0.147448
  35 H :    0.149765
  36 H :    0.172828
  37 H :    0.148831
  38 H :    0.148091
  39 H :    0.154582
  40 H :    0.169143
Sum of atomic charges:   -0.0000000

LOEWDIN ATOMIC CHARGES
----------------------
   0 C :   -0.406628
   1 C :    0.024223
   2 O :   -0.656515
   3 P :    0.376838
   4 S :   -0.119659
   5 O :   -0.694823
   6 C :    0.011793
   7 C :   -0.397898
   8 S :    0.174499
   9 C :   -0.406974
  10 S :    0.198342
  11 P :    0.368245
  12 S :   -0.116456
  13 O :   -0.688941
  14 C :    0.011286
  15 C :   -0.387389
  16 O :   -0.680312
  17 C :    0.024582
  18 C :   -0.401059
  19 H :    0.165918
  20 H :    0.165861
  21 H :    0.158429
  22 H :    0.182159
  23 H :    0.171385
  24 H :    0.183184
  25 H :    0.182236
  26 H :    0.164706
  27 H :    0.159879
  28 H :    0.158484
  29 H :    0.189654
  30 H :    0.192451
  31 H :    0.188312
  32 H :    0.180865
  33 H :    0.160146
  34 H :    0.159514
  35 H :    0.157454
  36 H :    0.180560
  37 H :    0.179795
  38 H :    0.159683
  39 H :    0.160750
  40 H :    0.165418

  Mayer bond orders larger than 0.100000
B(  0-C ,  1-C ) :   0.9381 B(  0-C , 19-H ) :   0.9538 B(  0-C , 20-H ) :   0.9658
B(  0-C , 21-H ) :   0.9618 B(  1-C ,  2-O ) :   0.8026 B(  1-C , 22-H ) :   0.9578
B(  1-C , 23-H ) :   0.9650 B(  2-O ,  3-P ) :   1.0968 B(  3-P ,  4-S ) :   1.7812
B(  3-P ,  5-O ) :   1.1219 B(  3-P ,  8-S ) :   1.0712 B(  5-O ,  6-C ) :   0.7877
B(  6-C ,  7-C ) :   0.9246 B(  6-C , 24-H ) :   0.9587 B(  6-C , 25-H ) :   0.9596
B(  7-C , 26-H ) :   0.9611 B(  7-C , 27-H ) :   0.9644 B(  7-C , 28-H ) :   0.9733
B(  8-S ,  9-C ) :   0.9164 B(  9-C , 10-S ) :   0.9042 B(  9-C , 29-H ) :   0.9170
B(  9-C , 30-H ) :   0.9165 B( 10-S , 11-P ) :   1.0782 B( 11-P , 12-S ) :   1.7899
B( 11-P , 13-O ) :   1.0636 B( 11-P , 16-O ) :   1.1439 B( 13-O , 14-C ) :   0.7468
B( 14-C , 15-C ) :   0.9345 B( 14-C , 31-H ) :   0.9372 B( 14-C , 32-H ) :   0.9393
B( 15-C , 33-H ) :   0.9783 B( 15-C , 34-H ) :   0.9683 B( 15-C , 35-H ) :   0.9722
B( 16-O , 17-C ) :   0.8089 B( 17-C , 18-C ) :   0.9259 B( 17-C , 36-H ) :   0.9666
B( 17-C , 37-H ) :   0.9618 B( 18-C , 38-H ) :   0.9600 B( 18-C , 39-H ) :   0.9701
B( 18-C , 40-H ) :   0.9597

Dispersion correction           -0.021753564
FINAL SINGLE POINT ENERGY     -2932.460388579202

DIPOLE MOMENT
-------------

Method             : SCF
Type of density    : Electron Density
Multiplicity       :   1
Irrep              :   0
Energy             : -2932.4851254714121751 Eh
Relativity type    :
Basis              : AO
                                X                 Y                 Z
Electronic contribution:     -3.059575348       7.444923554     -14.057571048
Nuclear contribution   :      3.336677261      -8.939609480      15.057810968
                        -----------------------------------------
Total Dipole Moment    :      0.277101913      -1.494685927       1.000239920
                        -----------------------------------------
Magnitude (a.u.)       :      1.819711897
Magnitude (Debye)      :      4.625340059

Rotational constants in cm-1:             0.013096             0.004863             0.004689
Rotational constants in MHz :           392.620900           145.794453           140.571994

                             ****ORCA TERMINATED NORMALLY****
TOTAL RUN TIME: 0 days 0 hours 1 minutes 21 seconds 573 msec
