                         Program Version 6.0.0  -   RELEASE  -
|  1> ! r2scan-3c def2/J RI DEFGRID2 scfconv6 printgap
|  2> %output
|  3>     printlevel normal
|  4> end
|  5> %cpcm
|  6>     smd true
|  7>     smdsolvent "water"
|  8> end
|  9> * xyz 0 1
| 10> C 4.6774355104 -2.0066106416 -0.3674662981
| 11> C 4.0296684056 -1.6752158556 0.9608204919
| 12> O 3.3396151507 -0.4107097553 0.9493558912
| 13> P 2.2547306666 0.0407261602 -0.1165882984
| 14> S 2.8956439289 0.6732197534 -1.8635976276
| 15> O 1.4760398938 1.1357387268 0.7370471451
| 16> C 1.6641234015 2.5463961365 0.5341005908
| 17> C 2.9796076704 3.0056836201 1.1260334675
| 18> S 0.8771895957 -1.5592536367 -0.1235772134
| 19> C -0.0512763585 -1.0410102328 -1.5900368849
| 20> S -0.7366111169 0.6435791813 -1.4795772034
| 21> P -2.3783243443 0.2693315647 -0.2027421813
| 22> S -3.3629691473 1.8540183038 0.3888019375
| 23> O -1.8299802084 -0.6564208989 0.969335968
| 24> C -1.3563712844 -0.1515852498 2.2299794791
| 25> C -1.4424832525 -1.2809867955 3.2364955132
| 26> O -3.1532681165 -0.7796015443 -1.1020115345
| 27> C -4.5560674184 -1.0594005122 -0.9037004281
| 28> C -4.8184592831 -1.7216631016 0.4320248383
| 29> H 3.9156680305 -2.1444584228 -1.1336213242
| 30> H 5.3370318876 -1.2007913987 -0.6807887202
| 31> H 5.2509739293 -2.9227583758 -0.2699357387
| 32> H 4.7748063741 -1.552205226 1.7488014951
| 33> H 3.3119984685 -2.4496143326 1.2453169494
| 34> H 1.6225314838 2.7553599647 -0.5405517242
| 35> H 0.8066477798 3.0091044109 1.0261867476
| 36> H 3.8015864811 2.5112808217 0.609030107
| 37> H 3.076611698 4.079773156 1.0044944916
| 38> H 3.0253863806 2.7517422686 2.1815322684
| 39> H -0.8564650005 -1.7566806604 -1.7301452162
| 40> H 0.6195113443 -1.0178622897 -2.4481624228
| 41> H -0.323267489 0.1854855862 2.1043965325
| 42> H -1.9770667942 0.7035041121 2.518876677
| 43> H -0.8528115335 -2.124871081 2.8891707525
| 44> H -1.0546517275 -0.9372638172 4.1896733289
| 45> H -2.4742989835 -1.5966630452 3.3614089152
| 46> H -5.1088391722 -0.1184415646 -0.9841278345
| 47> H -4.8094698973 -1.7123437767 -1.7399187037
| 48> H -5.8626294108 -2.0129151112 0.4893662944
| 49> H -4.1892508882 -2.6003302725 0.5474841668
| 50> H -4.6025745788 -1.0215618788 1.2380520927
| 51> *
| 52>
| 53>                          ****END OF INPUT****

CARTESIAN COORDINATES (ANGSTROEM)
---------------------------------
  C      4.677436   -2.006611   -0.367466
  C      4.029668   -1.675216    0.960820
  O      3.339615   -0.410710    0.949356
  P      2.254731    0.040726   -0.116588
  S      2.895644    0.673220   -1.863598
  O      1.476040    1.135739    0.737047
  C      1.664123    2.546396    0.534101
  C      2.979608    3.005684    1.126033
  S      0.877190   -1.559254   -0.123577
  C     -0.051276   -1.041010   -1.590037
  S     -0.736611    0.643579   -1.479577
  P     -2.378324    0.269332   -0.202742
  S     -3.362969    1.854018    0.388802
  O     -1.829980   -0.656421    0.969336
  C     -1.356371   -0.151585    2.229979
  C     -1.442483   -1.280987    3.236496
  O     -3.153268   -0.779602   -1.102012
  C     -4.556067   -1.059401   -0.903700
  C     -4.818459   -1.721663    0.432025
  H      3.915668   -2.144458   -1.133621
  H      5.337032   -1.200791   -0.680789
  H      5.250974   -2.922758   -0.269936
  H      4.774806   -1.552205    1.748801
  H      3.311998   -2.449614    1.245317
  H      1.622531    2.755360   -0.540552
  H      0.806648    3.009104    1.026187
  H      3.801586    2.511281    0.609030
  H      3.076612    4.079773    1.004494
  H      3.025386    2.751742    2.181532
  H     -0.856465   -1.756681   -1.730145
  H      0.619511   -1.017862   -2.448162
  H     -0.323267    0.185486    2.104397
  H     -1.977067    0.703504    2.518877
  H     -0.852812   -2.124871    2.889171
  H     -1.054652   -0.937264    4.189673
  H     -2.474299   -1.596663    3.361409
  H     -5.108839   -0.118442   -0.984128
  H     -4.809470   -1.712344   -1.739919
  H     -5.862629   -2.012915    0.489366
  H     -4.189251   -2.600330    0.547484
  H     -4.602575   -1.021562    1.238052

 Total Charge           Charge          ....    0
 Multiplicity           Mult            ....    1
 Number of Electrons    NEL             ....  202
 Basis Dimension        Dim             ....  539

ORBITAL ENERGIES
----------------

  NO   OCC          E(Eh)            E(eV)
   0   2.0000     -88.579544     -2410.3719
   1   2.0000     -88.577821     -2410.3250
   2   2.0000     -88.530088     -2409.0262
   3   2.0000     -88.527133     -2408.9458
   4   2.0000     -76.919927     -2093.0976
   5   2.0000     -76.918860     -2093.0686
   6   2.0000     -18.995509      -516.8941
   7   2.0000     -18.992784      -516.8199
   8   2.0000     -18.991942      -516.7970
   9   2.0000     -18.989179      -516.7218
  10   2.0000     -10.107811      -275.0475
  11   2.0000     -10.093507      -274.6583
  12   2.0000     -10.089935      -274.5611
  13   2.0000     -10.086690      -274.4728
  14   2.0000     -10.085989      -274.4537
  15   2.0000     -10.018881      -272.6276
  16   2.0000     -10.018794      -272.6252
  17   2.0000     -10.018341      -272.6129
  18   2.0000     -10.017564      -272.5918
  19   2.0000      -7.874079      -214.2646
  20   2.0000      -7.871960      -214.2069
  21   2.0000      -7.825090      -212.9315
  22   2.0000      -7.822132      -212.8510
  23   2.0000      -6.598182      -179.5457
  24   2.0000      -6.597281      -179.5211
  25   2.0000      -5.820920      -158.3953
  26   2.0000      -5.819249      -158.3498
  27   2.0000      -5.817855      -158.3119
  28   2.0000      -5.815457      -158.2466
  29   2.0000      -5.811265      -158.1326
  30   2.0000      -5.809057      -158.0725
  31   2.0000      -5.772596      -157.0803
  32   2.0000      -5.769767      -157.0033
  33   2.0000      -5.765444      -156.8857
  34   2.0000      -5.765112      -156.8767
  35   2.0000      -5.762482      -156.8051
  36   2.0000      -5.762055      -156.7935
  37   2.0000      -4.743680      -129.0821
  38   2.0000      -4.743246      -129.0703
  39   2.0000      -4.742525      -129.0507
  40   2.0000      -4.742352      -129.0460
  41   2.0000      -4.741852      -129.0324
  42   2.0000      -4.741180      -129.0141
  43   2.0000      -1.051553       -28.6142
  44   2.0000      -1.050961       -28.5981
  45   2.0000      -1.011373       -27.5209
  46   2.0000      -1.010848       -27.5066
  47   2.0000      -0.803235       -21.8571
  48   2.0000      -0.757300       -20.6072
  49   2.0000      -0.743285       -20.2258
  50   2.0000      -0.723946       -19.6996
  51   2.0000      -0.722761       -19.6673
  52   2.0000      -0.709167       -19.2974
  53   2.0000      -0.693114       -18.8606
  54   2.0000      -0.675517       -18.3818
  55   2.0000      -0.628938       -17.1143
  56   2.0000      -0.622531       -16.9399
  57   2.0000      -0.602026       -16.3820
  58   2.0000      -0.594053       -16.1650
  59   2.0000      -0.591174       -16.0867
  60   2.0000      -0.526043       -14.3144
  61   2.0000      -0.514266       -13.9939
  62   2.0000      -0.493745       -13.4355
  63   2.0000      -0.485497       -13.2110
  64   2.0000      -0.478107       -13.0100
  65   2.0000      -0.461466       -12.5571
  66   2.0000      -0.452011       -12.2998
  67   2.0000      -0.442848       -12.0505
  68   2.0000      -0.441173       -12.0049
  69   2.0000      -0.434483       -11.8229
  70   2.0000      -0.429898       -11.6981
  71   2.0000      -0.413140       -11.2421
  72   2.0000      -0.404103       -10.9962
  73   2.0000      -0.399141       -10.8612
  74   2.0000      -0.394090       -10.7237
  75   2.0000      -0.390901       -10.6370
  76   2.0000      -0.378730       -10.3058
  77   2.0000      -0.369278       -10.0486
  78   2.0000      -0.362136        -9.8542
  79   2.0000      -0.355047        -9.6613
  80   2.0000      -0.354632        -9.6500
  81   2.0000      -0.352368        -9.5884
  82   2.0000      -0.351845        -9.5742
  83   2.0000      -0.349394        -9.5075
  84   2.0000      -0.344050        -9.3621
  85   2.0000      -0.330770        -9.0007
  86   2.0000      -0.320997        -8.7348
  87   2.0000      -0.309282        -8.4160
  88   2.0000      -0.308078        -8.3832
  89   2.0000      -0.302063        -8.2195
  90   2.0000      -0.297161        -8.0862
  91   2.0000      -0.291727        -7.9383
  92   2.0000      -0.288354        -7.8465
  93   2.0000      -0.279751        -7.6124
  94   2.0000      -0.268947        -7.3184
  95   2.0000      -0.247422        -6.7327
  96   2.0000      -0.236343        -6.4312
  97   2.0000      -0.231682        -6.3044
  98   2.0000      -0.227246        -6.1837
  99   2.0000      -0.221703        -6.0328
 100   2.0000      -0.221380        -6.0240
 101   0.0000      -0.048772        -1.3271
 102   0.0000      -0.023102        -0.6286
 103   0.0000      -0.016700        -0.4544
 104   0.0000       0.000483         0.0132
 105   0.0000       0.002748         0.0748

MULLIKEN ATOMIC CHARGES
-----------------------
   0 C :   -0.463722
   1 C :   -0.156812
   2 O :   -0.310614
   3 P :    0.661338
   4 S :   -0.505727
   5 O :   -0.289973
   6 C :   -0.145617
   7 C :   -0.487478
   8 S :   -0.114350
   9 C :   -0.260800
  10 S :   -0.155238
  11 P :    0.696942
  12 S :   -0.528589
  13 O :   -0.276024
  14 C :   -0.117779
  15 C :   -0.501449
  16 O :   -0.322585
  17 C :   -0.144650
  18 C :   -0.477948
  19 H :    0.165992
  20 H :    0.170958
  21 H :    0.173882
  22 H :    0.177408
  23 H :    0.173543
  24 H :    0.176568
  25 H :    0.178036
  26 H :    0.165788
  27 H :    0.170988
  28 H :    0.168669
  29 H :    0.234354
  30 H :    0.234104
  31 H :    0.176816
  32 H :    0.169266
  33 H :    0.167036
  34 H :    0.170077
  35 H :    0.164668
  36 H :    0.175857
  37 H :    0.175524
  38 H :    0.172704
  39 H :    0.169540
  40 H :    0.169295
Sum of atomic charges:   -0.0000000

LOEWDIN ATOMIC CHARGES
----------------------
   0 C :   -0.410099
   1 C :    0.030698
   2 O :   -0.670038
   3 P :    0.382516
   4 S :   -0.155142
   5 O :   -0.703997
   6 C :    0.013309
   7 C :   -0.402059
   8 S :    0.185141
   9 C :   -0.397871
  10 S :    0.175631
  11 P :    0.370962
  12 S :   -0.155811
  13 O :   -0.694067
  14 C :    0.016276
  15 C :   -0.390385
  16 O :   -0.688639
  17 C :    0.029506
  18 C :   -0.403392
  19 H :    0.161886
  20 H :    0.164369
  21 H :    0.168334
  22 H :    0.193274
  23 H :    0.179736
  24 H :    0.182006
  25 H :    0.189099
  26 H :    0.162234
  27 H :    0.168056
  28 H :    0.163179
  29 H :    0.202203
  30 H :    0.199757
  31 H :    0.189196
  32 H :    0.182214
  33 H :    0.162707
  34 H :    0.168213
  35 H :    0.161878
  36 H :    0.181342
  37 H :    0.191182
  38 H :    0.168984
  39 H :    0.164558
  40 H :    0.163054

  Mayer bond orders larger than 0.100000
B(  0-C ,  1-C ) :   0.9191 B(  0-C , 19-H ) :   0.9561 B(  0-C , 20-H ) :   0.9670
B(  0-C , 21-H ) :   0.9557 B(  1-C ,  2-O ) :   0.7931 B(  1-C , 22-H ) :   0.9480
B(  1-C , 23-H ) :   0.9596 B(  2-O ,  3-P ) :   1.1049 B(  3-P ,  4-S ) :   1.7276
B(  3-P ,  5-O ) :   1.1261 B(  3-P ,  8-S ) :   1.0898 B(  5-O ,  6-C ) :   0.7756
B(  6-C ,  7-C ) :   0.9180 B(  6-C , 24-H ) :   0.9562 B(  6-C , 25-H ) :   0.9518
B(  7-C , 26-H ) :   0.9619 B(  7-C , 27-H ) :   0.9587 B(  7-C , 28-H ) :   0.9714
B(  8-S ,  9-C ) :   0.9117 B(  9-C , 10-S ) :   0.8955 B(  9-C , 29-H ) :   0.9060
B(  9-C , 30-H ) :   0.9078 B( 10-S , 11-P ) :   1.0931 B( 11-P , 12-S ) :   1.7571
B( 11-P , 13-O ) :   1.0712 B( 11-P , 16-O ) :   1.1514 B( 13-O , 14-C ) :   0.7420
B( 14-C , 15-C ) :   0.9333 B( 14-C , 31-H ) :   0.9328 B( 14-C , 32-H ) :   0.9371
B( 15-C , 33-H ) :   0.9740 B( 15-C , 34-H ) :   0.9620 B( 15-C , 35-H ) :   0.9691
B( 16-O , 17-C ) :   0.7969 B( 17-C , 18-C ) :   0.9143 B( 17-C , 36-H ) :   0.9628
B( 17-C , 37-H ) :   0.9509 B( 18-C , 38-H ) :   0.9542 B( 18-C , 39-H ) :   0.9691
B( 18-C , 40-H ) :   0.9586

Dispersion correction           -0.021753564
FINAL SINGLE POINT ENERGY     -2932.469027665465

DIPOLE MOMENT
-------------

Method             : SCF
Type of density    : Electron Density
Multiplicity       :   1
Irrep              :   0
Energy             : -2932.4937645576756040 Eh
Relativity type    :
Basis              : AO
                                X                 Y                 Z
Electronic contribution:     -3.053056984       6.746900634     -13.674815384
Nuclear contribution   :      3.336677261      -8.939609480      15.057810968
                        -----------------------------------------
Total Dipole Moment    :      0.283620278      -2.192708847       1.382995585
                        -----------------------------------------
Magnitude (a.u.)       :      2.607889824
Magnitude (Debye)      :      6.628729139

Rotational constants in cm-1:             0.013096             0.004863             0.004689
Rotational constants in MHz :           392.620900           145.794453           140.571994

                             ****ORCA TERMINATED NORMALLY****
TOTAL RUN TIME: 0 days 0 hours 1 minutes 51 seconds 306 msec
