                         Program Version 6.0.0  -   RELEASE  -
|  1> ! pbe def2-sv(p) def2/J RI DEFGRID1 loosescf d4 GCP(DFT/SV(P)) printgap
|  2> %output
|  3>     printlevel normal
|  4> end
|  5> * xyz 0 1
|  6> C 2.6807179009 0.280244468 -3.4697619701
|  7> C 3.044150041 -0.2897990773 -2.1152288172
|  8> O 2.5924124134 0.6480134955 -1.1065316573
|  9> P 2.3323426086 0.2431243847 0.3889645132
| 10> S 1.6666672758 1.7614391183 1.4231920847
| 11> O 3.7784136824 -0.3142152581 0.7771017287
| 12> C 4.0876497886 -1.1316524501 1.9199422256
| 13> C 3.7582319086 -0.4546709753 3.2345194443
| 14> S 1.1422587405 -1.5297879251 0.4143376114
| 15> C -0.1907992287 -0.9806800962 1.5298860352
| 16> S -1.849126094 -1.3859890545 0.9407806118
| 17> P -2.1300395235 0.0164006371 -0.649094984
| 18> S -0.5554340057 0.9083544642 -1.3935584264
| 19> O -3.3143141157 0.9440753015 -0.116779972
| 20> C -3.3100210867 1.6548076385 1.1317388124
| 21> C -2.2889901346 2.7744134634 1.1666173026
| 22> O -2.8433899525 -0.8093982793 -1.7794762477
| 23> C -4.0326345654 -1.6119694822 -1.5619165723
| 24> C -5.2761527667 -0.8499701951 -1.9713154114
| 25> H 1.6051365865 0.4313166184 -3.5268635477
| 26> H 3.1714383716 1.2383072207 -3.6146715626
| 27> H 2.9921997152 -0.4109547025 -4.2460605153
| 28> H 4.1234333865 -0.4088537283 -1.9987836127
| 29> H 2.550160757 -1.25162135 -1.9448928424
| 30> H 3.5453101116 -2.0767233253 1.8215718395
| 31> H 5.160060051 -1.309453288 1.821982874
| 32> H 4.0883105239 -1.0837304843 4.0548500771
| 33> H 4.2543003486 0.5107755518 3.297191465
| 34> H 2.6851532363 -0.2907425021 3.3177716003
| 35> H -0.0822794981 0.0974869725 1.6792247253
| 36> H -0.0917785184 -1.5209640848 2.4684816033
| 37> H -4.3248780774 2.0499289271 1.2065885938
| 38> H -3.1337678151 0.9385822913 1.940397839
| 39> H -2.4009721977 3.3370215397 2.0878848927
| 40> H -1.272562879 2.384327288 1.1221821657
| 41> H -2.4308532171 3.4408809678 0.3193290691
| 42> H -3.8825160466 -2.493735175 -2.1871569359
| 43> H -4.073919925 -1.9091070158 -0.5105938443
| 44> H -5.3988326486 0.0345314161 -1.352388493
| 45> H -5.1965978628 -0.5399166388 -3.0096310989
| 46> H -6.1418266845 -1.4943121312 -1.8540296
| 47> *
| 48>
| 49>                          ****END OF INPUT****

CARTESIAN COORDINATES (ANGSTROEM)
---------------------------------
  C      2.680718    0.280244   -3.469762
  C      3.044150   -0.289799   -2.115229
  O      2.592412    0.648013   -1.106532
  P      2.332343    0.243124    0.388965
  S      1.666667    1.761439    1.423192
  O      3.778414   -0.314215    0.777102
  C      4.087650   -1.131652    1.919942
  C      3.758232   -0.454671    3.234519
  S      1.142259   -1.529788    0.414338
  C     -0.190799   -0.980680    1.529886
  S     -1.849126   -1.385989    0.940781
  P     -2.130040    0.016401   -0.649095
  S     -0.555434    0.908354   -1.393558
  O     -3.314314    0.944075   -0.116780
  C     -3.310021    1.654808    1.131739
  C     -2.288990    2.774413    1.166617
  O     -2.843390   -0.809398   -1.779476
  C     -4.032635   -1.611969   -1.561917
  C     -5.276153   -0.849970   -1.971315
  H      1.605137    0.431317   -3.526864
  H      3.171438    1.238307   -3.614672
  H      2.992200   -0.410955   -4.246061
  H      4.123433   -0.408854   -1.998784
  H      2.550161   -1.251621   -1.944893
  H      3.545310   -2.076723    1.821572
  H      5.160060   -1.309453    1.821983
  H      4.088311   -1.083730    4.054850
  H      4.254300    0.510776    3.297191
  H      2.685153   -0.290743    3.317772
  H     -0.082279    0.097487    1.679225
  H     -0.091779   -1.520964    2.468482
  H     -4.324878    2.049929    1.206589
  H     -3.133768    0.938582    1.940398
  H     -2.400972    3.337022    2.087885
  H     -1.272563    2.384327    1.122182
  H     -2.430853    3.440881    0.319329
  H     -3.882516   -2.493735   -2.187157
  H     -4.073920   -1.909107   -0.510594
  H     -5.398833    0.034531   -1.352388
  H     -5.196598   -0.539917   -3.009631
  H     -6.141827   -1.494312   -1.854030

 Total Charge           Charge          ....    0
 Multiplicity           Mult            ....    1
 Number of Electrons    NEL             ....  202
 Basis Dimension        Dim             ....  334

ORBITAL ENERGIES
----------------

  NO   OCC          E(Eh)            E(eV)
   0   2.0000     -88.045497     -2395.8398
   1   2.0000     -88.040451     -2395.7025
   2   2.0000     -87.981353     -2394.0943
   3   2.0000     -87.978126     -2394.0065
   4   2.0000     -76.422536     -2079.5629
   5   2.0000     -76.421994     -2079.5482
   6   2.0000     -18.788414      -511.2587
   7   2.0000     -18.788332      -511.2565
   8   2.0000     -18.785390      -511.1764
   9   2.0000     -18.785317      -511.1745
  10   2.0000      -9.958469      -270.9837
  11   2.0000      -9.956655      -270.9344
  12   2.0000      -9.952027      -270.8084
  13   2.0000      -9.951649      -270.7981
  14   2.0000      -9.950404      -270.7643
  15   2.0000      -9.887170      -269.0436
  16   2.0000      -9.881471      -268.8885
  17   2.0000      -9.878563      -268.8094
  18   2.0000      -9.874139      -268.6890
  19   2.0000      -7.690236      -209.2620
  20   2.0000      -7.685028      -209.1202
  21   2.0000      -7.626532      -207.5285
  22   2.0000      -7.622848      -207.4282
  23   2.0000      -6.419465      -174.6825
  24   2.0000      -6.419349      -174.6794
  25   2.0000      -5.718110      -155.5977
  26   2.0000      -5.714510      -155.4997
  27   2.0000      -5.712816      -155.4536
  28   2.0000      -5.709606      -155.3663
  29   2.0000      -5.707510      -155.3093
  30   2.0000      -5.702111      -155.1623
  31   2.0000      -5.655501      -153.8940
  32   2.0000      -5.652032      -153.7996
  33   2.0000      -5.647302      -153.6709
  34   2.0000      -5.646394      -153.6462
  35   2.0000      -5.643497      -153.5674
  36   2.0000      -5.642744      -153.5469
  37   2.0000      -4.642111      -126.3183
  38   2.0000      -4.642081      -126.3175
  39   2.0000      -4.641450      -126.3003
  40   2.0000      -4.641416      -126.2994
  41   2.0000      -4.639766      -126.2544
  42   2.0000      -4.639393      -126.2443
  43   2.0000      -0.985193       -26.8085
  44   2.0000      -0.982308       -26.7300
  45   2.0000      -0.942029       -25.6339
  46   2.0000      -0.937191       -25.5023
  47   2.0000      -0.759801       -20.6752
  48   2.0000      -0.718550       -19.5527
  49   2.0000      -0.710761       -19.3408
  50   2.0000      -0.686844       -18.6900
  51   2.0000      -0.684869       -18.6362
  52   2.0000      -0.675119       -18.3709
  53   2.0000      -0.647855       -17.6290
  54   2.0000      -0.634780       -17.2732
  55   2.0000      -0.586391       -15.9565
  56   2.0000      -0.582275       -15.8445
  57   2.0000      -0.574620       -15.6362
  58   2.0000      -0.569228       -15.4895
  59   2.0000      -0.565386       -15.3849
  60   2.0000      -0.506867       -13.7926
  61   2.0000      -0.498492       -13.5647
  62   2.0000      -0.474512       -12.9121
  63   2.0000      -0.470043       -12.7905
  64   2.0000      -0.452186       -12.3046
  65   2.0000      -0.449505       -12.2316
  66   2.0000      -0.440638       -11.9904
  67   2.0000      -0.428801       -11.6683
  68   2.0000      -0.426888       -11.6162
  69   2.0000      -0.412412       -11.2223
  70   2.0000      -0.409394       -11.1402
  71   2.0000      -0.402917       -10.9639
  72   2.0000      -0.399875       -10.8812
  73   2.0000      -0.385022       -10.4770
  74   2.0000      -0.382616       -10.4115
  75   2.0000      -0.357307        -9.7228
  76   2.0000      -0.355930        -9.6853
  77   2.0000      -0.352780        -9.5996
  78   2.0000      -0.348778        -9.4907
  79   2.0000      -0.347049        -9.4437
  80   2.0000      -0.346211        -9.4209
  81   2.0000      -0.340056        -9.2534
  82   2.0000      -0.336228        -9.1492
  83   2.0000      -0.333366        -9.0714
  84   2.0000      -0.329973        -8.9790
  85   2.0000      -0.319598        -8.6967
  86   2.0000      -0.314745        -8.5646
  87   2.0000      -0.292981        -7.9724
  88   2.0000      -0.292471        -7.9585
  89   2.0000      -0.287843        -7.8326
  90   2.0000      -0.286411        -7.7936
  91   2.0000      -0.276353        -7.5199
  92   2.0000      -0.269270        -7.3272
  93   2.0000      -0.260646        -7.0925
  94   2.0000      -0.254624        -6.9287
  95   2.0000      -0.236786        -6.4433
  96   2.0000      -0.221715        -6.0332
  97   2.0000      -0.208975        -5.6865
  98   2.0000      -0.199718        -5.4346
  99   2.0000      -0.186301        -5.0695
 100   2.0000      -0.183511        -4.9936
 101   0.0000      -0.043019        -1.1706
 102   0.0000      -0.032149        -0.8748
 103   0.0000      -0.017565        -0.4780
 104   0.0000       0.005341         0.1453
 105   0.0000       0.019846         0.5400

MULLIKEN ATOMIC CHARGES
-----------------------
   0 C :   -0.286330
   1 C :   -0.013999
   2 O :   -0.351269
   3 P :    0.613582
   4 S :   -0.291867
   5 O :   -0.382664
   6 C :   -0.004032
   7 C :   -0.306505
   8 S :   -0.112749
   9 C :   -0.328548
  10 S :   -0.138456
  11 P :    0.591137
  12 S :   -0.283514
  13 O :   -0.376352
  14 C :   -0.010200
  15 C :   -0.328414
  16 O :   -0.350902
  17 C :   -0.020304
  18 C :   -0.287325
  19 H :    0.136620
  20 H :    0.118731
  21 H :    0.106285
  22 H :    0.106136
  23 H :    0.106206
  24 H :    0.103430
  25 H :    0.104397
  26 H :    0.107526
  27 H :    0.124890
  28 H :    0.117709
  29 H :    0.195224
  30 H :    0.177435
  31 H :    0.102588
  32 H :    0.101386
  33 H :    0.106818
  34 H :    0.158049
  35 H :    0.120277
  36 H :    0.113131
  37 H :    0.107128
  38 H :    0.123675
  39 H :    0.122222
  40 H :    0.108849
Sum of atomic charges:    0.0000000

LOEWDIN ATOMIC CHARGES
----------------------
   0 C :   -0.352494
   1 C :   -0.112894
   2 O :   -0.226993
   3 P :    0.573545
   4 S :   -0.285384
   5 O :   -0.251794
   6 C :   -0.119731
   7 C :   -0.367964
   8 S :    0.065307
   9 C :   -0.480970
  10 S :    0.060620
  11 P :    0.555798
  12 S :   -0.283278
  13 O :   -0.246822
  14 C :   -0.120451
  15 C :   -0.371007
  16 O :   -0.234293
  17 C :   -0.113215
  18 C :   -0.358788
  19 H :    0.131256
  20 H :    0.128793
  21 H :    0.128303
  22 H :    0.113683
  23 H :    0.105389
  24 H :    0.102233
  25 H :    0.118754
  26 H :    0.127856
  27 H :    0.130347
  28 H :    0.117471
  29 H :    0.119738
  30 H :    0.134027
  31 H :    0.117548
  32 H :    0.101063
  33 H :    0.128588
  34 H :    0.122587
  35 H :    0.129879
  36 H :    0.122724
  37 H :    0.103760
  38 H :    0.127557
  39 H :    0.130370
  40 H :    0.128882

  Mayer bond orders larger than 0.100000
B(  0-C ,  1-C ) :   1.1650 B(  0-C , 19-H ) :   0.9412 B(  0-C , 20-H ) :   0.9497
B(  0-C , 21-H ) :   0.9405 B(  1-C ,  2-O ) :   0.8877 B(  1-C , 22-H ) :   0.9302
B(  1-C , 23-H ) :   0.9154 B(  2-O ,  3-P ) :   1.1443 B(  3-P ,  4-S ) :   1.6253
B(  3-P ,  5-O ) :   1.0730 B(  3-P ,  8-S ) :   0.9417 B(  4-S ,  8-S ) :   0.1181
B(  4-S , 29-H ) :   0.1234 B(  5-O ,  6-C ) :   0.9235 B(  6-C ,  7-C ) :   1.1642
B(  6-C , 24-H ) :   0.9181 B(  6-C , 25-H ) :   0.9335 B(  7-C , 26-H ) :   0.9362
B(  7-C , 27-H ) :   0.9448 B(  7-C , 28-H ) :   0.9345 B(  8-S ,  9-C ) :   0.9954
B(  9-C , 10-S ) :   1.0004 B(  9-C , 29-H ) :   0.8454 B(  9-C , 30-H ) :   0.9073
B( 10-S , 11-P ) :   0.9315 B( 10-S , 12-S ) :   0.1161 B( 11-P , 12-S ) :   1.6859
B( 11-P , 13-O ) :   1.0687 B( 11-P , 16-O ) :   1.1422 B( 13-O , 14-C ) :   0.9209
B( 14-C , 15-C ) :   1.1610 B( 14-C , 31-H ) :   0.9335 B( 14-C , 32-H ) :   0.9159
B( 15-C , 33-H ) :   0.9364 B( 15-C , 34-H ) :   0.9212 B( 15-C , 35-H ) :   0.9438
B( 16-O , 17-C ) :   0.8943 B( 17-C , 18-C ) :   1.1648 B( 17-C , 36-H ) :   0.9359
B( 17-C , 37-H ) :   0.9157 B( 18-C , 38-H ) :   0.9415 B( 18-C , 39-H ) :   0.9465
B( 18-C , 40-H ) :   0.9396

Dispersion correction           -0.065205674
FINAL SINGLE POINT ENERGY     -2929.512159409896

DIPOLE MOMENT
-------------

Method             : SCF
Type of density    : Electron Density
Multiplicity       :   1
Irrep              :   0
Energy             : -2929.6309235771759631 Eh
Relativity type    :
Basis              : AO
                                X                 Y                 Z
Electronic contribution:      3.659551535      -0.829909212      -0.486900816
Nuclear contribution   :     -4.181493618      -0.524568903       0.996590531
                        -----------------------------------------
Total Dipole Moment    :     -0.521942083      -1.354478114       0.509689715
                        -----------------------------------------
Magnitude (a.u.)       :      1.538446654
Magnitude (Debye)      :      3.910420628

Rotational constants in cm-1:             0.012390             0.004915             0.004562
Rotational constants in MHz :           371.428903           147.346203           136.768478

                             ****ORCA TERMINATED NORMALLY****
TOTAL RUN TIME: 0 days 0 hours 0 minutes 20 seconds 632 msec
