                         Program Version 6.0.0  -   RELEASE  -
|  1> ! pbe def2-sv(p) def2/J RI DEFGRID1 loosescf d4 GCP(DFT/SV(P)) printgap
|  2> %output
|  3>     printlevel normal
|  4> end
|  5> * xyz 0 1
|  6> C 4.4955647849 -2.3692337041 0.0078389111
|  7> C 4.746673258 -0.8778172626 0.0950688493
|  8> O 3.5848822279 -0.1609312249 0.5503516199
|  9> P 2.2641986622 -0.0342287485 -0.330153741
| 10> S 2.6086127434 0.2329040883 -2.2470329967
| 11> O 1.5192419205 1.1472348255 0.4246335314
| 12> C 1.7853688194 2.5333025568 0.1232733811
| 13> C 0.6523026261 3.3635937425 0.6897084145
| 14> S 1.0709531824 -1.6521895584 0.2615712698
| 15> C -0.1393413513 -1.5768974835 -1.0966835081
| 16> S -0.8391564508 0.0689466146 -1.4061896229
| 17> P -2.1285932474 0.2443412108 0.2594530789
| 18> S -3.2258958141 1.8633163183 0.3464834906
| 19> O -1.079559596 0.0444285229 1.4272124273
| 20> C -1.3460859886 0.4605934354 2.7800225352
| 21> C -2.3834779117 -0.4196620741 3.4444813631
| 22> O -2.9397015397 -1.130634574 0.3109171288
| 23> C -4.2243942331 -1.2759236318 -0.3148768517
| 24> C -4.1224571973 -1.2933849 -1.8271715749
| 25> H 3.7733623859 -2.5778208604 -0.780300666
| 26> H 5.4263940371 -2.8768664797 -0.2237149037
| 27> H 4.103311834 -2.7425439534 0.9504252545
| 28> H 5.0358400349 -0.4781262391 -0.8821563461
| 29> H 5.509584572 -0.637672626 0.8367301752
| 30> H 2.7427479868 2.8026377008 0.5768060397
| 31> H 1.859068825 2.6444006677 -0.9644285713
| 32> H -0.2958658741 3.0631101524 0.2472452848
| 33> H 0.5929331679 3.2300419726 1.7662736897
| 34> H 0.8288154738 4.4103157427 0.4649049418
| 35> H -0.9301188189 -2.2760671625 -0.836182827
| 36> H 0.3496498282 -1.8548377465 -2.0289143465
| 37> H -0.3740008024 0.3852137591 3.2699509995
| 38> H -1.6761408897 1.5045233898 2.7622485928
| 39> H -2.0939353629 -1.4642755637 3.3656600783
| 40> H -2.4699081619 -0.1452641198 4.491197214
| 41> H -3.3498136783 -0.2818087082 2.961631073
| 42> H -4.6051645444 -2.2204937155 0.0760266993
| 43> H -4.8644272201 -0.4506351567 0.0132896416
| 44> H -3.74214945 -0.3364936406 -2.1844294416
| 45> H -3.4532202371 -2.0827620687 -2.1594972867
| 46> H -5.1079236998 -1.4586963843 -2.2507115736
| 47> *
| 48>
| 49>                          ****END OF INPUT****

CARTESIAN COORDINATES (ANGSTROEM)
---------------------------------
  C      4.495565   -2.369234    0.007839
  C      4.746673   -0.877817    0.095069
  O      3.584882   -0.160931    0.550352
  P      2.264199   -0.034229   -0.330154
  S      2.608613    0.232904   -2.247033
  O      1.519242    1.147235    0.424634
  C      1.785369    2.533303    0.123273
  C      0.652303    3.363594    0.689708
  S      1.070953   -1.652190    0.261571
  C     -0.139341   -1.576897   -1.096684
  S     -0.839156    0.068947   -1.406190
  P     -2.128593    0.244341    0.259453
  S     -3.225896    1.863316    0.346483
  O     -1.079560    0.044429    1.427212
  C     -1.346086    0.460593    2.780023
  C     -2.383478   -0.419662    3.444481
  O     -2.939702   -1.130635    0.310917
  C     -4.224394   -1.275924   -0.314877
  C     -4.122457   -1.293385   -1.827172
  H      3.773362   -2.577821   -0.780301
  H      5.426394   -2.876866   -0.223715
  H      4.103312   -2.742544    0.950425
  H      5.035840   -0.478126   -0.882156
  H      5.509585   -0.637673    0.836730
  H      2.742748    2.802638    0.576806
  H      1.859069    2.644401   -0.964429
  H     -0.295866    3.063110    0.247245
  H      0.592933    3.230042    1.766274
  H      0.828815    4.410316    0.464905
  H     -0.930119   -2.276067   -0.836183
  H      0.349650   -1.854838   -2.028914
  H     -0.374001    0.385214    3.269951
  H     -1.676141    1.504523    2.762249
  H     -2.093935   -1.464276    3.365660
  H     -2.469908   -0.145264    4.491197
  H     -3.349814   -0.281809    2.961631
  H     -4.605165   -2.220494    0.076027
  H     -4.864427   -0.450635    0.013290
  H     -3.742149   -0.336494   -2.184429
  H     -3.453220   -2.082762   -2.159497
  H     -5.107924   -1.458696   -2.250712

 Total Charge           Charge          ....    0
 Multiplicity           Mult            ....    1
 Number of Electrons    NEL             ....  202
 Basis Dimension        Dim             ....  334

ORBITAL ENERGIES
----------------

  NO   OCC          E(Eh)            E(eV)
   0   2.0000     -88.043782     -2395.7931
   1   2.0000     -88.041502     -2395.7311
   2   2.0000     -87.991858     -2394.3802
   3   2.0000     -87.985322     -2394.2023
   4   2.0000     -76.426938     -2079.6827
   5   2.0000     -76.424035     -2079.6037
   6   2.0000     -18.796903      -511.4897
   7   2.0000     -18.791508      -511.3429
   8   2.0000     -18.787567      -511.2357
   9   2.0000     -18.782556      -511.0993
  10   2.0000      -9.960863      -271.0489
  11   2.0000      -9.955366      -270.8993
  12   2.0000      -9.950716      -270.7727
  13   2.0000      -9.950368      -270.7633
  14   2.0000      -9.943179      -270.5677
  15   2.0000      -9.887319      -269.0476
  16   2.0000      -9.884327      -268.9662
  17   2.0000      -9.883750      -268.9505
  18   2.0000      -9.875616      -268.7292
  19   2.0000      -7.688456      -209.2135
  20   2.0000      -7.687003      -209.1740
  21   2.0000      -7.636836      -207.8089
  22   2.0000      -7.630298      -207.6310
  23   2.0000      -6.424685      -174.8246
  24   2.0000      -6.421456      -174.7367
  25   2.0000      -5.716771      -155.5613
  26   2.0000      -5.714977      -155.5124
  27   2.0000      -5.712779      -155.4526
  28   2.0000      -5.711624      -155.4212
  29   2.0000      -5.705184      -155.2459
  30   2.0000      -5.703626      -155.2036
  31   2.0000      -5.665660      -154.1704
  32   2.0000      -5.659093      -153.9917
  33   2.0000      -5.657465      -153.9475
  34   2.0000      -5.657104      -153.9376
  35   2.0000      -5.650947      -153.7701
  36   2.0000      -5.650605      -153.7608
  37   2.0000      -4.647004      -126.4514
  38   2.0000      -4.646679      -126.4426
  39   2.0000      -4.645157      -126.4011
  40   2.0000      -4.643873      -126.3662
  41   2.0000      -4.643181      -126.3474
  42   2.0000      -4.642129      -126.3187
  43   2.0000      -0.988056       -26.8864
  44   2.0000      -0.982047       -26.7229
  45   2.0000      -0.947115       -25.7723
  46   2.0000      -0.939710       -25.5708
  47   2.0000      -0.765549       -20.8316
  48   2.0000      -0.721342       -19.6287
  49   2.0000      -0.706621       -19.2281
  50   2.0000      -0.688711       -18.7408
  51   2.0000      -0.683322       -18.5941
  52   2.0000      -0.673691       -18.3321
  53   2.0000      -0.654363       -17.8061
  54   2.0000      -0.638294       -17.3689
  55   2.0000      -0.601790       -16.3755
  56   2.0000      -0.593155       -16.1406
  57   2.0000      -0.574379       -15.6296
  58   2.0000      -0.569040       -15.4844
  59   2.0000      -0.556116       -15.1327
  60   2.0000      -0.499809       -13.6005
  61   2.0000      -0.494782       -13.4637
  62   2.0000      -0.475370       -12.9355
  63   2.0000      -0.469869       -12.7858
  64   2.0000      -0.460013       -12.5176
  65   2.0000      -0.443277       -12.0622
  66   2.0000      -0.438988       -11.9455
  67   2.0000      -0.432185       -11.7604
  68   2.0000      -0.424035       -11.5386
  69   2.0000      -0.420301       -11.4370
  70   2.0000      -0.410870       -11.1804
  71   2.0000      -0.397643       -10.8204
  72   2.0000      -0.393647       -10.7117
  73   2.0000      -0.388716       -10.5775
  74   2.0000      -0.381589       -10.3836
  75   2.0000      -0.374399       -10.1879
  76   2.0000      -0.368300       -10.0220
  77   2.0000      -0.356810        -9.7093
  78   2.0000      -0.352597        -9.5946
  79   2.0000      -0.349850        -9.5199
  80   2.0000      -0.346774        -9.4362
  81   2.0000      -0.345813        -9.4100
  82   2.0000      -0.340861        -9.2753
  83   2.0000      -0.333853        -9.0846
  84   2.0000      -0.328476        -8.9383
  85   2.0000      -0.322233        -8.7684
  86   2.0000      -0.312135        -8.4936
  87   2.0000      -0.296989        -8.0815
  88   2.0000      -0.294016        -8.0006
  89   2.0000      -0.291223        -7.9246
  90   2.0000      -0.281050        -7.6478
  91   2.0000      -0.273852        -7.4519
  92   2.0000      -0.266397        -7.2490
  93   2.0000      -0.264172        -7.1885
  94   2.0000      -0.260611        -7.0916
  95   2.0000      -0.228907        -6.2289
  96   2.0000      -0.217990        -5.9318
  97   2.0000      -0.212503        -5.7825
  98   2.0000      -0.209414        -5.6984
  99   2.0000      -0.200567        -5.4577
 100   2.0000      -0.199145        -5.4190
 101   0.0000      -0.043644        -1.1876
 102   0.0000      -0.023514        -0.6398
 103   0.0000      -0.009105        -0.2477
 104   0.0000       0.000654         0.0178
 105   0.0000       0.008664         0.2357

MULLIKEN ATOMIC CHARGES
-----------------------
   0 C :   -0.315770
   1 C :   -0.003231
   2 O :   -0.375710
   3 P :    0.612819
   4 S :   -0.340922
   5 O :   -0.360169
   6 C :   -0.010144
   7 C :   -0.290743
   8 S :   -0.070054
   9 C :   -0.352442
  10 S :   -0.056623
  11 P :    0.613912
  12 S :   -0.320396
  13 O :   -0.357726
  14 C :   -0.006510
  15 C :   -0.303400
  16 O :   -0.381549
  17 C :   -0.009624
  18 C :   -0.312288
  19 H :    0.124789
  20 H :    0.112718
  21 H :    0.116529
  22 H :    0.111556
  23 H :    0.104201
  24 H :    0.096945
  25 H :    0.108674
  26 H :    0.128022
  27 H :    0.110798
  28 H :    0.106608
  29 H :    0.182456
  30 H :    0.193234
  31 H :    0.107231
  32 H :    0.113370
  33 H :    0.116460
  34 H :    0.111285
  35 H :    0.119448
  36 H :    0.105120
  37 H :    0.112569
  38 H :    0.130698
  39 H :    0.113450
  40 H :    0.114407
Sum of atomic charges:    0.0000000

LOEWDIN ATOMIC CHARGES
----------------------
   0 C :   -0.369638
   1 C :   -0.120093
   2 O :   -0.248500
   3 P :    0.568930
   4 S :   -0.331563
   5 O :   -0.241115
   6 C :   -0.117745
   7 C :   -0.355108
   8 S :    0.099197
   9 C :   -0.474847
  10 S :    0.113149
  11 P :    0.568121
  12 S :   -0.316039
  13 O :   -0.233614
  14 C :   -0.115815
  15 C :   -0.363765
  16 O :   -0.249332
  17 C :   -0.122476
  18 C :   -0.366790
  19 H :    0.120257
  20 H :    0.130800
  21 H :    0.123704
  22 H :    0.110337
  23 H :    0.118113
  24 H :    0.109237
  25 H :    0.108769
  26 H :    0.122421
  27 H :    0.122524
  28 H :    0.129011
  29 H :    0.131341
  30 H :    0.136677
  31 H :    0.119572
  32 H :    0.110403
  33 H :    0.126416
  34 H :    0.129985
  35 H :    0.121808
  36 H :    0.117989
  37 H :    0.110095
  38 H :    0.123208
  39 H :    0.122492
  40 H :    0.131886

  Mayer bond orders larger than 0.100000
B(  0-C ,  1-C ) :   1.1645 B(  0-C , 19-H ) :   0.9351 B(  0-C , 20-H ) :   0.9380
B(  0-C , 21-H ) :   0.9451 B(  1-C ,  2-O ) :   0.9105 B(  1-C , 22-H ) :   0.9149
B(  1-C , 23-H ) :   0.9339 B(  2-O ,  3-P ) :   1.1082 B(  3-P ,  4-S ) :   1.5936
B(  3-P ,  5-O ) :   1.1287 B(  3-P ,  8-S ) :   0.9814 B(  4-S ,  8-S ) :   0.1126
B(  5-O ,  6-C ) :   0.8993 B(  6-C ,  7-C ) :   1.1608 B(  6-C , 24-H ) :   0.9306
B(  6-C , 25-H ) :   0.9122 B(  7-C , 26-H ) :   0.9345 B(  7-C , 27-H ) :   0.9487
B(  7-C , 28-H ) :   0.9401 B(  8-S ,  9-C ) :   0.9915 B(  9-C , 10-S ) :   0.9996
B(  9-C , 29-H ) :   0.8953 B(  9-C , 30-H ) :   0.8965 B( 10-S , 11-P ) :   0.9655
B( 11-P , 12-S ) :   1.6146 B( 11-P , 13-O ) :   1.1312 B( 11-P , 16-O ) :   1.0640
B( 13-O , 14-C ) :   0.9066 B( 14-C , 15-C ) :   1.1617 B( 14-C , 31-H ) :   0.9327
B( 14-C , 32-H ) :   0.9160 B( 15-C , 33-H ) :   0.9463 B( 15-C , 34-H ) :   0.9391
B( 15-C , 35-H ) :   0.9389 B( 16-O , 17-C ) :   0.9094 B( 17-C , 18-C ) :   1.1635
B( 17-C , 36-H ) :   0.9340 B( 17-C , 37-H ) :   0.9137 B( 18-C , 38-H ) :   0.9347
B( 18-C , 39-H ) :   0.9466 B( 18-C , 40-H ) :   0.9384

Dispersion correction           -0.067136458
FINAL SINGLE POINT ENERGY     -2929.523123193554

DIPOLE MOMENT
-------------

Method             : SCF
Type of density    : Electron Density
Multiplicity       :   1
Irrep              :   0
Energy             : -2929.6412941653811686 Eh
Relativity type    :
Basis              : AO
                                X                 Y                 Z
Electronic contribution:      2.708134992       2.811164791      -8.210472131
Nuclear contribution   :     -2.665430259      -3.810511328       9.077916031
                        -----------------------------------------
Total Dipole Moment    :      0.042704732      -0.999346536       0.867443900
                        -----------------------------------------
Magnitude (a.u.)       :      1.324000043
Magnitude (Debye)      :      3.365340660

Rotational constants in cm-1:             0.012643             0.005186             0.004931
Rotational constants in MHz :           379.039533           155.474619           147.814331

                             ****ORCA TERMINATED NORMALLY****
TOTAL RUN TIME: 0 days 0 hours 0 minutes 21 seconds 334 msec
