                         Program Version 6.0.0  -   RELEASE  -
|  1> ! pbe def2-sv(p) def2/J RI DEFGRID1 loosescf d4 GCP(DFT/SV(P)) printgap
|  2> %output
|  3>     printlevel normal
|  4> end
|  5> * xyz 0 1
|  6> C 3.1634530664 -2.7439269566 -1.5716067233
|  7> C 4.3282721824 -1.8582197137 -1.185248037
|  8> O 3.9428233042 -0.4704865108 -1.0263952683
|  9> P 2.8825933477 0.071485607 0.0067791622
| 10> S 3.1759607352 1.9622421371 0.4256647253
| 11> O 3.0721208045 -0.9324911778 1.2270696596
| 12> C 2.6260810461 -0.636073046 2.56152198
| 13> C 1.1340087285 -0.8467394153 2.7205032306
| 14> S 0.9794213659 -0.3728928869 -0.8771094087
| 15> C 0.1936742217 1.2545795973 -0.8008598725
| 16> S -1.0310068865 1.4028551712 0.5193068787
| 17> P -2.7025033542 0.5066725306 -0.4750076408
| 18> S -2.5717430091 0.5095042725 -2.4296711526
| 19> O -3.9694864294 1.2846228889 0.0325923284
| 20> C -4.6061357815 1.1158174814 1.3256838801
| 21> C -3.6763026075 1.4306923847 2.4769941914
| 22> O -2.8959763899 -0.9243612507 0.1932627076
| 23> C -2.0575633815 -2.0487125592 -0.1342780347
| 24> C -2.8134346598 -3.3123868822 0.2234831337
| 25> H 2.4240632034 -2.7614334991 -0.7729384563
| 26> H 2.6877216886 -2.3766484433 -2.4774297025
| 27> H 3.5261053838 -3.7528615458 -1.7417683499
| 28> H 5.0828479632 -1.8170029967 -1.9721088975
| 29> H 4.7816551084 -2.1937102191 -0.2506747115
| 30> H 3.1955050066 -1.3261897089 3.1863539345
| 31> H 2.9020123274 0.3955930319 2.802155084
| 32> H 0.8575266714 -1.8408460122 2.378447294
| 33> H 0.8698239612 -0.7415340886 3.7677908619
| 34> H 0.5842461987 -0.1016196307 2.147887288
| 35> H -0.3039500397 1.4201404314 -1.7571686126
| 36> H 0.9613551685 2.0074540298 -0.609529425
| 37> H -5.442783388 1.8144984513 1.2796188007
| 38> H -4.9774562165 0.091723815 1.3890052544
| 39> H -3.2555497049 2.4270236358 2.3658815985
| 40> H -4.2337511058 1.3797858917 3.4071398144
| 41> H -2.8612267669 0.7106985155 2.5123287249
| 42> H -1.8155579609 -2.0116203402 -1.2017096648
| 43> H -1.1309987377 -1.9605699202 0.438858433
| 44> H -3.7312489961 -3.3745203541 -0.3545870835
| 45> H -2.1916736621 -4.1725010358 -0.0013017621
| 46> H -3.0610304698 -3.3119974943 1.2808680023
| 47> *
| 48>
| 49>                          ****END OF INPUT****

CARTESIAN COORDINATES (ANGSTROEM)
---------------------------------
  C      3.163453   -2.743927   -1.571607
  C      4.328272   -1.858220   -1.185248
  O      3.942823   -0.470487   -1.026395
  P      2.882593    0.071486    0.006779
  S      3.175961    1.962242    0.425665
  O      3.072121   -0.932491    1.227070
  C      2.626081   -0.636073    2.561522
  C      1.134009   -0.846739    2.720503
  S      0.979421   -0.372893   -0.877109
  C      0.193674    1.254580   -0.800860
  S     -1.031007    1.402855    0.519307
  P     -2.702503    0.506673   -0.475008
  S     -2.571743    0.509504   -2.429671
  O     -3.969486    1.284623    0.032592
  C     -4.606136    1.115817    1.325684
  C     -3.676303    1.430692    2.476994
  O     -2.895976   -0.924361    0.193263
  C     -2.057563   -2.048713   -0.134278
  C     -2.813435   -3.312387    0.223483
  H      2.424063   -2.761433   -0.772938
  H      2.687722   -2.376648   -2.477430
  H      3.526105   -3.752862   -1.741768
  H      5.082848   -1.817003   -1.972109
  H      4.781655   -2.193710   -0.250675
  H      3.195505   -1.326190    3.186354
  H      2.902012    0.395593    2.802155
  H      0.857527   -1.840846    2.378447
  H      0.869824   -0.741534    3.767791
  H      0.584246   -0.101620    2.147887
  H     -0.303950    1.420140   -1.757169
  H      0.961355    2.007454   -0.609529
  H     -5.442783    1.814498    1.279619
  H     -4.977456    0.091724    1.389005
  H     -3.255550    2.427024    2.365882
  H     -4.233751    1.379786    3.407140
  H     -2.861227    0.710699    2.512329
  H     -1.815558   -2.011620   -1.201710
  H     -1.130999   -1.960570    0.438858
  H     -3.731249   -3.374520   -0.354587
  H     -2.191674   -4.172501   -0.001302
  H     -3.061030   -3.311997    1.280868

 Total Charge           Charge          ....    0
 Multiplicity           Mult            ....    1
 Number of Electrons    NEL             ....  202
 Basis Dimension        Dim             ....  334

ORBITAL ENERGIES
----------------

  NO   OCC          E(Eh)            E(eV)
   0   2.0000     -88.042137     -2395.7483
   1   2.0000     -88.042015     -2395.7450
   2   2.0000     -87.989624     -2394.3194
   3   2.0000     -87.986041     -2394.2219
   4   2.0000     -76.429504     -2079.7525
   5   2.0000     -76.427791     -2079.7059
   6   2.0000     -18.797856      -511.5157
   7   2.0000     -18.795836      -511.4607
   8   2.0000     -18.794999      -511.4379
   9   2.0000     -18.793169      -511.3881
  10   2.0000      -9.962299      -271.0879
  11   2.0000      -9.961060      -271.0542
  12   2.0000      -9.956885      -270.9406
  13   2.0000      -9.954043      -270.8633
  14   2.0000      -9.944947      -270.6158
  15   2.0000      -9.894774      -269.2505
  16   2.0000      -9.894346      -269.2388
  17   2.0000      -9.891408      -269.1589
  18   2.0000      -9.886948      -269.0375
  19   2.0000      -7.686427      -209.1583
  20   2.0000      -7.686303      -209.1549
  21   2.0000      -7.634747      -207.7520
  22   2.0000      -7.631209      -207.6558
  23   2.0000      -6.427028      -174.8883
  24   2.0000      -6.425334      -174.8422
  25   2.0000      -5.714273      -155.4933
  26   2.0000      -5.714143      -155.4897
  27   2.0000      -5.710924      -155.4021
  28   2.0000      -5.710725      -155.3967
  29   2.0000      -5.703574      -155.2021
  30   2.0000      -5.703568      -155.2020
  31   2.0000      -5.663685      -154.1167
  32   2.0000      -5.660182      -154.0214
  33   2.0000      -5.655222      -153.8864
  34   2.0000      -5.654995      -153.8802
  35   2.0000      -5.651606      -153.7880
  36   2.0000      -5.651508      -153.7854
  37   2.0000      -4.649968      -126.5321
  38   2.0000      -4.648425      -126.4901
  39   2.0000      -4.648303      -126.4867
  40   2.0000      -4.647500      -126.4649
  41   2.0000      -4.646860      -126.4475
  42   2.0000      -4.645629      -126.4140
  43   2.0000      -0.992072       -26.9956
  44   2.0000      -0.991843       -26.9894
  45   2.0000      -0.947717       -25.7887
  46   2.0000      -0.947611       -25.7858
  47   2.0000      -0.759542       -20.6682
  48   2.0000      -0.725395       -19.7390
  49   2.0000      -0.716041       -19.4845
  50   2.0000      -0.697614       -18.9830
  51   2.0000      -0.695626       -18.9289
  52   2.0000      -0.679317       -18.4851
  53   2.0000      -0.652028       -17.7426
  54   2.0000      -0.636422       -17.3179
  55   2.0000      -0.603313       -16.4170
  56   2.0000      -0.595954       -16.2167
  57   2.0000      -0.583539       -15.8789
  58   2.0000      -0.577415       -15.7123
  59   2.0000      -0.556956       -15.1555
  60   2.0000      -0.508533       -13.8379
  61   2.0000      -0.499734       -13.5984
  62   2.0000      -0.479522       -13.0485
  63   2.0000      -0.476071       -12.9546
  64   2.0000      -0.458784       -12.4841
  65   2.0000      -0.452182       -12.3045
  66   2.0000      -0.449438       -12.2298
  67   2.0000      -0.440941       -11.9986
  68   2.0000      -0.432571       -11.7709
  69   2.0000      -0.428800       -11.6682
  70   2.0000      -0.413850       -11.2614
  71   2.0000      -0.402529       -10.9534
  72   2.0000      -0.398311       -10.8386
  73   2.0000      -0.388147       -10.5620
  74   2.0000      -0.378785       -10.3073
  75   2.0000      -0.374987       -10.2039
  76   2.0000      -0.370841       -10.0911
  77   2.0000      -0.363011        -9.8780
  78   2.0000      -0.360152        -9.8002
  79   2.0000      -0.356293        -9.6952
  80   2.0000      -0.354235        -9.6392
  81   2.0000      -0.348452        -9.4818
  82   2.0000      -0.345841        -9.4108
  83   2.0000      -0.345265        -9.3951
  84   2.0000      -0.341375        -9.2893
  85   2.0000      -0.318917        -8.6782
  86   2.0000      -0.310955        -8.4615
  87   2.0000      -0.305075        -8.3015
  88   2.0000      -0.300837        -8.1862
  89   2.0000      -0.299001        -8.1362
  90   2.0000      -0.298008        -8.1092
  91   2.0000      -0.278585        -7.5807
  92   2.0000      -0.277228        -7.5438
  93   2.0000      -0.263814        -7.1787
  94   2.0000      -0.258912        -7.0453
  95   2.0000      -0.231771        -6.3068
  96   2.0000      -0.219826        -5.9818
  97   2.0000      -0.211407        -5.7527
  98   2.0000      -0.206595        -5.6217
  99   2.0000      -0.201347        -5.4789
 100   2.0000      -0.199604        -5.4315
 101   0.0000      -0.043443        -1.1822
 102   0.0000      -0.032502        -0.8844
 103   0.0000      -0.013161        -0.3581
 104   0.0000       0.002074         0.0564
 105   0.0000       0.007301         0.1987

MULLIKEN ATOMIC CHARGES
-----------------------
   0 C :   -0.335737
   1 C :    0.009251
   2 O :   -0.361813
   3 P :    0.613817
   4 S :   -0.306724
   5 O :   -0.386015
   6 C :   -0.000655
   7 C :   -0.336945
   8 S :   -0.120533
   9 C :   -0.337038
  10 S :   -0.117579
  11 P :    0.609075
  12 S :   -0.307581
  13 O :   -0.360925
  14 C :    0.008227
  15 C :   -0.339867
  16 O :   -0.387762
  17 C :   -0.036059
  18 C :   -0.272641
  19 H :    0.125000
  20 H :    0.134996
  21 H :    0.118169
  22 H :    0.113970
  23 H :    0.110245
  24 H :    0.103186
  25 H :    0.113063
  26 H :    0.118015
  27 H :    0.110182
  28 H :    0.145605
  29 H :    0.198219
  30 H :    0.194423
  31 H :    0.114505
  32 H :    0.111991
  33 H :    0.134182
  34 H :    0.119676
  35 H :    0.131503
  36 H :    0.108216
  37 H :    0.119472
  38 H :    0.120320
  39 H :    0.111013
  40 H :    0.111554
Sum of atomic charges:   -0.0000000

LOEWDIN ATOMIC CHARGES
----------------------
   0 C :   -0.372393
   1 C :   -0.107207
   2 O :   -0.238691
   3 P :    0.571652
   4 S :   -0.296184
   5 O :   -0.248861
   6 C :   -0.117085
   7 C :   -0.372705
   8 S :    0.079021
   9 C :   -0.494219
  10 S :    0.080947
  11 P :    0.568793
  12 S :   -0.300904
  13 O :   -0.234677
  14 C :   -0.106147
  15 C :   -0.373762
  16 O :   -0.252231
  17 C :   -0.126385
  18 C :   -0.349975
  19 H :    0.116051
  20 H :    0.130529
  21 H :    0.133869
  22 H :    0.124537
  23 H :    0.115010
  24 H :    0.117419
  25 H :    0.111441
  26 H :    0.121840
  27 H :    0.130590
  28 H :    0.112905
  29 H :    0.128153
  30 H :    0.126532
  31 H :    0.124687
  32 H :    0.116064
  33 H :    0.130166
  34 H :    0.134883
  35 H :    0.119337
  36 H :    0.106915
  37 H :    0.106202
  38 H :    0.128778
  39 H :    0.130736
  40 H :    0.124368

  Mayer bond orders larger than 0.100000
B(  0-C ,  1-C ) :   1.1697 B(  0-C , 19-H ) :   0.9332 B(  0-C , 20-H ) :   0.9403
B(  0-C , 21-H ) :   0.9352 B(  1-C ,  2-O ) :   0.9010 B(  1-C , 22-H ) :   0.9335
B(  1-C , 23-H ) :   0.9279 B(  2-O ,  3-P ) :   1.1409 B(  3-P ,  4-S ) :   1.6388
B(  3-P ,  5-O ) :   1.0667 B(  3-P ,  8-S ) :   0.9446 B(  4-S ,  8-S ) :   0.1168
B(  4-S , 30-H ) :   0.1157 B(  5-O ,  6-C ) :   0.9103 B(  6-C ,  7-C ) :   1.1634
B(  6-C , 24-H ) :   0.9341 B(  6-C , 25-H ) :   0.9119 B(  7-C , 26-H ) :   0.9406
B(  7-C , 27-H ) :   0.9364 B(  7-C , 28-H ) :   0.9224 B(  8-S ,  9-C ) :   1.0105
B(  9-C , 10-S ) :   1.0126 B(  9-C , 29-H ) :   0.8598 B(  9-C , 30-H ) :   0.8471
B( 10-S , 11-P ) :   0.9381 B( 10-S , 12-S ) :   0.1138 B( 11-P , 12-S ) :   1.6530
B( 11-P , 13-O ) :   1.1533 B( 11-P , 16-O ) :   1.0642 B( 13-O , 14-C ) :   0.8948
B( 14-C , 15-C ) :   1.1703 B( 14-C , 31-H ) :   0.9337 B( 14-C , 32-H ) :   0.9279
B( 15-C , 33-H ) :   0.9403 B( 15-C , 34-H ) :   0.9348 B( 15-C , 35-H ) :   0.9327
B( 16-O , 17-C ) :   0.9027 B( 17-C , 18-C ) :   1.1581 B( 17-C , 36-H ) :   0.9081
B( 17-C , 37-H ) :   0.9163 B( 18-C , 38-H ) :   0.9502 B( 18-C , 39-H ) :   0.9420
B( 18-C , 40-H ) :   0.9508

Dispersion correction           -0.063178450
FINAL SINGLE POINT ENERGY     -2929.515215244478

DIPOLE MOMENT
-------------

Method             : SCF
Type of density    : Electron Density
Multiplicity       :   1
Irrep              :   0
Energy             : -2929.6376647805059292 Eh
Relativity type    :
Basis              : AO
                                X                 Y                 Z
Electronic contribution:      4.778436924      18.910737328     -13.761476509
Nuclear contribution   :     -4.989734182     -20.800464984      15.332223957
                        -----------------------------------------
Total Dipole Moment    :     -0.211297258      -1.889727656       1.570747447
                        -----------------------------------------
Magnitude (a.u.)       :      2.466366698
Magnitude (Debye)      :      6.269005939

Rotational constants in cm-1:             0.011953             0.004502             0.004291
Rotational constants in MHz :           358.353673           134.960181           128.630582

                             ****ORCA TERMINATED NORMALLY****
TOTAL RUN TIME: 0 days 0 hours 0 minutes 20 seconds 799 msec
