                         Program Version 6.0.0  -   RELEASE  -
|  1> ! pbe def2-sv(p) def2/J RI DEFGRID1 loosescf d4 GCP(DFT/SV(P)) printgap
|  2> %output
|  3>     printlevel normal
|  4> end
|  5> * xyz 0 1
|  6> C 2.5916864992 -2.9627803342 -1.4197440925
|  7> C 3.4260013769 -1.7766456692 -1.8560390425
|  8> O 3.5864653474 -0.7926622795 -0.8086209821
|  9> P 2.4251820957 0.0164087363 -0.0892455824
| 10> S 3.1739755452 1.5965624247 0.7809618693
| 11> O 1.6777932693 -1.0112301332 0.8814070329
| 12> C 1.9622838888 -1.1214267903 2.2903858182
| 13> C 0.944880825 -0.357099424 3.1137911504
| 14> S 0.9761568681 0.2834913653 -1.6031293288
| 15> C 0.2524725737 1.8151192292 -0.9635091046
| 16> S -0.5908806492 1.609201361 0.6262268319
| 17> P -2.0308002684 0.2100042137 -0.0325240905
| 18> S -2.7442717806 0.442732697 -1.8477716509
| 19> O -3.1172289416 0.1982360305 1.1272949786
| 20> C -4.2644134926 1.0646697522 1.1225646828
| 21> C -3.8850314344 2.5170561926 1.3285491875
| 22> O -1.2557657344 -1.1398288717 0.2597483384
| 23> C -1.5597135803 -2.3676469545 -0.4301797121
| 24> C -2.9292939932 -2.8972931536 -0.0605544247
| 25> H 3.0245610976 -3.4251077167 -0.5362787438
| 26> H 1.5775841765 -2.6401727798 -1.191708558
| 27> H 2.5589591535 -3.6889749776 -2.2258888306
| 28> H 2.977157497 -1.2835816127 -2.7223839091
| 29> H 4.452498332 -2.066622255 -2.0862368433
| 30> H 1.9151834419 -2.192235052 2.4969572079
| 31> H 2.9738224314 -0.7519420658 2.4840699499
| 32> H 1.1021205927 -0.5729268468 4.1656736702
| 33> H 1.0546142901 0.7128110505 2.9494682428
| 34> H -0.0625359246 -0.6519857134 2.829616049
| 35> H -0.458677234 2.1487735695 -1.7186225848
| 36> H 1.0391533437 2.5511687597 -0.8004295984
| 37> H -4.7901452074 0.9367763044 0.1708020822
| 38> H -4.8798823515 0.689221057 1.9411767051
| 39> H -3.3270061315 2.8830589018 0.4676995083
| 40> H -4.7859277919 3.1115537817 1.4419499463
| 41> H -3.2663993154 2.6242741977 2.2161116296
| 42> H -1.4913399999 -2.1855874157 -1.507874729
| 43> H -0.765374353 -3.0469487808 -0.1167543094
| 44> H -3.0803220265 -3.8645127315 -0.5295666011
| 45> H -3.0158494887 -2.9983896308 1.0181024537
| 46> H -3.6975603254 -2.2096359208 -0.4125809979
| 47> *
| 48>
| 49>                          ****END OF INPUT****

CARTESIAN COORDINATES (ANGSTROEM)
---------------------------------
  C      2.591686   -2.962780   -1.419744
  C      3.426001   -1.776646   -1.856039
  O      3.586465   -0.792662   -0.808621
  P      2.425182    0.016409   -0.089246
  S      3.173976    1.596562    0.780962
  O      1.677793   -1.011230    0.881407
  C      1.962284   -1.121427    2.290386
  C      0.944881   -0.357099    3.113791
  S      0.976157    0.283491   -1.603129
  C      0.252473    1.815119   -0.963509
  S     -0.590881    1.609201    0.626227
  P     -2.030800    0.210004   -0.032524
  S     -2.744272    0.442733   -1.847772
  O     -3.117229    0.198236    1.127295
  C     -4.264413    1.064670    1.122565
  C     -3.885031    2.517056    1.328549
  O     -1.255766   -1.139829    0.259748
  C     -1.559714   -2.367647   -0.430180
  C     -2.929294   -2.897293   -0.060554
  H      3.024561   -3.425108   -0.536279
  H      1.577584   -2.640173   -1.191709
  H      2.558959   -3.688975   -2.225889
  H      2.977157   -1.283582   -2.722384
  H      4.452498   -2.066622   -2.086237
  H      1.915183   -2.192235    2.496957
  H      2.973822   -0.751942    2.484070
  H      1.102121   -0.572927    4.165674
  H      1.054614    0.712811    2.949468
  H     -0.062536   -0.651986    2.829616
  H     -0.458677    2.148774   -1.718623
  H      1.039153    2.551169   -0.800430
  H     -4.790145    0.936776    0.170802
  H     -4.879882    0.689221    1.941177
  H     -3.327006    2.883059    0.467700
  H     -4.785928    3.111554    1.441950
  H     -3.266399    2.624274    2.216112
  H     -1.491340   -2.185587   -1.507875
  H     -0.765374   -3.046949   -0.116754
  H     -3.080322   -3.864513   -0.529567
  H     -3.015849   -2.998390    1.018102
  H     -3.697560   -2.209636   -0.412581

 Total Charge           Charge          ....    0
 Multiplicity           Mult            ....    1
 Number of Electrons    NEL             ....  202
 Basis Dimension        Dim             ....  334

ORBITAL ENERGIES
----------------

  NO   OCC          E(Eh)            E(eV)
   0   2.0000     -88.044484     -2395.8122
   1   2.0000     -88.043729     -2395.7917
   2   2.0000     -87.992464     -2394.3967
   3   2.0000     -87.982498     -2394.1255
   4   2.0000     -76.428926     -2079.7368
   5   2.0000     -76.423542     -2079.5903
   6   2.0000     -18.797108      -511.4953
   7   2.0000     -18.790837      -511.3247
   8   2.0000     -18.789880      -511.2986
   9   2.0000     -18.783616      -511.1282
  10   2.0000      -9.959667      -271.0163
  11   2.0000      -9.956928      -270.9418
  12   2.0000      -9.955314      -270.8979
  13   2.0000      -9.952664      -270.8258
  14   2.0000      -9.947147      -270.6756
  15   2.0000      -9.892549      -269.1899
  16   2.0000      -9.885971      -269.0110
  17   2.0000      -9.885512      -268.9985
  18   2.0000      -9.872388      -268.6413
  19   2.0000      -7.689438      -209.2402
  20   2.0000      -7.688525      -209.2154
  21   2.0000      -7.637318      -207.8220
  22   2.0000      -7.627814      -207.5634
  23   2.0000      -6.426352      -174.8699
  24   2.0000      -6.421264      -174.7315
  25   2.0000      -5.717276      -155.5750
  26   2.0000      -5.716426      -155.5519
  27   2.0000      -5.714044      -155.4870
  28   2.0000      -5.713159      -155.4630
  29   2.0000      -5.706331      -155.2772
  30   2.0000      -5.705311      -155.2494
  31   2.0000      -5.666078      -154.1818
  32   2.0000      -5.657976      -153.9614
  33   2.0000      -5.657645      -153.9523
  34   2.0000      -5.656903      -153.9322
  35   2.0000      -5.648733      -153.7099
  36   2.0000      -5.647441      -153.6747
  37   2.0000      -4.648735      -126.4985
  38   2.0000      -4.648107      -126.4814
  39   2.0000      -4.647002      -126.4513
  40   2.0000      -4.644051      -126.3711
  41   2.0000      -4.642816      -126.3374
  42   2.0000      -4.641762      -126.3088
  43   2.0000      -0.989361       -26.9219
  44   2.0000      -0.979229       -26.6462
  45   2.0000      -0.948037       -25.7974
  46   2.0000      -0.939799       -25.5732
  47   2.0000      -0.767334       -20.8802
  48   2.0000      -0.722109       -19.6496
  49   2.0000      -0.710282       -19.3278
  50   2.0000      -0.690485       -18.7891
  51   2.0000      -0.687917       -18.7192
  52   2.0000      -0.673469       -18.3260
  53   2.0000      -0.651800       -17.7364
  54   2.0000      -0.640482       -17.4284
  55   2.0000      -0.604372       -16.4458
  56   2.0000      -0.590752       -16.0752
  57   2.0000      -0.577779       -15.7222
  58   2.0000      -0.574026       -15.6200
  59   2.0000      -0.558289       -15.1918
  60   2.0000      -0.499414       -13.5897
  61   2.0000      -0.493164       -13.4197
  62   2.0000      -0.475683       -12.9440
  63   2.0000      -0.474200       -12.9036
  64   2.0000      -0.458494       -12.4763
  65   2.0000      -0.447050       -12.1648
  66   2.0000      -0.442448       -12.0396
  67   2.0000      -0.436283       -11.8719
  68   2.0000      -0.428782       -11.6678
  69   2.0000      -0.414720       -11.2851
  70   2.0000      -0.406126       -11.0512
  71   2.0000      -0.397429       -10.8146
  72   2.0000      -0.395663       -10.7665
  73   2.0000      -0.389444       -10.5973
  74   2.0000      -0.382812       -10.4168
  75   2.0000      -0.374152       -10.1812
  76   2.0000      -0.366647        -9.9770
  77   2.0000      -0.358447        -9.7538
  78   2.0000      -0.355273        -9.6675
  79   2.0000      -0.353112        -9.6087
  80   2.0000      -0.349076        -9.4988
  81   2.0000      -0.345931        -9.4132
  82   2.0000      -0.344986        -9.3875
  83   2.0000      -0.339037        -9.2257
  84   2.0000      -0.335114        -9.1189
  85   2.0000      -0.320453        -8.7200
  86   2.0000      -0.308442        -8.3931
  87   2.0000      -0.301315        -8.1992
  88   2.0000      -0.298053        -8.1104
  89   2.0000      -0.285729        -7.7751
  90   2.0000      -0.277881        -7.5615
  91   2.0000      -0.277827        -7.5601
  92   2.0000      -0.272519        -7.4156
  93   2.0000      -0.266897        -7.2626
  94   2.0000      -0.257776        -7.0144
  95   2.0000      -0.230564        -6.2740
  96   2.0000      -0.218162        -5.9365
  97   2.0000      -0.215479        -5.8635
  98   2.0000      -0.208680        -5.6785
  99   2.0000      -0.200945        -5.4680
 100   2.0000      -0.195139        -5.3100
 101   0.0000      -0.047077        -1.2810
 102   0.0000      -0.026254        -0.7144
 103   0.0000      -0.002283        -0.0621
 104   0.0000       0.002850         0.0776
 105   0.0000       0.008111         0.2207

MULLIKEN ATOMIC CHARGES
-----------------------
   0 C :   -0.333870
   1 C :   -0.016665
   2 O :   -0.370037
   3 P :    0.619632
   4 S :   -0.319481
   5 O :   -0.376432
   6 C :   -0.008098
   7 C :   -0.294461
   8 S :   -0.104225
   9 C :   -0.345758
  10 S :   -0.065642
  11 P :    0.618255
  12 S :   -0.336878
  13 O :   -0.374222
  14 C :   -0.004968
  15 C :   -0.316056
  16 O :   -0.355646
  17 C :   -0.024086
  18 C :   -0.293784
  19 H :    0.118578
  20 H :    0.148017
  21 H :    0.114445
  22 H :    0.119053
  23 H :    0.114826
  24 H :    0.095719
  25 H :    0.105270
  26 H :    0.101418
  27 H :    0.129490
  28 H :    0.116535
  29 H :    0.189820
  30 H :    0.194299
  31 H :    0.111132
  32 H :    0.106402
  33 H :    0.126885
  34 H :    0.114358
  35 H :    0.120127
  36 H :    0.112400
  37 H :    0.116229
  38 H :    0.110653
  39 H :    0.115167
  40 H :    0.121597
Sum of atomic charges:    0.0000000

LOEWDIN ATOMIC CHARGES
----------------------
   0 C :   -0.369040
   1 C :   -0.116186
   2 O :   -0.247613
   3 P :    0.570793
   4 S :   -0.314937
   5 O :   -0.250107
   6 C :   -0.114675
   7 C :   -0.365926
   8 S :    0.088195
   9 C :   -0.477541
  10 S :    0.114709
  11 P :    0.572918
  12 S :   -0.327071
  13 O :   -0.243542
  14 C :   -0.119113
  15 C :   -0.369410
  16 O :   -0.230625
  17 C :   -0.119390
  18 C :   -0.365013
  19 H :    0.127760
  20 H :    0.123101
  21 H :    0.131730
  22 H :    0.109797
  23 H :    0.124299
  24 H :    0.113113
  25 H :    0.108491
  26 H :    0.124982
  27 H :    0.121115
  28 H :    0.120825
  29 H :    0.131162
  30 H :    0.133227
  31 H :    0.110590
  32 H :    0.119296
  33 H :    0.121274
  34 H :    0.131704
  35 H :    0.125404
  36 H :    0.110043
  37 H :    0.117666
  38 H :    0.130026
  39 H :    0.126013
  40 H :    0.121958

  Mayer bond orders larger than 0.100000
B(  0-C ,  1-C ) :   1.1623 B(  0-C , 19-H ) :   0.9452 B(  0-C , 20-H ) :   0.9301
B(  0-C , 21-H ) :   0.9357 B(  1-C ,  2-O ) :   0.9140 B(  1-C , 22-H ) :   0.9185
B(  1-C , 23-H ) :   0.9347 B(  2-O ,  3-P ) :   1.1199 B(  3-P ,  4-S ) :   1.6234
B(  3-P ,  5-O ) :   1.0901 B(  3-P ,  8-S ) :   0.9518 B(  4-S ,  8-S ) :   0.1003
B(  5-O ,  6-C ) :   0.9029 B(  6-C ,  7-C ) :   1.1734 B(  6-C , 24-H ) :   0.9335
B(  6-C , 25-H ) :   0.9136 B(  7-C , 26-H ) :   0.9382 B(  7-C , 27-H ) :   0.9354
B(  7-C , 28-H ) :   0.9415 B(  8-S ,  9-C ) :   1.0121 B(  9-C , 10-S ) :   1.0063
B(  9-C , 29-H ) :   0.8863 B(  9-C , 30-H ) :   0.8830 B( 10-S , 11-P ) :   0.9615
B( 10-S , 12-S ) :   0.1078 B( 11-P , 12-S ) :   1.5804 B( 11-P , 13-O ) :   1.1060
B( 11-P , 16-O ) :   1.1188 B( 13-O , 14-C ) :   0.9083 B( 14-C , 15-C ) :   1.1664
B( 14-C , 31-H ) :   0.9165 B( 14-C , 32-H ) :   0.9338 B( 15-C , 33-H ) :   0.9358
B( 15-C , 34-H ) :   0.9376 B( 15-C , 35-H ) :   0.9445 B( 16-O , 17-C ) :   0.9071
B( 17-C , 18-C ) :   1.1605 B( 17-C , 36-H ) :   0.9175 B( 17-C , 37-H ) :   0.9249
B( 18-C , 38-H ) :   0.9393 B( 18-C , 39-H ) :   0.9454 B( 18-C , 40-H ) :   0.9338

Dispersion correction           -0.068295698
FINAL SINGLE POINT ENERGY     -2929.522236580751

DIPOLE MOMENT
-------------

Method             : SCF
Type of density    : Electron Density
Multiplicity       :   1
Irrep              :   0
Energy             : -2929.6399430323008346 Eh
Relativity type    :
Basis              : AO
                                X                 Y                 Z
Electronic contribution:      9.917358983      13.945032904      -7.746095148
Nuclear contribution   :    -10.631407384     -15.293402517       8.007650670
                        -----------------------------------------
Total Dipole Moment    :     -0.714048401      -1.348369614       0.261555523
                        -----------------------------------------
Magnitude (a.u.)       :      1.548023587
Magnitude (Debye)      :      3.934763257

Rotational constants in cm-1:             0.011932             0.005709             0.005201
Rotational constants in MHz :           357.707562           171.140811           155.916697

                             ****ORCA TERMINATED NORMALLY****
TOTAL RUN TIME: 0 days 0 hours 0 minutes 22 seconds 393 msec
