                         Program Version 6.0.1  -  RELEASE   -
|  1> ! r2scan-3c def2/J RI DEFGRID2 scfconv6 printgap
|  2> %output
|  3>     printlevel normal
|  4> end
|  5> * xyz 0 1
|  6> C 4.4377180895 -2.8103173725 -2.4599420181
|  7> C 3.8423746482 -1.4590080316 -2.096977306
|  8> O 2.6291034033 -1.6095762618 -1.3377379554
|  9> C 2.731713967 -1.7900389068 -0.0321769928
| 10> O 3.775208745 -1.8874684342 0.5711122527
| 11> C 1.365871008 -1.9227741143 0.6209712248
| 12> C 0.4521220766 -0.7844626464 0.1835189725
| 13> H 0.2836709091 -0.8284590539 -0.9005365082
| 14> C 1.0917179019 0.5634646401 0.4627147059
| 15> O 2.2775853746 0.7603522864 0.324272423
| 16> O 0.2111371459 1.470895789 0.8236532532
| 17> C 0.664918711 2.8143170519 1.0882517769
| 18> C 1.0609600075 2.9657870463 2.5469745009
| 19> S -1.1748252286 -0.9282529666 0.9927308576
| 20> P -2.2204668464 0.5336019725 -0.1510380995
| 21> S -1.466844017 0.9842727815 -1.901857929
| 22> O -3.6913208609 -0.0988652231 -0.2149118418
| 23> C -3.9623053008 -1.2738700579 -0.9863892273
| 24> O -2.5064304426 1.7950065466 0.7536236735
| 25> C -3.1216117676 1.6801643816 2.052543026
| 26> H 5.3100709514 -2.6587140227 -3.0868636497
| 27> H 4.737526346 -3.3390919421 -1.5582616294
| 28> H 3.7075573292 -3.4079647587 -2.9986641632
| 29> H 3.5379484721 -0.9040824531 -2.9848610792
| 30> H 4.546047786 -0.8673235968 -1.5042934286
| 31> H 1.5025215214 -1.9196624424 1.7026021515
| 32> H 0.9286286234 -2.8752686168 0.3182546413
| 33> H 1.5075583544 3.0276879204 0.4250376332
| 34> H -0.1888387405 3.4423467568 0.830541061
| 35> H 1.3371962617 3.998103158 2.7338211679
| 36> H 0.2312728483 2.6934263564 3.1935399809
| 37> H 1.912425921 2.3266364353 2.7706720555
| 38> H -5.0454147821 -1.3581487677 -1.0214739993
| 39> H -3.5243801708 -2.1453740231 -0.5000868147
| 40> H -3.5566130509 -1.1640003982 -1.993360125
| 41> H -4.1478917161 1.3342671112 1.9471952298
| 42> H -3.0932209375 2.6829231262 2.4709406364
| 43> H -2.5555111483 0.9845550463 2.6720747949
| 44> *
| 45>
| 46>                          ****END OF INPUT****

CARTESIAN COORDINATES (ANGSTROEM)
---------------------------------
  C      4.437718   -2.810317   -2.459942
  C      3.842375   -1.459008   -2.096977
  O      2.629103   -1.609576   -1.337738
  C      2.731714   -1.790039   -0.032177
  O      3.775209   -1.887468    0.571112
  C      1.365871   -1.922774    0.620971
  C      0.452122   -0.784463    0.183519
  H      0.283671   -0.828459   -0.900537
  C      1.091718    0.563465    0.462715
  O      2.277585    0.760352    0.324272
  O      0.211137    1.470896    0.823653
  C      0.664919    2.814317    1.088252
  C      1.060960    2.965787    2.546975
  S     -1.174825   -0.928253    0.992731
  P     -2.220467    0.533602   -0.151038
  S     -1.466844    0.984273   -1.901858
  O     -3.691321   -0.098865   -0.214912
  C     -3.962305   -1.273870   -0.986389
  O     -2.506430    1.795007    0.753624
  C     -3.121612    1.680164    2.052543
  H      5.310071   -2.658714   -3.086864
  H      4.737526   -3.339092   -1.558262
  H      3.707557   -3.407965   -2.998664
  H      3.537948   -0.904082   -2.984861
  H      4.546048   -0.867324   -1.504293
  H      1.502522   -1.919662    1.702602
  H      0.928629   -2.875269    0.318255
  H      1.507558    3.027688    0.425038
  H     -0.188839    3.442347    0.830541
  H      1.337196    3.998103    2.733821
  H      0.231273    2.693426    3.193540
  H      1.912426    2.326636    2.770672
  H     -5.045415   -1.358149   -1.021474
  H     -3.524380   -2.145374   -0.500087
  H     -3.556613   -1.164000   -1.993360
  H     -4.147892    1.334267    1.947195
  H     -3.093221    2.682923    2.470941
  H     -2.555511    0.984555    2.672075

 Total Charge           Charge          ....    0
 Multiplicity           Mult            ....    1
 Number of Electrons    NEL             ....  174
 Basis Dimension        Dim             ....  510

ORBITAL ENERGIES
----------------

  NO   OCC          E(Eh)            E(eV)
   0   2.0000     -88.579729     -2410.3770
   1   2.0000     -88.522060     -2408.8077
   2   2.0000     -76.918482     -2093.0583
   3   2.0000     -19.007887      -517.2309
   4   2.0000     -18.999789      -517.0106
   5   2.0000     -18.995385      -516.8907
   6   2.0000     -18.992636      -516.8159
   7   2.0000     -18.942655      -515.4558
   8   2.0000     -18.923164      -514.9255
   9   2.0000     -10.166965      -276.6572
  10   2.0000     -10.154037      -276.3054
  11   2.0000     -10.103997      -274.9437
  12   2.0000     -10.097077      -274.7554
  13   2.0000     -10.096451      -274.7384
  14   2.0000     -10.095010      -274.6992
  15   2.0000     -10.085903      -274.4514
  16   2.0000     -10.061256      -273.7807
  17   2.0000     -10.034538      -273.0537
  18   2.0000     -10.023422      -272.7512
  19   2.0000      -7.873996      -214.2623
  20   2.0000      -7.816703      -212.7033
  21   2.0000      -6.596699      -179.5053
  22   2.0000      -5.820795      -158.3919
  23   2.0000      -5.817910      -158.3134
  24   2.0000      -5.811153      -158.1295
  25   2.0000      -5.764597      -156.8627
  26   2.0000      -5.756945      -156.6544
  27   2.0000      -5.756521      -156.6429
  28   2.0000      -4.742452      -129.0487
  29   2.0000      -4.741764      -129.0300
  30   2.0000      -4.740133      -128.9856
  31   2.0000      -1.087526       -29.5931
  32   2.0000      -1.069032       -29.0899
  33   2.0000      -1.056103       -28.7380
  34   2.0000      -1.013658       -27.5830
  35   2.0000      -0.992625       -27.0107
  36   2.0000      -0.973206       -26.4823
  37   2.0000      -0.814324       -22.1589
  38   2.0000      -0.754216       -20.5233
  39   2.0000      -0.744617       -20.2621
  40   2.0000      -0.731944       -19.9172
  41   2.0000      -0.699403       -19.0317
  42   2.0000      -0.680929       -18.5290
  43   2.0000      -0.662229       -18.0202
  44   2.0000      -0.652736       -17.7619
  45   2.0000      -0.625416       -17.0184
  46   2.0000      -0.603744       -16.4287
  47   2.0000      -0.546480       -14.8705
  48   2.0000      -0.529380       -14.4052
  49   2.0000      -0.523333       -14.2406
  50   2.0000      -0.502133       -13.6637
  51   2.0000      -0.497574       -13.5397
  52   2.0000      -0.486463       -13.2373
  53   2.0000      -0.465890       -12.6775
  54   2.0000      -0.459185       -12.4951
  55   2.0000      -0.455008       -12.3814
  56   2.0000      -0.446128       -12.1397
  57   2.0000      -0.439431       -11.9575
  58   2.0000      -0.437107       -11.8943
  59   2.0000      -0.432688       -11.7740
  60   2.0000      -0.423932       -11.5358
  61   2.0000      -0.419936       -11.4270
  62   2.0000      -0.411998       -11.2110
  63   2.0000      -0.399776       -10.8785
  64   2.0000      -0.396013       -10.7761
  65   2.0000      -0.384782       -10.4705
  66   2.0000      -0.378478       -10.2989
  67   2.0000      -0.365813        -9.9543
  68   2.0000      -0.361912        -9.8481
  69   2.0000      -0.355737        -9.6801
  70   2.0000      -0.349348        -9.5062
  71   2.0000      -0.344889        -9.3849
  72   2.0000      -0.336582        -9.1589
  73   2.0000      -0.332435        -9.0460
  74   2.0000      -0.327167        -8.9027
  75   2.0000      -0.319643        -8.6979
  76   2.0000      -0.313371        -8.5273
  77   2.0000      -0.304272        -8.2797
  78   2.0000      -0.292194        -7.9510
  79   2.0000      -0.286605        -7.7989
  80   2.0000      -0.281389        -7.6570
  81   2.0000      -0.266211        -7.2440
  82   2.0000      -0.264507        -7.1976
  83   2.0000      -0.233000        -6.3403
  84   2.0000      -0.229925        -6.2566
  85   2.0000      -0.221410        -6.0249
  86   2.0000      -0.217643        -5.9224
  87   0.0000      -0.046970        -1.2781
  88   0.0000      -0.030849        -0.8394
  89   0.0000      -0.009384        -0.2554
  90   0.0000       0.003292         0.0896
  91   0.0000       0.014577         0.3967

MULLIKEN ATOMIC CHARGES
-----------------------
   0 C :   -0.472080
   1 C :   -0.134876
   2 O :   -0.143116
   3 C :    0.370861
   4 O :   -0.390508
   5 C :   -0.492837
   6 C :    0.037931
   7 H :    0.254802
   8 C :    0.264865
   9 O :   -0.388027
  10 O :   -0.117288
  11 C :   -0.165247
  12 C :   -0.465560
  13 S :   -0.217976
  14 P :    0.777371
  15 S :   -0.446874
  16 O :   -0.352027
  17 C :   -0.294368
  18 O :   -0.315540
  19 C :   -0.292250
  20 H :    0.146788
  21 H :    0.176937
  22 H :    0.149716
  23 H :    0.150923
  24 H :    0.173921
  25 H :    0.195708
  26 H :    0.185365
  27 H :    0.174147
  28 H :    0.170756
  29 H :    0.152638
  30 H :    0.149770
  31 H :    0.173011
  32 H :    0.152391
  33 H :    0.158564
  34 H :    0.174998
  35 H :    0.170286
  36 H :    0.157143
  37 H :    0.169682
Sum of atomic charges:   -0.0000000

LOEWDIN ATOMIC CHARGES
----------------------
   0 C :   -0.391524
   1 C :    0.032751
   2 O :   -0.593585
   3 C :    0.356251
   4 O :   -0.412475
   5 C :   -0.202026
   6 C :   -0.204099
   7 H :    0.220771
   8 C :    0.365314
   9 O :   -0.401690
  10 O :   -0.625283
  11 C :    0.036213
  12 C :   -0.385005
  13 S :    0.192278
  14 P :    0.400303
  15 S :   -0.086572
  16 O :   -0.685295
  17 C :   -0.059683
  18 O :   -0.649709
  19 C :   -0.051788
  20 H :    0.158976
  21 H :    0.166791
  22 H :    0.156158
  23 H :    0.179608
  24 H :    0.191132
  25 H :    0.189786
  26 H :    0.188479
  27 H :    0.192583
  28 H :    0.186812
  29 H :    0.160887
  30 H :    0.156022
  31 H :    0.165839
  32 H :    0.177332
  33 H :    0.169046
  34 H :    0.176859
  35 H :    0.175366
  36 H :    0.179775
  37 H :    0.173400

  Mayer bond orders larger than 0.100000
B(  0-C ,  1-C ) :   0.9267 B(  0-C , 20-H ) :   0.9656 B(  0-C , 21-H ) :   0.9719
B(  0-C , 22-H ) :   0.9733 B(  1-C ,  2-O ) :   0.8139 B(  1-C , 23-H ) :   0.9621
B(  1-C , 24-H ) :   0.9734 B(  2-O ,  3-C ) :   1.0706 B(  2-O ,  6-C ) :   0.1057
B(  3-C ,  4-O ) :   1.8983 B(  3-C ,  5-C ) :   0.8793 B(  5-C ,  6-C ) :   0.8472
B(  5-C , 25-H ) :   1.0264 B(  5-C , 26-H ) :   0.9400 B(  6-C ,  7-H ) :   0.8900
B(  6-C ,  8-C ) :   0.9422 B(  6-C , 13-S ) :   0.8490 B(  8-C ,  9-O ) :   1.7920
B(  8-C , 10-O ) :   1.1826 B( 10-O , 11-C ) :   0.7598 B( 11-C , 12-C ) :   0.9202
B( 11-C , 27-H ) :   0.9591 B( 11-C , 28-H ) :   0.9608 B( 12-C , 29-H ) :   0.9674
B( 12-C , 30-H ) :   0.9788 B( 12-C , 31-H ) :   0.9701 B( 13-S , 14-P ) :   0.9916
B( 14-P , 15-S ) :   1.8099 B( 14-P , 16-O ) :   1.0318 B( 14-P , 18-O ) :   1.1461
B( 16-O , 17-C ) :   0.8301 B( 17-C , 32-H ) :   0.9673 B( 17-C , 33-H ) :   0.9561
B( 17-C , 34-H ) :   0.9592 B( 18-O , 19-C ) :   0.7918 B( 19-C , 35-H ) :   0.9598
B( 19-C , 36-H ) :   0.9654 B( 19-C , 37-H ) :   0.9570

Dispersion correction           -0.017315155
FINAL SINGLE POINT ENERGY     -1981.452589613560

DIPOLE MOMENT
-------------

Method             : SCF
Type of density    : Electron Density
Multiplicity       :   1
Irrep              :   0
Energy             : -1981.4727231902365929 Eh
Relativity type    :
Basis              : AO
                                X                 Y                 Z
Electronic contribution:    -10.362704868       1.349542182      -1.936140096
Nuclear contribution   :      9.071525036      -1.389691823       2.535596973
                        -----------------------------------------
Total Dipole Moment    :     -1.291179832      -0.040149641       0.599456877
                        -----------------------------------------
Magnitude (a.u.)       :      1.424115831
Magnitude (Debye)      :      3.619814771

Rotational constants in cm-1:             0.014636             0.006307             0.005351
Rotational constants in MHz :           438.775503           189.082271           160.411037

                             ****ORCA TERMINATED NORMALLY****
TOTAL RUN TIME: 0 days 0 hours 1 minutes 17 seconds 729 msec
