                         Program Version 6.0.1  -  RELEASE   -
|  1> ! r2scan-3c def2/J RI DEFGRID2 scfconv6 printgap
|  2> %output
|  3>     printlevel normal
|  4> end
|  5> %cpcm
|  6>     smd true
|  7>     smdsolvent "water"
|  8> end
|  9> * xyz 0 1
| 10> C 4.4377180895 -2.8103173725 -2.4599420181
| 11> C 3.8423746482 -1.4590080316 -2.096977306
| 12> O 2.6291034033 -1.6095762618 -1.3377379554
| 13> C 2.731713967 -1.7900389068 -0.0321769928
| 14> O 3.775208745 -1.8874684342 0.5711122527
| 15> C 1.365871008 -1.9227741143 0.6209712248
| 16> C 0.4521220766 -0.7844626464 0.1835189725
| 17> H 0.2836709091 -0.8284590539 -0.9005365082
| 18> C 1.0917179019 0.5634646401 0.4627147059
| 19> O 2.2775853746 0.7603522864 0.324272423
| 20> O 0.2111371459 1.470895789 0.8236532532
| 21> C 0.664918711 2.8143170519 1.0882517769
| 22> C 1.0609600075 2.9657870463 2.5469745009
| 23> S -1.1748252286 -0.9282529666 0.9927308576
| 24> P -2.2204668464 0.5336019725 -0.1510380995
| 25> S -1.466844017 0.9842727815 -1.901857929
| 26> O -3.6913208609 -0.0988652231 -0.2149118418
| 27> C -3.9623053008 -1.2738700579 -0.9863892273
| 28> O -2.5064304426 1.7950065466 0.7536236735
| 29> C -3.1216117676 1.6801643816 2.052543026
| 30> H 5.3100709514 -2.6587140227 -3.0868636497
| 31> H 4.737526346 -3.3390919421 -1.5582616294
| 32> H 3.7075573292 -3.4079647587 -2.9986641632
| 33> H 3.5379484721 -0.9040824531 -2.9848610792
| 34> H 4.546047786 -0.8673235968 -1.5042934286
| 35> H 1.5025215214 -1.9196624424 1.7026021515
| 36> H 0.9286286234 -2.8752686168 0.3182546413
| 37> H 1.5075583544 3.0276879204 0.4250376332
| 38> H -0.1888387405 3.4423467568 0.830541061
| 39> H 1.3371962617 3.998103158 2.7338211679
| 40> H 0.2312728483 2.6934263564 3.1935399809
| 41> H 1.912425921 2.3266364353 2.7706720555
| 42> H -5.0454147821 -1.3581487677 -1.0214739993
| 43> H -3.5243801708 -2.1453740231 -0.5000868147
| 44> H -3.5566130509 -1.1640003982 -1.993360125
| 45> H -4.1478917161 1.3342671112 1.9471952298
| 46> H -3.0932209375 2.6829231262 2.4709406364
| 47> H -2.5555111483 0.9845550463 2.6720747949
| 48> *
| 49>
| 50>                          ****END OF INPUT****

CARTESIAN COORDINATES (ANGSTROEM)
---------------------------------
  C      4.437718   -2.810317   -2.459942
  C      3.842375   -1.459008   -2.096977
  O      2.629103   -1.609576   -1.337738
  C      2.731714   -1.790039   -0.032177
  O      3.775209   -1.887468    0.571112
  C      1.365871   -1.922774    0.620971
  C      0.452122   -0.784463    0.183519
  H      0.283671   -0.828459   -0.900537
  C      1.091718    0.563465    0.462715
  O      2.277585    0.760352    0.324272
  O      0.211137    1.470896    0.823653
  C      0.664919    2.814317    1.088252
  C      1.060960    2.965787    2.546975
  S     -1.174825   -0.928253    0.992731
  P     -2.220467    0.533602   -0.151038
  S     -1.466844    0.984273   -1.901858
  O     -3.691321   -0.098865   -0.214912
  C     -3.962305   -1.273870   -0.986389
  O     -2.506430    1.795007    0.753624
  C     -3.121612    1.680164    2.052543
  H      5.310071   -2.658714   -3.086864
  H      4.737526   -3.339092   -1.558262
  H      3.707557   -3.407965   -2.998664
  H      3.537948   -0.904082   -2.984861
  H      4.546048   -0.867324   -1.504293
  H      1.502522   -1.919662    1.702602
  H      0.928629   -2.875269    0.318255
  H      1.507558    3.027688    0.425038
  H     -0.188839    3.442347    0.830541
  H      1.337196    3.998103    2.733821
  H      0.231273    2.693426    3.193540
  H      1.912426    2.326636    2.770672
  H     -5.045415   -1.358149   -1.021474
  H     -3.524380   -2.145374   -0.500087
  H     -3.556613   -1.164000   -1.993360
  H     -4.147892    1.334267    1.947195
  H     -3.093221    2.682923    2.470941
  H     -2.555511    0.984555    2.672075

 Total Charge           Charge          ....    0
 Multiplicity           Mult            ....    1
 Number of Electrons    NEL             ....  174
 Basis Dimension        Dim             ....  510

ORBITAL ENERGIES
----------------

  NO   OCC          E(Eh)            E(eV)
   0   2.0000     -88.580665     -2410.4024
   1   2.0000     -88.529916     -2409.0215
   2   2.0000     -76.921579     -2093.1426
   3   2.0000     -19.012203      -517.3483
   4   2.0000     -19.004754      -517.1456
   5   2.0000     -18.998097      -516.9645
   6   2.0000     -18.994602      -516.8694
   7   2.0000     -18.955868      -515.8154
   8   2.0000     -18.946167      -515.5514
   9   2.0000     -10.176988      -276.9299
  10   2.0000     -10.171458      -276.7794
  11   2.0000     -10.098899      -274.8050
  12   2.0000     -10.088443      -274.5205
  13   2.0000     -10.085438      -274.4387
  14   2.0000     -10.085346      -274.4362
  15   2.0000     -10.081644      -274.3355
  16   2.0000     -10.058963      -273.7183
  17   2.0000     -10.020790      -272.6796
  18   2.0000     -10.018485      -272.6168
  19   2.0000      -7.874837      -214.2852
  20   2.0000      -7.824925      -212.9270
  21   2.0000      -6.599848      -179.5910
  22   2.0000      -5.821705      -158.4166
  23   2.0000      -5.818827      -158.3383
  24   2.0000      -5.811856      -158.1486
  25   2.0000      -5.772681      -157.0826
  26   2.0000      -5.765214      -156.8794
  27   2.0000      -5.764763      -156.8672
  28   2.0000      -4.745538      -129.1327
  29   2.0000      -4.744870      -129.1145
  30   2.0000      -4.743430      -129.0753
  31   2.0000      -1.093777       -29.7632
  32   2.0000      -1.083220       -29.4759
  33   2.0000      -1.054562       -28.6961
  34   2.0000      -1.011555       -27.5258
  35   2.0000      -1.003792       -27.3146
  36   2.0000      -0.994163       -27.0526
  37   2.0000      -0.815620       -22.1941
  38   2.0000      -0.753492       -20.5035
  39   2.0000      -0.739986       -20.1360
  40   2.0000      -0.729687       -19.8558
  41   2.0000      -0.696532       -18.9536
  42   2.0000      -0.670726       -18.2514
  43   2.0000      -0.660666       -17.9776
  44   2.0000      -0.651523       -17.7288
  45   2.0000      -0.625697       -17.0261
  46   2.0000      -0.602035       -16.3822
  47   2.0000      -0.542450       -14.7608
  48   2.0000      -0.527321       -14.3491
  49   2.0000      -0.525828       -14.3085
  50   2.0000      -0.502790       -13.6816
  51   2.0000      -0.493087       -13.4176
  52   2.0000      -0.489284       -13.3141
  53   2.0000      -0.468172       -12.7396
  54   2.0000      -0.462773       -12.5927
  55   2.0000      -0.457949       -12.4614
  56   2.0000      -0.449615       -12.2347
  57   2.0000      -0.447031       -12.1643
  58   2.0000      -0.438759       -11.9392
  59   2.0000      -0.427573       -11.6349
  60   2.0000      -0.418707       -11.3936
  61   2.0000      -0.412868       -11.2347
  62   2.0000      -0.411046       -11.1851
  63   2.0000      -0.400557       -10.8997
  64   2.0000      -0.393021       -10.6946
  65   2.0000      -0.381908       -10.3922
  66   2.0000      -0.377364       -10.2686
  67   2.0000      -0.363485        -9.8909
  68   2.0000      -0.359710        -9.7882
  69   2.0000      -0.355460        -9.6726
  70   2.0000      -0.348887        -9.4937
  71   2.0000      -0.344356        -9.3704
  72   2.0000      -0.336993        -9.1701
  73   2.0000      -0.334297        -9.0967
  74   2.0000      -0.321214        -8.7407
  75   2.0000      -0.316397        -8.6096
  76   2.0000      -0.309377        -8.4186
  77   2.0000      -0.307175        -8.3587
  78   2.0000      -0.291598        -7.9348
  79   2.0000      -0.287755        -7.8302
  80   2.0000      -0.283626        -7.7178
  81   2.0000      -0.278669        -7.5830
  82   2.0000      -0.272582        -7.4173
  83   2.0000      -0.254570        -6.9272
  84   2.0000      -0.237626        -6.4661
  85   2.0000      -0.230000        -6.2586
  86   2.0000      -0.225423        -6.1341
  87   0.0000      -0.050825        -1.3830
  88   0.0000      -0.038169        -1.0386
  89   0.0000      -0.021212        -0.5772
  90   0.0000       0.002293         0.0624
  91   0.0000       0.012120         0.3298

MULLIKEN ATOMIC CHARGES
-----------------------
   0 C :   -0.494944
   1 C :   -0.135647
   2 O :   -0.163069
   3 C :    0.392145
   4 O :   -0.475922
   5 C :   -0.504935
   6 C :    0.043330
   7 H :    0.266871
   8 C :    0.284586
   9 O :   -0.449849
  10 O :   -0.126155
  11 C :   -0.161685
  12 C :   -0.496214
  13 S :   -0.204626
  14 P :    0.798657
  15 S :   -0.506949
  16 O :   -0.377903
  17 C :   -0.304979
  18 O :   -0.349913
  19 C :   -0.296828
  20 H :    0.171235
  21 H :    0.171044
  22 H :    0.166518
  23 H :    0.176624
  24 H :    0.173626
  25 H :    0.217614
  26 H :    0.224974
  27 H :    0.179824
  28 H :    0.184251
  29 H :    0.175099
  30 H :    0.170027
  31 H :    0.171279
  32 H :    0.179767
  33 H :    0.175413
  34 H :    0.176498
  35 H :    0.184775
  36 H :    0.184846
  37 H :    0.180615
Sum of atomic charges:   -0.0000000

LOEWDIN ATOMIC CHARGES
----------------------
   0 C :   -0.392262
   1 C :    0.035432
   2 O :   -0.595555
   3 C :    0.363172
   4 O :   -0.474225
   5 C :   -0.195648
   6 C :   -0.200677
   7 H :    0.223776
   8 C :    0.371513
   9 O :   -0.448518
  10 O :   -0.624061
  11 C :    0.040811
  12 C :   -0.386257
  13 S :    0.210985
  14 P :    0.403111
  15 S :   -0.131685
  16 O :   -0.694502
  17 C :   -0.055063
  18 O :   -0.667100
  19 C :   -0.042467
  20 H :    0.168146
  21 H :    0.163630
  22 H :    0.162566
  23 H :    0.190443
  24 H :    0.190447
  25 H :    0.198268
  26 H :    0.205558
  27 H :    0.193975
  28 H :    0.193497
  29 H :    0.169485
  30 H :    0.163426
  31 H :    0.163836
  32 H :    0.188861
  33 H :    0.176250
  34 H :    0.177403
  35 H :    0.182008
  36 H :    0.191866
  37 H :    0.179557

  Mayer bond orders larger than 0.100000
B(  0-C ,  1-C ) :   0.9319 B(  0-C , 20-H ) :   0.9601 B(  0-C , 21-H ) :   0.9689
B(  0-C , 22-H ) :   0.9694 B(  1-C ,  2-O ) :   0.7944 B(  1-C , 23-H ) :   0.9520
B(  1-C , 24-H ) :   0.9635 B(  2-O ,  3-C ) :   1.0854 B(  3-C ,  4-O ) :   1.8282
B(  3-C ,  5-C ) :   0.8929 B(  5-C ,  6-C ) :   0.8277 B(  5-C , 25-H ) :   1.0222
B(  5-C , 26-H ) :   0.9209 B(  6-C ,  7-H ) :   0.8900 B(  6-C ,  8-C ) :   0.9398
B(  6-C , 13-S ) :   0.8445 B(  8-C ,  9-O ) :   1.7466 B(  8-C , 10-O ) :   1.2059
B( 10-O , 11-C ) :   0.7462 B( 11-C , 12-C ) :   0.9198 B( 11-C , 27-H ) :   0.9542
B( 11-C , 28-H ) :   0.9515 B( 12-C , 29-H ) :   0.9613 B( 12-C , 30-H ) :   0.9730
B( 12-C , 31-H ) :   0.9690 B( 13-S , 14-P ) :   1.0051 B( 14-P , 15-S ) :   1.7774
B( 14-P , 16-O ) :   1.0400 B( 14-P , 18-O ) :   1.1551 B( 16-O , 17-C ) :   0.8223
B( 17-C , 32-H ) :   0.9573 B( 17-C , 33-H ) :   0.9497 B( 17-C , 34-H ) :   0.9556
B( 18-O , 19-C ) :   0.7839 B( 19-C , 35-H ) :   0.9517 B( 19-C , 36-H ) :   0.9543
B( 19-C , 37-H ) :   0.9482

Dispersion correction           -0.017315155
FINAL SINGLE POINT ENERGY     -1981.467705887907

DIPOLE MOMENT
-------------

Method             : SCF
Type of density    : Electron Density
Multiplicity       :   1
Irrep              :   0
Energy             : -1981.4878394645829758 Eh
Relativity type    :
Basis              : AO
                                X                 Y                 Z
Electronic contribution:    -11.027384049       1.081811623      -1.659813048
Nuclear contribution   :      9.071525036      -1.389691823       2.535596973
                        -----------------------------------------
Total Dipole Moment    :     -1.955859013      -0.307880200       0.875783926
                        -----------------------------------------
Magnitude (a.u.)       :      2.164987801
Magnitude (Debye)      :      5.502961664

Rotational constants in cm-1:             0.014636             0.006307             0.005351
Rotational constants in MHz :           438.775503           189.082271           160.411037

                             ****ORCA TERMINATED NORMALLY****
TOTAL RUN TIME: 0 days 0 hours 1 minutes 47 seconds 937 msec
