                         Program Version 6.0.1  -  RELEASE   -
|  1> ! pbe def2-sv(p) def2/J RI DEFGRID1 loosescf d4 GCP(DFT/SV(P)) printgap
|  2> %output
|  3>     printlevel normal
|  4> end
|  5> * xyz 0 1
|  6> C 1.5959780565 -3.6304437733 -2.1522476217
|  7> C 2.7071658148 -3.2873600117 -1.1729382964
|  8> O 2.7588007629 -1.8669489313 -0.9378689732
|  9> C 1.9683960531 -1.3535708813 -0.0222192699
| 10> O 1.2366844071 -1.9928099244 0.7027963305
| 11> C 2.0632755416 0.1616473263 0.0093021755
| 12> C 1.1094068251 0.7470882677 -1.0488840335
| 13> H 1.6375301374 0.9374896781 -1.9840316561
| 14> C 0.4702494241 2.0211533027 -0.5246978544
| 15> O -0.7194452943 2.0886595434 -0.2832822666
| 16> O 1.335396363 2.976939509 -0.3549555551
| 17> C 0.8894207149 4.2044575241 0.2675724556
| 18> C 0.9390747365 4.0771924413 1.7810961486
| 19> S -0.2607483758 -0.374941828 -1.5043762782
| 20> P -1.376115585 -0.3436143059 0.2872573311
| 21> S -0.7858756509 0.2621024563 2.0647294581
| 22> O -2.8494456095 0.1612371036 -0.087988313
| 23> C -3.4088614356 1.4301445952 0.2473416799
| 24> O -1.6488845092 -1.920202595 0.2127882254
| 25> C -2.3711963405 -2.5990973792 1.2420408268
| 26> H 1.6114605252 -4.6959434316 -2.3555685361
| 27> H 0.6288317216 -3.3633951606 -1.7304415148
| 28> H 1.731155174 -3.0820909687 -3.0800528015
| 29> H 3.6882636059 -3.5311944721 -1.5801937538
| 30> H 2.5516209869 -3.7940015487 -0.2161149847
| 31> H 3.0833683536 0.4745217975 -0.203340564
| 32> H 1.7681753009 0.4870990828 1.0086220177
| 33> H 1.5874031496 4.9581932865 -0.095251658
| 34> H -0.1259303809 4.4209800605 -0.0731255602
| 35> H 1.9520827526 3.8615841937 2.1085928454
| 36> H 0.6075324541 5.006661458 2.2313815697
| 37> H 0.2860969866 3.2722461479 2.1156797457
| 38> H -4.4766402668 1.2623665338 0.3685824187
| 39> H -3.2140276618 2.137188434 -0.5560721078
| 40> H -2.9692709493 1.7989391655 1.1753729699
| 41> H -1.9625997203 -2.3359100397 2.219902353
| 42> H -2.2310443649 -3.6594639776 1.0490780602
| 43> H -3.4274422606 -2.3333535116 1.1964181988
| 44> *
| 45>
| 46>                          ****END OF INPUT****

CARTESIAN COORDINATES (ANGSTROEM)
---------------------------------
  C      1.595978   -3.630444   -2.152248
  C      2.707166   -3.287360   -1.172938
  O      2.758801   -1.866949   -0.937869
  C      1.968396   -1.353571   -0.022219
  O      1.236684   -1.992810    0.702796
  C      2.063276    0.161647    0.009302
  C      1.109407    0.747088   -1.048884
  H      1.637530    0.937490   -1.984032
  C      0.470249    2.021153   -0.524698
  O     -0.719445    2.088660   -0.283282
  O      1.335396    2.976940   -0.354956
  C      0.889421    4.204458    0.267572
  C      0.939075    4.077192    1.781096
  S     -0.260748   -0.374942   -1.504376
  P     -1.376116   -0.343614    0.287257
  S     -0.785876    0.262102    2.064729
  O     -2.849446    0.161237   -0.087988
  C     -3.408861    1.430145    0.247342
  O     -1.648885   -1.920203    0.212788
  C     -2.371196   -2.599097    1.242041
  H      1.611461   -4.695943   -2.355569
  H      0.628832   -3.363395   -1.730442
  H      1.731155   -3.082091   -3.080053
  H      3.688264   -3.531194   -1.580194
  H      2.551621   -3.794002   -0.216115
  H      3.083368    0.474522   -0.203341
  H      1.768175    0.487099    1.008622
  H      1.587403    4.958193   -0.095252
  H     -0.125930    4.420980   -0.073126
  H      1.952083    3.861584    2.108593
  H      0.607532    5.006661    2.231382
  H      0.286097    3.272246    2.115680
  H     -4.476640    1.262367    0.368582
  H     -3.214028    2.137188   -0.556072
  H     -2.969271    1.798939    1.175373
  H     -1.962600   -2.335910    2.219902
  H     -2.231044   -3.659464    1.049078
  H     -3.427442   -2.333354    1.196418

 Total Charge           Charge          ....    0
 Multiplicity           Mult            ....    1
 Number of Electrons    NEL             ....  174
 Basis Dimension        Dim             ....  316

ORBITAL ENERGIES
----------------

  NO   OCC          E(Eh)            E(eV)
   0   2.0000     -88.033369     -2395.5098
   1   2.0000     -87.969317     -2393.7668
   2   2.0000     -76.415080     -2079.3600
   3   2.0000     -18.824755      -512.2476
   4   2.0000     -18.797395      -511.5031
   5   2.0000     -18.774489      -510.8798
   6   2.0000     -18.769187      -510.7355
   7   2.0000     -18.759755      -510.4789
   8   2.0000     -18.729029      -509.6428
   9   2.0000     -10.029123      -272.9063
  10   2.0000     -10.003350      -272.2050
  11   2.0000      -9.960051      -271.0268
  12   2.0000      -9.954556      -270.8773
  13   2.0000      -9.942549      -270.5505
  14   2.0000      -9.926260      -270.1073
  15   2.0000      -9.925980      -270.0996
  16   2.0000      -9.905242      -269.5353
  17   2.0000      -9.890119      -269.1238
  18   2.0000      -9.877907      -268.7915
  19   2.0000      -7.678135      -208.9327
  20   2.0000      -7.614525      -207.2017
  21   2.0000      -6.410797      -174.4467
  22   2.0000      -5.706377      -155.2784
  23   2.0000      -5.703017      -155.1870
  24   2.0000      -5.694275      -154.9491
  25   2.0000      -5.643690      -153.5726
  26   2.0000      -5.635292      -153.3441
  27   2.0000      -5.634172      -153.3136
  28   2.0000      -4.633245      -126.0770
  29   2.0000      -4.632863      -126.0666
  30   2.0000      -4.631495      -126.0294
  31   2.0000      -1.034432       -28.1483
  32   2.0000      -1.005189       -27.3526
  33   2.0000      -0.965134       -26.2626
  34   2.0000      -0.939181       -25.5564
  35   2.0000      -0.920786       -25.0559
  36   2.0000      -0.907034       -24.6816
  37   2.0000      -0.766521       -20.8581
  38   2.0000      -0.715468       -19.4689
  39   2.0000      -0.704331       -19.1658
  40   2.0000      -0.682628       -18.5753
  41   2.0000      -0.646292       -17.5865
  42   2.0000      -0.626048       -17.0356
  43   2.0000      -0.616258       -16.7692
  44   2.0000      -0.613357       -16.6903
  45   2.0000      -0.591448       -16.0941
  46   2.0000      -0.565094       -15.3770
  47   2.0000      -0.510328       -13.8867
  48   2.0000      -0.500411       -13.6169
  49   2.0000      -0.493157       -13.4195
  50   2.0000      -0.483866       -13.1667
  51   2.0000      -0.460673       -12.5355
  52   2.0000      -0.456714       -12.4278
  53   2.0000      -0.451000       -12.2723
  54   2.0000      -0.437524       -11.9056
  55   2.0000      -0.431259       -11.7352
  56   2.0000      -0.419069       -11.4034
  57   2.0000      -0.411906       -11.2085
  58   2.0000      -0.407174       -11.0798
  59   2.0000      -0.398878       -10.8540
  60   2.0000      -0.394702       -10.7404
  61   2.0000      -0.391887       -10.6638
  62   2.0000      -0.383205       -10.4275
  63   2.0000      -0.380144       -10.3442
  64   2.0000      -0.373426       -10.1614
  65   2.0000      -0.366827        -9.9819
  66   2.0000      -0.354908        -9.6575
  67   2.0000      -0.351628        -9.5683
  68   2.0000      -0.349132        -9.5004
  69   2.0000      -0.337472        -9.1831
  70   2.0000      -0.334622        -9.1055
  71   2.0000      -0.327305        -8.9064
  72   2.0000      -0.318153        -8.6574
  73   2.0000      -0.310509        -8.4494
  74   2.0000      -0.301811        -8.2127
  75   2.0000      -0.288795        -7.8585
  76   2.0000      -0.287746        -7.8300
  77   2.0000      -0.281572        -7.6620
  78   2.0000      -0.273993        -7.4557
  79   2.0000      -0.259615        -7.0645
  80   2.0000      -0.254513        -6.9257
  81   2.0000      -0.247913        -6.7460
  82   2.0000      -0.240731        -6.5506
  83   2.0000      -0.217162        -5.9093
  84   2.0000      -0.206492        -5.6189
  85   2.0000      -0.189358        -5.1527
  86   2.0000      -0.180013        -4.8984
  87   0.0000      -0.044847        -1.2204
  88   0.0000      -0.041581        -1.1315
  89   0.0000      -0.013368        -0.3638
  90   0.0000       0.008206         0.2233
  91   0.0000       0.035547         0.9673

MULLIKEN ATOMIC CHARGES
-----------------------
   0 C :   -0.308013
   1 C :   -0.011599
   2 O :   -0.230890
   3 C :    0.087631
   4 O :   -0.181189
   5 C :   -0.033942
   6 C :   -0.319848
   7 H :    0.147592
   8 C :    0.211470
   9 O :   -0.189367
  10 O :   -0.217377
  11 C :   -0.012654
  12 C :   -0.317299
  13 S :   -0.069972
  14 P :    0.659415
  15 S :   -0.342766
  16 O :   -0.389806
  17 C :   -0.085686
  18 O :   -0.379492
  19 C :   -0.091668
  20 H :    0.107344
  21 H :    0.142460
  22 H :    0.106790
  23 H :    0.098949
  24 H :    0.108071
  25 H :    0.106828
  26 H :    0.128213
  27 H :    0.108449
  28 H :    0.113308
  29 H :    0.116824
  30 H :    0.115227
  31 H :    0.146034
  32 H :    0.111284
  33 H :    0.112953
  34 H :    0.110152
  35 H :    0.119751
  36 H :    0.118419
  37 H :    0.104403
Sum of atomic charges:   -0.0000000

LOEWDIN ATOMIC CHARGES
----------------------
   0 C :   -0.359651
   1 C :   -0.110124
   2 O :   -0.060420
   3 C :    0.011515
   4 O :   -0.156120
   5 C :   -0.254501
   6 C :   -0.256628
   7 H :    0.149124
   8 C :    0.022612
   9 O :   -0.155232
  10 O :   -0.036678
  11 C :   -0.105309
  12 C :   -0.359402
  13 S :    0.137583
  14 P :    0.598638
  15 S :   -0.320075
  16 O :   -0.256664
  17 C :   -0.213821
  18 O :   -0.256391
  19 C :   -0.213041
  20 H :    0.127653
  21 H :    0.131608
  22 H :    0.121638
  23 H :    0.115489
  24 H :    0.120065
  25 H :    0.137958
  26 H :    0.137628
  27 H :    0.120678
  28 H :    0.122124
  29 H :    0.126622
  30 H :    0.132540
  31 H :    0.133266
  32 H :    0.113353
  33 H :    0.110999
  34 H :    0.105085
  35 H :    0.111184
  36 H :    0.119219
  37 H :    0.107479

  Mayer bond orders larger than 0.100000
B(  0-C ,  1-C ) :   1.1763 B(  0-C , 20-H ) :   0.9425 B(  0-C , 21-H ) :   0.9371
B(  0-C , 22-H ) :   0.9490 B(  1-C ,  2-O ) :   0.9139 B(  1-C , 23-H ) :   0.9380
B(  1-C , 24-H ) :   0.9136 B(  2-O ,  3-C ) :   1.2252 B(  3-C ,  4-O ) :   2.0341
B(  3-C ,  5-C ) :   1.0205 B(  5-C ,  6-C ) :   1.0142 B(  5-C , 25-H ) :   0.8845
B(  5-C , 26-H ) :   0.8767 B(  6-C ,  7-H ) :   0.8683 B(  6-C ,  8-C ) :   0.9041
B(  6-C , 13-S ) :   1.0731 B(  8-C ,  9-O ) :   1.9447 B(  8-C , 10-O ) :   1.2815
B( 10-O , 11-C ) :   0.8954 B( 11-C , 12-C ) :   1.1765 B( 11-C , 27-H ) :   0.9362
B( 11-C , 28-H ) :   0.9152 B( 12-C , 29-H ) :   0.9476 B( 12-C , 30-H ) :   0.9413
B( 12-C , 31-H ) :   0.9308 B( 13-S , 14-P ) :   0.9131 B( 13-S , 15-S ) :   0.1139
B( 14-P , 15-S ) :   1.5526 B( 14-P , 16-O ) :   1.0957 B( 14-P , 18-O ) :   1.0930
B( 16-O , 17-C ) :   0.9351 B( 17-C , 32-H ) :   0.9554 B( 17-C , 33-H ) :   0.9526
B( 17-C , 34-H ) :   0.9317 B( 18-O , 19-C ) :   0.9386 B( 19-C , 35-H ) :   0.9352
B( 19-C , 36-H ) :   0.9603 B( 19-C , 37-H ) :   0.9505

Dispersion correction           -0.055318669
FINAL SINGLE POINT ENERGY     -1979.005920319603

DIPOLE MOMENT
-------------

Method             : SCF
Type of density    : Electron Density
Multiplicity       :   1
Irrep              :   0
Energy             : -1979.1343858398886368 Eh
Relativity type    :
Basis              : AO
                                X                 Y                 Z
Electronic contribution:     -3.233612387      -1.152520290      -1.872880399
Nuclear contribution   :      3.819527349       2.011366379       1.216572567
                        -----------------------------------------
Total Dipole Moment    :      0.585914962       0.858846088      -0.656307832
                        -----------------------------------------
Magnitude (a.u.)       :      1.229492951
Magnitude (Debye)      :      3.125122724

Rotational constants in cm-1:             0.012565             0.008840             0.006472
Rotational constants in MHz :           376.689923           265.026918           194.035023

                             ****ORCA TERMINATED NORMALLY****
TOTAL RUN TIME: 0 days 0 hours 0 minutes 49 seconds 832 msec
