                         Program Version 6.0.0  -   RELEASE  -
|  1> ! pbe def2-sv(p) def2/J RI DEFGRID1 loosescf d4 GCP(DFT/SV(P)) printgap
|  2> %output
|  3>     printlevel normal
|  4> end
|  5> * xyz 0 1
|  6> C 2.3211630243 -2.8874891826 1.8952652548
|  7> C 1.3855548722 -2.1187658775 0.9836653603
|  8> O 1.7447626618 -0.7259542549 0.9986308202
|  9> P 2.3331535274 0.0807215043 -0.2465661406
| 10> S 3.02786145 -0.998985603 -1.7146358441
| 11> O 3.4315728758 0.9965392384 0.4131350602
| 12> C 3.1610368651 1.8757978754 1.5365540958
| 13> C 4.4149884917 2.6844341214 1.7927235096
| 14> S 0.8140438435 1.5014866217 -0.7475714063
| 15> C 0.0409110127 0.54682993 -2.0737833484
| 16> S -0.7030833044 -0.9986377447 -1.4884542485
| 17> P -2.0692670659 -0.1098115467 -0.1288211849
| 18> S -2.8809323819 1.5759960721 -0.7233515497
| 19> O -1.223993023 -0.0494564273 1.2068259099
| 20> C -1.3954121638 0.9993385763 2.1802329063
| 21> C -2.6797634835 0.8113416759 2.9591240459
| 22> O -3.0377792329 -1.3193089668 0.2133500141
| 23> C -3.9724528769 -1.8725291708 -0.7350401663
| 24> C -5.3136046949 -1.1687141802 -0.657816769
| 25> H 2.2847955616 -2.4820177281 2.9023282231
| 26> H 2.0197480488 -3.9297480074 1.9153933082
| 27> H 3.3403054425 -2.8183210183 1.5210125074
| 28> H 0.3498584453 -2.1685469467 1.3281217148
| 29> H 1.4469496062 -2.4963202285 -0.0423171286
| 30> H 2.3153501822 2.5177694731 1.2738866815
| 31> H 2.8954509186 1.2573480304 2.396156763
| 32> H 5.2458850992 2.0217712706 2.0168936568
| 33> H 4.6649464186 3.2726305092 0.9145091156
| 34> H 4.2449553981 3.348260537 2.634166457
| 35> H 0.7908028395 0.267974654 -2.8133965138
| 36> H -0.7298873981 1.1861415923 -2.5032334478
| 37> H -0.5130421407 0.917459019 2.8164990951
| 38> H -1.3898924702 1.9638593917 1.6617608318
| 39> H -2.6986461596 -0.1708527009 3.423490404
| 40> H -2.7555715448 1.5777261786 3.7238704132
| 41> H -3.5302765185 0.8973335557 2.2836466115
| 42> H -3.5480760299 -1.8044215722 -1.7409724311
| 43> H -4.0578944091 -2.9223544969 -0.4483371917
| 44> H -6.006853461 -1.64538171 -1.3433015331
| 45> H -5.7093789053 -1.2282205723 0.3521922841
| 46> H -5.2083925928 -0.1214035221 -0.9321012272
| 47> *
| 48>
| 49>                          ****END OF INPUT****

CARTESIAN COORDINATES (ANGSTROEM)
---------------------------------
  C      2.321163   -2.887489    1.895265
  C      1.385555   -2.118766    0.983665
  O      1.744763   -0.725954    0.998631
  P      2.333154    0.080722   -0.246566
  S      3.027861   -0.998986   -1.714636
  O      3.431573    0.996539    0.413135
  C      3.161037    1.875798    1.536554
  C      4.414988    2.684434    1.792724
  S      0.814044    1.501487   -0.747571
  C      0.040911    0.546830   -2.073783
  S     -0.703083   -0.998638   -1.488454
  P     -2.069267   -0.109812   -0.128821
  S     -2.880932    1.575996   -0.723352
  O     -1.223993   -0.049456    1.206826
  C     -1.395412    0.999339    2.180233
  C     -2.679763    0.811342    2.959124
  O     -3.037779   -1.319309    0.213350
  C     -3.972453   -1.872529   -0.735040
  C     -5.313605   -1.168714   -0.657817
  H      2.284796   -2.482018    2.902328
  H      2.019748   -3.929748    1.915393
  H      3.340305   -2.818321    1.521013
  H      0.349858   -2.168547    1.328122
  H      1.446950   -2.496320   -0.042317
  H      2.315350    2.517769    1.273887
  H      2.895451    1.257348    2.396157
  H      5.245885    2.021771    2.016894
  H      4.664946    3.272631    0.914509
  H      4.244955    3.348261    2.634166
  H      0.790803    0.267975   -2.813397
  H     -0.729887    1.186142   -2.503233
  H     -0.513042    0.917459    2.816499
  H     -1.389892    1.963859    1.661761
  H     -2.698646   -0.170853    3.423490
  H     -2.755572    1.577726    3.723870
  H     -3.530277    0.897334    2.283647
  H     -3.548076   -1.804422   -1.740972
  H     -4.057894   -2.922354   -0.448337
  H     -6.006853   -1.645382   -1.343302
  H     -5.709379   -1.228221    0.352192
  H     -5.208393   -0.121404   -0.932101

 Total Charge           Charge          ....    0
 Multiplicity           Mult            ....    1
 Number of Electrons    NEL             ....  202
 Basis Dimension        Dim             ....  334

ORBITAL ENERGIES
----------------

  NO   OCC          E(Eh)            E(eV)
   0   2.0000     -88.044657     -2395.8169
   1   2.0000     -88.038716     -2395.6553
   2   2.0000     -87.992554     -2394.3991
   3   2.0000     -87.985976     -2394.2201
   4   2.0000     -76.430646     -2079.7836
   5   2.0000     -76.424564     -2079.6181
   6   2.0000     -18.797970      -511.5188
   7   2.0000     -18.794509      -511.4246
   8   2.0000     -18.792713      -511.3757
   9   2.0000     -18.786572      -511.2086
  10   2.0000      -9.961711      -271.0719
  11   2.0000      -9.959022      -270.9988
  12   2.0000      -9.954031      -270.8630
  13   2.0000      -9.952811      -270.8297
  14   2.0000      -9.942546      -270.5504
  15   2.0000      -9.892523      -269.1892
  16   2.0000      -9.885452      -268.9968
  17   2.0000      -9.884379      -268.9676
  18   2.0000      -9.880912      -268.8733
  19   2.0000      -7.689319      -209.2370
  20   2.0000      -7.683498      -209.0786
  21   2.0000      -7.637428      -207.8250
  22   2.0000      -7.631260      -207.6571
  23   2.0000      -6.427946      -174.9133
  24   2.0000      -6.422160      -174.7559
  25   2.0000      -5.717120      -155.5708
  26   2.0000      -5.713875      -155.4825
  27   2.0000      -5.711315      -155.4128
  28   2.0000      -5.708144      -155.3265
  29   2.0000      -5.706361      -155.2780
  30   2.0000      -5.700436      -155.1167
  31   2.0000      -5.666206      -154.1853
  32   2.0000      -5.660232      -154.0227
  33   2.0000      -5.658006      -153.9622
  34   2.0000      -5.657786      -153.9562
  35   2.0000      -5.651808      -153.7935
  36   2.0000      -5.651379      -153.7818
  37   2.0000      -4.650340      -126.5422
  38   2.0000      -4.649797      -126.5274
  39   2.0000      -4.648514      -126.4925
  40   2.0000      -4.644949      -126.3955
  41   2.0000      -4.643684      -126.3611
  42   2.0000      -4.642668      -126.3334
  43   2.0000      -0.991470       -26.9793
  44   2.0000      -0.985541       -26.8179
  45   2.0000      -0.949585       -25.8395
  46   2.0000      -0.941090       -25.6084
  47   2.0000      -0.764966       -20.8158
  48   2.0000      -0.723873       -19.6976
  49   2.0000      -0.712886       -19.3986
  50   2.0000      -0.689376       -18.7589
  51   2.0000      -0.688144       -18.7253
  52   2.0000      -0.672870       -18.3097
  53   2.0000      -0.652284       -17.7496
  54   2.0000      -0.640905       -17.4399
  55   2.0000      -0.600412       -16.3380
  56   2.0000      -0.584956       -15.9175
  57   2.0000      -0.575174       -15.6513
  58   2.0000      -0.572169       -15.5695
  59   2.0000      -0.564019       -15.3477
  60   2.0000      -0.509617       -13.8674
  61   2.0000      -0.499759       -13.5991
  62   2.0000      -0.481225       -13.0948
  63   2.0000      -0.478853       -13.0303
  64   2.0000      -0.457869       -12.4593
  65   2.0000      -0.444991       -12.1088
  66   2.0000      -0.443479       -12.0677
  67   2.0000      -0.437744       -11.9116
  68   2.0000      -0.427470       -11.6321
  69   2.0000      -0.407922       -11.1001
  70   2.0000      -0.402431       -10.9507
  71   2.0000      -0.400601       -10.9009
  72   2.0000      -0.392497       -10.6804
  73   2.0000      -0.391641       -10.6571
  74   2.0000      -0.381247       -10.3743
  75   2.0000      -0.377102       -10.2615
  76   2.0000      -0.368087       -10.0162
  77   2.0000      -0.358250        -9.7485
  78   2.0000      -0.356023        -9.6879
  79   2.0000      -0.353233        -9.6120
  80   2.0000      -0.350005        -9.5241
  81   2.0000      -0.345184        -9.3929
  82   2.0000      -0.339748        -9.2450
  83   2.0000      -0.338956        -9.2235
  84   2.0000      -0.335045        -9.1170
  85   2.0000      -0.321712        -8.7542
  86   2.0000      -0.315230        -8.5779
  87   2.0000      -0.306809        -8.3487
  88   2.0000      -0.300938        -8.1889
  89   2.0000      -0.289301        -7.8723
  90   2.0000      -0.286551        -7.7975
  91   2.0000      -0.279297        -7.6001
  92   2.0000      -0.270948        -7.3729
  93   2.0000      -0.268349        -7.3022
  94   2.0000      -0.254238        -6.9182
  95   2.0000      -0.235028        -6.3954
  96   2.0000      -0.216369        -5.8877
  97   2.0000      -0.214314        -5.8318
  98   2.0000      -0.209613        -5.7039
  99   2.0000      -0.201382        -5.4799
 100   2.0000      -0.198193        -5.3931
 101   0.0000      -0.047178        -1.2838
 102   0.0000      -0.025427        -0.6919
 103   0.0000      -0.004587        -0.1248
 104   0.0000       0.002070         0.0563
 105   0.0000       0.008674         0.2360

MULLIKEN ATOMIC CHARGES
-----------------------
   0 C :   -0.276101
   1 C :   -0.020084
   2 O :   -0.388397
   3 P :    0.627976
   4 S :   -0.312198
   5 O :   -0.365855
   6 C :   -0.030744
   7 C :   -0.275249
   8 S :   -0.120054
   9 C :   -0.342329
  10 S :   -0.089948
  11 P :    0.616860
  12 S :   -0.330510
  13 O :   -0.357335
  14 C :   -0.006873
  15 C :   -0.300726
  16 O :   -0.370302
  17 C :   -0.013247
  18 C :   -0.296695
  19 H :    0.106668
  20 H :    0.107612
  21 H :    0.115166
  22 H :    0.104665
  23 H :    0.114465
  24 H :    0.115747
  25 H :    0.110371
  26 H :    0.123521
  27 H :    0.124686
  28 H :    0.111339
  29 H :    0.192683
  30 H :    0.191154
  31 H :    0.101282
  32 H :    0.114984
  33 H :    0.114113
  34 H :    0.111074
  35 H :    0.123113
  36 H :    0.105337
  37 H :    0.109115
  38 H :    0.109334
  39 H :    0.114144
  40 H :    0.131241
Sum of atomic charges:   -0.0000000

LOEWDIN ATOMIC CHARGES
----------------------
   0 C :   -0.355234
   1 C :   -0.127544
   2 O :   -0.248583
   3 P :    0.570684
   4 S :   -0.305890
   5 O :   -0.242703
   6 C :   -0.114448
   7 C :   -0.348851
   8 S :    0.067428
   9 C :   -0.478918
  10 S :    0.092028
  11 P :    0.570201
  12 S :   -0.316399
  13 O :   -0.228955
  14 C :   -0.119657
  15 C :   -0.363792
  16 O :   -0.243783
  17 C :   -0.116012
  18 C :   -0.364382
  19 H :    0.121128
  20 H :    0.128832
  21 H :    0.125847
  22 H :    0.109059
  23 H :    0.102982
  24 H :    0.107330
  25 H :    0.113526
  26 H :    0.130985
  27 H :    0.131663
  28 H :    0.130757
  29 H :    0.131538
  30 H :    0.130992
  31 H :    0.115852
  32 H :    0.108854
  33 H :    0.125301
  34 H :    0.130022
  35 H :    0.122702
  36 H :    0.107554
  37 H :    0.119814
  38 H :    0.129702
  39 H :    0.125779
  40 H :    0.124591

  Mayer bond orders larger than 0.100000
B(  0-C ,  1-C ) :   1.1587 B(  0-C , 19-H ) :   0.9504 B(  0-C , 20-H ) :   0.9419
B(  0-C , 21-H ) :   0.9474 B(  1-C ,  2-O ) :   0.8985 B(  1-C , 22-H ) :   0.9244
B(  1-C , 23-H ) :   0.9020 B(  2-O ,  3-P ) :   1.0835 B(  3-P ,  4-S ) :   1.6424
B(  3-P ,  5-O ) :   1.1392 B(  3-P ,  8-S ) :   0.9309 B(  4-S ,  8-S ) :   0.1035
B(  5-O ,  6-C ) :   0.8986 B(  6-C ,  7-C ) :   1.1634 B(  6-C , 24-H ) :   0.9177
B(  6-C , 25-H ) :   0.9252 B(  7-C , 26-H ) :   0.9501 B(  7-C , 27-H ) :   0.9496
B(  7-C , 28-H ) :   0.9403 B(  8-S ,  9-C ) :   1.0193 B(  9-C , 10-S ) :   0.9969
B(  9-C , 29-H ) :   0.8820 B(  9-C , 30-H ) :   0.8851 B( 10-S , 11-P ) :   0.9537
B( 10-S , 12-S ) :   0.1087 B( 11-P , 12-S ) :   1.5938 B( 11-P , 13-O ) :   1.1167
B( 11-P , 16-O ) :   1.1181 B( 13-O , 14-C ) :   0.8988 B( 14-C , 15-C ) :   1.1644
B( 14-C , 31-H ) :   0.9321 B( 14-C , 32-H ) :   0.9120 B( 15-C , 33-H ) :   0.9467
B( 15-C , 34-H ) :   0.9400 B( 15-C , 35-H ) :   0.9351 B( 16-O , 17-C ) :   0.9043
B( 17-C , 18-C ) :   1.1674 B( 17-C , 36-H ) :   0.9160 B( 17-C , 37-H ) :   0.9359
B( 18-C , 38-H ) :   0.9390 B( 18-C , 39-H ) :   0.9471 B( 18-C , 40-H ) :   0.9314

Dispersion correction           -0.065739939
FINAL SINGLE POINT ENERGY     -2929.524354055361

DIPOLE MOMENT
-------------

Method             : SCF
Type of density    : Electron Density
Multiplicity       :   1
Irrep              :   0
Energy             : -2929.6433821473633543 Eh
Relativity type    :
Basis              : AO
                                X                 Y                 Z
Electronic contribution:      5.745930282       2.259665763     -19.103315136
Nuclear contribution   :     -6.373663540      -2.422607609      20.533490104
                        -----------------------------------------
Total Dipole Moment    :     -0.627733258      -0.162941846       1.430174967
                        -----------------------------------------
Magnitude (a.u.)       :      1.570350128
Magnitude (Debye)      :      3.991512816

Rotational constants in cm-1:             0.012087             0.005134             0.004861
Rotational constants in MHz :           362.349674           153.907947           145.725264

                             ****ORCA TERMINATED NORMALLY****
TOTAL RUN TIME: 0 days 0 hours 0 minutes 21 seconds 394 msec
