                         Program Version 6.0.0  -   RELEASE  -
|  1> ! pbe def2-sv(p) def2/J RI DEFGRID1 loosescf d4 GCP(DFT/SV(P)) printgap
|  2> %output
|  3>     printlevel normal
|  4> end
|  5> * xyz 0 1
|  6> C 3.8146950588 0.6004373647 -2.9546988453
|  7> C 2.5123040352 0.4638464788 -2.1935302734
|  8> O 2.7866517069 -0.248965948 -0.9728853529
|  9> P 1.9694666193 -0.0638196422 0.3749761268
| 10> S 1.5140941263 1.7729950253 0.8598270583
| 11> O 2.9382993375 -0.6840058512 1.4515048594
| 12> C 3.5860949431 -1.9771227465 1.3107856605
| 13> C 3.0016853672 -2.9691586143 2.2967219209
| 14> S 0.4368248158 -1.5372924716 0.1498778779
| 15> C -0.4562998817 -1.2522741055 1.6943112604
| 16> S -1.4280745636 0.2980025655 1.7488429906
| 17> P -2.0685633529 0.4459394174 -0.2534808368
| 18> S -0.8954906409 0.9462176767 -1.7544730665
| 19> O -3.3019158359 1.4441161731 -0.1187858359
| 20> C -3.1664220875 2.8658274343 -0.2718103621
| 21> C -2.3470349192 3.4796853183 0.8455678022
| 22> O -2.7876453499 -0.9532661889 -0.3845202058
| 23> C -3.0094546945 -1.6495306043 -1.6326148128
| 24> C -2.5975614175 -3.0978521464 -1.4611385019
| 25> H 3.6234782041 1.1164757313 -3.889647446
| 26> H 4.5303606719 1.1710152407 -2.3690579995
| 27> H 4.228596868 -0.3819984854 -3.1620451379
| 28> H 1.769897929 -0.1043730452 -2.7597496856
| 29> H 2.0846774144 1.4410232872 -1.9462025852
| 30> H 3.4764713699 -2.3225910587 0.2813618039
| 31> H 4.6383550189 -1.7814804829 1.5217891994
| 32> H 3.5955174598 -3.8773994269 2.2734277258
| 33> H 3.0262939548 -2.5538601119 3.3005106548
| 34> H 1.9750192984 -3.2124253649 2.0350615354
| 35> H 0.2454717439 -1.1895964528 2.5249537414
| 36> H -1.1364660089 -2.0929212184 1.8113153129
| 37> H -2.7027487848 3.067454402 -1.2433215442
| 38> H -4.194435975 3.2303387416 -0.2668359366
| 39> H -1.3154747207 3.1265832719 0.794381931
| 40> H -2.3482635938 4.5602369479 0.7452413985
| 41> H -2.7595136194 3.2045380244 1.8133222001
| 42> H -4.0735691455 -1.5569412114 -1.8578887778
| 43> H -2.4265383069 -1.1584994794 -2.4192965668
| 44> H -3.1623718684 -3.5514844545 -0.6520457307
| 45> H -2.7970191282 -3.633663146 -2.3833103017
| 46> H -1.5360122274 -3.1598525533 -1.2319637318
| 47> *
| 48>
| 49>                          ****END OF INPUT****

CARTESIAN COORDINATES (ANGSTROEM)
---------------------------------
  C      3.814695    0.600437   -2.954699
  C      2.512304    0.463846   -2.193530
  O      2.786652   -0.248966   -0.972885
  P      1.969467   -0.063820    0.374976
  S      1.514094    1.772995    0.859827
  O      2.938299   -0.684006    1.451505
  C      3.586095   -1.977123    1.310786
  C      3.001685   -2.969159    2.296722
  S      0.436825   -1.537292    0.149878
  C     -0.456300   -1.252274    1.694311
  S     -1.428075    0.298003    1.748843
  P     -2.068563    0.445939   -0.253481
  S     -0.895491    0.946218   -1.754473
  O     -3.301916    1.444116   -0.118786
  C     -3.166422    2.865827   -0.271810
  C     -2.347035    3.479685    0.845568
  O     -2.787645   -0.953266   -0.384520
  C     -3.009455   -1.649531   -1.632615
  C     -2.597561   -3.097852   -1.461139
  H      3.623478    1.116476   -3.889647
  H      4.530361    1.171015   -2.369058
  H      4.228597   -0.381998   -3.162045
  H      1.769898   -0.104373   -2.759750
  H      2.084677    1.441023   -1.946203
  H      3.476471   -2.322591    0.281362
  H      4.638355   -1.781480    1.521789
  H      3.595517   -3.877399    2.273428
  H      3.026294   -2.553860    3.300511
  H      1.975019   -3.212425    2.035062
  H      0.245472   -1.189596    2.524954
  H     -1.136466   -2.092921    1.811315
  H     -2.702749    3.067454   -1.243322
  H     -4.194436    3.230339   -0.266836
  H     -1.315475    3.126583    0.794382
  H     -2.348264    4.560237    0.745241
  H     -2.759514    3.204538    1.813322
  H     -4.073569   -1.556941   -1.857889
  H     -2.426538   -1.158499   -2.419297
  H     -3.162372   -3.551484   -0.652046
  H     -2.797019   -3.633663   -2.383310
  H     -1.536012   -3.159853   -1.231964

 Total Charge           Charge          ....    0
 Multiplicity           Mult            ....    1
 Number of Electrons    NEL             ....  202
 Basis Dimension        Dim             ....  334

ORBITAL ENERGIES
----------------

  NO   OCC          E(Eh)            E(eV)
   0   2.0000     -88.044519     -2395.8132
   1   2.0000     -88.034046     -2395.5282
   2   2.0000     -87.977702     -2393.9950
   3   2.0000     -87.976898     -2393.9731
   4   2.0000     -76.422655     -2079.5662
   5   2.0000     -76.421114     -2079.5242
   6   2.0000     -18.790914      -511.3268
   7   2.0000     -18.789406      -511.2857
   8   2.0000     -18.787250      -511.2271
   9   2.0000     -18.781933      -511.0824
  10   2.0000      -9.960458      -271.0378
  11   2.0000      -9.956927      -270.9418
  12   2.0000      -9.948432      -270.7106
  13   2.0000      -9.945299      -270.6253
  14   2.0000      -9.942869      -270.5592
  15   2.0000      -9.890382      -269.1310
  16   2.0000      -9.885768      -269.0054
  17   2.0000      -9.883124      -268.9335
  18   2.0000      -9.874478      -268.6982
  19   2.0000      -7.688628      -209.2182
  20   2.0000      -7.679362      -208.9661
  21   2.0000      -7.622491      -207.4185
  22   2.0000      -7.621935      -207.4034
  23   2.0000      -6.419921      -174.6949
  24   2.0000      -6.418222      -174.6487
  25   2.0000      -5.716418      -155.5516
  26   2.0000      -5.713204      -155.4642
  27   2.0000      -5.707628      -155.3125
  28   2.0000      -5.705694      -155.2598
  29   2.0000      -5.703926      -155.2117
  30   2.0000      -5.695816      -154.9910
  31   2.0000      -5.651347      -153.7810
  32   2.0000      -5.651138      -153.7753
  33   2.0000      -5.643199      -153.5592
  34   2.0000      -5.642623      -153.5436
  35   2.0000      -5.642534      -153.5412
  36   2.0000      -5.641810      -153.5214
  37   2.0000      -4.642908      -126.3399
  38   2.0000      -4.641705      -126.3072
  39   2.0000      -4.640900      -126.2853
  40   2.0000      -4.640093      -126.2634
  41   2.0000      -4.640008      -126.2610
  42   2.0000      -4.638556      -126.2215
  43   2.0000      -0.985584       -26.8191
  44   2.0000      -0.979581       -26.6557
  45   2.0000      -0.942226       -25.6393
  46   2.0000      -0.939511       -25.5654
  47   2.0000      -0.761747       -20.7282
  48   2.0000      -0.719051       -19.5664
  49   2.0000      -0.709657       -19.3108
  50   2.0000      -0.690218       -18.7818
  51   2.0000      -0.679986       -18.5034
  52   2.0000      -0.667916       -18.1749
  53   2.0000      -0.647475       -17.6187
  54   2.0000      -0.633641       -17.2423
  55   2.0000      -0.593809       -16.1584
  56   2.0000      -0.580765       -15.8034
  57   2.0000      -0.574161       -15.6237
  58   2.0000      -0.567085       -15.4312
  59   2.0000      -0.560878       -15.2623
  60   2.0000      -0.507054       -13.7976
  61   2.0000      -0.496179       -13.5017
  62   2.0000      -0.478858       -13.0304
  63   2.0000      -0.465767       -12.6742
  64   2.0000      -0.458233       -12.4691
  65   2.0000      -0.441104       -12.0030
  66   2.0000      -0.435614       -11.8537
  67   2.0000      -0.430763       -11.7217
  68   2.0000      -0.426418       -11.6034
  69   2.0000      -0.415172       -11.2974
  70   2.0000      -0.408823       -11.1246
  71   2.0000      -0.389327       -10.5941
  72   2.0000      -0.386897       -10.5280
  73   2.0000      -0.382114       -10.3978
  74   2.0000      -0.381053       -10.3690
  75   2.0000      -0.371759       -10.1161
  76   2.0000      -0.365241        -9.9387
  77   2.0000      -0.357401        -9.7254
  78   2.0000      -0.354738        -9.6529
  79   2.0000      -0.352141        -9.5823
  80   2.0000      -0.347641        -9.4598
  81   2.0000      -0.344230        -9.3670
  82   2.0000      -0.339209        -9.2303
  83   2.0000      -0.336800        -9.1648
  84   2.0000      -0.328130        -8.9289
  85   2.0000      -0.314653        -8.5621
  86   2.0000      -0.309616        -8.4251
  87   2.0000      -0.300116        -8.1666
  88   2.0000      -0.292892        -7.9700
  89   2.0000      -0.289544        -7.8789
  90   2.0000      -0.278626        -7.5818
  91   2.0000      -0.273010        -7.4290
  92   2.0000      -0.265048        -7.2123
  93   2.0000      -0.255902        -6.9635
  94   2.0000      -0.254448        -6.9239
  95   2.0000      -0.245706        -6.6860
  96   2.0000      -0.221964        -6.0399
  97   2.0000      -0.208395        -5.6707
  98   2.0000      -0.186473        -5.0742
  99   2.0000      -0.181203        -4.9308
 100   2.0000      -0.180190        -4.9032
 101   0.0000      -0.050513        -1.3745
 102   0.0000      -0.030970        -0.8427
 103   0.0000      -0.012171        -0.3312
 104   0.0000       0.006202         0.1688
 105   0.0000       0.018188         0.4949

MULLIKEN ATOMIC CHARGES
-----------------------
   0 C :   -0.275207
   1 C :   -0.021564
   2 O :   -0.387627
   3 P :    0.612206
   4 S :   -0.283281
   5 O :   -0.363058
   6 C :   -0.009890
   7 C :   -0.295655
   8 S :   -0.129773
   9 C :   -0.321575
  10 S :   -0.082421
  11 P :    0.617299
  12 S :   -0.335771
  13 O :   -0.369387
  14 C :    0.000764
  15 C :   -0.341219
  16 O :   -0.373851
  17 C :   -0.000310
  18 C :   -0.300574
  19 H :    0.112289
  20 H :    0.117352
  21 H :    0.109387
  22 H :    0.108924
  23 H :    0.121989
  24 H :    0.107891
  25 H :    0.111818
  26 H :    0.111287
  27 H :    0.120872
  28 H :    0.118044
  29 H :    0.183161
  30 H :    0.185701
  31 H :    0.108808
  32 H :    0.101364
  33 H :    0.152658
  34 H :    0.111682
  35 H :    0.117911
  36 H :    0.104690
  37 H :    0.106224
  38 H :    0.113482
  39 H :    0.110109
  40 H :    0.125249
Sum of atomic charges:    0.0000000

LOEWDIN ATOMIC CHARGES
----------------------
   0 C :   -0.351704
   1 C :   -0.119492
   2 O :   -0.248783
   3 P :    0.562978
   4 S :   -0.292013
   5 O :   -0.242480
   6 C :   -0.113343
   7 C :   -0.361086
   8 S :    0.076504
   9 C :   -0.470149
  10 S :    0.090625
  11 P :    0.567551
  12 S :   -0.317102
  13 O :   -0.246919
  14 C :   -0.121586
  15 C :   -0.373860
  16 O :   -0.245834
  17 C :   -0.116600
  18 C :   -0.357639
  19 H :    0.131236
  20 H :    0.127700
  21 H :    0.123242
  22 H :    0.109706
  23 H :    0.111100
  24 H :    0.110023
  25 H :    0.122208
  26 H :    0.130757
  27 H :    0.128342
  28 H :    0.118587
  29 H :    0.132199
  30 H :    0.134725
  31 H :    0.108351
  32 H :    0.116815
  33 H :    0.125920
  34 H :    0.130987
  35 H :    0.123358
  36 H :    0.116036
  37 H :    0.105881
  38 H :    0.124248
  39 H :    0.130161
  40 H :    0.119347

  Mayer bond orders larger than 0.100000
B(  0-C ,  1-C ) :   1.1533 B(  0-C , 19-H ) :   0.9423 B(  0-C , 20-H ) :   0.9497
B(  0-C , 21-H ) :   0.9508 B(  1-C ,  2-O ) :   0.8956 B(  1-C , 22-H ) :   0.9302
B(  1-C , 23-H ) :   0.9090 B(  2-O ,  3-P ) :   1.0978 B(  3-P ,  4-S ) :   1.6948
B(  3-P ,  5-O ) :   1.1227 B(  3-P ,  8-S ) :   0.9100 B(  4-S ,  8-S ) :   0.1142
B(  5-O ,  6-C ) :   0.8936 B(  6-C ,  7-C ) :   1.1643 B(  6-C , 24-H ) :   0.9173
B(  6-C , 25-H ) :   0.9345 B(  7-C , 26-H ) :   0.9398 B(  7-C , 27-H ) :   0.9454
B(  7-C , 28-H ) :   0.9364 B(  8-S ,  9-C ) :   1.0098 B(  9-C , 10-S ) :   0.9836
B(  9-C , 29-H ) :   0.9015 B(  9-C , 30-H ) :   0.9084 B( 10-S , 11-P ) :   0.9868
B( 10-S , 12-S ) :   0.1160 B( 11-P , 12-S ) :   1.5774 B( 11-P , 13-O ) :   1.1155
B( 11-P , 16-O ) :   1.1200 B( 13-O , 14-C ) :   0.9110 B( 14-C , 15-C ) :   1.1628
B( 14-C , 31-H ) :   0.9127 B( 14-C , 32-H ) :   0.9329 B( 15-C , 33-H ) :   0.9267
B( 15-C , 34-H ) :   0.9378 B( 15-C , 35-H ) :   0.9436 B( 16-O , 17-C ) :   0.8960
B( 17-C , 18-C ) :   1.1632 B( 17-C , 36-H ) :   0.9340 B( 17-C , 37-H ) :   0.8995
B( 18-C , 38-H ) :   0.9501 B( 18-C , 39-H ) :   0.9410 B( 18-C , 40-H ) :   0.9415

Dispersion correction           -0.067444476
FINAL SINGLE POINT ENERGY     -2929.510235258429

DIPOLE MOMENT
-------------

Method             : SCF
Type of density    : Electron Density
Multiplicity       :   1
Irrep              :   0
Energy             : -2929.6259672590758782 Eh
Relativity type    :
Basis              : AO
                                X                 Y                 Z
Electronic contribution:     -4.466379726       8.065014482       6.467416697
Nuclear contribution   :      4.542484706      -9.453009755      -6.780243886
                        -----------------------------------------
Total Dipole Moment    :      0.076104979      -1.387995273      -0.312827188
                        -----------------------------------------
Magnitude (a.u.)       :      1.424845148
Magnitude (Debye)      :      3.621668548

Rotational constants in cm-1:             0.010424             0.005845             0.005440
Rotational constants in MHz :           312.506685           175.234587           163.085233

                             ****ORCA TERMINATED NORMALLY****
TOTAL RUN TIME: 0 days 0 hours 0 minutes 21 seconds 707 msec
