                         Program Version 6.0.0  -   RELEASE  -
|  1> ! r2scan-3c def2/J RI DEFGRID2 scfconv6 printgap
|  2> %output
|  3>     printlevel normal
|  4> end
|  5> * xyz 0 1
|  6> C 5.8444444829 -0.4069103224 -0.5406255266
|  7> C 4.4053957428 -0.7378736864 -0.879587039
|  8> O 3.5607702346 0.2195105756 -0.2087080045
|  9> P 2.034182543 0.4054527882 -0.6236209251
| 10> S 1.7417848504 0.7035107966 -2.532626582
| 11> O 1.6213380509 1.6022831745 0.3090559915
| 12> C 1.9160581437 1.6074085715 1.7315160591
| 13> C 1.0081224312 2.624585565 2.3887432538
| 14> S 1.1786320701 -1.3749053742 0.1724890241
| 15> C -0.0950808228 -1.7445405699 -1.0777885729
| 16> S -1.7382598411 -1.9359725156 -0.3582948024
| 17> P -1.9949307948 0.0678927232 0.3096314176
| 18> S -1.3680254352 1.4743689636 -0.9057258464
| 19> O -1.2836443149 0.1651377021 1.713577712
| 20> C -1.2497026546 -0.8537865566 2.747228356
| 21> C -2.6252705912 -1.3404774438 3.1447718336
| 22> O -3.5346252161 0.1624981126 0.6863298407
| 23> C -4.5466801393 0.5276159216 -0.2661072386
| 24> C -4.7279851794 -0.5215472245 -1.3441692501
| 25> H 6.0862667234 0.5958310817 -0.8817219389
| 26> H 5.9954076259 -0.4606548818 0.5334886073
| 27> H 6.4976704862 -1.1197653248 -1.0327339119
| 28> H 4.1311554224 -1.7366766532 -0.5291164302
| 29> H 4.2183895574 -0.6703002841 -1.9564010637
| 30> H 1.7440990979 0.6002262943 2.1240059112
| 31> H 2.9695013936 1.8677904644 1.848653585
| 32> H 1.2186317827 2.6566822655 3.4528041714
| 33> H 1.1752824877 3.6065121789 1.9550943429
| 34> H -0.0324290595 2.351012965 2.2310794755
| 35> H 0.1486950309 -2.6975044427 -1.5402539117
| 36> H -0.0933210503 -0.9360989864 -1.8146314112
| 37> H -0.6288228439 -1.6800153723 2.3883662239
| 38> H -0.7478812478 -0.3478898564 3.5735721402
| 39> H -3.0923081614 -1.8720026111 2.3184633828
| 40> H -2.5275400265 -2.0157408645 3.9892420834
| 41> H -3.2562439752 -0.501287144 3.4251033604
| 42> H -5.4455985527 0.6402875044 0.3416002315
| 43> H -4.2735436973 1.4904413976 -0.7095601342
| 44> H -5.5901849101 -0.2654296996 -1.9515360252
| 45> H -3.8469603571 -0.5547575582 -1.983446927
| 46> H -4.8773475655 -1.5018499541 -0.899014939
| 47> *
| 48>
| 49>                          ****END OF INPUT****

CARTESIAN COORDINATES (ANGSTROEM)
---------------------------------
  C      5.844444   -0.406910   -0.540626
  C      4.405396   -0.737874   -0.879587
  O      3.560770    0.219511   -0.208708
  P      2.034183    0.405453   -0.623621
  S      1.741785    0.703511   -2.532627
  O      1.621338    1.602283    0.309056
  C      1.916058    1.607409    1.731516
  C      1.008122    2.624586    2.388743
  S      1.178632   -1.374905    0.172489
  C     -0.095081   -1.744541   -1.077789
  S     -1.738260   -1.935973   -0.358295
  P     -1.994931    0.067893    0.309631
  S     -1.368025    1.474369   -0.905726
  O     -1.283644    0.165138    1.713578
  C     -1.249703   -0.853787    2.747228
  C     -2.625271   -1.340477    3.144772
  O     -3.534625    0.162498    0.686330
  C     -4.546680    0.527616   -0.266107
  C     -4.727985   -0.521547   -1.344169
  H      6.086267    0.595831   -0.881722
  H      5.995408   -0.460655    0.533489
  H      6.497670   -1.119765   -1.032734
  H      4.131155   -1.736677   -0.529116
  H      4.218390   -0.670300   -1.956401
  H      1.744099    0.600226    2.124006
  H      2.969501    1.867790    1.848654
  H      1.218632    2.656682    3.452804
  H      1.175282    3.606512    1.955094
  H     -0.032429    2.351013    2.231079
  H      0.148695   -2.697504   -1.540254
  H     -0.093321   -0.936099   -1.814631
  H     -0.628823   -1.680015    2.388366
  H     -0.747881   -0.347890    3.573572
  H     -3.092308   -1.872003    2.318463
  H     -2.527540   -2.015741    3.989242
  H     -3.256244   -0.501287    3.425103
  H     -5.445599    0.640288    0.341600
  H     -4.273544    1.490441   -0.709560
  H     -5.590185   -0.265430   -1.951536
  H     -3.846960   -0.554758   -1.983447
  H     -4.877348   -1.501850   -0.899015

 Total Charge           Charge          ....    0
 Multiplicity           Mult            ....    1
 Number of Electrons    NEL             ....  202
 Basis Dimension        Dim             ....  539

ORBITAL ENERGIES
----------------

  NO   OCC          E(Eh)            E(eV)
   0   2.0000     -88.577046     -2410.3040
   1   2.0000     -88.572288     -2410.1745
   2   2.0000     -88.512247     -2408.5407
   3   2.0000     -88.510571     -2408.4951
   4   2.0000     -76.911616     -2092.8715
   5   2.0000     -76.907512     -2092.7598
   6   2.0000     -18.991438      -516.7833
   7   2.0000     -18.991194      -516.7767
   8   2.0000     -18.986307      -516.6437
   9   2.0000     -18.983720      -516.5733
  10   2.0000     -10.104806      -274.9658
  11   2.0000     -10.104166      -274.9483
  12   2.0000     -10.097218      -274.7593
  13   2.0000     -10.097194      -274.7586
  14   2.0000     -10.093764      -274.6653
  15   2.0000     -10.034468      -273.0517
  16   2.0000     -10.030618      -272.9470
  17   2.0000     -10.027489      -272.8619
  18   2.0000     -10.023468      -272.7524
  19   2.0000      -7.871586      -214.1967
  20   2.0000      -7.866846      -214.0678
  21   2.0000      -7.807025      -212.4399
  22   2.0000      -7.805114      -212.3879
  23   2.0000      -6.589822      -179.3182
  24   2.0000      -6.585983      -179.2137
  25   2.0000      -5.818480      -158.3289
  26   2.0000      -5.815217      -158.2401
  27   2.0000      -5.813612      -158.1964
  28   2.0000      -5.810589      -158.1142
  29   2.0000      -5.808865      -158.0673
  30   2.0000      -5.804137      -157.9386
  31   2.0000      -5.754824      -156.5967
  32   2.0000      -5.752933      -156.5453
  33   2.0000      -5.747277      -156.3913
  34   2.0000      -5.746893      -156.3809
  35   2.0000      -5.745345      -156.3388
  36   2.0000      -5.745045      -156.3306
  37   2.0000      -4.735588      -128.8619
  38   2.0000      -4.734914      -128.8436
  39   2.0000      -4.733157      -128.7957
  40   2.0000      -4.731707      -128.7563
  41   2.0000      -4.730996      -128.7370
  42   2.0000      -4.729443      -128.6947
  43   2.0000      -1.049497       -28.5583
  44   2.0000      -1.045575       -28.4516
  45   2.0000      -1.010628       -27.5006
  46   2.0000      -1.002572       -27.2814
  47   2.0000      -0.798773       -21.7357
  48   2.0000      -0.756857       -20.5951
  49   2.0000      -0.750936       -20.4340
  50   2.0000      -0.734829       -19.9957
  51   2.0000      -0.730860       -19.8877
  52   2.0000      -0.710621       -19.3370
  53   2.0000      -0.681872       -18.5547
  54   2.0000      -0.661272       -17.9941
  55   2.0000      -0.626934       -17.0597
  56   2.0000      -0.613280       -16.6882
  57   2.0000      -0.609138       -16.5755
  58   2.0000      -0.598228       -16.2786
  59   2.0000      -0.594482       -16.1767
  60   2.0000      -0.532489       -14.4898
  61   2.0000      -0.516618       -14.0579
  62   2.0000      -0.496255       -13.5038
  63   2.0000      -0.490901       -13.3581
  64   2.0000      -0.469435       -12.7740
  65   2.0000      -0.465942       -12.6789
  66   2.0000      -0.460184       -12.5222
  67   2.0000      -0.452734       -12.3195
  68   2.0000      -0.449977       -12.2445
  69   2.0000      -0.435339       -11.8462
  70   2.0000      -0.427240       -11.6258
  71   2.0000      -0.416565       -11.3353
  72   2.0000      -0.411241       -11.1904
  73   2.0000      -0.394688       -10.7400
  74   2.0000      -0.388516       -10.5720
  75   2.0000      -0.382644       -10.4123
  76   2.0000      -0.379220       -10.3191
  77   2.0000      -0.376847       -10.2545
  78   2.0000      -0.369201       -10.0465
  79   2.0000      -0.364652        -9.9227
  80   2.0000      -0.361509        -9.8371
  81   2.0000      -0.360215        -9.8020
  82   2.0000      -0.351077        -9.5533
  83   2.0000      -0.349715        -9.5162
  84   2.0000      -0.346364        -9.4250
  85   2.0000      -0.326463        -8.8835
  86   2.0000      -0.323469        -8.8020
  87   2.0000      -0.313696        -8.5361
  88   2.0000      -0.311371        -8.4728
  89   2.0000      -0.308392        -8.3918
  90   2.0000      -0.304928        -8.2975
  91   2.0000      -0.289611        -7.8807
  92   2.0000      -0.280193        -7.6244
  93   2.0000      -0.275117        -7.4863
  94   2.0000      -0.268335        -7.3018
  95   2.0000      -0.248778        -6.7696
  96   2.0000      -0.233385        -6.3507
  97   2.0000      -0.224197        -6.1007
  98   2.0000      -0.211202        -5.7471
  99   2.0000      -0.203003        -5.5240
 100   2.0000      -0.194892        -5.3033
 101   0.0000      -0.042750        -1.1633
 102   0.0000      -0.031669        -0.8617
 103   0.0000      -0.008107        -0.2206
 104   0.0000       0.013304         0.3620
 105   0.0000       0.019415         0.5283

MULLIKEN ATOMIC CHARGES
-----------------------
   0 C :   -0.442444
   1 C :   -0.155471
   2 O :   -0.277900
   3 P :    0.688785
   4 S :   -0.436344
   5 O :   -0.267813
   6 C :   -0.093141
   7 C :   -0.479797
   8 S :   -0.218786
   9 C :   -0.226037
  10 S :   -0.155439
  11 P :    0.612945
  12 S :   -0.397062
  13 O :   -0.245936
  14 C :   -0.142614
  15 C :   -0.446283
  16 O :   -0.277517
  17 C :   -0.163394
  18 C :   -0.454013
  19 H :    0.159226
  20 H :    0.149369
  21 H :    0.145576
  22 H :    0.151072
  23 H :    0.170671
  24 H :    0.144330
  25 H :    0.157232
  26 H :    0.139870
  27 H :    0.155284
  28 H :    0.186047
  29 H :    0.193671
  30 H :    0.224844
  31 H :    0.168867
  32 H :    0.151156
  33 H :    0.162094
  34 H :    0.149369
  35 H :    0.162447
  36 H :    0.147094
  37 H :    0.177120
  38 H :    0.148504
  39 H :    0.182856
  40 H :    0.151560
Sum of atomic charges:   -0.0000000

LOEWDIN ATOMIC CHARGES
----------------------
   0 C :   -0.386917
   1 C :    0.014953
   2 O :   -0.678149
   3 P :    0.371457
   4 S :   -0.098959
   5 O :   -0.647713
   6 C :    0.026001
   7 C :   -0.389648
   8 S :    0.124197
   9 C :   -0.416656
  10 S :    0.127488
  11 P :    0.379212
  12 S :   -0.056139
  13 O :   -0.672944
  14 C :    0.013356
  15 C :   -0.399567
  16 O :   -0.672867
  17 C :    0.020675
  18 C :   -0.408567
  19 H :    0.161808
  20 H :    0.157736
  21 H :    0.159433
  22 H :    0.171315
  23 H :    0.180794
  24 H :    0.173000
  25 H :    0.175058
  26 H :    0.156975
  27 H :    0.162949
  28 H :    0.175392
  29 H :    0.180038
  30 H :    0.202881
  31 H :    0.177846
  32 H :    0.181147
  33 H :    0.164370
  34 H :    0.159760
  35 H :    0.164564
  36 H :    0.178770
  37 H :    0.181936
  38 H :    0.159600
  39 H :    0.167234
  40 H :    0.158179

  Mayer bond orders larger than 0.100000
B(  0-C ,  1-C ) :   0.9536 B(  0-C , 19-H ) :   0.9720 B(  0-C , 20-H ) :   0.9720
B(  0-C , 21-H ) :   0.9648 B(  1-C ,  2-O ) :   0.7908 B(  1-C , 22-H ) :   0.9419
B(  1-C , 23-H ) :   0.9502 B(  2-O ,  3-P ) :   1.0500 B(  3-P ,  4-S ) :   1.8298
B(  3-P ,  5-O ) :   1.1986 B(  3-P ,  8-S ) :   0.9709 B(  5-O ,  6-C ) :   0.7251
B(  6-C ,  7-C ) :   0.9417 B(  6-C , 24-H ) :   0.9549 B(  6-C , 25-H ) :   0.9423
B(  7-C , 26-H ) :   0.9669 B(  7-C , 27-H ) :   0.9683 B(  7-C , 28-H ) :   0.9638
B(  8-S ,  9-C ) :   0.8958 B(  9-C , 10-S ) :   0.9143 B(  9-C , 29-H ) :   0.9143
B(  9-C , 30-H ) :   0.9049 B( 10-S , 11-P ) :   1.0020 B( 11-P , 12-S ) :   1.8643
B( 11-P , 13-O ) :   1.1246 B( 11-P , 16-O ) :   1.0493 B( 13-O , 14-C ) :   0.7957
B( 14-C , 15-C ) :   0.9212 B( 14-C , 31-H ) :   0.9587 B( 14-C , 32-H ) :   0.9563
B( 15-C , 33-H ) :   0.9626 B( 15-C , 34-H ) :   0.9576 B( 15-C , 35-H ) :   0.9707
B( 16-O , 17-C ) :   0.8137 B( 17-C , 18-C ) :   0.9111 B( 17-C , 36-H ) :   0.9618
B( 17-C , 37-H ) :   0.9665 B( 18-C , 38-H ) :   0.9577 B( 18-C , 39-H ) :   0.9627
B( 18-C , 40-H ) :   0.9693

Dispersion correction           -0.022181547
FINAL SINGLE POINT ENERGY     -2932.456297173472

DIPOLE MOMENT
-------------

Method             : SCF
Type of density    : Electron Density
Multiplicity       :   1
Irrep              :   0
Energy             : -2932.4806668905061997 Eh
Relativity type    :
Basis              : AO
                                X                 Y                 Z
Electronic contribution:      0.101601915       1.520632235     -12.712799043
Nuclear contribution   :     -0.237344585      -2.751760143      14.385354162
                        -----------------------------------------
Total Dipole Moment    :     -0.135742670      -1.231127908       1.672555118
                        -----------------------------------------
Magnitude (a.u.)       :      2.081235840
Magnitude (Debye)      :      5.290081095

Rotational constants in cm-1:             0.013087             0.005173             0.004895
Rotational constants in MHz :           392.327971           155.088953           146.736224

                             ****ORCA TERMINATED NORMALLY****
TOTAL RUN TIME: 0 days 0 hours 1 minutes 25 seconds 548 msec
