                         Program Version 6.0.0  -   RELEASE  -
|  1> ! r2scan-3c def2/J RI DEFGRID2 scfconv6 printgap
|  2> %output
|  3>     printlevel normal
|  4> end
|  5> %cpcm
|  6>     smd true
|  7>     smdsolvent "water"
|  8> end
|  9> * xyz 0 1
| 10> C 5.8444444829 -0.4069103224 -0.5406255266
| 11> C 4.4053957428 -0.7378736864 -0.879587039
| 12> O 3.5607702346 0.2195105756 -0.2087080045
| 13> P 2.034182543 0.4054527882 -0.6236209251
| 14> S 1.7417848504 0.7035107966 -2.532626582
| 15> O 1.6213380509 1.6022831745 0.3090559915
| 16> C 1.9160581437 1.6074085715 1.7315160591
| 17> C 1.0081224312 2.624585565 2.3887432538
| 18> S 1.1786320701 -1.3749053742 0.1724890241
| 19> C -0.0950808228 -1.7445405699 -1.0777885729
| 20> S -1.7382598411 -1.9359725156 -0.3582948024
| 21> P -1.9949307948 0.0678927232 0.3096314176
| 22> S -1.3680254352 1.4743689636 -0.9057258464
| 23> O -1.2836443149 0.1651377021 1.713577712
| 24> C -1.2497026546 -0.8537865566 2.747228356
| 25> C -2.6252705912 -1.3404774438 3.1447718336
| 26> O -3.5346252161 0.1624981126 0.6863298407
| 27> C -4.5466801393 0.5276159216 -0.2661072386
| 28> C -4.7279851794 -0.5215472245 -1.3441692501
| 29> H 6.0862667234 0.5958310817 -0.8817219389
| 30> H 5.9954076259 -0.4606548818 0.5334886073
| 31> H 6.4976704862 -1.1197653248 -1.0327339119
| 32> H 4.1311554224 -1.7366766532 -0.5291164302
| 33> H 4.2183895574 -0.6703002841 -1.9564010637
| 34> H 1.7440990979 0.6002262943 2.1240059112
| 35> H 2.9695013936 1.8677904644 1.848653585
| 36> H 1.2186317827 2.6566822655 3.4528041714
| 37> H 1.1752824877 3.6065121789 1.9550943429
| 38> H -0.0324290595 2.351012965 2.2310794755
| 39> H 0.1486950309 -2.6975044427 -1.5402539117
| 40> H -0.0933210503 -0.9360989864 -1.8146314112
| 41> H -0.6288228439 -1.6800153723 2.3883662239
| 42> H -0.7478812478 -0.3478898564 3.5735721402
| 43> H -3.0923081614 -1.8720026111 2.3184633828
| 44> H -2.5275400265 -2.0157408645 3.9892420834
| 45> H -3.2562439752 -0.501287144 3.4251033604
| 46> H -5.4455985527 0.6402875044 0.3416002315
| 47> H -4.2735436973 1.4904413976 -0.7095601342
| 48> H -5.5901849101 -0.2654296996 -1.9515360252
| 49> H -3.8469603571 -0.5547575582 -1.983446927
| 50> H -4.8773475655 -1.5018499541 -0.899014939
| 51> *
| 52>
| 53>                          ****END OF INPUT****

CARTESIAN COORDINATES (ANGSTROEM)
---------------------------------
  C      5.844444   -0.406910   -0.540626
  C      4.405396   -0.737874   -0.879587
  O      3.560770    0.219511   -0.208708
  P      2.034183    0.405453   -0.623621
  S      1.741785    0.703511   -2.532627
  O      1.621338    1.602283    0.309056
  C      1.916058    1.607409    1.731516
  C      1.008122    2.624586    2.388743
  S      1.178632   -1.374905    0.172489
  C     -0.095081   -1.744541   -1.077789
  S     -1.738260   -1.935973   -0.358295
  P     -1.994931    0.067893    0.309631
  S     -1.368025    1.474369   -0.905726
  O     -1.283644    0.165138    1.713578
  C     -1.249703   -0.853787    2.747228
  C     -2.625271   -1.340477    3.144772
  O     -3.534625    0.162498    0.686330
  C     -4.546680    0.527616   -0.266107
  C     -4.727985   -0.521547   -1.344169
  H      6.086267    0.595831   -0.881722
  H      5.995408   -0.460655    0.533489
  H      6.497670   -1.119765   -1.032734
  H      4.131155   -1.736677   -0.529116
  H      4.218390   -0.670300   -1.956401
  H      1.744099    0.600226    2.124006
  H      2.969501    1.867790    1.848654
  H      1.218632    2.656682    3.452804
  H      1.175282    3.606512    1.955094
  H     -0.032429    2.351013    2.231079
  H      0.148695   -2.697504   -1.540254
  H     -0.093321   -0.936099   -1.814631
  H     -0.628823   -1.680015    2.388366
  H     -0.747881   -0.347890    3.573572
  H     -3.092308   -1.872003    2.318463
  H     -2.527540   -2.015741    3.989242
  H     -3.256244   -0.501287    3.425103
  H     -5.445599    0.640288    0.341600
  H     -4.273544    1.490441   -0.709560
  H     -5.590185   -0.265430   -1.951536
  H     -3.846960   -0.554758   -1.983447
  H     -4.877348   -1.501850   -0.899015

 Total Charge           Charge          ....    0
 Multiplicity           Mult            ....    1
 Number of Electrons    NEL             ....  202
 Basis Dimension        Dim             ....  539

ORBITAL ENERGIES
----------------

  NO   OCC          E(Eh)            E(eV)
   0   2.0000     -88.579150     -2410.3612
   1   2.0000     -88.576149     -2410.2795
   2   2.0000     -88.526674     -2408.9333
   3   2.0000     -88.521616     -2408.7956
   4   2.0000     -76.917603     -2093.0344
   5   2.0000     -76.917571     -2093.0335
   6   2.0000     -18.993454      -516.8382
   7   2.0000     -18.992643      -516.8161
   8   2.0000     -18.992314      -516.8071
   9   2.0000     -18.991974      -516.7979
  10   2.0000     -10.103660      -274.9346
  11   2.0000     -10.092608      -274.6338
  12   2.0000     -10.091724      -274.6098
  13   2.0000     -10.089125      -274.5390
  14   2.0000     -10.088138      -274.5122
  15   2.0000     -10.019874      -272.6546
  16   2.0000     -10.019099      -272.6336
  17   2.0000     -10.018664      -272.6217
  18   2.0000     -10.018143      -272.6075
  19   2.0000      -7.873595      -214.2514
  20   2.0000      -7.870588      -214.1696
  21   2.0000      -7.821860      -212.8436
  22   2.0000      -7.816637      -212.7015
  23   2.0000      -6.596116      -179.4895
  24   2.0000      -6.595822      -179.4814
  25   2.0000      -5.820533      -158.3848
  26   2.0000      -5.817391      -158.2993
  27   2.0000      -5.817256      -158.2956
  28   2.0000      -5.814369      -158.2170
  29   2.0000      -5.810817      -158.1204
  30   2.0000      -5.807817      -158.0387
  31   2.0000      -5.769519      -156.9966
  32   2.0000      -5.764315      -156.8550
  33   2.0000      -5.762175      -156.7967
  34   2.0000      -5.761726      -156.7845
  35   2.0000      -5.756933      -156.6541
  36   2.0000      -5.756555      -156.6438
  37   2.0000      -4.741813      -129.0313
  38   2.0000      -4.741533      -129.0237
  39   2.0000      -4.741035      -129.0101
  40   2.0000      -4.740891      -129.0062
  41   2.0000      -4.739735      -128.9748
  42   2.0000      -4.739296      -128.9628
  43   2.0000      -1.052747       -28.6467
  44   2.0000      -1.050963       -28.5982
  45   2.0000      -1.011333       -27.5198
  46   2.0000      -1.008964       -27.4553
  47   2.0000      -0.800198       -21.7745
  48   2.0000      -0.755195       -20.5499
  49   2.0000      -0.746483       -20.3128
  50   2.0000      -0.725949       -19.7541
  51   2.0000      -0.725499       -19.7418
  52   2.0000      -0.710967       -19.3464
  53   2.0000      -0.687514       -18.7082
  54   2.0000      -0.669253       -18.2113
  55   2.0000      -0.627095       -17.0641
  56   2.0000      -0.610823       -16.6213
  57   2.0000      -0.602990       -16.4082
  58   2.0000      -0.596610       -16.2346
  59   2.0000      -0.592255       -16.1161
  60   2.0000      -0.532770       -14.4974
  61   2.0000      -0.512703       -13.9514
  62   2.0000      -0.497373       -13.5342
  63   2.0000      -0.486154       -13.2289
  64   2.0000      -0.469609       -12.7787
  65   2.0000      -0.465403       -12.6643
  66   2.0000      -0.456949       -12.4342
  67   2.0000      -0.449039       -12.2190
  68   2.0000      -0.443660       -12.0726
  69   2.0000      -0.434871       -11.8334
  70   2.0000      -0.424548       -11.5525
  71   2.0000      -0.412793       -11.2327
  72   2.0000      -0.407660       -11.0930
  73   2.0000      -0.393171       -10.6987
  74   2.0000      -0.386793       -10.5252
  75   2.0000      -0.383046       -10.4232
  76   2.0000      -0.377707       -10.2779
  77   2.0000      -0.373449       -10.1621
  78   2.0000      -0.360416        -9.8074
  79   2.0000      -0.358744        -9.7619
  80   2.0000      -0.354986        -9.6596
  81   2.0000      -0.352947        -9.6042
  82   2.0000      -0.348180        -9.4745
  83   2.0000      -0.345774        -9.4090
  84   2.0000      -0.343485        -9.3467
  85   2.0000      -0.323245        -8.7960
  86   2.0000      -0.321633        -8.7521
  87   2.0000      -0.315104        -8.5744
  88   2.0000      -0.311116        -8.4659
  89   2.0000      -0.306719        -8.3462
  90   2.0000      -0.301767        -8.2115
  91   2.0000      -0.287869        -7.8333
  92   2.0000      -0.282165        -7.6781
  93   2.0000      -0.275961        -7.5093
  94   2.0000      -0.272099        -7.4042
  95   2.0000      -0.251492        -6.8434
  96   2.0000      -0.243034        -6.6133
  97   2.0000      -0.236327        -6.4308
  98   2.0000      -0.223184        -6.0731
  99   2.0000      -0.214286        -5.8310
 100   2.0000      -0.208616        -5.6767
 101   0.0000      -0.046159        -1.2561
 102   0.0000      -0.038650        -1.0517
 103   0.0000      -0.012092        -0.3290
 104   0.0000       0.007936         0.2160
 105   0.0000       0.014960         0.4071

MULLIKEN ATOMIC CHARGES
-----------------------
   0 C :   -0.482113
   1 C :   -0.143049
   2 O :   -0.301826
   3 P :    0.694830
   4 S :   -0.499821
   5 O :   -0.300374
   6 C :   -0.089860
   7 C :   -0.519130
   8 S :   -0.204736
   9 C :   -0.225902
  10 S :   -0.147797
  11 P :    0.643777
  12 S :   -0.472941
  13 O :   -0.274561
  14 C :   -0.132159
  15 C :   -0.486152
  16 O :   -0.298246
  17 C :   -0.159052
  18 C :   -0.489782
  19 H :    0.165592
  20 H :    0.165176
  21 H :    0.168881
  22 H :    0.169060
  23 H :    0.171238
  24 H :    0.169722
  25 H :    0.176808
  26 H :    0.171429
  27 H :    0.167776
  28 H :    0.174367
  29 H :    0.234891
  30 H :    0.215975
  31 H :    0.174468
  32 H :    0.181123
  33 H :    0.165760
  34 H :    0.175513
  35 H :    0.171884
  36 H :    0.174868
  37 H :    0.177967
  38 H :    0.172572
  39 H :    0.174383
  40 H :    0.169443
Sum of atomic charges:    0.0000000

LOEWDIN ATOMIC CHARGES
----------------------
   0 C :   -0.390023
   1 C :    0.020146
   2 O :   -0.688321
   3 P :    0.371642
   4 S :   -0.148639
   5 O :   -0.673322
   6 C :    0.031899
   7 C :   -0.392990
   8 S :    0.140002
   9 C :   -0.411633
  10 S :    0.140493
  11 P :    0.385235
  12 S :   -0.110987
  13 O :   -0.685392
  14 C :    0.022371
  15 C :   -0.401699
  16 O :   -0.680401
  17 C :    0.025139
  18 C :   -0.411355
  19 H :    0.162676
  20 H :    0.162709
  21 H :    0.168635
  22 H :    0.179075
  23 H :    0.180881
  24 H :    0.182097
  25 H :    0.184124
  26 H :    0.170406
  27 H :    0.164022
  28 H :    0.168652
  29 H :    0.196166
  30 H :    0.199261
  31 H :    0.181158
  32 H :    0.193575
  33 H :    0.163311
  34 H :    0.169919
  35 H :    0.165980
  36 H :    0.190561
  37 H :    0.181362
  38 H :    0.168186
  39 H :    0.161696
  40 H :    0.163385

  Mayer bond orders larger than 0.100000
B(  0-C ,  1-C ) :   0.9517 B(  0-C , 19-H ) :   0.9701 B(  0-C , 20-H ) :   0.9683
B(  0-C , 21-H ) :   0.9586 B(  1-C ,  2-O ) :   0.7829 B(  1-C , 22-H ) :   0.9330
B(  1-C , 23-H ) :   0.9480 B(  2-O ,  3-P ) :   1.0577 B(  3-P ,  4-S ) :   1.7946
B(  3-P ,  5-O ) :   1.2005 B(  3-P ,  8-S ) :   1.0021 B(  5-O ,  6-C ) :   0.7163
B(  6-C ,  7-C ) :   0.9287 B(  6-C , 24-H ) :   0.9450 B(  6-C , 25-H ) :   0.9324
B(  7-C , 26-H ) :   0.9587 B(  7-C , 27-H ) :   0.9691 B(  7-C , 28-H ) :   0.9666
B(  8-S ,  9-C ) :   0.8870 B(  9-C , 10-S ) :   0.9083 B(  9-C , 29-H ) :   0.8984
B(  9-C , 30-H ) :   0.9095 B( 10-S , 11-P ) :   1.0251 B( 11-P , 12-S ) :   1.8133
B( 11-P , 13-O ) :   1.1381 B( 11-P , 16-O ) :   1.0593 B( 13-O , 14-C ) :   0.7849
B( 14-C , 15-C ) :   0.9081 B( 14-C , 31-H ) :   0.9532 B( 14-C , 32-H ) :   0.9456
B( 15-C , 33-H ) :   0.9607 B( 15-C , 34-H ) :   0.9512 B( 15-C , 35-H ) :   0.9700
B( 16-O , 17-C ) :   0.8028 B( 17-C , 18-C ) :   0.9008 B( 17-C , 36-H ) :   0.9514
B( 17-C , 37-H ) :   0.9655 B( 18-C , 38-H ) :   0.9527 B( 18-C , 39-H ) :   0.9648
B( 18-C , 40-H ) :   0.9660

Dispersion correction           -0.022181547
FINAL SINGLE POINT ENERGY     -2932.467621153109

DIPOLE MOMENT
-------------

Method             : SCF
Type of density    : Electron Density
Multiplicity       :   1
Irrep              :   0
Energy             : -2932.4919908701435816 Eh
Relativity type    :
Basis              : AO
                                X                 Y                 Z
Electronic contribution:      0.083002577       0.597430169     -11.925869733
Nuclear contribution   :     -0.237344585      -2.751760143      14.385354162
                        -----------------------------------------
Total Dipole Moment    :     -0.154342008      -2.154329974       2.459484429
                        -----------------------------------------
Magnitude (a.u.)       :      3.273228185
Magnitude (Debye)      :      8.319884853

Rotational constants in cm-1:             0.013087             0.005173             0.004895
Rotational constants in MHz :           392.327971           155.088953           146.736224

                             ****ORCA TERMINATED NORMALLY****
TOTAL RUN TIME: 0 days 0 hours 1 minutes 51 seconds 732 msec
