                         Program Version 6.0.0  -   RELEASE  -
|  1> ! pbe def2-sv(p) def2/J RI DEFGRID1 loosescf d4 GCP(DFT/SV(P)) printgap
|  2> %output
|  3>     printlevel normal
|  4> end
|  5> * xyz 0 1
|  6> C 3.8347389348 -0.6391331309 -2.7399302669
|  7> C 4.2959492518 0.4586736938 -1.8027965894
|  8> O 3.7734512484 0.3067291223 -0.4721580134
|  9> P 2.2188383464 0.4009229039 -0.1168517035
| 10> S 1.2516829248 1.7909352174 -1.0897530146
| 11> O 2.2950420603 0.6609920376 1.4299339526
| 12> C 2.9479351142 -0.2433172449 2.3569703353
| 13> C 2.4654602343 0.1037059732 3.7489075755
| 14> S 1.5141928992 -1.6018161191 -0.3499091916
| 15> C 0.1891978851 -1.3415514211 -1.5710705126
| 16> S -1.4480565526 -1.8608725584 -0.9930608309
| 17> P -1.9548666391 -0.2602103477 0.2749693329
| 18> S -0.8377309208 0.1935345635 1.811442344
| 19> O -3.4038759556 -0.6674576295 0.7701197521
| 20> C -4.4697640737 -1.016697438 -0.1500557011
| 21> C -5.7896694462 -0.706996724 0.5258579007
| 22> O -2.1176181177 0.886446216 -0.8301064993
| 23> C -2.1405713761 2.2801259514 -0.4780169572
| 24> C -3.4538593897 2.6672543271 0.1691679047
| 25> H 4.3722159151 -0.5540800883 -3.6789368632
| 26> H 4.0245325811 -1.6157506936 -2.3019878535
| 27> H 2.7683628852 -0.5367589568 -2.9351625902
| 28> H 3.9917661289 1.439650044 -2.1805442043
| 29> H 5.3769947465 0.4364492069 -1.657608973
| 30> H 2.6800013775 -1.2695506093 2.0883793822
| 31> H 4.0263064714 -0.1085384227 2.2510520377
| 32> H 1.3826332677 0.0107039278 3.7941626007
| 33> H 2.9182951526 -0.5743202068 4.4646351211
| 34> H 2.7350598914 1.1268145309 3.9935310746
| 35> H 0.4010420808 -1.9738817529 -2.4294252306
| 36> H 0.1616464122 -0.2828716956 -1.8442815758
| 37> H -4.3433652986 -0.4436645334 -1.0722042722
| 38> H -4.3744873027 -2.0818977131 -0.3720291078
| 39> H -5.8616047824 -1.2528256926 1.4621478604
| 40> H -5.8691909515 0.3561517911 0.7356730613
| 41> H -6.6021022477 -1.0059096565 -0.1285479373
| 42> H -1.2998557057 2.4865484421 0.1925866845
| 43> H -1.9754126888 2.7966460012 -1.4248271209
| 44> H -3.4496349169 3.7328634564 0.3757457394
| 45> H -4.2843634675 2.4319851851 -0.4916021775
| 46> H -3.5743228268 2.1255219053 1.1072743828
| 47> *
| 48>
| 49>                          ****END OF INPUT****

CARTESIAN COORDINATES (ANGSTROEM)
---------------------------------
  C      3.834739   -0.639133   -2.739930
  C      4.295949    0.458674   -1.802797
  O      3.773451    0.306729   -0.472158
  P      2.218838    0.400923   -0.116852
  S      1.251683    1.790935   -1.089753
  O      2.295042    0.660992    1.429934
  C      2.947935   -0.243317    2.356970
  C      2.465460    0.103706    3.748908
  S      1.514193   -1.601816   -0.349909
  C      0.189198   -1.341551   -1.571071
  S     -1.448057   -1.860873   -0.993061
  P     -1.954867   -0.260210    0.274969
  S     -0.837731    0.193535    1.811442
  O     -3.403876   -0.667458    0.770120
  C     -4.469764   -1.016697   -0.150056
  C     -5.789669   -0.706997    0.525858
  O     -2.117618    0.886446   -0.830106
  C     -2.140571    2.280126   -0.478017
  C     -3.453859    2.667254    0.169168
  H      4.372216   -0.554080   -3.678937
  H      4.024533   -1.615751   -2.301988
  H      2.768363   -0.536759   -2.935163
  H      3.991766    1.439650   -2.180544
  H      5.376995    0.436449   -1.657609
  H      2.680001   -1.269551    2.088379
  H      4.026306   -0.108538    2.251052
  H      1.382633    0.010704    3.794163
  H      2.918295   -0.574320    4.464635
  H      2.735060    1.126815    3.993531
  H      0.401042   -1.973882   -2.429425
  H      0.161646   -0.282872   -1.844282
  H     -4.343365   -0.443665   -1.072204
  H     -4.374487   -2.081898   -0.372029
  H     -5.861605   -1.252826    1.462148
  H     -5.869191    0.356152    0.735673
  H     -6.602102   -1.005910   -0.128548
  H     -1.299856    2.486548    0.192587
  H     -1.975413    2.796646   -1.424827
  H     -3.449635    3.732863    0.375746
  H     -4.284363    2.431985   -0.491602
  H     -3.574323    2.125522    1.107274

 Total Charge           Charge          ....    0
 Multiplicity           Mult            ....    1
 Number of Electrons    NEL             ....  202
 Basis Dimension        Dim             ....  334

ORBITAL ENERGIES
----------------

  NO   OCC          E(Eh)            E(eV)
   0   2.0000     -88.038957     -2395.6618
   1   2.0000     -88.038109     -2395.6387
   2   2.0000     -87.986356     -2394.2305
   3   2.0000     -87.975250     -2393.9283
   4   2.0000     -76.422845     -2079.5713
   5   2.0000     -76.417369     -2079.4223
   6   2.0000     -18.788794      -511.2691
   7   2.0000     -18.785010      -511.1661
   8   2.0000     -18.784141      -511.1425
   9   2.0000     -18.783402      -511.1224
  10   2.0000      -9.955743      -270.9095
  11   2.0000      -9.955084      -270.8916
  12   2.0000      -9.951744      -270.8007
  13   2.0000      -9.950930      -270.7786
  14   2.0000      -9.939142      -270.4578
  15   2.0000      -9.890333      -269.1296
  16   2.0000      -9.885060      -268.9861
  17   2.0000      -9.880424      -268.8600
  18   2.0000      -9.880160      -268.8528
  19   2.0000      -7.684714      -209.1117
  20   2.0000      -7.682962      -209.0640
  21   2.0000      -7.631360      -207.6599
  22   2.0000      -7.620252      -207.3576
  23   2.0000      -6.420278      -174.7047
  24   2.0000      -6.415390      -174.5716
  25   2.0000      -5.712613      -155.4481
  26   2.0000      -5.710859      -155.4004
  27   2.0000      -5.709138      -155.3535
  28   2.0000      -5.707556      -155.3105
  29   2.0000      -5.701623      -155.1491
  30   2.0000      -5.699868      -155.1013
  31   2.0000      -5.660168      -154.0210
  32   2.0000      -5.652167      -153.8033
  33   2.0000      -5.651352      -153.7811
  34   2.0000      -5.649276      -153.7246
  35   2.0000      -5.640872      -153.4959
  36   2.0000      -5.640271      -153.4796
  37   2.0000      -4.642932      -126.3406
  38   2.0000      -4.641859      -126.3114
  39   2.0000      -4.640886      -126.2849
  40   2.0000      -4.638360      -126.2162
  41   2.0000      -4.636919      -126.1770
  42   2.0000      -4.635686      -126.1434
  43   2.0000      -0.982464       -26.7342
  44   2.0000      -0.979422       -26.6514
  45   2.0000      -0.938717       -25.5438
  46   2.0000      -0.937819       -25.5194
  47   2.0000      -0.758564       -20.6416
  48   2.0000      -0.719060       -19.5666
  49   2.0000      -0.709446       -19.3050
  50   2.0000      -0.687538       -18.7089
  51   2.0000      -0.685925       -18.6650
  52   2.0000      -0.671233       -18.2652
  53   2.0000      -0.647548       -17.6207
  54   2.0000      -0.634056       -17.2536
  55   2.0000      -0.593160       -16.1407
  56   2.0000      -0.580632       -15.7998
  57   2.0000      -0.571451       -15.5500
  58   2.0000      -0.567181       -15.4338
  59   2.0000      -0.560408       -15.2495
  60   2.0000      -0.505178       -13.7466
  61   2.0000      -0.498292       -13.5592
  62   2.0000      -0.473503       -12.8847
  63   2.0000      -0.469356       -12.7718
  64   2.0000      -0.451594       -12.2885
  65   2.0000      -0.446530       -12.1507
  66   2.0000      -0.437680       -11.9099
  67   2.0000      -0.434387       -11.8203
  68   2.0000      -0.426763       -11.6128
  69   2.0000      -0.415747       -11.3130
  70   2.0000      -0.401962       -10.9380
  71   2.0000      -0.392673       -10.6852
  72   2.0000      -0.388907       -10.5827
  73   2.0000      -0.388608       -10.5746
  74   2.0000      -0.382099       -10.3974
  75   2.0000      -0.361746        -9.8436
  76   2.0000      -0.360405        -9.8071
  77   2.0000      -0.357035        -9.7154
  78   2.0000      -0.350828        -9.5465
  79   2.0000      -0.349834        -9.5195
  80   2.0000      -0.342934        -9.3317
  81   2.0000      -0.342147        -9.3103
  82   2.0000      -0.338872        -9.2212
  83   2.0000      -0.335736        -9.1358
  84   2.0000      -0.328238        -8.9318
  85   2.0000      -0.313196        -8.5225
  86   2.0000      -0.311640        -8.4802
  87   2.0000      -0.307552        -8.3689
  88   2.0000      -0.295315        -8.0359
  89   2.0000      -0.292574        -7.9613
  90   2.0000      -0.273734        -7.4487
  91   2.0000      -0.267194        -7.2707
  92   2.0000      -0.262956        -7.1554
  93   2.0000      -0.261822        -7.1245
  94   2.0000      -0.256937        -6.9916
  95   2.0000      -0.235080        -6.3968
  96   2.0000      -0.216880        -5.9016
  97   2.0000      -0.206119        -5.6088
  98   2.0000      -0.202233        -5.5030
  99   2.0000      -0.190009        -5.1704
 100   2.0000      -0.186432        -5.0731
 101   0.0000      -0.037303        -1.0151
 102   0.0000      -0.029302        -0.7973
 103   0.0000      -0.010400        -0.2830
 104   0.0000       0.008488         0.2310
 105   0.0000       0.019989         0.5439

MULLIKEN ATOMIC CHARGES
-----------------------
   0 C :   -0.320539
   1 C :    0.005581
   2 O :   -0.387031
   3 P :    0.616471
   4 S :   -0.308603
   5 O :   -0.349818
   6 C :   -0.017324
   7 C :   -0.286705
   8 S :   -0.103324
   9 C :   -0.353875
  10 S :   -0.097264
  11 P :    0.612783
  12 S :   -0.307857
  13 O :   -0.372162
  14 C :   -0.034968
  15 C :   -0.280234
  16 O :   -0.385524
  17 C :   -0.016185
  18 C :   -0.315535
  19 H :    0.111788
  20 H :    0.120412
  21 H :    0.121018
  22 H :    0.109706
  23 H :    0.103102
  24 H :    0.111467
  25 H :    0.107017
  26 H :    0.139959
  27 H :    0.107706
  28 H :    0.118428
  29 H :    0.182692
  30 H :    0.201279
  31 H :    0.110979
  32 H :    0.114778
  33 H :    0.123577
  34 H :    0.120933
  35 H :    0.110916
  36 H :    0.130074
  37 H :    0.101857
  38 H :    0.113270
  39 H :    0.110068
  40 H :    0.131087
Sum of atomic charges:   -0.0000000

LOEWDIN ATOMIC CHARGES
----------------------
   0 C :   -0.370733
   1 C :   -0.115655
   2 O :   -0.255754
   3 P :    0.575403
   4 S :   -0.289674
   5 O :   -0.226604
   6 C :   -0.112101
   7 C :   -0.351173
   8 S :    0.069223
   9 C :   -0.480164
  10 S :    0.077272
  11 P :    0.559931
  12 S :   -0.302313
  13 O :   -0.245695
  14 C :   -0.122645
  15 C :   -0.350186
  16 O :   -0.251427
  17 C :   -0.127143
  18 C :   -0.366618
  19 H :    0.130011
  20 H :    0.124449
  21 H :    0.118862
  22 H :    0.111003
  23 H :    0.118139
  24 H :    0.106952
  25 H :    0.113737
  26 H :    0.131232
  27 H :    0.129134
  28 H :    0.128714
  29 H :    0.135502
  30 H :    0.122895
  31 H :    0.109432
  32 H :    0.113610
  33 H :    0.131302
  34 H :    0.127559
  35 H :    0.130438
  36 H :    0.110708
  37 H :    0.116355
  38 H :    0.131600
  39 H :    0.119411
  40 H :    0.125009

  Mayer bond orders larger than 0.100000
B(  0-C ,  1-C ) :   1.1635 B(  0-C , 19-H ) :   0.9369 B(  0-C , 20-H ) :   0.9411
B(  0-C , 21-H ) :   0.9380 B(  1-C ,  2-O ) :   0.9216 B(  1-C , 22-H ) :   0.9195
B(  1-C , 23-H ) :   0.9349 B(  2-O ,  3-P ) :   1.0711 B(  3-P ,  4-S ) :   1.6130
B(  3-P ,  5-O ) :   1.1530 B(  3-P ,  8-S ) :   0.9499 B(  4-S ,  8-S ) :   0.1140
B(  4-S , 30-H ) :   0.1114 B(  5-O ,  6-C ) :   0.8905 B(  6-C ,  7-C ) :   1.1656
B(  6-C , 24-H ) :   0.9143 B(  6-C , 25-H ) :   0.9288 B(  7-C , 26-H ) :   0.9429
B(  7-C , 27-H ) :   0.9401 B(  7-C , 28-H ) :   0.9499 B(  8-S ,  9-C ) :   1.0044
B(  9-C , 10-S ) :   1.0042 B(  9-C , 29-H ) :   0.9092 B(  9-C , 30-H ) :   0.8451
B( 10-S , 11-P ) :   0.9684 B( 10-S , 12-S ) :   0.1094 B( 11-P , 12-S ) :   1.6712
B( 11-P , 13-O ) :   1.1094 B( 11-P , 16-O ) :   1.0703 B( 13-O , 14-C ) :   0.8967
B( 14-C , 15-C ) :   1.1660 B( 14-C , 31-H ) :   0.9146 B( 14-C , 32-H ) :   0.9288
B( 15-C , 33-H ) :   0.9482 B( 15-C , 34-H ) :   0.9485 B( 15-C , 35-H ) :   0.9408
B( 16-O , 17-C ) :   0.9028 B( 17-C , 18-C ) :   1.1552 B( 17-C , 36-H ) :   0.9047
B( 17-C , 37-H ) :   0.9357 B( 18-C , 38-H ) :   0.9394 B( 18-C , 39-H ) :   0.9433
B( 18-C , 40-H ) :   0.9349

Dispersion correction           -0.066259956
FINAL SINGLE POINT ENERGY     -2929.516349409904

DIPOLE MOMENT
-------------

Method             : SCF
Type of density    : Electron Density
Multiplicity       :   1
Irrep              :   0
Energy             : -2929.6352260999819919 Eh
Relativity type    :
Basis              : AO
                                X                 Y                 Z
Electronic contribution:      6.561543909      -5.240494845      -0.604103535
Nuclear contribution   :     -6.616986895       4.853739903      -0.158754876
                        -----------------------------------------
Total Dipole Moment    :     -0.055442985      -0.386754941      -0.762858411
                        -----------------------------------------
Magnitude (a.u.)       :      0.857091748
Magnitude (Debye)      :      2.178554092

Rotational constants in cm-1:             0.012697             0.004981             0.004722
Rotational constants in MHz :           380.659263           149.326728           141.568011

                             ****ORCA TERMINATED NORMALLY****
TOTAL RUN TIME: 0 days 0 hours 0 minutes 20 seconds 946 msec
