                         Program Version 6.0.0  -   RELEASE  -
|  1> ! pbe def2-sv(p) def2/J RI DEFGRID1 loosescf d4 GCP(DFT/SV(P)) printgap
|  2> %output
|  3>     printlevel normal
|  4> end
|  5> * xyz 0 1
|  6> C 4.4637964405 0.3386851014 -2.3018224269
|  7> C 4.4401749945 1.0000543605 -0.9392483059
|  8> O 3.683289806 0.2373226877 0.0163033782
|  9> P 2.1048435736 0.0599814896 -0.0883944731
| 10> S 1.1752052961 1.7020267431 -0.6419072549
| 11> O 1.7596255669 -0.4907905918 1.3550123052
| 12> C 1.7835749399 0.3663262384 2.517629512
| 13> C 1.0194761038 -0.3333225785 3.6222540962
| 14> S 1.8462416056 -1.6968377483 -1.2053169299
| 15> C 0.0527087377 -1.6436538697 -1.4618070334
| 16> S -0.9008006553 -1.8211568747 0.0779194986
| 17> P -1.9770955642 -0.0050272859 0.0676823498
| 18> S -2.1705077209 0.8579097954 -1.6893772219
| 19> O -1.252782311 0.7449959406 1.2628163452
| 20> C -1.8345809038 1.8421589476 2.0012572725
| 21> C -2.0237764534 3.0760606495 1.1432952394
| 22> O -3.3702692616 -0.3498904124 0.7570170395
| 23> C -4.5182836492 -0.7723389785 0.0024748924
| 24> C -4.3413738607 -2.1618838231 -0.5741584602
| 25> H 3.4657917273 0.3532297633 -2.7386065722
| 26> H 5.1407490778 0.881374611 -2.9537214346
| 27> H 4.7919920871 -0.6939560468 -2.2149707457
| 28> H 4.0028936003 2.0017412047 -1.0046722049
| 29> H 5.4364361479 1.0560624521 -0.4987619311
| 30> H 2.8284582284 0.5323608495 2.791337119
| 31> H 1.3268339383 1.3250749967 2.2486170272
| 32> H -0.009220316 -0.5003050371 3.3134329894
| 33> H 1.4787693648 -1.2940764428 3.8354896433
| 34> H 1.0356184276 0.2824885115 4.5157398861
| 35> H -0.1707719789 -2.4933712083 -2.1019547835
| 36> H -0.2346372837 -0.7036131474 -1.942947571
| 37> H -2.7837970076 1.5064706174 2.4251328963
| 38> H -1.1135849358 2.022603372 2.8008300619
| 39> H -2.7798414921 2.8963012605 0.3805129863
| 40> H -2.3375353825 3.9072094452 1.7666393985
| 41> H -1.0909285622 3.3310621934 0.6430440986
| 42> H -5.3345086841 -0.7357182353 0.7252271192
| 43> H -4.692546458 -0.0450051785 -0.7969774235
| 44> H -4.0459096536 -2.8599791642 0.2047785213
| 45> H -5.2769487123 -2.4875159871 -1.0171831058
| 46> H -3.5718902337 -2.1476820612 -1.3444567066
| 47> *
| 48>
| 49>                          ****END OF INPUT****

CARTESIAN COORDINATES (ANGSTROEM)
---------------------------------
  C      4.463796    0.338685   -2.301822
  C      4.440175    1.000054   -0.939248
  O      3.683290    0.237323    0.016303
  P      2.104844    0.059981   -0.088394
  S      1.175205    1.702027   -0.641907
  O      1.759626   -0.490791    1.355012
  C      1.783575    0.366326    2.517630
  C      1.019476   -0.333323    3.622254
  S      1.846242   -1.696838   -1.205317
  C      0.052709   -1.643654   -1.461807
  S     -0.900801   -1.821157    0.077919
  P     -1.977096   -0.005027    0.067682
  S     -2.170508    0.857910   -1.689377
  O     -1.252782    0.744996    1.262816
  C     -1.834581    1.842159    2.001257
  C     -2.023776    3.076061    1.143295
  O     -3.370269   -0.349890    0.757017
  C     -4.518284   -0.772339    0.002475
  C     -4.341374   -2.161884   -0.574158
  H      3.465792    0.353230   -2.738607
  H      5.140749    0.881375   -2.953721
  H      4.791992   -0.693956   -2.214971
  H      4.002894    2.001741   -1.004672
  H      5.436436    1.056062   -0.498762
  H      2.828458    0.532361    2.791337
  H      1.326834    1.325075    2.248617
  H     -0.009220   -0.500305    3.313433
  H      1.478769   -1.294076    3.835490
  H      1.035618    0.282489    4.515740
  H     -0.170772   -2.493371   -2.101955
  H     -0.234637   -0.703613   -1.942948
  H     -2.783797    1.506471    2.425133
  H     -1.113585    2.022603    2.800830
  H     -2.779841    2.896301    0.380513
  H     -2.337535    3.907209    1.766639
  H     -1.090929    3.331062    0.643044
  H     -5.334509   -0.735718    0.725227
  H     -4.692546   -0.045005   -0.796977
  H     -4.045910   -2.859979    0.204779
  H     -5.276949   -2.487516   -1.017183
  H     -3.571890   -2.147682   -1.344457

 Total Charge           Charge          ....    0
 Multiplicity           Mult            ....    1
 Number of Electrons    NEL             ....  202
 Basis Dimension        Dim             ....  334

ORBITAL ENERGIES
----------------

  NO   OCC          E(Eh)            E(eV)
   0   2.0000     -88.041494     -2395.7309
   1   2.0000     -88.040289     -2395.6981
   2   2.0000     -87.984079     -2394.1685
   3   2.0000     -87.979036     -2394.0313
   4   2.0000     -76.425249     -2079.6368
   5   2.0000     -76.420324     -2079.5027
   6   2.0000     -18.793548      -511.3984
   7   2.0000     -18.789177      -511.2795
   8   2.0000     -18.787761      -511.2410
   9   2.0000     -18.782329      -511.0932
  10   2.0000      -9.953355      -270.8446
  11   2.0000      -9.952236      -270.8141
  12   2.0000      -9.950896      -270.7776
  13   2.0000      -9.948475      -270.7118
  14   2.0000      -9.946247      -270.6511
  15   2.0000      -9.882653      -268.9207
  16   2.0000      -9.881320      -268.8844
  17   2.0000      -9.880856      -268.8718
  18   2.0000      -9.876488      -268.7529
  19   2.0000      -7.687190      -209.1791
  20   2.0000      -7.685415      -209.1308
  21   2.0000      -7.628968      -207.5948
  22   2.0000      -7.623850      -207.4555
  23   2.0000      -6.422453      -174.7638
  24   2.0000      -6.418049      -174.6440
  25   2.0000      -5.715218      -155.5190
  26   2.0000      -5.713317      -155.4673
  27   2.0000      -5.711560      -155.4194
  28   2.0000      -5.709996      -155.3769
  29   2.0000      -5.704027      -155.2145
  30   2.0000      -5.702231      -155.1656
  31   2.0000      -5.657832      -153.9574
  32   2.0000      -5.652563      -153.8141
  33   2.0000      -5.649839      -153.7399
  34   2.0000      -5.648916      -153.7148
  35   2.0000      -5.644591      -153.5971
  36   2.0000      -5.644093      -153.5836
  37   2.0000      -4.645216      -126.4027
  38   2.0000      -4.643962      -126.3686
  39   2.0000      -4.643007      -126.3426
  40   2.0000      -4.640617      -126.2776
  41   2.0000      -4.639764      -126.2544
  42   2.0000      -4.638511      -126.2203
  43   2.0000      -0.986711       -26.8498
  44   2.0000      -0.981486       -26.7076
  45   2.0000      -0.941981       -25.6326
  46   2.0000      -0.938955       -25.5503
  47   2.0000      -0.761666       -20.7260
  48   2.0000      -0.719363       -19.5749
  49   2.0000      -0.705823       -19.2064
  50   2.0000      -0.685884       -18.6638
  51   2.0000      -0.683409       -18.5965
  52   2.0000      -0.673076       -18.3153
  53   2.0000      -0.648904       -17.6576
  54   2.0000      -0.630925       -17.1683
  55   2.0000      -0.598791       -16.2939
  56   2.0000      -0.588004       -16.0004
  57   2.0000      -0.575104       -15.6494
  58   2.0000      -0.568783       -15.4774
  59   2.0000      -0.553423       -15.0594
  60   2.0000      -0.499284       -13.5862
  61   2.0000      -0.494941       -13.4680
  62   2.0000      -0.469192       -12.7674
  63   2.0000      -0.467621       -12.7246
  64   2.0000      -0.453750       -12.3472
  65   2.0000      -0.442858       -12.0508
  66   2.0000      -0.436775       -11.8853
  67   2.0000      -0.431711       -11.7474
  68   2.0000      -0.423103       -11.5132
  69   2.0000      -0.416408       -11.3310
  70   2.0000      -0.410461       -11.1692
  71   2.0000      -0.406793       -11.0694
  72   2.0000      -0.388083       -10.5603
  73   2.0000      -0.384473       -10.4620
  74   2.0000      -0.378523       -10.3001
  75   2.0000      -0.368921       -10.0389
  76   2.0000      -0.366069        -9.9612
  77   2.0000      -0.352065        -9.5802
  78   2.0000      -0.350812        -9.5461
  79   2.0000      -0.348393        -9.4803
  80   2.0000      -0.343515        -9.3475
  81   2.0000      -0.340429        -9.2635
  82   2.0000      -0.335075        -9.1179
  83   2.0000      -0.331949        -9.0328
  84   2.0000      -0.330854        -9.0030
  85   2.0000      -0.312684        -8.5086
  86   2.0000      -0.310217        -8.4414
  87   2.0000      -0.294991        -8.0271
  88   2.0000      -0.292896        -7.9701
  89   2.0000      -0.287846        -7.8327
  90   2.0000      -0.284001        -7.7281
  91   2.0000      -0.273585        -7.4446
  92   2.0000      -0.268013        -7.2930
  93   2.0000      -0.260486        -7.0882
  94   2.0000      -0.258063        -7.0223
  95   2.0000      -0.233531        -6.3547
  96   2.0000      -0.219628        -5.9764
  97   2.0000      -0.213820        -5.8183
  98   2.0000      -0.199621        -5.4320
  99   2.0000      -0.192055        -5.2261
 100   2.0000      -0.183735        -4.9997
 101   0.0000      -0.039336        -1.0704
 102   0.0000      -0.032377        -0.8810
 103   0.0000      -0.010782        -0.2934
 104   0.0000       0.012389         0.3371
 105   0.0000       0.017818         0.4848

MULLIKEN ATOMIC CHARGES
-----------------------
   0 C :   -0.319966
   1 C :   -0.001666
   2 O :   -0.380682
   3 P :    0.606783
   4 S :   -0.317200
   5 O :   -0.361535
   6 C :   -0.005770
   7 C :   -0.287644
   8 S :   -0.081533
   9 C :   -0.362362
  10 S :   -0.078838
  11 P :    0.628302
  12 S :   -0.307268
  13 O :   -0.362088
  14 C :   -0.008709
  15 C :   -0.315457
  16 O :   -0.383414
  17 C :   -0.003885
  18 C :   -0.306943
  19 H :    0.129224
  20 H :    0.112972
  21 H :    0.117645
  22 H :    0.109293
  23 H :    0.102595
  24 H :    0.099827
  25 H :    0.103621
  26 H :    0.128297
  27 H :    0.115379
  28 H :    0.103033
  29 H :    0.181344
  30 H :    0.207665
  31 H :    0.107333
  32 H :    0.105086
  33 H :    0.124704
  34 H :    0.105421
  35 H :    0.137356
  36 H :    0.101684
  37 H :    0.110139
  38 H :    0.116664
  39 H :    0.111550
  40 H :    0.119043
Sum of atomic charges:   -0.0000000

LOEWDIN ATOMIC CHARGES
----------------------
   0 C :   -0.370201
   1 C :   -0.120856
   2 O :   -0.249279
   3 P :    0.561407
   4 S :   -0.309003
   5 O :   -0.240597
   6 C :   -0.114873
   7 C :   -0.353625
   8 S :    0.093027
   9 C :   -0.480986
  10 S :    0.093702
  11 P :    0.573293
  12 S :   -0.295725
  13 O :   -0.235564
  14 C :   -0.111031
  15 C :   -0.368483
  16 O :   -0.247791
  17 C :   -0.121590
  18 C :   -0.367991
  19 H :    0.122206
  20 H :    0.131075
  21 H :    0.123848
  22 H :    0.109416
  23 H :    0.117397
  24 H :    0.110756
  25 H :    0.105437
  26 H :    0.126570
  27 H :    0.127351
  28 H :    0.126068
  29 H :    0.136613
  30 H :    0.125792
  31 H :    0.111069
  32 H :    0.114927
  33 H :    0.120993
  34 H :    0.127016
  35 H :    0.130344
  36 H :    0.116665
  37 H :    0.109021
  38 H :    0.124221
  39 H :    0.130083
  40 H :    0.119299

  Mayer bond orders larger than 0.100000
B(  0-C ,  1-C ) :   1.1651 B(  0-C , 19-H ) :   0.9347 B(  0-C , 20-H ) :   0.9381
B(  0-C , 21-H ) :   0.9448 B(  1-C ,  2-O ) :   0.9111 B(  1-C , 22-H ) :   0.9128
B(  1-C , 23-H ) :   0.9335 B(  2-O ,  3-P ) :   1.0926 B(  3-P ,  4-S ) :   1.6312
B(  3-P ,  5-O ) :   1.1319 B(  3-P ,  8-S ) :   0.9634 B(  4-S ,  8-S ) :   0.1134
B(  5-O ,  6-C ) :   0.8994 B(  6-C ,  7-C ) :   1.1653 B(  6-C , 24-H ) :   0.9301
B(  6-C , 25-H ) :   0.9066 B(  7-C , 26-H ) :   0.9427 B(  7-C , 27-H ) :   0.9484
B(  7-C , 28-H ) :   0.9411 B(  8-S ,  9-C ) :   0.9981 B(  9-C , 10-S ) :   1.0036
B(  9-C , 29-H ) :   0.9114 B(  9-C , 30-H ) :   0.8467 B( 10-S , 11-P ) :   0.9695
B( 10-S , 12-S ) :   0.1240 B( 11-P , 12-S ) :   1.6006 B( 11-P , 13-O ) :   1.1193
B( 11-P , 16-O ) :   1.0826 B( 13-O , 14-C ) :   0.9039 B( 14-C , 15-C ) :   1.1701
B( 14-C , 31-H ) :   0.9287 B( 14-C , 32-H ) :   0.9264 B( 15-C , 33-H ) :   0.9351
B( 15-C , 34-H ) :   0.9366 B( 15-C , 35-H ) :   0.9398 B( 16-O , 17-C ) :   0.9116
B( 17-C , 18-C ) :   1.1671 B( 17-C , 36-H ) :   0.9330 B( 17-C , 37-H ) :   0.9121
B( 18-C , 38-H ) :   0.9448 B( 18-C , 39-H ) :   0.9383 B( 18-C , 40-H ) :   0.9369

Dispersion correction           -0.068320505
FINAL SINGLE POINT ENERGY     -2929.519091441229

DIPOLE MOMENT
-------------

Method             : SCF
Type of density    : Electron Density
Multiplicity       :   1
Irrep              :   0
Energy             : -2929.6368496534096266 Eh
Relativity type    :
Basis              : AO
                                X                 Y                 Z
Electronic contribution:      3.673318516      -5.895492129      -7.785364234
Nuclear contribution   :     -3.791868011       5.736184807       8.646666190
                        -----------------------------------------
Total Dipole Moment    :     -0.118549494      -0.159307322       0.861301956
                        -----------------------------------------
Magnitude (a.u.)       :      0.883896976
Magnitude (Debye)      :      2.246687566

Rotational constants in cm-1:             0.012178             0.005631             0.005205
Rotational constants in MHz :           365.099038           168.804280           156.054036

                             ****ORCA TERMINATED NORMALLY****
TOTAL RUN TIME: 0 days 0 hours 0 minutes 21 seconds 982 msec
