                         Program Version 6.0.0  -   RELEASE  -
|  1> ! pbe def2-sv(p) def2/J RI DEFGRID1 loosescf d4 GCP(DFT/SV(P)) printgap
|  2> %output
|  3>     printlevel normal
|  4> end
|  5> * xyz 0 1
|  6> C 4.4236103511 0.7013053169 -2.1753649493
|  7> C 4.6680290461 0.398216777 -0.7107287
|  8> O 3.5547806535 -0.280723748 -0.1107120132
|  9> P 2.1506472826 0.4443337158 0.1394876893
| 10> S 2.3137047544 2.3100372351 0.7112914914
| 11> O 1.4877877277 -0.5652672866 1.1555076328
| 12> C 1.7164423554 -0.4886484584 2.5808947108
| 13> C 0.5066445297 -1.0760496873 3.2777944507
| 14> S 0.9844056129 0.0870385642 -1.5880669383
| 15> C 0.5790290436 -1.6700690399 -1.4118251792
| 16> S -0.6568607837 -2.0504188647 -0.1236088856
| 17> P -1.8977811741 -0.3606130012 -0.2760334182
| 18> S -2.4964044192 0.1834074302 -2.0672424655
| 19> O -1.1160049923 0.7236634422 0.5832525151
| 20> C -1.3659099476 2.1324985386 0.4065291224
| 21> C -2.7422708703 2.5223715735 0.8984135535
| 22> O -3.0720162053 -0.7455070378 0.7216128324
| 23> C -4.1447797783 -1.627070277 0.3314459764
| 24> C -5.3269142389 -1.3589157802 1.2411125971
| 25> H 5.3129609529 1.1529698188 -2.6027876488
| 26> H 4.184230616 -0.2087331543 -2.7192301364
| 27> H 3.590864764 1.3979781699 -2.2753121731
| 28> H 4.8489018639 1.3227964858 -0.1531134795
| 29> H 5.5039408538 -0.2888967926 -0.5730692029
| 30> H 2.6237261412 -1.0553672947 2.8022884171
| 31> H 1.8699789752 0.5611315762 2.8541261801
| 32> H 0.3738594157 -2.1131797959 2.9823482676
| 33> H 0.650326006 -1.0181689196 4.3517594241
| 34> H -0.3868032835 -0.5204865772 3.0026331304
| 35> H 1.4716788412 -2.2366331688 -1.1580132931
| 36> H 0.1821247757 -1.9642125099 -2.3818387361
| 37> H -0.5722398164 2.6194089067 0.97695007
| 38> H -1.2471044849 2.3747913364 -0.6554757995
| 39> H -2.8540845478 3.599870554 0.8301704718
| 40> H -3.5010640049 2.0458496881 0.2786019659
| 41> H -2.8770190328 2.2065272118 1.9294519564
| 42> H -4.3922420104 -1.4320072337 -0.7176532643
| 43> H -3.7895406993 -2.6559802651 0.4308398122
| 44> H -5.6714838043 -0.335916356 1.1184375561
| 45> H -6.1322768757 -2.039952193 0.9865840504
| 46> H -5.0387305896 -1.5117131474 2.2769875474
| 47> *
| 48>
| 49>                          ****END OF INPUT****

CARTESIAN COORDINATES (ANGSTROEM)
---------------------------------
  C      4.423610    0.701305   -2.175365
  C      4.668029    0.398217   -0.710729
  O      3.554781   -0.280724   -0.110712
  P      2.150647    0.444334    0.139488
  S      2.313705    2.310037    0.711291
  O      1.487788   -0.565267    1.155508
  C      1.716442   -0.488648    2.580895
  C      0.506645   -1.076050    3.277794
  S      0.984406    0.087039   -1.588067
  C      0.579029   -1.670069   -1.411825
  S     -0.656861   -2.050419   -0.123609
  P     -1.897781   -0.360613   -0.276033
  S     -2.496404    0.183407   -2.067242
  O     -1.116005    0.723663    0.583253
  C     -1.365910    2.132499    0.406529
  C     -2.742271    2.522372    0.898414
  O     -3.072016   -0.745507    0.721613
  C     -4.144780   -1.627070    0.331446
  C     -5.326914   -1.358916    1.241113
  H      5.312961    1.152970   -2.602788
  H      4.184231   -0.208733   -2.719230
  H      3.590865    1.397978   -2.275312
  H      4.848902    1.322796   -0.153113
  H      5.503941   -0.288897   -0.573069
  H      2.623726   -1.055367    2.802288
  H      1.869979    0.561132    2.854126
  H      0.373859   -2.113180    2.982348
  H      0.650326   -1.018169    4.351759
  H     -0.386803   -0.520487    3.002633
  H      1.471679   -2.236633   -1.158013
  H      0.182125   -1.964213   -2.381839
  H     -0.572240    2.619409    0.976950
  H     -1.247104    2.374791   -0.655476
  H     -2.854085    3.599871    0.830170
  H     -3.501064    2.045850    0.278602
  H     -2.877019    2.206527    1.929452
  H     -4.392242   -1.432007   -0.717653
  H     -3.789541   -2.655980    0.430840
  H     -5.671484   -0.335916    1.118438
  H     -6.132277   -2.039952    0.986584
  H     -5.038731   -1.511713    2.276988

 Total Charge           Charge          ....    0
 Multiplicity           Mult            ....    1
 Number of Electrons    NEL             ....  202
 Basis Dimension        Dim             ....  334

ORBITAL ENERGIES
----------------

  NO   OCC          E(Eh)            E(eV)
   0   2.0000     -88.046423     -2395.8650
   1   2.0000     -88.039076     -2395.6651
   2   2.0000     -87.990948     -2394.3554
   3   2.0000     -87.982133     -2394.1156
   4   2.0000     -76.426597     -2079.6734
   5   2.0000     -76.424190     -2079.6079
   6   2.0000     -18.792387      -511.3669
   7   2.0000     -18.790623      -511.3188
   8   2.0000     -18.789239      -511.2812
   9   2.0000     -18.785339      -511.1751
  10   2.0000      -9.963089      -271.1094
  11   2.0000      -9.951551      -270.7955
  12   2.0000      -9.951380      -270.7908
  13   2.0000      -9.951157      -270.7848
  14   2.0000      -9.937359      -270.4093
  15   2.0000      -9.887812      -269.0610
  16   2.0000      -9.884363      -268.9672
  17   2.0000      -9.880638      -268.8658
  18   2.0000      -9.875201      -268.7179
  19   2.0000      -7.691026      -209.2835
  20   2.0000      -7.684460      -209.1048
  21   2.0000      -7.635941      -207.7845
  22   2.0000      -7.627121      -207.5445
  23   2.0000      -6.424359      -174.8157
  24   2.0000      -6.421306      -174.7326
  25   2.0000      -5.719401      -155.6328
  26   2.0000      -5.715317      -155.5217
  27   2.0000      -5.712596      -155.4476
  28   2.0000      -5.709034      -155.3507
  29   2.0000      -5.707690      -155.3141
  30   2.0000      -5.700999      -155.1321
  31   2.0000      -5.664726      -154.1450
  32   2.0000      -5.656805      -153.9295
  33   2.0000      -5.656060      -153.9092
  34   2.0000      -5.655979      -153.9070
  35   2.0000      -5.647716      -153.6822
  36   2.0000      -5.647341      -153.6720
  37   2.0000      -4.646777      -126.4452
  38   2.0000      -4.646266      -126.4313
  39   2.0000      -4.644833      -126.3923
  40   2.0000      -4.643724      -126.3621
  41   2.0000      -4.643180      -126.3474
  42   2.0000      -4.641865      -126.3116
  43   2.0000      -0.986375       -26.8406
  44   2.0000      -0.983360       -26.7586
  45   2.0000      -0.944022       -25.6881
  46   2.0000      -0.941472       -25.6188
  47   2.0000      -0.764958       -20.8156
  48   2.0000      -0.721397       -19.6302
  49   2.0000      -0.707547       -19.2533
  50   2.0000      -0.685322       -18.6486
  51   2.0000      -0.682548       -18.5731
  52   2.0000      -0.672261       -18.2931
  53   2.0000      -0.652155       -17.7461
  54   2.0000      -0.637969       -17.3600
  55   2.0000      -0.598187       -16.2775
  56   2.0000      -0.589585       -16.0434
  57   2.0000      -0.573200       -15.5976
  58   2.0000      -0.564693       -15.3661
  59   2.0000      -0.558560       -15.1992
  60   2.0000      -0.504385       -13.7250
  61   2.0000      -0.500482       -13.6188
  62   2.0000      -0.472681       -12.8623
  63   2.0000      -0.470503       -12.8030
  64   2.0000      -0.456605       -12.4249
  65   2.0000      -0.443098       -12.0573
  66   2.0000      -0.440294       -11.9810
  67   2.0000      -0.429229       -11.6799
  68   2.0000      -0.426581       -11.6079
  69   2.0000      -0.415512       -11.3066
  70   2.0000      -0.409379       -11.1398
  71   2.0000      -0.396605       -10.7922
  72   2.0000      -0.392799       -10.6886
  73   2.0000      -0.385533       -10.4909
  74   2.0000      -0.379312       -10.3216
  75   2.0000      -0.372310       -10.1311
  76   2.0000      -0.369588       -10.0570
  77   2.0000      -0.356163        -9.6917
  78   2.0000      -0.353856        -9.6289
  79   2.0000      -0.350424        -9.5355
  80   2.0000      -0.344271        -9.3681
  81   2.0000      -0.343132        -9.3371
  82   2.0000      -0.337938        -9.1958
  83   2.0000      -0.335986        -9.1426
  84   2.0000      -0.326171        -8.8756
  85   2.0000      -0.319074        -8.6825
  86   2.0000      -0.310294        -8.4435
  87   2.0000      -0.299337        -8.1454
  88   2.0000      -0.297185        -8.0868
  89   2.0000      -0.293555        -7.9880
  90   2.0000      -0.280225        -7.6253
  91   2.0000      -0.271868        -7.3979
  92   2.0000      -0.265451        -7.2233
  93   2.0000      -0.261819        -7.1245
  94   2.0000      -0.260456        -7.0874
  95   2.0000      -0.228575        -6.2198
  96   2.0000      -0.221596        -6.0299
  97   2.0000      -0.213285        -5.8038
  98   2.0000      -0.205939        -5.6039
  99   2.0000      -0.195274        -5.3137
 100   2.0000      -0.194218        -5.2849
 101   0.0000      -0.048225        -1.3123
 102   0.0000      -0.027784        -0.7561
 103   0.0000      -0.010959        -0.2982
 104   0.0000       0.001096         0.0298
 105   0.0000       0.017283         0.4703

MULLIKEN ATOMIC CHARGES
-----------------------
   0 C :   -0.309195
   1 C :   -0.006983
   2 O :   -0.381470
   3 P :    0.630152
   4 S :   -0.325153
   5 O :   -0.369658
   6 C :   -0.006318
   7 C :   -0.287351
   8 S :   -0.075218
   9 C :   -0.319653
  10 S :   -0.093340
  11 P :    0.618141
  12 S :   -0.331923
  13 O :   -0.366596
  14 C :   -0.016893
  15 C :   -0.301915
  16 O :   -0.378761
  17 C :   -0.011742
  18 C :   -0.282775
  19 H :    0.112901
  20 H :    0.113182
  21 H :    0.124642
  22 H :    0.110603
  23 H :    0.103043
  24 H :    0.100641
  25 H :    0.105248
  26 H :    0.114858
  27 H :    0.105872
  28 H :    0.128296
  29 H :    0.181145
  30 H :    0.192324
  31 H :    0.115351
  32 H :    0.112052
  33 H :    0.110625
  34 H :    0.118442
  35 H :    0.110865
  36 H :    0.105974
  37 H :    0.101361
  38 H :    0.121324
  39 H :    0.111812
  40 H :    0.116091
Sum of atomic charges:   -0.0000000

LOEWDIN ATOMIC CHARGES
----------------------
   0 C :   -0.366715
   1 C :   -0.122520
   2 O :   -0.256124
   3 P :    0.571546
   4 S :   -0.309295
   5 O :   -0.239294
   6 C :   -0.111483
   7 C :   -0.355504
   8 S :    0.116409
   9 C :   -0.465594
  10 S :    0.084411
  11 P :    0.565611
  12 S :   -0.332796
  13 O :   -0.235765
  14 C :   -0.127636
  15 C :   -0.365718
  16 O :   -0.247638
  17 C :   -0.121619
  18 C :   -0.350516
  19 H :    0.130666
  20 H :    0.123126
  21 H :    0.119788
  22 H :    0.108972
  23 H :    0.117389
  24 H :    0.112125
  25 H :    0.107414
  26 H :    0.123039
  27 H :    0.127171
  28 H :    0.127623
  29 H :    0.135155
  30 H :    0.139954
  31 H :    0.112346
  32 H :    0.109981
  33 H :    0.130122
  34 H :    0.118565
  35 H :    0.123251
  36 H :    0.107795
  37 H :    0.109775
  38 H :    0.128570
  39 H :    0.130774
  40 H :    0.126639

  Mayer bond orders larger than 0.100000
B(  0-C ,  1-C ) :   1.1621 B(  0-C , 19-H ) :   0.9388 B(  0-C , 20-H ) :   0.9457
B(  0-C , 21-H ) :   0.9366 B(  1-C ,  2-O ) :   0.9192 B(  1-C , 22-H ) :   0.9145
B(  1-C , 23-H ) :   0.9337 B(  2-O ,  3-P ) :   1.0750 B(  3-P ,  4-S ) :   1.6289
B(  3-P ,  5-O ) :   1.1295 B(  3-P ,  8-S ) :   0.9569 B(  5-O ,  6-C ) :   0.8959
B(  6-C ,  7-C ) :   1.1633 B(  6-C , 24-H ) :   0.9332 B(  6-C , 25-H ) :   0.9098
B(  7-C , 26-H ) :   0.9477 B(  7-C , 27-H ) :   0.9397 B(  7-C , 28-H ) :   0.9432
B(  8-S ,  9-C ) :   1.0056 B(  9-C , 10-S ) :   0.9770 B(  9-C , 29-H ) :   0.9068
B(  9-C , 30-H ) :   0.9037 B( 10-S , 11-P ) :   0.9865 B( 10-S , 12-S ) :   0.1114
B( 11-P , 12-S ) :   1.5999 B( 11-P , 13-O ) :   1.1063 B( 11-P , 16-O ) :   1.0989
B( 13-O , 14-C ) :   0.8898 B( 14-C , 15-C ) :   1.1621 B( 14-C , 31-H ) :   0.9177
B( 14-C , 32-H ) :   0.9165 B( 15-C , 33-H ) :   0.9396 B( 15-C , 34-H ) :   0.9330
B( 15-C , 35-H ) :   0.9468 B( 16-O , 17-C ) :   0.9052 B( 17-C , 18-C ) :   1.1609
B( 17-C , 36-H ) :   0.9062 B( 17-C , 37-H ) :   0.9303 B( 18-C , 38-H ) :   0.9512
B( 18-C , 39-H ) :   0.9419 B( 18-C , 40-H ) :   0.9504

Dispersion correction           -0.067431760
FINAL SINGLE POINT ENERGY     -2929.519928456396

DIPOLE MOMENT
-------------

Method             : SCF
Type of density    : Electron Density
Multiplicity       :   1
Irrep              :   0
Energy             : -2929.6379563274117572 Eh
Relativity type    :
Basis              : AO
                                X                 Y                 Z
Electronic contribution:      6.072754718      -0.795629975     -10.459403936
Nuclear contribution   :     -5.705775208      -0.196747069      11.114027424
                        -----------------------------------------
Total Dipole Moment    :      0.366979510      -0.992377044       0.654623488
                        -----------------------------------------
Magnitude (a.u.)       :      1.244193743
Magnitude (Debye)      :      3.162489167

Rotational constants in cm-1:             0.013137             0.005223             0.005074
Rotational constants in MHz :           393.838373           156.572501           152.104184

                             ****ORCA TERMINATED NORMALLY****
TOTAL RUN TIME: 0 days 0 hours 0 minutes 21 seconds 682 msec
