                         Program Version 6.0.0  -   RELEASE  -
|  1> ! pbe def2-sv(p) def2/J RI DEFGRID1 loosescf d4 GCP(DFT/SV(P)) printgap
|  2> %output
|  3>     printlevel normal
|  4> end
|  5> * xyz 0 1
|  6> C 2.628516589 2.3827653697 1.1221564457
|  7> C 1.2148642105 2.0086214531 1.5096042224
|  8> O 1.0669861856 0.6128784844 1.8674183384
|  9> P 1.5960173514 -0.6341768542 1.0647288422
| 10> S 0.7812283609 -2.3179402355 1.6499582855
| 11> O 3.1580533639 -0.5636884969 1.3842240804
| 12> C 4.0351901389 -1.6925175528 1.2618300726
| 13> C 4.187090475 -2.1615616239 -0.1715649451
| 14> S 1.482947405 -0.1697765771 -1.016502837
| 15> C 0.4141836861 -1.5112910874 -1.5848667201
| 16> S -1.1586403973 -0.9692850353 -2.3321872331
| 17> P -1.9362967266 0.3139194323 -0.842372455
| 18> S -3.8718504025 0.5719639718 -0.9627049703
| 19> O -1.0401434918 1.6304800554 -0.924982722
| 20> C -1.0627159928 2.4736256945 -2.0956618177
| 21> C -2.0142712207 3.6375721421 -1.9025546528
| 22> O -1.3741520601 -0.2915168247 0.5163137741
| 23> C -2.2395358495 -0.490186386 1.653030615
| 24> C -2.360276683 0.7810227861 2.4648448429
| 25> H 2.6738213682 3.453813671 0.9491837229
| 26> H 3.3207543933 2.1164472678 1.9166608929
| 27> H 2.9217063642 1.8642803246 0.2105205035
| 28> H 0.5139599334 2.2197132656 0.6985783652
| 29> H 0.8981407208 2.53222865 2.4136463466
| 30> H 4.981268946 -1.3311310768 1.6673238276
| 31> H 3.6485516328 -2.5013499616 1.8901649003
| 32> H 4.9648858023 -2.9170498116 -0.2184241143
| 33> H 3.2531742592 -2.5995006125 -0.5210380932
| 34> H 4.4533080179 -1.3291163332 -0.8177241427
| 35> H 0.2068769437 -2.1743226705 -0.7400743787
| 36> H 0.9225022496 -2.0405188781 -2.3874476944
| 37> H -0.0311744137 2.8116534408 -2.2151518955
| 38> H -1.3497971791 1.8720049065 -2.9647795361
| 39> H -1.9789808815 4.2757890236 -2.7794327198
| 40> H -3.0308079103 3.273198233 -1.7699094191
| 41> H -1.7312787095 4.2135682379 -1.0261268925
| 42> H -3.220783631 -0.816707315 1.294927551
| 43> H -1.7669765284 -1.2946174761 2.2197981829
| 44> H -3.0082442731 0.5995624232 3.3163882892
| 45> H -1.3805919226 1.0939298529 2.8149881621
| 46> H -2.7912245686 1.5684454302 1.8480447094
| 47> *
| 48>
| 49>                          ****END OF INPUT****

CARTESIAN COORDINATES (ANGSTROEM)
---------------------------------
  C      2.628517    2.382765    1.122156
  C      1.214864    2.008621    1.509604
  O      1.066986    0.612878    1.867418
  P      1.596017   -0.634177    1.064729
  S      0.781228   -2.317940    1.649958
  O      3.158053   -0.563688    1.384224
  C      4.035190   -1.692518    1.261830
  C      4.187090   -2.161562   -0.171565
  S      1.482947   -0.169777   -1.016503
  C      0.414184   -1.511291   -1.584867
  S     -1.158640   -0.969285   -2.332187
  P     -1.936297    0.313919   -0.842372
  S     -3.871850    0.571964   -0.962705
  O     -1.040143    1.630480   -0.924983
  C     -1.062716    2.473626   -2.095662
  C     -2.014271    3.637572   -1.902555
  O     -1.374152   -0.291517    0.516314
  C     -2.239536   -0.490186    1.653031
  C     -2.360277    0.781023    2.464845
  H      2.673821    3.453814    0.949184
  H      3.320754    2.116447    1.916661
  H      2.921706    1.864280    0.210521
  H      0.513960    2.219713    0.698578
  H      0.898141    2.532229    2.413646
  H      4.981269   -1.331131    1.667324
  H      3.648552   -2.501350    1.890165
  H      4.964886   -2.917050   -0.218424
  H      3.253174   -2.599501   -0.521038
  H      4.453308   -1.329116   -0.817724
  H      0.206877   -2.174323   -0.740074
  H      0.922502   -2.040519   -2.387448
  H     -0.031174    2.811653   -2.215152
  H     -1.349797    1.872005   -2.964780
  H     -1.978981    4.275789   -2.779433
  H     -3.030808    3.273198   -1.769909
  H     -1.731279    4.213568   -1.026127
  H     -3.220784   -0.816707    1.294928
  H     -1.766977   -1.294617    2.219798
  H     -3.008244    0.599562    3.316388
  H     -1.380592    1.093930    2.814988
  H     -2.791225    1.568445    1.848045

 Total Charge           Charge          ....    0
 Multiplicity           Mult            ....    1
 Number of Electrons    NEL             ....  202
 Basis Dimension        Dim             ....  334

ORBITAL ENERGIES
----------------

  NO   OCC          E(Eh)            E(eV)
   0   2.0000     -88.049130     -2395.9386
   1   2.0000     -88.042783     -2395.7659
   2   2.0000     -87.990740     -2394.3498
   3   2.0000     -87.988005     -2394.2753
   4   2.0000     -76.431978     -2079.8199
   5   2.0000     -76.426500     -2079.6708
   6   2.0000     -18.795362      -511.4478
   7   2.0000     -18.792845      -511.3793
   8   2.0000     -18.792345      -511.3657
   9   2.0000     -18.790239      -511.3084
  10   2.0000      -9.957708      -270.9630
  11   2.0000      -9.957087      -270.9461
  12   2.0000      -9.955823      -270.9117
  13   2.0000      -9.953922      -270.8600
  14   2.0000      -9.939785      -270.4753
  15   2.0000      -9.892919      -269.2000
  16   2.0000      -9.887249      -269.0457
  17   2.0000      -9.883381      -268.9405
  18   2.0000      -9.874857      -268.7085
  19   2.0000      -7.693500      -209.3508
  20   2.0000      -7.688149      -209.2052
  21   2.0000      -7.635679      -207.7774
  22   2.0000      -7.633142      -207.7084
  23   2.0000      -6.428873      -174.9385
  24   2.0000      -6.424271      -174.8133
  25   2.0000      -5.721407      -155.6874
  26   2.0000      -5.718090      -155.5971
  27   2.0000      -5.716421      -155.5517
  28   2.0000      -5.712258      -155.4384
  29   2.0000      -5.710410      -155.3882
  30   2.0000      -5.705114      -155.2440
  31   2.0000      -5.664653      -154.1430
  32   2.0000      -5.662099      -154.0735
  33   2.0000      -5.656472      -153.9204
  34   2.0000      -5.655537      -153.8950
  35   2.0000      -5.653962      -153.8521
  36   2.0000      -5.653067      -153.8278
  37   2.0000      -4.651526      -126.5745
  38   2.0000      -4.650583      -126.5488
  39   2.0000      -4.649440      -126.5177
  40   2.0000      -4.646685      -126.4427
  41   2.0000      -4.646287      -126.4319
  42   2.0000      -4.644617      -126.3865
  43   2.0000      -0.989710       -26.9314
  44   2.0000      -0.985724       -26.8229
  45   2.0000      -0.946844       -25.7649
  46   2.0000      -0.944421       -25.6990
  47   2.0000      -0.763683       -20.7809
  48   2.0000      -0.722396       -19.6574
  49   2.0000      -0.710359       -19.3299
  50   2.0000      -0.693245       -18.8642
  51   2.0000      -0.684364       -18.6225
  52   2.0000      -0.677366       -18.4321
  53   2.0000      -0.655734       -17.8434
  54   2.0000      -0.640701       -17.4344
  55   2.0000      -0.603474       -16.4214
  56   2.0000      -0.592961       -16.1353
  57   2.0000      -0.579170       -15.7600
  58   2.0000      -0.570913       -15.5353
  59   2.0000      -0.559454       -15.2235
  60   2.0000      -0.503297       -13.6954
  61   2.0000      -0.492418       -13.3994
  62   2.0000      -0.474907       -12.9229
  63   2.0000      -0.472960       -12.8699
  64   2.0000      -0.457689       -12.4543
  65   2.0000      -0.448819       -12.2130
  66   2.0000      -0.443427       -12.0663
  67   2.0000      -0.439758       -11.9664
  68   2.0000      -0.430406       -11.7119
  69   2.0000      -0.418301       -11.3825
  70   2.0000      -0.410420       -11.1681
  71   2.0000      -0.403762       -10.9869
  72   2.0000      -0.399342       -10.8667
  73   2.0000      -0.389595       -10.6014
  74   2.0000      -0.380037       -10.3413
  75   2.0000      -0.373024       -10.1505
  76   2.0000      -0.363952        -9.9036
  77   2.0000      -0.360356        -9.8058
  78   2.0000      -0.359243        -9.7755
  79   2.0000      -0.356697        -9.7062
  80   2.0000      -0.349403        -9.5077
  81   2.0000      -0.344193        -9.3660
  82   2.0000      -0.340250        -9.2587
  83   2.0000      -0.339982        -9.2514
  84   2.0000      -0.329192        -8.9578
  85   2.0000      -0.321232        -8.7412
  86   2.0000      -0.312917        -8.5149
  87   2.0000      -0.299851        -8.1594
  88   2.0000      -0.297708        -8.1010
  89   2.0000      -0.294876        -8.0240
  90   2.0000      -0.284277        -7.7356
  91   2.0000      -0.276399        -7.5212
  92   2.0000      -0.272988        -7.4284
  93   2.0000      -0.262818        -7.1516
  94   2.0000      -0.258763        -7.0413
  95   2.0000      -0.235238        -6.4012
  96   2.0000      -0.220802        -6.0083
  97   2.0000      -0.212827        -5.7913
  98   2.0000      -0.208715        -5.6794
  99   2.0000      -0.203092        -5.5264
 100   2.0000      -0.197666        -5.3788
 101   0.0000      -0.044366        -1.2073
 102   0.0000      -0.034862        -0.9487
 103   0.0000      -0.023529        -0.6403
 104   0.0000       0.000645         0.0176
 105   0.0000       0.013294         0.3618

MULLIKEN ATOMIC CHARGES
-----------------------
   0 C :   -0.309676
   1 C :   -0.039382
   2 O :   -0.363473
   3 P :    0.622309
   4 S :   -0.306436
   5 O :   -0.374617
   6 C :    0.001283
   7 C :   -0.314810
   8 S :   -0.124629
   9 C :   -0.336647
  10 S :   -0.089126
  11 P :    0.612115
  12 S :   -0.314481
  13 O :   -0.365646
  14 C :   -0.009302
  15 C :   -0.286136
  16 O :   -0.377162
  17 C :   -0.013568
  18 C :   -0.310953
  19 H :    0.114501
  20 H :    0.125437
  21 H :    0.124131
  22 H :    0.144024
  23 H :    0.111015
  24 H :    0.103607
  25 H :    0.113082
  26 H :    0.113283
  27 H :    0.119263
  28 H :    0.117483
  29 H :    0.201472
  30 H :    0.180814
  31 H :    0.101997
  32 H :    0.103446
  33 H :    0.108041
  34 H :    0.129489
  35 H :    0.108595
  36 H :    0.112904
  37 H :    0.117559
  38 H :    0.108967
  39 H :    0.128659
  40 H :    0.112568
Sum of atomic charges:    0.0000000

LOEWDIN ATOMIC CHARGES
----------------------
   0 C :   -0.366939
   1 C :   -0.119997
   2 O :   -0.229248
   3 P :    0.587969
   4 S :   -0.287145
   5 O :   -0.246973
   6 C :   -0.118705
   7 C :   -0.370361
   8 S :    0.079751
   9 C :   -0.482691
  10 S :    0.077159
  11 P :    0.566401
  12 S :   -0.309433
  13 O :   -0.240863
  14 C :   -0.120441
  15 C :   -0.362242
  16 O :   -0.239431
  17 C :   -0.125200
  18 C :   -0.364192
  19 H :    0.132422
  20 H :    0.129663
  21 H :    0.115119
  22 H :    0.116747
  23 H :    0.121457
  24 H :    0.118232
  25 H :    0.111382
  26 H :    0.130720
  27 H :    0.118653
  28 H :    0.123055
  29 H :    0.124120
  30 H :    0.137174
  31 H :    0.113581
  32 H :    0.106224
  33 H :    0.128882
  34 H :    0.126102
  35 H :    0.123233
  36 H :    0.107997
  37 H :    0.113160
  38 H :    0.130179
  39 H :    0.125304
  40 H :    0.119174

  Mayer bond orders larger than 0.100000
B(  0-C ,  1-C ) :   1.1733 B(  0-C , 19-H ) :   0.9344 B(  0-C , 20-H ) :   0.9403
B(  0-C , 21-H ) :   0.9359 B(  1-C ,  2-O ) :   0.8866 B(  1-C , 22-H ) :   0.9032
B(  1-C , 23-H ) :   0.9289 B(  2-O ,  3-P ) :   1.1468 B(  3-P ,  4-S ) :   1.5906
B(  3-P ,  5-O ) :   1.0822 B(  3-P ,  8-S ) :   0.9411 B(  4-S ,  8-S ) :   0.1135
B(  4-S , 29-H ) :   0.1195 B(  5-O ,  6-C ) :   0.9166 B(  6-C ,  7-C ) :   1.1644
B(  6-C , 24-H ) :   0.9340 B(  6-C , 25-H ) :   0.9161 B(  7-C , 26-H ) :   0.9375
B(  7-C , 27-H ) :   0.9389 B(  7-C , 28-H ) :   0.9427 B(  8-S ,  9-C ) :   1.0113
B(  9-C , 10-S ) :   0.9766 B(  9-C , 29-H ) :   0.8472 B(  9-C , 30-H ) :   0.9082
B( 10-S , 11-P ) :   0.9833 B( 11-P , 12-S ) :   1.6437 B( 11-P , 13-O ) :   1.0680
B( 11-P , 16-O ) :   1.1118 B( 13-O , 14-C ) :   0.8925 B( 14-C , 15-C ) :   1.1698
B( 14-C , 31-H ) :   0.9333 B( 14-C , 32-H ) :   0.9105 B( 15-C , 33-H ) :   0.9400
B( 15-C , 34-H ) :   0.9310 B( 15-C , 35-H ) :   0.9493 B( 16-O , 17-C ) :   0.8832
B( 17-C , 18-C ) :   1.1678 B( 17-C , 36-H ) :   0.9110 B( 17-C , 37-H ) :   0.9117
B( 18-C , 38-H ) :   0.9395 B( 18-C , 39-H ) :   0.9388 B( 18-C , 40-H ) :   0.9388

Dispersion correction           -0.069704634
FINAL SINGLE POINT ENERGY     -2929.516623167981

DIPOLE MOMENT
-------------

Method             : SCF
Type of density    : Electron Density
Multiplicity       :   1
Irrep              :   0
Energy             : -2929.6369456776465086 Eh
Relativity type    :
Basis              : AO
                                X                 Y                 Z
Electronic contribution:    -10.400991705     -13.436012245      -5.479121214
Nuclear contribution   :     12.109085137      14.359903290       5.361975357
                        -----------------------------------------
Total Dipole Moment    :      1.708093432       0.923891045      -0.117145857
                        -----------------------------------------
Magnitude (a.u.)       :      1.945477059
Magnitude (Debye)      :      4.945009697

Rotational constants in cm-1:             0.012156             0.005722             0.005652
Rotational constants in MHz :           364.440615           171.528005           169.429346

                             ****ORCA TERMINATED NORMALLY****
TOTAL RUN TIME: 0 days 0 hours 0 minutes 22 seconds 868 msec
