                         Program Version 6.0.0  -   RELEASE  -
|  1> ! pbe def2-sv(p) def2/J RI DEFGRID1 loosescf d4 GCP(DFT/SV(P)) printgap
|  2> %output
|  3>     printlevel normal
|  4> end
|  5> * xyz 0 1
|  6> C 0.7636599019 -1.0334592013 3.4180295103
|  7> C 2.0084398053 -0.6180105604 2.6615358238
|  8> O 1.6162852599 0.0667679208 1.4442380159
|  9> P 2.3553956795 -0.1920716994 0.0723000857
| 10> S 2.9641110365 -2.0304084314 -0.2562093549
| 11> O 3.5194185448 0.8882711675 0.1276318938
| 12> C 4.5929502983 0.917077608 -0.8348788378
| 13> C 5.8124265288 1.5149829728 -0.1622020378
| 14> S 0.9887451439 0.6019240773 -1.3225322422
| 15> C 0.0159084119 -0.9180710591 -1.5257167786
| 16> S -1.0656437347 -1.2499911048 -0.1208005588
| 17> P -2.3958232344 0.3845217105 -0.4899797255
| 18> S -2.7718620363 0.7710237275 -2.3676201011
| 19> O -1.742192882 1.6164541746 0.2450502664
| 20> C -1.4545956394 1.6283339235 1.6647242936
| 21> C -2.5101674754 2.4178895385 2.4104985221
| 22> O -3.6524226986 0.060462976 0.4269002914
| 23> C -4.7614540551 -0.7366297415 -0.0298185592
| 24> C -4.3654188981 -2.1701020513 -0.3165912817
| 25> H 0.1889129324 -0.1590372057 3.7082187238
| 26> H 0.1472383914 -1.6774525169 2.7951136619
| 27> H 1.0602973869 -1.5784311413 4.3084789889
| 28> H 2.6128940306 -1.4906486547 2.3921880787
| 29> H 2.6170800638 0.0808615403 3.2381436307
| 30> H 4.7864598153 -0.1060081616 -1.1750036918
| 31> H 4.2661705603 1.522539114 -1.6839213387
| 32> H 6.621145077 1.5765864172 -0.8829619904
| 33> H 5.5814856025 2.5101132133 0.2066094547
| 34> H 6.1227127552 0.8919882966 0.6720216097
| 35> H 0.6911233847 -1.7689429932 -1.62179843
| 36> H -0.5884818512 -0.7819732232 -2.4228837439
| 37> H -1.4043634815 0.5965153653 2.0224303653
| 38> H -0.4692667505 2.0930508392 1.7451178479
| 39> H -3.4771025871 1.9304595664 2.3184678864
| 40> H -2.2362810938 2.4783843995 3.4591844589
| 41> H -2.5824863847 3.42118372 1.9997872651
| 42> H -5.4795244678 -0.6740081916 0.7890381156
| 43> H -5.175472447 -0.2658132419 -0.9264261553
| 44> H -3.8491712391 -2.600740409 0.5377360185
| 45> H -5.2569466647 -2.7509599692 -0.5301212987
| 46> H -3.7057547643 -2.2087520659 -1.1821405184
| 47> *
| 48>
| 49>                          ****END OF INPUT****

CARTESIAN COORDINATES (ANGSTROEM)
---------------------------------
  C      0.763660   -1.033459    3.418030
  C      2.008440   -0.618011    2.661536
  O      1.616285    0.066768    1.444238
  P      2.355396   -0.192072    0.072300
  S      2.964111   -2.030408   -0.256209
  O      3.519419    0.888271    0.127632
  C      4.592950    0.917078   -0.834879
  C      5.812427    1.514983   -0.162202
  S      0.988745    0.601924   -1.322532
  C      0.015908   -0.918071   -1.525717
  S     -1.065644   -1.249991   -0.120801
  P     -2.395823    0.384522   -0.489980
  S     -2.771862    0.771024   -2.367620
  O     -1.742193    1.616454    0.245050
  C     -1.454596    1.628334    1.664724
  C     -2.510167    2.417890    2.410499
  O     -3.652423    0.060463    0.426900
  C     -4.761454   -0.736630   -0.029819
  C     -4.365419   -2.170102   -0.316591
  H      0.188913   -0.159037    3.708219
  H      0.147238   -1.677453    2.795114
  H      1.060297   -1.578431    4.308479
  H      2.612894   -1.490649    2.392188
  H      2.617080    0.080862    3.238144
  H      4.786460   -0.106008   -1.175004
  H      4.266171    1.522539   -1.683921
  H      6.621145    1.576586   -0.882962
  H      5.581486    2.510113    0.206609
  H      6.122713    0.891988    0.672022
  H      0.691123   -1.768943   -1.621798
  H     -0.588482   -0.781973   -2.422884
  H     -1.404363    0.596515    2.022430
  H     -0.469267    2.093051    1.745118
  H     -3.477103    1.930460    2.318468
  H     -2.236281    2.478384    3.459184
  H     -2.582486    3.421184    1.999787
  H     -5.479524   -0.674008    0.789038
  H     -5.175472   -0.265813   -0.926426
  H     -3.849171   -2.600740    0.537736
  H     -5.256947   -2.750960   -0.530121
  H     -3.705755   -2.208752   -1.182141

 Total Charge           Charge          ....    0
 Multiplicity           Mult            ....    1
 Number of Electrons    NEL             ....  202
 Basis Dimension        Dim             ....  334

ORBITAL ENERGIES
----------------

  NO   OCC          E(Eh)            E(eV)
   0   2.0000     -88.041099     -2395.7201
   1   2.0000     -88.040808     -2395.7122
   2   2.0000     -87.988883     -2394.2992
   3   2.0000     -87.986756     -2394.2414
   4   2.0000     -76.426841     -2079.6801
   5   2.0000     -76.426635     -2079.6745
   6   2.0000     -18.798091      -511.5221
   7   2.0000     -18.794560      -511.4260
   8   2.0000     -18.794391      -511.4214
   9   2.0000     -18.789124      -511.2781
  10   2.0000      -9.956383      -270.9270
  11   2.0000      -9.955146      -270.8933
  12   2.0000      -9.953378      -270.8452
  13   2.0000      -9.951674      -270.7988
  14   2.0000      -9.950500      -270.7669
  15   2.0000      -9.890132      -269.1242
  16   2.0000      -9.889168      -269.0979
  17   2.0000      -9.885824      -269.0069
  18   2.0000      -9.885210      -268.9902
  19   2.0000      -7.686524      -209.1610
  20   2.0000      -7.685588      -209.1355
  21   2.0000      -7.633876      -207.7283
  22   2.0000      -7.632070      -207.6792
  23   2.0000      -6.424899      -174.8304
  24   2.0000      -6.424140      -174.8097
  25   2.0000      -5.714329      -155.4948
  26   2.0000      -5.713305      -155.4669
  27   2.0000      -5.711175      -155.4090
  28   2.0000      -5.710234      -155.3834
  29   2.0000      -5.703377      -155.1968
  30   2.0000      -5.702618      -155.1761
  31   2.0000      -5.662555      -154.0860
  32   2.0000      -5.661028      -154.0444
  33   2.0000      -5.654533      -153.8677
  34   2.0000      -5.654229      -153.8594
  35   2.0000      -5.652583      -153.8146
  36   2.0000      -5.652251      -153.8056
  37   2.0000      -4.647381      -126.4617
  38   2.0000      -4.647078      -126.4534
  39   2.0000      -4.646615      -126.4408
  40   2.0000      -4.645774      -126.4179
  41   2.0000      -4.645364      -126.4068
  42   2.0000      -4.644407      -126.3807
  43   2.0000      -0.989676       -26.9305
  44   2.0000      -0.988818       -26.9071
  45   2.0000      -0.947465       -25.7818
  46   2.0000      -0.945964       -25.7410
  47   2.0000      -0.764304       -20.7978
  48   2.0000      -0.723840       -19.6967
  49   2.0000      -0.711427       -19.3589
  50   2.0000      -0.691697       -18.8220
  51   2.0000      -0.691282       -18.8107
  52   2.0000      -0.675551       -18.3827
  53   2.0000      -0.650085       -17.6897
  54   2.0000      -0.638066       -17.3627
  55   2.0000      -0.599920       -16.3247
  56   2.0000      -0.592155       -16.1133
  57   2.0000      -0.574140       -15.6231
  58   2.0000      -0.570698       -15.5295
  59   2.0000      -0.558247       -15.1907
  60   2.0000      -0.511702       -13.9241
  61   2.0000      -0.499166       -13.5830
  62   2.0000      -0.483620       -13.1600
  63   2.0000      -0.475472       -12.9383
  64   2.0000      -0.457927       -12.4608
  65   2.0000      -0.448427       -12.2023
  66   2.0000      -0.442382       -12.0378
  67   2.0000      -0.437175       -11.8961
  68   2.0000      -0.427722       -11.6389
  69   2.0000      -0.422731       -11.5031
  70   2.0000      -0.406987       -11.0747
  71   2.0000      -0.394952       -10.7472
  72   2.0000      -0.392285       -10.6746
  73   2.0000      -0.381797       -10.3892
  74   2.0000      -0.380868       -10.3640
  75   2.0000      -0.377309       -10.2671
  76   2.0000      -0.366621        -9.9763
  77   2.0000      -0.360753        -9.8166
  78   2.0000      -0.358703        -9.7608
  79   2.0000      -0.355884        -9.6841
  80   2.0000      -0.352154        -9.5826
  81   2.0000      -0.346063        -9.4168
  82   2.0000      -0.343594        -9.3497
  83   2.0000      -0.342898        -9.3307
  84   2.0000      -0.336203        -9.1486
  85   2.0000      -0.320577        -8.7233
  86   2.0000      -0.313041        -8.5183
  87   2.0000      -0.300886        -8.1875
  88   2.0000      -0.297710        -8.1011
  89   2.0000      -0.294079        -8.0023
  90   2.0000      -0.291415        -7.9298
  91   2.0000      -0.281098        -7.6491
  92   2.0000      -0.268617        -7.3095
  93   2.0000      -0.264597        -7.2000
  94   2.0000      -0.259426        -7.0594
  95   2.0000      -0.234484        -6.3806
  96   2.0000      -0.219129        -5.9628
  97   2.0000      -0.212710        -5.7881
  98   2.0000      -0.204842        -5.5740
  99   2.0000      -0.202587        -5.5127
 100   2.0000      -0.201288        -5.4773
 101   0.0000      -0.043289        -1.1780
 102   0.0000      -0.023440        -0.6378
 103   0.0000      -0.002996        -0.0815
 104   0.0000       0.000712         0.0194
 105   0.0000       0.012052         0.3280

MULLIKEN ATOMIC CHARGES
-----------------------
   0 C :   -0.292644
   1 C :   -0.012791
   2 O :   -0.362718
   3 P :    0.612675
   4 S :   -0.341745
   5 O :   -0.380247
   6 C :   -0.010695
   7 C :   -0.281793
   8 S :   -0.061504
   9 C :   -0.383028
  10 S :   -0.087568
  11 P :    0.597146
  12 S :   -0.312212
  13 O :   -0.346525
  14 C :   -0.025154
  15 C :   -0.284623
  16 O :   -0.382732
  17 C :    0.000508
  18 C :   -0.318671
  19 H :    0.118257
  20 H :    0.129276
  21 H :    0.111825
  22 H :    0.109471
  23 H :    0.105135
  24 H :    0.107734
  25 H :    0.105593
  26 H :    0.113160
  27 H :    0.117069
  28 H :    0.116516
  29 H :    0.194921
  30 H :    0.194847
  31 H :    0.111772
  32 H :    0.113503
  33 H :    0.116673
  34 H :    0.106350
  35 H :    0.120146
  36 H :    0.105029
  37 H :    0.114358
  38 H :    0.117248
  39 H :    0.114819
  40 H :    0.130621
Sum of atomic charges:    0.0000000

LOEWDIN ATOMIC CHARGES
----------------------
   0 C :   -0.354291
   1 C :   -0.116408
   2 O :   -0.241143
   3 P :    0.568347
   4 S :   -0.325319
   5 O :   -0.251030
   6 C :   -0.119569
   7 C :   -0.350709
   8 S :    0.094097
   9 C :   -0.489649
  10 S :    0.078998
  11 P :    0.572454
  12 S :   -0.308097
  13 O :   -0.230846
  14 C :   -0.116685
  15 C :   -0.357594
  16 O :   -0.248203
  17 C :   -0.115383
  18 C :   -0.371198
  19 H :    0.121911
  20 H :    0.127185
  21 H :    0.130977
  22 H :    0.107846
  23 H :    0.115092
  24 H :    0.107916
  25 H :    0.113192
  26 H :    0.131410
  27 H :    0.126889
  28 H :    0.127254
  29 H :    0.128355
  30 H :    0.128752
  31 H :    0.104009
  32 H :    0.119720
  33 H :    0.125021
  34 H :    0.127490
  35 H :    0.128875
  36 H :    0.118512
  37 H :    0.114240
  38 H :    0.123055
  39 H :    0.132053
  40 H :    0.122473

  Mayer bond orders larger than 0.100000
B(  0-C ,  1-C ) :   1.1699 B(  0-C , 19-H ) :   0.9420 B(  0-C , 20-H ) :   0.9422
B(  0-C , 21-H ) :   0.9385 B(  1-C ,  2-O ) :   0.8928 B(  1-C , 22-H ) :   0.9011
B(  1-C , 23-H ) :   0.9327 B(  2-O ,  3-P ) :   1.1321 B(  3-P ,  4-S ) :   1.6003
B(  3-P ,  5-O ) :   1.1136 B(  3-P ,  8-S ) :   0.9820 B(  4-S ,  8-S ) :   0.1085
B(  5-O ,  6-C ) :   0.9033 B(  6-C ,  7-C ) :   1.1622 B(  6-C , 24-H ) :   0.9059
B(  6-C , 25-H ) :   0.9314 B(  7-C , 26-H ) :   0.9418 B(  7-C , 27-H ) :   0.9508
B(  7-C , 28-H ) :   0.9510 B(  8-S ,  9-C ) :   1.0031 B(  9-C , 10-S ) :   1.0067
B(  9-C , 29-H ) :   0.8694 B(  9-C , 30-H ) :   0.8723 B( 10-S , 11-P ) :   0.9457
B( 10-S , 12-S ) :   0.1087 B( 11-P , 12-S ) :   1.6349 B( 11-P , 13-O ) :   1.1465
B( 11-P , 16-O ) :   1.0820 B( 13-O , 14-C ) :   0.8897 B( 14-C , 15-C ) :   1.1590
B( 14-C , 31-H ) :   0.9055 B( 14-C , 32-H ) :   0.9319 B( 15-C , 33-H ) :   0.9435
B( 15-C , 34-H ) :   0.9412 B( 15-C , 35-H ) :   0.9469 B( 16-O , 17-C ) :   0.9041
B( 17-C , 18-C ) :   1.1667 B( 17-C , 36-H ) :   0.9342 B( 17-C , 37-H ) :   0.9195
B( 18-C , 38-H ) :   0.9434 B( 18-C , 39-H ) :   0.9365 B( 18-C , 40-H ) :   0.9340

Dispersion correction           -0.063966175
FINAL SINGLE POINT ENERGY     -2929.524193082142

DIPOLE MOMENT
-------------

Method             : SCF
Type of density    : Electron Density
Multiplicity       :   1
Irrep              :   0
Energy             : -2929.6445748304163317 Eh
Relativity type    :
Basis              : AO
                                X                 Y                 Z
Electronic contribution:     -0.378342865      -0.822127322     -17.526346225
Nuclear contribution   :      0.470516318       0.896920607      19.069267130
                        -----------------------------------------
Total Dipole Moment    :      0.092173454       0.074793285       1.542920905
                        -----------------------------------------
Magnitude (a.u.)       :      1.547480177
Magnitude (Debye)      :      3.933382020

Rotational constants in cm-1:             0.012798             0.004610             0.004403
Rotational constants in MHz :           383.679287           138.200371           132.010086

                             ****ORCA TERMINATED NORMALLY****
TOTAL RUN TIME: 0 days 0 hours 0 minutes 20 seconds 888 msec
