                         Program Version 6.0.0  -   RELEASE  -
|  1> ! pbe def2-sv(p) def2/J RI DEFGRID1 loosescf d4 GCP(DFT/SV(P)) printgap
|  2> %output
|  3>     printlevel normal
|  4> end
|  5> * xyz 0 1
|  6> C -1.7580644723 0.6888757118 -0.0002362335
|  7> C -0.4724585722 -0.1057075901 -2.9273e-05
|  8> O -0.4470318568 -1.3349206466 0.0001094084
|  9> N 0.6384328337 0.6445068175 0.0005985934
| 10> C 1.9754302552 0.0967019475 -0.0003202137
| 11> H -1.8069824201 1.3169733336 0.8849384152
| 12> H -1.8059718751 1.3181079992 -0.8847788392
| 13> H -2.6002381575 0.0034966903 -0.001126571
| 14> H 0.5517865188 1.6490187967 -9.53237e-05
| 15> H 2.5148234017 0.4111179508 -0.893747797
| 16> H 1.8897675297 -0.9886181978 0.0060826976
| 17> H 2.5205366933 0.4218728946 0.8856519821
| 18> *
| 19>
| 20>                          ****END OF INPUT****

CARTESIAN COORDINATES (ANGSTROEM)
---------------------------------
  C     -1.758064    0.688876   -0.000236
  C     -0.472459   -0.105708   -0.000029
  O     -0.447032   -1.334921    0.000109
  N      0.638433    0.644507    0.000599
  C      1.975430    0.096702   -0.000320
  H     -1.806982    1.316973    0.884938
  H     -1.805972    1.318108   -0.884779
  H     -2.600238    0.003497   -0.001127
  H      0.551787    1.649019   -0.000095
  H      2.514823    0.411118   -0.893748
  H      1.889768   -0.988618    0.006083
  H      2.520537    0.421873    0.885652

 Total Charge           Charge          ....    0
 Multiplicity           Mult            ....    1
 Number of Electrons    NEL             ....   40
 Basis Dimension        Dim             ....   84

ORBITAL ENERGIES
----------------

  NO   OCC          E(Eh)            E(eV)
   0   2.0000     -18.701083      -508.8823
   1   2.0000     -14.018015      -381.4496
   2   2.0000      -9.972583      -271.3678
   3   2.0000      -9.915245      -269.8075
   4   2.0000      -9.883224      -268.9362
   5   2.0000      -0.920519       -25.0486
   6   2.0000      -0.830863       -22.6089
   7   2.0000      -0.677430       -18.4338
   8   2.0000      -0.614948       -16.7336
   9   2.0000      -0.529231       -14.4011
  10   2.0000      -0.452148       -12.3036
  11   2.0000      -0.413153       -11.2425
  12   2.0000      -0.405683       -11.0392
  13   2.0000      -0.380501       -10.3539
  14   2.0000      -0.354697        -9.6518
  15   2.0000      -0.346092        -9.4176
  16   2.0000      -0.327840        -8.9210
  17   2.0000      -0.307333        -8.3630
  18   2.0000      -0.210402        -5.7253
  19   2.0000      -0.189621        -5.1599
  20   0.0000       0.004891         0.1331
  21   0.0000       0.023073         0.6278
  22   0.0000       0.065327         1.7776
  23   0.0000       0.081844         2.2271
  24   0.0000       0.103582         2.8186

MULLIKEN ATOMIC CHARGES
-----------------------
   0 C :   -0.288431
   1 C :    0.041480
   2 O :   -0.233646
   3 N :   -0.272187
   4 C :   -0.182862
   5 H :    0.117882
   6 H :    0.117795
   7 H :    0.123551
   8 H :    0.215106
   9 H :    0.111289
  10 H :    0.138830
  11 H :    0.111194
Sum of atomic charges:   -0.0000000

LOEWDIN ATOMIC CHARGES
----------------------
   0 C :   -0.367278
   1 C :    0.007168
   2 O :   -0.214136
   3 N :   -0.168333
   4 C :   -0.264508
   5 H :    0.133925
   6 H :    0.133869
   7 H :    0.139840
   8 H :    0.229102
   9 H :    0.116323
  10 H :    0.137657
  11 H :    0.116371

  Mayer bond orders larger than 0.100000
B(  0-C ,  1-C ) :   1.0510 B(  0-C ,  5-H ) :   0.9366 B(  0-C ,  6-H ) :   0.9366
B(  0-C ,  7-H ) :   0.9420 B(  1-C ,  2-O ) :   2.0663 B(  1-C ,  3-N ) :   1.2218
B(  3-N ,  4-C ) :   1.0145 B(  3-N ,  8-H ) :   0.8693 B(  4-C ,  9-H ) :   0.9597
B(  4-C , 10-H ) :   0.9335 B(  4-C , 11-H ) :   0.9597

Dispersion correction           -0.007314508
FINAL SINGLE POINT ENERGY      -247.970290100232

DIPOLE MOMENT
-------------

Method             : SCF
Type of density    : Electron Density
Multiplicity       :   1
Irrep              :   0
Energy             :  -248.0162495120651158 Eh
Relativity type    :
Basis              : AO
                                X                 Y                 Z
Electronic contribution:     -0.762999183      -2.431374996       0.002373106
Nuclear contribution   :      1.182464162       3.860218645      -0.002880369
                        -----------------------------------------
Total Dipole Moment    :      0.419464980       1.428843649      -0.000507263
                        -----------------------------------------
Magnitude (a.u.)       :      1.489142471
Magnitude (Debye)      :      3.785099354

Rotational constants in cm-1:             0.330380             0.130846             0.097155
Rotational constants in MHz :          9904.532948          3922.659011          2912.643398

                             ****ORCA TERMINATED NORMALLY****
TOTAL RUN TIME: 0 days 0 hours 0 minutes 4 seconds 584 msec
