                         Program Version 6.0.0  -   RELEASE  -
|  1> ! pbe def2-sv(p) def2/J RI DEFGRID1 loosescf d4 GCP(DFT/SV(P)) printgap
|  2> %output
|  3>     printlevel normal
|  4> end
|  5> * xyz 0 1
|  6> C 1.0163267359 1.8495190642 2.2320857081
|  7> C 1.9844548766 0.8122248348 2.7619372382
|  8> O 2.7156439767 0.1634370356 1.706761845
|  9> P 2.0576900384 -0.917360056 0.7452271384
| 10> S 0.8433199275 -2.1900824662 1.5982417011
| 11> O 3.3046910722 -1.6769433151 0.1447663834
| 12> C 4.3914833007 -1.0457404306 -0.5746382786
| 13> C 5.5012099826 -0.6203900815 0.3647739889
| 14> S 1.2943711503 0.2175072808 -0.889780741
| 15> C 0.1955199352 -1.0727873892 -1.5548107219
| 16> S -1.3252156715 -0.4196876951 -2.2961113809
| 17> P -2.2184726899 0.5993933813 -0.6490732855
| 18> S -4.0956921207 1.0520070279 -0.9690919205
| 19> O -1.279664177 1.8131313667 -0.2636181757
| 20> C -1.4256668744 3.1068081207 -0.8743509886
| 21> C -0.8772234283 3.1250304527 -2.2875647018
| 22> O -1.8612304318 -0.2984226861 0.6113975599
| 23> C -2.6493789849 -1.4658056699 0.9207876266
| 24> C -3.6965805706 -1.1356982698 1.9647919789
| 25> H 0.6040155271 2.4117545001 3.0639994112
| 26> H 1.5280634749 2.5299674537 1.5559497907
| 27> H 0.1986156581 1.3702542302 1.6962203364
| 28> H 1.4568756438 0.0475389764 3.3410150632
| 29> H 2.7626918357 1.2681578685 3.3761872731
| 30> H 4.7327639395 -1.817062967 -1.2673500657
| 31> H 3.9958661057 -0.192056758 -1.1325457179
| 32> H 5.8343769673 -1.4691943981 0.9559179786
| 33> H 6.3342186282 -0.2433881993 -0.2204692951
| 34> H 5.1530344908 0.1596109442 1.0360846979
| 35> H -0.0513111215 -1.7598809516 -0.7422866678
| 36> H 0.6977082884 -1.5905248622 -2.3688889733
| 37> H -2.4860824579 3.380187013 -0.8642344955
| 38> H -0.86495688 3.7722353031 -0.2165444071
| 39> H -1.4919375354 2.5016156814 -2.9357468736
| 40> H -0.8885289074 4.1427900516 -2.663863729
| 41> H 0.1421042308 2.7455800992 -2.298141854
| 42> H -3.1175251407 -1.8432307586 0.0053247667
| 43> H -1.9319926454 -2.1997464522 1.2972115494
| 44> H -4.3971021509 -0.4009705832 1.5732008959
| 45> H -4.2366897331 -2.0400600599 2.2254744648
| 46> H -3.2191030716 -0.7319290808 2.8528434852
| 47> *
| 48>
| 49>                          ****END OF INPUT****

CARTESIAN COORDINATES (ANGSTROEM)
---------------------------------
  C      1.016327    1.849519    2.232086
  C      1.984455    0.812225    2.761937
  O      2.715644    0.163437    1.706762
  P      2.057690   -0.917360    0.745227
  S      0.843320   -2.190082    1.598242
  O      3.304691   -1.676943    0.144766
  C      4.391483   -1.045740   -0.574638
  C      5.501210   -0.620390    0.364774
  S      1.294371    0.217507   -0.889781
  C      0.195520   -1.072787   -1.554811
  S     -1.325216   -0.419688   -2.296111
  P     -2.218473    0.599393   -0.649073
  S     -4.095692    1.052007   -0.969092
  O     -1.279664    1.813131   -0.263618
  C     -1.425667    3.106808   -0.874351
  C     -0.877223    3.125030   -2.287565
  O     -1.861230   -0.298423    0.611398
  C     -2.649379   -1.465806    0.920788
  C     -3.696581   -1.135698    1.964792
  H      0.604016    2.411755    3.063999
  H      1.528063    2.529967    1.555950
  H      0.198616    1.370254    1.696220
  H      1.456876    0.047539    3.341015
  H      2.762692    1.268158    3.376187
  H      4.732764   -1.817063   -1.267350
  H      3.995866   -0.192057   -1.132546
  H      5.834377   -1.469194    0.955918
  H      6.334219   -0.243388   -0.220469
  H      5.153034    0.159611    1.036085
  H     -0.051311   -1.759881   -0.742287
  H      0.697708   -1.590525   -2.368889
  H     -2.486082    3.380187   -0.864234
  H     -0.864957    3.772235   -0.216544
  H     -1.491938    2.501616   -2.935747
  H     -0.888529    4.142790   -2.663864
  H      0.142104    2.745580   -2.298142
  H     -3.117525   -1.843231    0.005325
  H     -1.931993   -2.199746    1.297212
  H     -4.397102   -0.400971    1.573201
  H     -4.236690   -2.040060    2.225474
  H     -3.219103   -0.731929    2.852843

 Total Charge           Charge          ....    0
 Multiplicity           Mult            ....    1
 Number of Electrons    NEL             ....  202
 Basis Dimension        Dim             ....  334

ORBITAL ENERGIES
----------------

  NO   OCC          E(Eh)            E(eV)
   0   2.0000     -88.046854     -2395.8767
   1   2.0000     -88.046266     -2395.8607
   2   2.0000     -87.991824     -2394.3792
   3   2.0000     -87.988329     -2394.2842
   4   2.0000     -76.431565     -2079.8086
   5   2.0000     -76.426557     -2079.6723
   6   2.0000     -18.801757      -511.6218
   7   2.0000     -18.795885      -511.4620
   8   2.0000     -18.790136      -511.3056
   9   2.0000     -18.789780      -511.2959
  10   2.0000      -9.959723      -271.0178
  11   2.0000      -9.957747      -270.9641
  12   2.0000      -9.955664      -270.9074
  13   2.0000      -9.952338      -270.8169
  14   2.0000      -9.946402      -270.6554
  15   2.0000      -9.889675      -269.1117
  16   2.0000      -9.883827      -268.9526
  17   2.0000      -9.881907      -268.9004
  18   2.0000      -9.875472      -268.7252
  19   2.0000      -7.691353      -209.2924
  20   2.0000      -7.691062      -209.2844
  21   2.0000      -7.636969      -207.8125
  22   2.0000      -7.633438      -207.7164
  23   2.0000      -6.429247      -174.9487
  24   2.0000      -6.424040      -174.8070
  25   2.0000      -5.719311      -155.6304
  26   2.0000      -5.719164      -155.6264
  27   2.0000      -5.716017      -155.5407
  28   2.0000      -5.715157      -155.5173
  29   2.0000      -5.708280      -155.3302
  30   2.0000      -5.708191      -155.3278
  31   2.0000      -5.665890      -154.1767
  32   2.0000      -5.662382      -154.0812
  33   2.0000      -5.657662      -153.9528
  34   2.0000      -5.656976      -153.9341
  35   2.0000      -5.654137      -153.8569
  36   2.0000      -5.653513      -153.8399
  37   2.0000      -4.652143      -126.5913
  38   2.0000      -4.650889      -126.5571
  39   2.0000      -4.649518      -126.5198
  40   2.0000      -4.646377      -126.4343
  41   2.0000      -4.646245      -126.4308
  42   2.0000      -4.644296      -126.3777
  43   2.0000      -0.993217       -27.0268
  44   2.0000      -0.988607       -26.9014
  45   2.0000      -0.951298       -25.8861
  46   2.0000      -0.945024       -25.7154
  47   2.0000      -0.763183       -20.7673
  48   2.0000      -0.723737       -19.6939
  49   2.0000      -0.711015       -19.3477
  50   2.0000      -0.692751       -18.8507
  51   2.0000      -0.682657       -18.5761
  52   2.0000      -0.677863       -18.4456
  53   2.0000      -0.655350       -17.8330
  54   2.0000      -0.640987       -17.4422
  55   2.0000      -0.600076       -16.3289
  56   2.0000      -0.595356       -16.2004
  57   2.0000      -0.579473       -15.7683
  58   2.0000      -0.564977       -15.3738
  59   2.0000      -0.560144       -15.2423
  60   2.0000      -0.504862       -13.7380
  61   2.0000      -0.498426       -13.5629
  62   2.0000      -0.480283       -13.0692
  63   2.0000      -0.471560       -12.8318
  64   2.0000      -0.453127       -12.3302
  65   2.0000      -0.449524       -12.2322
  66   2.0000      -0.445586       -12.1250
  67   2.0000      -0.440183       -11.9780
  68   2.0000      -0.430323       -11.7097
  69   2.0000      -0.419832       -11.4242
  70   2.0000      -0.411719       -11.2034
  71   2.0000      -0.399768       -10.8782
  72   2.0000      -0.395222       -10.7545
  73   2.0000      -0.388322       -10.5668
  74   2.0000      -0.385644       -10.4939
  75   2.0000      -0.372577       -10.1383
  76   2.0000      -0.365610        -9.9487
  77   2.0000      -0.359793        -9.7905
  78   2.0000      -0.356762        -9.7080
  79   2.0000      -0.353404        -9.6166
  80   2.0000      -0.350633        -9.5412
  81   2.0000      -0.345977        -9.4145
  82   2.0000      -0.338717        -9.2170
  83   2.0000      -0.333917        -9.0863
  84   2.0000      -0.327627        -8.9152
  85   2.0000      -0.325555        -8.8588
  86   2.0000      -0.319810        -8.7025
  87   2.0000      -0.300076        -8.1655
  88   2.0000      -0.298192        -8.1142
  89   2.0000      -0.293963        -7.9991
  90   2.0000      -0.288590        -7.8529
  91   2.0000      -0.275740        -7.5033
  92   2.0000      -0.272110        -7.4045
  93   2.0000      -0.265389        -7.2216
  94   2.0000      -0.258832        -7.0432
  95   2.0000      -0.232723        -6.3327
  96   2.0000      -0.224503        -6.1090
  97   2.0000      -0.212889        -5.7930
  98   2.0000      -0.207610        -5.6494
  99   2.0000      -0.204650        -5.5688
 100   2.0000      -0.202417        -5.5081
 101   0.0000      -0.043016        -1.1705
 102   0.0000      -0.033041        -0.8991
 103   0.0000      -0.022382        -0.6091
 104   0.0000      -0.001970        -0.0536
 105   0.0000       0.015316         0.4168

MULLIKEN ATOMIC CHARGES
-----------------------
   0 C :   -0.349738
   1 C :   -0.000959
   2 O :   -0.379924
   3 P :    0.615490
   4 S :   -0.309782
   5 O :   -0.357626
   6 C :   -0.014030
   7 C :   -0.294497
   8 S :   -0.105697
   9 C :   -0.349149
  10 S :   -0.091722
  11 P :    0.597148
  12 S :   -0.315513
  13 O :   -0.350571
  14 C :   -0.003984
  15 C :   -0.318548
  16 O :   -0.358213
  17 C :   -0.028493
  18 C :   -0.280268
  19 H :    0.111409
  20 H :    0.108821
  21 H :    0.167975
  22 H :    0.113233
  23 H :    0.103868
  24 H :    0.109458
  25 H :    0.101437
  26 H :    0.120891
  27 H :    0.110359
  28 H :    0.123662
  29 H :    0.200979
  30 H :    0.180941
  31 H :    0.112998
  32 H :    0.105059
  33 H :    0.126657
  34 H :    0.111883
  35 H :    0.120144
  36 H :    0.100539
  37 H :    0.122802
  38 H :    0.123561
  39 H :    0.106776
  40 H :    0.112625
Sum of atomic charges:   -0.0000000

LOEWDIN ATOMIC CHARGES
----------------------
   0 C :   -0.375570
   1 C :   -0.116684
   2 O :   -0.242908
   3 P :    0.575817
   4 S :   -0.290888
   5 O :   -0.239907
   6 C :   -0.117130
   7 C :   -0.361193
   8 S :    0.079056
   9 C :   -0.482511
  10 S :    0.081021
  11 P :    0.564916
  12 S :   -0.315297
  13 O :   -0.226001
  14 C :   -0.118809
  15 C :   -0.368970
  16 O :   -0.233243
  17 C :   -0.124048
  18 C :   -0.360429
  19 H :    0.131193
  20 H :    0.121028
  21 H :    0.128669
  22 H :    0.112456
  23 H :    0.117532
  24 H :    0.121182
  25 H :    0.101453
  26 H :    0.129369
  27 H :    0.129797
  28 H :    0.125849
  29 H :    0.122014
  30 H :    0.135533
  31 H :    0.110105
  32 H :    0.117826
  33 H :    0.121447
  34 H :    0.130068
  35 H :    0.120901
  36 H :    0.107146
  37 H :    0.111714
  38 H :    0.122974
  39 H :    0.128931
  40 H :    0.125590

  Mayer bond orders larger than 0.100000
B(  0-C ,  1-C ) :   1.1634 B(  0-C , 19-H ) :   0.9372 B(  0-C , 20-H ) :   0.9446
B(  0-C , 21-H ) :   0.9197 B(  1-C ,  2-O ) :   0.8999 B(  1-C , 22-H ) :   0.9155
B(  1-C , 23-H ) :   0.9330 B(  2-O ,  3-P ) :   1.0972 B(  3-P ,  4-S ) :   1.6206
B(  3-P ,  5-O ) :   1.1351 B(  3-P ,  8-S ) :   0.9602 B(  4-S ,  8-S ) :   0.1124
B(  4-S , 29-H ) :   0.1028 B(  5-O ,  6-C ) :   0.9018 B(  6-C ,  7-C ) :   1.1635
B(  6-C , 24-H ) :   0.9363 B(  6-C , 25-H ) :   0.9083 B(  7-C , 26-H ) :   0.9473
B(  7-C , 27-H ) :   0.9390 B(  7-C , 28-H ) :   0.9407 B(  8-S ,  9-C ) :   0.9875
B(  9-C , 10-S ) :   0.9964 B(  9-C , 29-H ) :   0.8548 B(  9-C , 30-H ) :   0.9093
B( 10-S , 11-P ) :   0.9571 B( 11-P , 12-S ) :   1.6459 B( 11-P , 13-O ) :   1.0985
B( 11-P , 16-O ) :   1.1021 B( 13-O , 14-C ) :   0.9127 B( 14-C , 15-C ) :   1.1631
B( 14-C , 31-H ) :   0.9128 B( 14-C , 32-H ) :   0.9321 B( 15-C , 33-H ) :   0.9383
B( 15-C , 34-H ) :   0.9387 B( 15-C , 35-H ) :   0.9427 B( 16-O , 17-C ) :   0.8990
B( 17-C , 18-C ) :   1.1714 B( 17-C , 36-H ) :   0.9123 B( 17-C , 37-H ) :   0.9143
B( 18-C , 38-H ) :   0.9352 B( 18-C , 39-H ) :   0.9400 B( 18-C , 40-H ) :   0.9474

Dispersion correction           -0.065835618
FINAL SINGLE POINT ENERGY     -2929.520323306862

DIPOLE MOMENT
-------------

Method             : SCF
Type of density    : Electron Density
Multiplicity       :   1
Irrep              :   0
Energy             : -2929.6411593907773749 Eh
Relativity type    :
Basis              : AO
                                X                 Y                 Z
Electronic contribution:     -8.758455855      -9.039008583      -7.715418617
Nuclear contribution   :     10.371481540       9.743709578       7.778746910
                        -----------------------------------------
Total Dipole Moment    :      1.613025685       0.704700995       0.063328293
                        -----------------------------------------
Magnitude (a.u.)       :      1.761381794
Magnitude (Debye)      :      4.477076722

Rotational constants in cm-1:             0.012271             0.005192             0.004790
Rotational constants in MHz :           367.883528           155.659332           143.606767

                             ****ORCA TERMINATED NORMALLY****
TOTAL RUN TIME: 0 days 0 hours 0 minutes 21 seconds 634 msec
