                         Program Version 6.0.0  -   RELEASE  -
|  1> ! pbe def2-sv(p) def2/J RI DEFGRID1 loosescf d4 GCP(DFT/SV(P)) printgap
|  2> %output
|  3>     printlevel normal
|  4> end
|  5> * xyz 0 1
|  6> C 4.6377216464 -1.5677190266 -0.4951097957
|  7> C 4.5927577598 -0.0714810856 -0.2625374842
|  8> O 3.416968664 0.3269029479 0.4626069752
|  9> P 1.9654858606 0.312352152 -0.1908227346
| 10> S 1.953244687 0.7971345904 -2.0970000825
| 11> O 1.1608918276 1.1722828893 0.869043774
| 12> C 1.5500433113 2.4715132865 1.3589274779
| 13> C 1.730122837 3.4838157818 0.2473495157
| 14> S 1.2029985612 -1.5969112741 0.2488771627
| 15> C -0.0335034594 -1.7823061957 -1.0785140353
| 16> S -1.7243987185 -1.9337707317 -0.461030524
| 17> P -2.0277066281 0.0674819442 0.1914586443
| 18> S -1.3998447107 1.4795953889 -1.0070729649
| 19> O -1.41590445 0.1749292037 1.6418348238
| 20> C -1.8769402181 -0.6181724495 2.7707645401
| 21> C -0.8711747278 -1.6969194964 3.1183715055
| 22> O -3.5887856432 0.0989467095 0.5035365218
| 23> C -4.5778477914 0.4215938602 -0.4898783257
| 24> C -4.6801535415 -0.6347867088 -1.5708222359
| 25> H 4.4973192903 -2.1004108223 0.4418460426
| 26> H 3.8495792886 -1.8594289894 -1.1873242191
| 27> H 5.5985753213 -1.834187516 -0.9233905675
| 28> H 4.6089440712 0.4659782188 -1.2163335571
| 29> H 5.4161909126 0.2643962406 0.3692679969
| 30> H 0.7240586509 2.7480264616 2.01715685
| 31> H 2.4695841622 2.3537268777 1.9373492332
| 32> H 0.8332289472 3.526229737 -0.3688669621
| 33> H 1.9193500367 4.4633824784 0.6747382134
| 34> H 2.5693599206 3.2021827651 -0.3878585524
| 35> H 0.1746427655 -2.7108678293 -1.6035321324
| 36> H 0.0465469792 -0.9232203734 -1.7507508973
| 37> H -1.9790206863 0.1037443878 3.5826731241
| 38> H -2.8534226224 -1.0426840367 2.53219659
| 39> H 0.1144901014 -1.259744467 3.2552040316
| 40> H -1.1802007662 -2.179443519 4.0401959428
| 41> H -0.8112586871 -2.4428843981 2.3296802823
| 42> H -5.5018619837 0.5008980121 0.0847480605
| 43> H -4.324717718 1.3936856733 -0.9243727758
| 44> H -5.5335864016 -0.4145593138 -2.2040748386
| 45> H -3.7794627929 -0.6322495223 -2.1824908618
| 46> H -4.8017623749 -1.6202174901 -1.1283669539
| 47> *
| 48>
| 49>                          ****END OF INPUT****

CARTESIAN COORDINATES (ANGSTROEM)
---------------------------------
  C      4.637722   -1.567719   -0.495110
  C      4.592758   -0.071481   -0.262537
  O      3.416969    0.326903    0.462607
  P      1.965486    0.312352   -0.190823
  S      1.953245    0.797135   -2.097000
  O      1.160892    1.172283    0.869044
  C      1.550043    2.471513    1.358927
  C      1.730123    3.483816    0.247350
  S      1.202999   -1.596911    0.248877
  C     -0.033503   -1.782306   -1.078514
  S     -1.724399   -1.933771   -0.461031
  P     -2.027707    0.067482    0.191459
  S     -1.399845    1.479595   -1.007073
  O     -1.415904    0.174929    1.641835
  C     -1.876940   -0.618172    2.770765
  C     -0.871175   -1.696919    3.118372
  O     -3.588786    0.098947    0.503537
  C     -4.577848    0.421594   -0.489878
  C     -4.680154   -0.634787   -1.570822
  H      4.497319   -2.100411    0.441846
  H      3.849579   -1.859429   -1.187324
  H      5.598575   -1.834188   -0.923391
  H      4.608944    0.465978   -1.216334
  H      5.416191    0.264396    0.369268
  H      0.724059    2.748026    2.017157
  H      2.469584    2.353727    1.937349
  H      0.833229    3.526230   -0.368867
  H      1.919350    4.463382    0.674738
  H      2.569360    3.202183   -0.387859
  H      0.174643   -2.710868   -1.603532
  H      0.046547   -0.923220   -1.750751
  H     -1.979021    0.103744    3.582673
  H     -2.853423   -1.042684    2.532197
  H      0.114490   -1.259744    3.255204
  H     -1.180201   -2.179444    4.040196
  H     -0.811259   -2.442884    2.329680
  H     -5.501862    0.500898    0.084748
  H     -4.324718    1.393686   -0.924373
  H     -5.533586   -0.414559   -2.204075
  H     -3.779463   -0.632250   -2.182491
  H     -4.801762   -1.620217   -1.128367

 Total Charge           Charge          ....    0
 Multiplicity           Mult            ....    1
 Number of Electrons    NEL             ....  202
 Basis Dimension        Dim             ....  334

ORBITAL ENERGIES
----------------

  NO   OCC          E(Eh)            E(eV)
   0   2.0000     -88.041755     -2395.7379
   1   2.0000     -88.038396     -2395.6466
   2   2.0000     -87.979707     -2394.0495
   3   2.0000     -87.979374     -2394.0405
   4   2.0000     -76.422256     -2079.5553
   5   2.0000     -76.421024     -2079.5218
   6   2.0000     -18.791823      -511.3515
   7   2.0000     -18.791150      -511.3332
   8   2.0000     -18.785288      -511.1737
   9   2.0000     -18.777690      -510.9669
  10   2.0000      -9.952778      -270.8289
  11   2.0000      -9.952421      -270.8192
  12   2.0000      -9.951595      -270.7967
  13   2.0000      -9.948626      -270.7159
  14   2.0000      -9.944750      -270.6104
  15   2.0000      -9.882693      -268.9218
  16   2.0000      -9.881147      -268.8797
  17   2.0000      -9.879654      -268.8390
  18   2.0000      -9.871625      -268.6206
  19   2.0000      -7.686767      -209.1676
  20   2.0000      -7.683547      -209.0799
  21   2.0000      -7.624711      -207.4789
  22   2.0000      -7.624289      -207.4674
  23   2.0000      -6.419648      -174.6875
  24   2.0000      -6.418182      -174.6476
  25   2.0000      -5.714567      -155.5013
  26   2.0000      -5.711425      -155.4158
  27   2.0000      -5.711169      -155.4088
  28   2.0000      -5.708056      -155.3241
  29   2.0000      -5.703921      -155.2116
  30   2.0000      -5.700413      -155.1161
  31   2.0000      -5.653712      -153.8453
  32   2.0000      -5.653184      -153.8310
  33   2.0000      -5.645183      -153.6132
  34   2.0000      -5.645084      -153.6105
  35   2.0000      -5.644893      -153.6053
  36   2.0000      -5.644310      -153.5895
  37   2.0000      -4.642565      -126.3306
  38   2.0000      -4.641337      -126.2972
  39   2.0000      -4.641003      -126.2881
  40   2.0000      -4.639880      -126.2576
  41   2.0000      -4.639681      -126.2521
  42   2.0000      -4.638726      -126.2262
  43   2.0000      -0.984541       -26.7907
  44   2.0000      -0.981322       -26.7031
  45   2.0000      -0.940108       -25.5816
  46   2.0000      -0.935964       -25.4689
  47   2.0000      -0.760029       -20.6814
  48   2.0000      -0.717000       -19.5106
  49   2.0000      -0.705433       -19.1958
  50   2.0000      -0.686756       -18.6876
  51   2.0000      -0.683043       -18.5865
  52   2.0000      -0.671347       -18.2683
  53   2.0000      -0.648212       -17.6387
  54   2.0000      -0.629912       -17.1408
  55   2.0000      -0.596151       -16.2221
  56   2.0000      -0.586665       -15.9640
  57   2.0000      -0.572526       -15.5792
  58   2.0000      -0.570348       -15.5200
  59   2.0000      -0.556256       -15.1365
  60   2.0000      -0.498900       -13.5757
  61   2.0000      -0.490023       -13.3342
  62   2.0000      -0.469616       -12.7789
  63   2.0000      -0.463743       -12.6191
  64   2.0000      -0.449043       -12.2191
  65   2.0000      -0.445376       -12.1193
  66   2.0000      -0.440160       -11.9774
  67   2.0000      -0.428963       -11.6727
  68   2.0000      -0.424792       -11.5592
  69   2.0000      -0.413805       -11.2602
  70   2.0000      -0.410407       -11.1677
  71   2.0000      -0.403109       -10.9692
  72   2.0000      -0.390112       -10.6155
  73   2.0000      -0.381511       -10.3814
  74   2.0000      -0.373536       -10.1644
  75   2.0000      -0.366592        -9.9755
  76   2.0000      -0.364712        -9.9243
  77   2.0000      -0.353199        -9.6110
  78   2.0000      -0.350109        -9.5269
  79   2.0000      -0.348240        -9.4761
  80   2.0000      -0.341112        -9.2821
  81   2.0000      -0.338364        -9.2073
  82   2.0000      -0.336311        -9.1515
  83   2.0000      -0.332999        -9.0614
  84   2.0000      -0.326468        -8.8836
  85   2.0000      -0.312648        -8.5076
  86   2.0000      -0.310114        -8.4386
  87   2.0000      -0.298447        -8.1212
  88   2.0000      -0.291480        -7.9316
  89   2.0000      -0.290784        -7.9126
  90   2.0000      -0.276725        -7.5301
  91   2.0000      -0.270973        -7.3736
  92   2.0000      -0.264157        -7.1881
  93   2.0000      -0.259236        -7.0542
  94   2.0000      -0.255601        -6.9552
  95   2.0000      -0.231808        -6.3078
  96   2.0000      -0.218948        -5.9579
  97   2.0000      -0.211548        -5.7565
  98   2.0000      -0.198008        -5.3881
  99   2.0000      -0.189546        -5.1578
 100   2.0000      -0.182288        -4.9603
 101   0.0000      -0.038356        -1.0437
 102   0.0000      -0.030002        -0.8164
 103   0.0000      -0.009004        -0.2450
 104   0.0000       0.013307         0.3621
 105   0.0000       0.017887         0.4867

MULLIKEN ATOMIC CHARGES
-----------------------
   0 C :   -0.308333
   1 C :   -0.004554
   2 O :   -0.383182
   3 P :    0.624231
   4 S :   -0.314226
   5 O :   -0.353096
   6 C :    0.010451
   7 C :   -0.323226
   8 S :   -0.094371
   9 C :   -0.351963
  10 S :   -0.111336
  11 P :    0.601682
  12 S :   -0.290278
  13 O :   -0.348808
  14 C :   -0.018902
  15 C :   -0.280252
  16 O :   -0.385046
  17 C :    0.000897
  18 C :   -0.318303
  19 H :    0.114558
  20 H :    0.122168
  21 H :    0.111067
  22 H :    0.110180
  23 H :    0.101077
  24 H :    0.103626
  25 H :    0.101133
  26 H :    0.138163
  27 H :    0.104458
  28 H :    0.121245
  29 H :    0.180901
  30 H :    0.207624
  31 H :    0.106956
  32 H :    0.106860
  33 H :    0.119866
  34 H :    0.103891
  35 H :    0.120690
  36 H :    0.102803
  37 H :    0.111411
  38 H :    0.113419
  39 H :    0.130685
  40 H :    0.115834
Sum of atomic charges:   -0.0000000

LOEWDIN ATOMIC CHARGES
----------------------
   0 C :   -0.368294
   1 C :   -0.122000
   2 O :   -0.247988
   3 P :    0.571279
   4 S :   -0.305522
   5 O :   -0.232329
   6 C :   -0.108301
   7 C :   -0.370242
   8 S :    0.092482
   9 C :   -0.480254
  10 S :    0.072957
  11 P :    0.565159
  12 S :   -0.290051
  13 O :   -0.233278
  14 C :   -0.110782
  15 C :   -0.363085
  16 O :   -0.251264
  17 C :   -0.117287
  18 C :   -0.371445
  19 H :    0.123474
  20 H :    0.120363
  21 H :    0.129960
  22 H :    0.108949
  23 H :    0.116305
  24 H :    0.119813
  25 H :    0.109145
  26 H :    0.130605
  27 H :    0.126396
  28 H :    0.118884
  29 H :    0.137040
  30 H :    0.126370
  31 H :    0.120140
  32 H :    0.109655
  33 H :    0.126012
  34 H :    0.126354
  35 H :    0.114670
  36 H :    0.117563
  37 H :    0.111982
  38 H :    0.131328
  39 H :    0.122858
  40 H :    0.122377

  Mayer bond orders larger than 0.100000
B(  0-C ,  1-C ) :   1.1676 B(  0-C , 19-H ) :   0.9455 B(  0-C , 20-H ) :   0.9362
B(  0-C , 21-H ) :   0.9386 B(  1-C ,  2-O ) :   0.9112 B(  1-C , 22-H ) :   0.9110
B(  1-C , 23-H ) :   0.9332 B(  2-O ,  3-P ) :   1.0814 B(  3-P ,  4-S ) :   1.5998
B(  3-P ,  5-O ) :   1.1393 B(  3-P ,  8-S ) :   0.9648 B(  4-S ,  8-S ) :   0.1186
B(  5-O ,  6-C ) :   0.9078 B(  6-C ,  7-C ) :   1.1666 B(  6-C , 24-H ) :   0.9320
B(  6-C , 25-H ) :   0.9323 B(  7-C , 26-H ) :   0.9391 B(  7-C , 27-H ) :   0.9360
B(  7-C , 28-H ) :   0.9361 B(  8-S ,  9-C ) :   0.9980 B(  9-C , 10-S ) :   1.0057
B(  9-C , 29-H ) :   0.9113 B(  9-C , 30-H ) :   0.8472 B( 10-S , 11-P ) :   0.9352
B( 10-S , 12-S ) :   0.1063 B( 11-P , 12-S ) :   1.6531 B( 11-P , 13-O ) :   1.1396
B( 11-P , 16-O ) :   1.0770 B( 13-O , 14-C ) :   0.8948 B( 14-C , 15-C ) :   1.1675
B( 14-C , 31-H ) :   0.9355 B( 14-C , 32-H ) :   0.9179 B( 15-C , 33-H ) :   0.9434
B( 15-C , 34-H ) :   0.9371 B( 15-C , 35-H ) :   0.9331 B( 16-O , 17-C ) :   0.9079
B( 17-C , 18-C ) :   1.1670 B( 17-C , 36-H ) :   0.9343 B( 17-C , 37-H ) :   0.9158
B( 18-C , 38-H ) :   0.9373 B( 18-C , 39-H ) :   0.9346 B( 18-C , 40-H ) :   0.9438

Dispersion correction           -0.068843013
FINAL SINGLE POINT ENERGY     -2929.515520764952

DIPOLE MOMENT
-------------

Method             : SCF
Type of density    : Electron Density
Multiplicity       :   1
Irrep              :   0
Energy             : -2929.6326320929479152 Eh
Relativity type    :
Basis              : AO
                                X                 Y                 Z
Electronic contribution:     -2.145137064      -0.271559178      -5.943771593
Nuclear contribution   :      1.977768811      -0.274618769       7.077849047
                        -----------------------------------------
Total Dipole Moment    :     -0.167368253      -0.546177948       1.134077453
                        -----------------------------------------
Magnitude (a.u.)       :      1.269824457
Magnitude (Debye)      :      3.227637266

Rotational constants in cm-1:             0.012583             0.005539             0.005272
Rotational constants in MHz :           377.231074           166.052395           158.057725

                             ****ORCA TERMINATED NORMALLY****
TOTAL RUN TIME: 0 days 0 hours 0 minutes 21 seconds 765 msec
