                         Program Version 6.0.1  -  RELEASE   -
|  1> ! pbe def2-sv(p) def2/J RI DEFGRID1 loosescf d4 GCP(DFT/SV(P)) printgap
|  2> %output
|  3>     printlevel normal
|  4> end
|  5> * xyz 0 1
|  6> C 3.1300221814 -4.6577056112 -0.7069403586
|  7> C 3.3191882428 -3.6274307374 -1.8089644756
|  8> O 3.3341153433 -2.2927429308 -1.2646093807
|  9> C 2.1870253493 -1.6609971394 -1.1174307311
| 10> O 1.1073284523 -2.1065858526 -1.4405783083
| 11> C 2.3914013831 -0.2947523871 -0.4939688777
| 12> C 1.0584496209 0.4072326456 -0.3074864833
| 13> H 0.466217891 0.3167362093 -1.2315059172
| 14> C 1.1803592931 1.8931663428 -0.0320542596
| 15> O 2.1258602135 2.5593938438 -0.3857500961
| 16> O 0.1173974296 2.3575945663 0.5895816627
| 17> C 0.0423695194 3.775496074 0.8501499377
| 18> C -0.8513007395 4.0006946707 2.0533927474
| 19> S 0.0762753543 -0.4030834003 0.9953602566
| 20> P -1.8458558894 0.1673803031 0.2892707648
| 21> S -1.9756414686 0.9558028774 -1.4983429427
| 22> O -2.6872406686 -1.1864169945 0.4690776486
| 23> C -2.4578414516 -2.2986677437 -0.4018077328
| 24> O -2.5020163293 1.0709947336 1.4027675637
| 25> C -2.5750815545 0.6449013083 2.7788275537
| 26> H 3.1824471414 -5.6534993572 -1.1344175558
| 27> H 3.9069046564 -4.5480041577 0.0444896358
| 28> H 2.1592683826 -4.5262408204 -0.234716979
| 29> H 2.5151590774 -3.694801726 -2.5473471771
| 30> H 4.2899446867 -3.7353553781 -2.2927923598
| 31> H 3.0291566775 0.3077406503 -1.1446617089
| 32> H 2.9089290076 -0.4187223088 0.4584860582
| 33> H 1.0599456683 4.1427572375 1.0136488892
| 34> H -0.3674683287 4.2488500826 -0.0469874101
| 35> H -0.9222035655 5.0657794278 2.246943065
| 36> H -1.8426421884 3.6053457958 1.8510180074
| 37> H -0.44000471 3.5029131721 2.9268166828
| 38> H -3.0655619776 -3.1093127787 -0.009184144
| 39> H -1.4018205379 -2.5739534885 -0.4035850257
| 40> H -2.7632922546 -2.0445602761 -1.4174124886
| 41> H -2.9260066663 1.5133816034 3.3300698887
| 42> H -1.587935955 0.3383599578 3.1253304337
| 43> H -3.2761550592 -0.1819923435 2.8713640137
| 44> *
| 45>
| 46>                          ****END OF INPUT****

CARTESIAN COORDINATES (ANGSTROEM)
---------------------------------
  C      3.130022   -4.657706   -0.706940
  C      3.319188   -3.627431   -1.808964
  O      3.334115   -2.292743   -1.264609
  C      2.187025   -1.660997   -1.117431
  O      1.107328   -2.106586   -1.440578
  C      2.391401   -0.294752   -0.493969
  C      1.058450    0.407233   -0.307486
  H      0.466218    0.316736   -1.231506
  C      1.180359    1.893166   -0.032054
  O      2.125860    2.559394   -0.385750
  O      0.117397    2.357595    0.589582
  C      0.042370    3.775496    0.850150
  C     -0.851301    4.000695    2.053393
  S      0.076275   -0.403083    0.995360
  P     -1.845856    0.167380    0.289271
  S     -1.975641    0.955803   -1.498343
  O     -2.687241   -1.186417    0.469078
  C     -2.457841   -2.298668   -0.401808
  O     -2.502016    1.070995    1.402768
  C     -2.575082    0.644901    2.778828
  H      3.182447   -5.653499   -1.134418
  H      3.906905   -4.548004    0.044490
  H      2.159268   -4.526241   -0.234717
  H      2.515159   -3.694802   -2.547347
  H      4.289945   -3.735355   -2.292792
  H      3.029157    0.307741   -1.144662
  H      2.908929   -0.418722    0.458486
  H      1.059946    4.142757    1.013649
  H     -0.367468    4.248850   -0.046987
  H     -0.922204    5.065779    2.246943
  H     -1.842642    3.605346    1.851018
  H     -0.440005    3.502913    2.926817
  H     -3.065562   -3.109313   -0.009184
  H     -1.401821   -2.573953   -0.403585
  H     -2.763292   -2.044560   -1.417412
  H     -2.926007    1.513382    3.330070
  H     -1.587936    0.338360    3.125330
  H     -3.276155   -0.181992    2.871364

 Total Charge           Charge          ....    0
 Multiplicity           Mult            ....    1
 Number of Electrons    NEL             ....  174
 Basis Dimension        Dim             ....  316

ORBITAL ENERGIES
----------------

  NO   OCC          E(Eh)            E(eV)
   0   2.0000     -88.036498     -2395.5949
   1   2.0000     -87.981125     -2394.0881
   2   2.0000     -76.422170     -2079.5530
   3   2.0000     -18.806763      -511.7581
   4   2.0000     -18.805575      -511.7257
   5   2.0000     -18.794881      -511.4347
   6   2.0000     -18.786941      -511.2187
   7   2.0000     -18.745515      -510.0914
   8   2.0000     -18.737684      -509.8783
   9   2.0000     -10.015822      -272.5444
  10   2.0000     -10.012405      -272.4514
  11   2.0000      -9.952702      -270.8268
  12   2.0000      -9.951637      -270.7978
  13   2.0000      -9.945908      -270.6419
  14   2.0000      -9.939363      -270.4638
  15   2.0000      -9.935276      -270.3526
  16   2.0000      -9.913632      -269.7636
  17   2.0000      -9.892109      -269.1780
  18   2.0000      -9.885981      -269.0112
  19   2.0000      -7.681210      -209.0164
  20   2.0000      -7.626328      -207.5229
  21   2.0000      -6.419615      -174.6866
  22   2.0000      -5.708947      -155.3483
  23   2.0000      -5.706058      -155.2697
  24   2.0000      -5.698039      -155.0515
  25   2.0000      -5.655502      -153.8940
  26   2.0000      -5.646953      -153.6614
  27   2.0000      -5.646188      -153.6406
  28   2.0000      -4.642314      -126.3238
  29   2.0000      -4.641411      -126.2992
  30   2.0000      -4.639968      -126.2599
  31   2.0000      -1.015629       -27.6367
  32   2.0000      -1.012851       -27.5611
  33   2.0000      -0.985669       -26.8214
  34   2.0000      -0.940395       -25.5895
  35   2.0000      -0.921967       -25.0880
  36   2.0000      -0.917829       -24.9754
  37   2.0000      -0.763524       -20.7765
  38   2.0000      -0.717517       -19.5246
  39   2.0000      -0.702539       -19.1171
  40   2.0000      -0.694467       -18.8974
  41   2.0000      -0.659581       -17.9481
  42   2.0000      -0.632670       -17.2158
  43   2.0000      -0.620412       -16.8823
  44   2.0000      -0.614621       -16.7247
  45   2.0000      -0.598363       -16.2823
  46   2.0000      -0.557995       -15.1838
  47   2.0000      -0.513493       -13.9729
  48   2.0000      -0.507948       -13.8220
  49   2.0000      -0.500301       -13.6139
  50   2.0000      -0.476099       -12.9553
  51   2.0000      -0.472047       -12.8451
  52   2.0000      -0.463468       -12.6116
  53   2.0000      -0.442922       -12.0525
  54   2.0000      -0.442323       -12.0362
  55   2.0000      -0.432466       -11.7680
  56   2.0000      -0.430944       -11.7266
  57   2.0000      -0.417065       -11.3489
  58   2.0000      -0.413667       -11.2565
  59   2.0000      -0.410068       -11.1585
  60   2.0000      -0.402958       -10.9650
  61   2.0000      -0.400038       -10.8856
  62   2.0000      -0.392052       -10.6683
  63   2.0000      -0.381720       -10.3871
  64   2.0000      -0.376413       -10.2427
  65   2.0000      -0.364884        -9.9290
  66   2.0000      -0.358349        -9.7512
  67   2.0000      -0.352807        -9.6004
  68   2.0000      -0.345756        -9.4085
  69   2.0000      -0.344789        -9.3822
  70   2.0000      -0.335391        -9.1265
  71   2.0000      -0.330248        -8.9865
  72   2.0000      -0.324000        -8.8165
  73   2.0000      -0.311785        -8.4841
  74   2.0000      -0.309210        -8.4140
  75   2.0000      -0.299194        -8.1415
  76   2.0000      -0.293676        -7.9913
  77   2.0000      -0.292341        -7.9550
  78   2.0000      -0.270591        -7.3632
  79   2.0000      -0.267281        -7.2731
  80   2.0000      -0.262189        -7.1345
  81   2.0000      -0.255123        -6.9423
  82   2.0000      -0.245483        -6.6799
  83   2.0000      -0.227463        -6.1896
  84   2.0000      -0.205374        -5.5885
  85   2.0000      -0.202417        -5.5080
  86   2.0000      -0.194508        -5.2928
  87   0.0000      -0.040969        -1.1148
  88   0.0000      -0.029555        -0.8042
  89   0.0000      -0.020659        -0.5622
  90   0.0000       0.012435         0.3384
  91   0.0000       0.019510         0.5309

MULLIKEN ATOMIC CHARGES
-----------------------
   0 C :   -0.303895
   1 C :   -0.013471
   2 O :   -0.230339
   3 C :    0.141283
   4 O :   -0.198206
   5 C :   -0.114279
   6 C :   -0.355453
   7 H :    0.170925
   8 C :    0.248420
   9 O :   -0.197024
  10 O :   -0.225199
  11 C :   -0.019755
  12 C :   -0.296413
  13 S :   -0.111201
  14 P :    0.628439
  15 S :   -0.315537
  16 O :   -0.392525
  17 C :   -0.112921
  18 O :   -0.362471
  19 C :   -0.110645
  20 H :    0.115012
  21 H :    0.115892
  22 H :    0.125213
  23 H :    0.111261
  24 H :    0.106111
  25 H :    0.142422
  26 H :    0.123112
  27 H :    0.111741
  28 H :    0.112139
  29 H :    0.109972
  30 H :    0.136376
  31 H :    0.109027
  32 H :    0.117444
  33 H :    0.133909
  34 H :    0.120428
  35 H :    0.130354
  36 H :    0.121080
  37 H :    0.128772
Sum of atomic charges:   -0.0000000

LOEWDIN ATOMIC CHARGES
----------------------
   0 C :   -0.355427
   1 C :   -0.109966
   2 O :   -0.059816
   3 C :    0.036539
   4 O :   -0.163964
   5 C :   -0.250586
   6 C :   -0.279096
   7 H :    0.143488
   8 C :    0.021433
   9 O :   -0.158810
  10 O :   -0.057374
  11 C :   -0.103395
  12 C :   -0.355065
  13 S :    0.093362
  14 P :    0.582759
  15 S :   -0.303873
  16 O :   -0.263737
  17 C :   -0.219924
  18 O :   -0.236967
  19 C :   -0.210933
  20 H :    0.131590
  21 H :    0.125707
  22 H :    0.129863
  23 H :    0.120899
  24 H :    0.119427
  25 H :    0.158604
  26 H :    0.143338
  27 H :    0.118523
  28 H :    0.121575
  29 H :    0.130019
  30 H :    0.130705
  31 H :    0.123255
  32 H :    0.118544
  33 H :    0.113609
  34 H :    0.114891
  35 H :    0.123776
  36 H :    0.108574
  37 H :    0.118455

  Mayer bond orders larger than 0.100000
B(  0-C ,  1-C ) :   1.1748 B(  0-C , 20-H ) :   0.9441 B(  0-C , 21-H ) :   0.9489
B(  0-C , 22-H ) :   0.9467 B(  1-C ,  2-O ) :   0.9123 B(  1-C , 23-H ) :   0.9136
B(  1-C , 24-H ) :   0.9370 B(  2-O ,  3-C ) :   1.2443 B(  3-C ,  4-O ) :   2.0090
B(  3-C ,  5-C ) :   1.0019 B(  5-C ,  6-C ) :   1.0882 B(  5-C , 25-H ) :   0.8700
B(  5-C , 26-H ) :   0.8970 B(  6-C ,  7-H ) :   0.8154 B(  6-C ,  8-C ) :   0.8875
B(  6-C , 13-S ) :   1.0090 B(  7-H , 15-S ) :   0.1000 B(  8-C ,  9-O ) :   2.0731
B(  8-C , 10-O ) :   1.2540 B(  9-O , 10-O ) :   0.1001 B( 10-O , 11-C ) :   0.8963
B( 11-C , 12-C ) :   1.1638 B( 11-C , 27-H ) :   0.9201 B( 11-C , 28-H ) :   0.9324
B( 12-C , 29-H ) :   0.9414 B( 12-C , 30-H ) :   0.9371 B( 12-C , 31-H ) :   0.9514
B( 13-S , 14-P ) :   0.9520 B( 13-S , 15-S ) :   0.1170 B( 14-P , 15-S ) :   1.6333
B( 14-P , 16-O ) :   1.0712 B( 14-P , 18-O ) :   1.1229 B( 16-O , 17-C ) :   0.9272
B( 17-C , 32-H ) :   0.9575 B( 17-C , 33-H ) :   0.9313 B( 17-C , 34-H ) :   0.9451
B( 18-O , 19-C ) :   0.9172 B( 19-C , 35-H ) :   0.9567 B( 19-C , 36-H ) :   0.9357
B( 19-C , 37-H ) :   0.9488

Dispersion correction           -0.051274128
FINAL SINGLE POINT ENERGY     -1979.023506955177

DIPOLE MOMENT
-------------

Method             : SCF
Type of density    : Electron Density
Multiplicity       :   1
Irrep              :   0
Energy             : -1979.1545455318710083 Eh
Relativity type    :
Basis              : AO
                                X                 Y                 Z
Electronic contribution:     -5.968247725       6.161620529      -5.476907866
Nuclear contribution   :      6.346798991      -7.143888838       6.694452685
                        -----------------------------------------
Total Dipole Moment    :      0.378551266      -0.982268309       1.217544819
                        -----------------------------------------
Magnitude (a.u.)       :      1.609523991
Magnitude (Debye)      :      4.091084862

Rotational constants in cm-1:             0.013550             0.006709             0.005320
Rotational constants in MHz :           406.204808           201.117286           159.475638

                             ****ORCA TERMINATED NORMALLY****
TOTAL RUN TIME: 0 days 0 hours 0 minutes 31 seconds 860 msec
