                         Program Version 6.0.1  -  RELEASE   -
|  1> ! pbe def2-sv(p) def2/J RI DEFGRID1 loosescf d4 GCP(DFT/SV(P)) printgap
|  2> %output
|  3>     printlevel normal
|  4> end
|  5> * xyz 0 1
|  6> C 3.2137237801 -1.5766869746 1.7595846369
|  7> C 2.9004908052 -2.2089383049 0.4144218334
|  8> O 2.6772206117 -1.174422941 -0.5634069512
|  9> C 1.5115010734 -1.064138715 -1.1587837878
| 10> O 0.5581629884 -1.7960569724 -0.967553677
| 11> C 1.4857690224 0.1060387922 -2.1194005515
| 12> C 0.3434331078 1.0610345553 -1.7634501188
| 13> H 0.3076023645 1.8742026601 -2.4935184194
| 14> C 0.4937851054 1.6550025014 -0.3753794459
| 15> O -0.4356687473 1.6836790774 0.413800358
| 16> O 1.6919660402 2.0978504417 -0.1478109033
| 17> C 2.0115642419 2.6883573773 1.1336258904
| 18> C 2.7750470989 3.9774900369 0.8947270547
| 19> S -1.3058857622 0.2780361898 -1.8510788184
| 20> P -1.6271144746 -0.4618853531 0.1098449997
| 21> S -0.4732076736 -0.8977579858 1.6516778082
| 22> O -2.9413032111 0.3276088117 0.5967196534
| 23> C -2.9848540913 1.3269813852 1.6111814693
| 24> O -2.3510111581 -1.7624110942 -0.4834659879
| 25> C -2.9204294027 -2.7625650633 0.3614103574
| 26> H 2.338414807 -1.0501892032 2.1358488302
| 27> H 3.4789126846 -2.3559311365 2.4659629548
| 28> H 4.0423631839 -0.8818796335 1.6596878325
| 29> H 2.0080930132 -2.8380350052 0.4727707654
| 30> H 3.7474348275 -2.7890241197 0.0422688062
| 31> H 1.3113559713 -0.2791495201 -3.124490376
| 32> H 2.4395694668 0.6302147895 -2.0703458797
| 33> H 1.0846584617 2.853251631 1.6881857568
| 34> H 2.6232792491 1.9550213836 1.6649897618
| 35> H 3.6641755773 3.7777734765 0.3049392391
| 36> H 2.1538761571 4.6952658191 0.3666167299
| 37> H 3.0669972815 4.397510747 1.8513670493
| 38> H -3.9837152578 1.2747444132 2.0383605234
| 39> H -2.8008292544 2.3047903402 1.1700885216
| 40> H -2.2300971615 1.1199520936 2.3721883727
| 41> H -2.2237530171 -3.020262187 1.1625033895
| 42> H -3.0954991389 -3.6234760609 -0.2788140165
| 43> H -3.8562990942 -2.4012245659 0.7885619606
| 44> *
| 45>
| 46>                          ****END OF INPUT****

CARTESIAN COORDINATES (ANGSTROEM)
---------------------------------
  C      3.213724   -1.576687    1.759585
  C      2.900491   -2.208938    0.414422
  O      2.677221   -1.174423   -0.563407
  C      1.511501   -1.064139   -1.158784
  O      0.558163   -1.796057   -0.967554
  C      1.485769    0.106039   -2.119401
  C      0.343433    1.061035   -1.763450
  H      0.307602    1.874203   -2.493518
  C      0.493785    1.655003   -0.375379
  O     -0.435669    1.683679    0.413800
  O      1.691966    2.097850   -0.147811
  C      2.011564    2.688357    1.133626
  C      2.775047    3.977490    0.894727
  S     -1.305886    0.278036   -1.851079
  P     -1.627114   -0.461885    0.109845
  S     -0.473208   -0.897758    1.651678
  O     -2.941303    0.327609    0.596720
  C     -2.984854    1.326981    1.611181
  O     -2.351011   -1.762411   -0.483466
  C     -2.920429   -2.762565    0.361410
  H      2.338415   -1.050189    2.135849
  H      3.478913   -2.355931    2.465963
  H      4.042363   -0.881880    1.659688
  H      2.008093   -2.838035    0.472771
  H      3.747435   -2.789024    0.042269
  H      1.311356   -0.279150   -3.124490
  H      2.439569    0.630215   -2.070346
  H      1.084658    2.853252    1.688186
  H      2.623279    1.955021    1.664990
  H      3.664176    3.777773    0.304939
  H      2.153876    4.695266    0.366617
  H      3.066997    4.397511    1.851367
  H     -3.983715    1.274744    2.038361
  H     -2.800829    2.304790    1.170089
  H     -2.230097    1.119952    2.372188
  H     -2.223753   -3.020262    1.162503
  H     -3.095499   -3.623476   -0.278814
  H     -3.856299   -2.401225    0.788562

 Total Charge           Charge          ....    0
 Multiplicity           Mult            ....    1
 Number of Electrons    NEL             ....  174
 Basis Dimension        Dim             ....  316

ORBITAL ENERGIES
----------------

  NO   OCC          E(Eh)            E(eV)
   0   2.0000     -88.023283     -2395.2353
   1   2.0000     -87.962503     -2393.5814
   2   2.0000     -76.410084     -2079.2241
   3   2.0000     -18.828000      -512.3359
   4   2.0000     -18.801333      -511.6103
   5   2.0000     -18.764370      -510.6045
   6   2.0000     -18.763248      -510.5739
   7   2.0000     -18.759592      -510.4745
   8   2.0000     -18.732136      -509.7273
   9   2.0000     -10.032833      -273.0073
  10   2.0000     -10.006901      -272.3016
  11   2.0000      -9.962151      -271.0839
  12   2.0000      -9.954311      -270.8706
  13   2.0000      -9.940561      -270.4964
  14   2.0000      -9.920343      -269.9463
  15   2.0000      -9.920212      -269.9427
  16   2.0000      -9.913046      -269.7477
  17   2.0000      -9.901578      -269.4356
  18   2.0000      -9.880282      -268.8561
  19   2.0000      -7.668673      -208.6752
  20   2.0000      -7.607478      -207.0100
  21   2.0000      -6.404857      -174.2850
  22   2.0000      -5.697197      -155.0286
  23   2.0000      -5.693658      -154.9323
  24   2.0000      -5.684387      -154.6800
  25   2.0000      -5.636714      -153.3828
  26   2.0000      -5.628164      -153.1501
  27   2.0000      -5.627172      -153.1231
  28   2.0000      -4.627555      -125.9222
  29   2.0000      -4.627104      -125.9099
  30   2.0000      -4.625379      -125.8630
  31   2.0000      -1.038024       -28.2461
  32   2.0000      -1.006972       -27.4011
  33   2.0000      -0.956413       -26.0253
  34   2.0000      -0.941771       -25.6269
  35   2.0000      -0.912526       -24.8311
  36   2.0000      -0.910115       -24.7655
  37   2.0000      -0.766226       -20.8501
  38   2.0000      -0.721209       -19.6251
  39   2.0000      -0.707271       -19.2458
  40   2.0000      -0.681249       -18.5377
  41   2.0000      -0.646374       -17.5887
  42   2.0000      -0.624624       -16.9969
  43   2.0000      -0.609451       -16.5840
  44   2.0000      -0.607310       -16.5257
  45   2.0000      -0.589555       -16.0426
  46   2.0000      -0.564130       -15.3508
  47   2.0000      -0.522873       -14.2281
  48   2.0000      -0.501966       -13.6592
  49   2.0000      -0.496566       -13.5123
  50   2.0000      -0.486282       -13.2324
  51   2.0000      -0.461864       -12.5680
  52   2.0000      -0.453288       -12.3346
  53   2.0000      -0.448287       -12.1985
  54   2.0000      -0.441211       -12.0060
  55   2.0000      -0.429344       -11.6830
  56   2.0000      -0.421250       -11.4628
  57   2.0000      -0.412429       -11.2228
  58   2.0000      -0.402275       -10.9465
  59   2.0000      -0.400853       -10.9078
  60   2.0000      -0.390572       -10.6280
  61   2.0000      -0.387106       -10.5337
  62   2.0000      -0.382676       -10.4131
  63   2.0000      -0.378546       -10.3007
  64   2.0000      -0.373257       -10.1568
  65   2.0000      -0.370234       -10.0746
  66   2.0000      -0.365364        -9.9421
  67   2.0000      -0.356226        -9.6934
  68   2.0000      -0.350667        -9.5421
  69   2.0000      -0.343555        -9.3486
  70   2.0000      -0.337020        -9.1708
  71   2.0000      -0.328359        -8.9351
  72   2.0000      -0.321032        -8.7357
  73   2.0000      -0.314694        -8.5632
  74   2.0000      -0.294275        -8.0076
  75   2.0000      -0.289441        -7.8761
  76   2.0000      -0.282687        -7.6923
  77   2.0000      -0.279721        -7.6116
  78   2.0000      -0.266861        -7.2617
  79   2.0000      -0.253837        -6.9073
  80   2.0000      -0.252976        -6.8838
  81   2.0000      -0.246023        -6.6946
  82   2.0000      -0.240205        -6.5363
  83   2.0000      -0.222768        -6.0618
  84   2.0000      -0.191134        -5.2010
  85   2.0000      -0.179245        -4.8775
  86   2.0000      -0.171674        -4.6715
  87   0.0000      -0.050124        -1.3639
  88   0.0000      -0.043138        -1.1739
  89   0.0000      -0.024794        -0.6747
  90   0.0000       0.012423         0.3380
  91   0.0000       0.027121         0.7380

MULLIKEN ATOMIC CHARGES
-----------------------
   0 C :   -0.310149
   1 C :   -0.019536
   2 O :   -0.228216
   3 C :    0.086368
   4 O :   -0.181297
   5 C :   -0.021520
   6 C :   -0.336222
   7 H :    0.154549
   8 C :    0.218916
   9 O :   -0.191231
  10 O :   -0.215637
  11 C :   -0.032504
  12 C :   -0.287927
  13 S :   -0.053329
  14 P :    0.663210
  15 S :   -0.363402
  16 O :   -0.393598
  17 C :   -0.084340
  18 O :   -0.385645
  19 C :   -0.090519
  20 H :    0.138291
  21 H :    0.108540
  22 H :    0.104652
  23 H :    0.125070
  24 H :    0.099475
  25 H :    0.125345
  26 H :    0.110230
  27 H :    0.127729
  28 H :    0.123211
  29 H :    0.119880
  30 H :    0.116658
  31 H :    0.119798
  32 H :    0.108790
  33 H :    0.104243
  34 H :    0.108844
  35 H :    0.111894
  36 H :    0.116175
  37 H :    0.103205
Sum of atomic charges:    0.0000000

LOEWDIN ATOMIC CHARGES
----------------------
   0 C :   -0.359474
   1 C :   -0.110685
   2 O :   -0.052269
   3 C :    0.020142
   4 O :   -0.161426
   5 C :   -0.249686
   6 C :   -0.263894
   7 H :    0.151859
   8 C :    0.019518
   9 O :   -0.150982
  10 O :   -0.031277
  11 C :   -0.103972
  12 C :   -0.350738
  13 S :    0.128151
  14 P :    0.604539
  15 S :   -0.329283
  16 O :   -0.263251
  17 C :   -0.215846
  18 O :   -0.258414
  19 C :   -0.214576
  20 H :    0.123033
  21 H :    0.129753
  22 H :    0.118605
  23 H :    0.125241
  24 H :    0.115117
  25 H :    0.147756
  26 H :    0.135784
  27 H :    0.126185
  28 H :    0.125597
  29 H :    0.128253
  30 H :    0.127700
  31 H :    0.134589
  32 H :    0.112393
  33 H :    0.106943
  34 H :    0.103215
  35 H :    0.106405
  36 H :    0.117812
  37 H :    0.107184

  Mayer bond orders larger than 0.100000
B(  0-C ,  1-C ) :   1.1775 B(  0-C , 20-H ) :   0.9295 B(  0-C , 21-H ) :   0.9419
B(  0-C , 22-H ) :   0.9471 B(  1-C ,  2-O ) :   0.9022 B(  1-C , 23-H ) :   0.9022
B(  1-C , 24-H ) :   0.9351 B(  2-O ,  3-C ) :   1.2433 B(  3-C ,  4-O ) :   2.0070
B(  3-C ,  5-C ) :   0.9939 B(  5-C ,  6-C ) :   1.0132 B(  5-C , 25-H ) :   0.8887
B(  5-C , 26-H ) :   0.8862 B(  6-C ,  7-H ) :   0.8737 B(  6-C ,  8-C ) :   0.8970
B(  6-C , 13-S ) :   1.0669 B(  8-C ,  9-O ) :   1.9284 B(  8-C , 10-O ) :   1.2815
B(  9-O , 14-P ) :   0.1210 B( 10-O , 11-C ) :   0.8850 B( 11-C , 12-C ) :   1.1653
B( 11-C , 27-H ) :   0.9123 B( 11-C , 28-H ) :   0.9294 B( 12-C , 29-H ) :   0.9483
B( 12-C , 30-H ) :   0.9507 B( 12-C , 31-H ) :   0.9433 B( 13-S , 14-P ) :   0.9124
B( 13-S , 15-S ) :   0.1170 B( 14-P , 15-S ) :   1.4958 B( 14-P , 16-O ) :   1.0782
B( 14-P , 18-O ) :   1.0863 B( 16-O , 17-C ) :   0.9442 B( 17-C , 32-H ) :   0.9566
B( 17-C , 33-H ) :   0.9523 B( 17-C , 34-H ) :   0.9293 B( 18-O , 19-C ) :   0.9440
B( 19-C , 35-H ) :   0.9316 B( 19-C , 36-H ) :   0.9603 B( 19-C , 37-H ) :   0.9512

Dispersion correction           -0.055174800
FINAL SINGLE POINT ENERGY     -1978.994032141226

DIPOLE MOMENT
-------------

Method             : SCF
Type of density    : Electron Density
Multiplicity       :   1
Irrep              :   0
Energy             : -1979.1225910546481828 Eh
Relativity type    :
Basis              : AO
                                X                 Y                 Z
Electronic contribution:    -13.288207955      -4.561566580     -11.230222870
Nuclear contribution   :     14.699688719       5.716022324      11.352368305
                        -----------------------------------------
Total Dipole Moment    :      1.411480765       1.154455744       0.122145435
                        -----------------------------------------
Magnitude (a.u.)       :      1.827557255
Magnitude (Debye)      :      4.645281376

Rotational constants in cm-1:             0.012396             0.008882             0.007405
Rotational constants in MHz :           371.615980           266.288799           221.996745

                             ****ORCA TERMINATED NORMALLY****
TOTAL RUN TIME: 0 days 0 hours 0 minutes 40 seconds 997 msec
