                         Program Version 6.0.0  -   RELEASE  -
|  1> ! pbe def2-sv(p) def2/J RI DEFGRID1 loosescf d4 GCP(DFT/SV(P)) printgap
|  2> %output
|  3>     printlevel normal
|  4> end
|  5> * xyz 0 1
|  6> C 4.3900598407 0.5574893786 -2.2517524079
|  7> C 4.4534005554 1.0490098541 -0.8200985783
|  8> O 3.8329884367 0.1319083488 0.098748957
|  9> P 2.2731472244 -0.1568823909 0.1115604893
| 10> S 1.1416302753 1.428722848 -0.1548314345
| 11> O 2.1106916686 -0.9198263881 1.4881551163
| 12> C 1.6805106019 -0.2699131039 2.6990066607
| 13> C 2.7097776197 0.7212139089 3.2001899941
| 14> S 2.0132888347 -1.7633122485 -1.2270499309
| 15> C 0.2210142049 -1.6220618235 -1.4336664042
| 16> S -0.6811680419 -1.7239693939 0.1525000134
| 17> P -2.1040912353 -0.1857774348 -0.120571726
| 18> S -2.1154112603 0.7379471118 -1.8515519412
| 19> O -2.0070615912 0.7595577062 1.1584716606
| 20> C -1.8453665843 2.1883958487 1.1124192713
| 21> C -3.1871854996 2.8768728771 1.2579076781
| 22> O -3.3426211087 -1.1170438567 0.2353784022
| 23> C -4.6615267027 -0.6223854227 0.5422596658
| 24> C -5.4353122682 -0.2590194687 -0.710013385
| 25> H 3.3593673684 0.5639837223 -2.6042823327
| 26> H 4.9810587455 1.2132098681 -2.8832010061
| 27> H 4.775125315 -0.4567594768 -2.3203164093
| 28> H 3.9584900755 2.020921517 -0.7250662847
| 29> H 5.4816455032 1.1185381275 -0.4627653707
| 30> H 0.7218749012 0.224084968 2.5052355399
| 31> H 1.5311977755 -1.0943705981 3.3972894388
| 32> H 3.6727462433 0.2312371834 3.3166002207
| 33> H 2.8144799865 1.5372137688 2.4855799248
| 34> H 2.3893554768 1.1251783751 4.1554069374
| 35> H -0.074241927 -2.4594472238 -2.0607531799
| 36> H -0.0288155021 -0.6697071691 -1.910768336
| 37> H -1.1745300317 2.4281206996 1.9387847748
| 38> H -1.3653481264 2.4677811601 0.1697668623
| 39> H -3.0303899037 3.950191908 1.288295008
| 40> H -3.8221444403 2.6381646107 0.4065690807
| 41> H -3.6776103496 2.5599966695 2.1745603159
| 42> H -5.1323965366 -1.4535972544 1.0705710218
| 43> H -4.5708304933 0.2347528138 1.2145718419
| 44> H -6.4397241307 0.047186542 -0.4349969787
| 45> H -4.9460975953 0.5566440854 -1.2389994747
| 46> H -5.4896041216 -1.1150900129 -1.3771437823
| 47> *
| 48>
| 49>                          ****END OF INPUT****

CARTESIAN COORDINATES (ANGSTROEM)
---------------------------------
  C      4.390060    0.557489   -2.251752
  C      4.453401    1.049010   -0.820099
  O      3.832988    0.131908    0.098749
  P      2.273147   -0.156882    0.111560
  S      1.141630    1.428723   -0.154831
  O      2.110692   -0.919826    1.488155
  C      1.680511   -0.269913    2.699007
  C      2.709778    0.721214    3.200190
  S      2.013289   -1.763312   -1.227050
  C      0.221014   -1.622062   -1.433666
  S     -0.681168   -1.723969    0.152500
  P     -2.104091   -0.185777   -0.120572
  S     -2.115411    0.737947   -1.851552
  O     -2.007062    0.759558    1.158472
  C     -1.845367    2.188396    1.112419
  C     -3.187185    2.876873    1.257908
  O     -3.342621   -1.117044    0.235378
  C     -4.661527   -0.622385    0.542260
  C     -5.435312   -0.259019   -0.710013
  H      3.359367    0.563984   -2.604282
  H      4.981059    1.213210   -2.883201
  H      4.775125   -0.456759   -2.320316
  H      3.958490    2.020922   -0.725066
  H      5.481646    1.118538   -0.462765
  H      0.721875    0.224085    2.505236
  H      1.531198   -1.094371    3.397289
  H      3.672746    0.231237    3.316600
  H      2.814480    1.537214    2.485580
  H      2.389355    1.125178    4.155407
  H     -0.074242   -2.459447   -2.060753
  H     -0.028816   -0.669707   -1.910768
  H     -1.174530    2.428121    1.938785
  H     -1.365348    2.467781    0.169767
  H     -3.030390    3.950192    1.288295
  H     -3.822144    2.638165    0.406569
  H     -3.677610    2.559997    2.174560
  H     -5.132397   -1.453597    1.070571
  H     -4.570830    0.234753    1.214572
  H     -6.439724    0.047187   -0.434997
  H     -4.946098    0.556644   -1.238999
  H     -5.489604   -1.115090   -1.377144

 Total Charge           Charge          ....    0
 Multiplicity           Mult            ....    1
 Number of Electrons    NEL             ....  202
 Basis Dimension        Dim             ....  334

ORBITAL ENERGIES
----------------

  NO   OCC          E(Eh)            E(eV)
   0   2.0000     -88.041892     -2395.7417
   1   2.0000     -88.035919     -2395.5792
   2   2.0000     -87.986483     -2394.2339
   3   2.0000     -87.985746     -2394.2139
   4   2.0000     -76.426024     -2079.6578
   5   2.0000     -76.423179     -2079.5804
   6   2.0000     -18.793434      -511.3953
   7   2.0000     -18.790537      -511.3165
   8   2.0000     -18.786007      -511.1932
   9   2.0000     -18.785718      -511.1854
  10   2.0000      -9.952957      -270.8337
  11   2.0000      -9.952851      -270.8308
  12   2.0000      -9.950383      -270.7637
  13   2.0000      -9.948248      -270.7056
  14   2.0000      -9.946849      -270.6675
  15   2.0000      -9.885676      -269.0029
  16   2.0000      -9.883841      -268.9530
  17   2.0000      -9.881672      -268.8940
  18   2.0000      -9.880768      -268.8694
  19   2.0000      -7.687405      -209.1849
  20   2.0000      -7.680848      -209.0065
  21   2.0000      -7.631008      -207.6503
  22   2.0000      -7.630666      -207.6410
  23   2.0000      -6.423339      -174.7879
  24   2.0000      -6.420701      -174.7162
  25   2.0000      -5.715355      -155.5227
  26   2.0000      -5.711906      -155.4289
  27   2.0000      -5.708866      -155.3461
  28   2.0000      -5.705548      -155.2558
  29   2.0000      -5.704241      -155.2203
  30   2.0000      -5.697458      -155.0357
  31   2.0000      -5.659758      -154.0099
  32   2.0000      -5.659463      -154.0018
  33   2.0000      -5.651646      -153.7891
  34   2.0000      -5.651638      -153.7889
  35   2.0000      -5.651358      -153.7813
  36   2.0000      -5.650561      -153.7596
  37   2.0000      -4.645675      -126.4152
  38   2.0000      -4.645150      -126.4010
  39   2.0000      -4.644006      -126.3698
  40   2.0000      -4.643335      -126.3516
  41   2.0000      -4.642000      -126.3152
  42   2.0000      -4.641591      -126.3041
  43   2.0000      -0.985884       -26.8273
  44   2.0000      -0.982043       -26.7228
  45   2.0000      -0.944408       -25.6987
  46   2.0000      -0.939536       -25.5661
  47   2.0000      -0.760108       -20.6836
  48   2.0000      -0.721688       -19.6381
  49   2.0000      -0.706440       -19.2232
  50   2.0000      -0.686090       -18.6695
  51   2.0000      -0.685277       -18.6473
  52   2.0000      -0.671281       -18.2665
  53   2.0000      -0.652500       -17.7554
  54   2.0000      -0.634965       -17.2783
  55   2.0000      -0.602257       -16.3883
  56   2.0000      -0.590557       -16.0699
  57   2.0000      -0.574407       -15.6304
  58   2.0000      -0.571206       -15.5433
  59   2.0000      -0.555515       -15.1163
  60   2.0000      -0.499187       -13.5836
  61   2.0000      -0.489062       -13.3081
  62   2.0000      -0.474292       -12.9061
  63   2.0000      -0.470188       -12.7945
  64   2.0000      -0.449866       -12.2415
  65   2.0000      -0.444784       -12.1032
  66   2.0000      -0.439024       -11.9464
  67   2.0000      -0.431787       -11.7495
  68   2.0000      -0.426513       -11.6060
  69   2.0000      -0.411220       -11.1899
  70   2.0000      -0.407103       -11.0778
  71   2.0000      -0.399143       -10.8612
  72   2.0000      -0.393012       -10.6944
  73   2.0000      -0.387628       -10.5479
  74   2.0000      -0.381058       -10.3691
  75   2.0000      -0.373392       -10.1605
  76   2.0000      -0.371948       -10.1212
  77   2.0000      -0.354709        -9.6521
  78   2.0000      -0.350308        -9.5324
  79   2.0000      -0.348817        -9.4918
  80   2.0000      -0.347105        -9.4452
  81   2.0000      -0.341715        -9.2985
  82   2.0000      -0.339172        -9.2293
  83   2.0000      -0.337218        -9.1762
  84   2.0000      -0.333114        -9.0645
  85   2.0000      -0.313739        -8.5373
  86   2.0000      -0.309692        -8.4272
  87   2.0000      -0.295383        -8.0378
  88   2.0000      -0.289253        -7.8710
  89   2.0000      -0.286310        -7.7909
  90   2.0000      -0.281242        -7.6530
  91   2.0000      -0.274994        -7.4830
  92   2.0000      -0.271394        -7.3850
  93   2.0000      -0.263994        -7.1836
  94   2.0000      -0.259985        -7.0746
  95   2.0000      -0.229146        -6.2354
  96   2.0000      -0.222581        -6.0567
  97   2.0000      -0.213766        -5.8169
  98   2.0000      -0.201885        -5.4936
  99   2.0000      -0.195984        -5.3330
 100   2.0000      -0.190350        -5.1797
 101   0.0000      -0.040824        -1.1109
 102   0.0000      -0.030659        -0.8343
 103   0.0000      -0.005717        -0.1556
 104   0.0000       0.013799         0.3755
 105   0.0000       0.019422         0.5285

MULLIKEN ATOMIC CHARGES
-----------------------
   0 C :   -0.319922
   1 C :   -0.001869
   2 O :   -0.367713
   3 P :    0.612486
   4 S :   -0.341699
   5 O :   -0.359193
   6 C :   -0.005797
   7 C :   -0.306139
   8 S :   -0.084245
   9 C :   -0.356217
  10 S :   -0.090344
  11 P :    0.647882
  12 S :   -0.324518
  13 O :   -0.384668
  14 C :   -0.024958
  15 C :   -0.292331
  16 O :   -0.370349
  17 C :   -0.018842
  18 C :   -0.307432
  19 H :    0.131582
  20 H :    0.113978
  21 H :    0.119323
  22 H :    0.110358
  23 H :    0.105876
  24 H :    0.115538
  25 H :    0.105385
  26 H :    0.116198
  27 H :    0.119876
  28 H :    0.109101
  29 H :    0.181866
  30 H :    0.210629
  31 H :    0.104248
  32 H :    0.133235
  33 H :    0.113261
  34 H :    0.117365
  35 H :    0.117000
  36 H :    0.107293
  37 H :    0.105329
  38 H :    0.106316
  39 H :    0.133887
  40 H :    0.118225
Sum of atomic charges:   -0.0000000

LOEWDIN ATOMIC CHARGES
----------------------
   0 C :   -0.369947
   1 C :   -0.117997
   2 O :   -0.242242
   3 P :    0.571742
   4 S :   -0.311780
   5 O :   -0.237045
   6 C :   -0.116498
   7 C :   -0.366351
   8 S :    0.092388
   9 C :   -0.478036
  10 S :    0.087861
  11 P :    0.571919
  12 S :   -0.299962
  13 O :   -0.246311
  14 C :   -0.124766
  15 C :   -0.361048
  16 O :   -0.247839
  17 C :   -0.115175
  18 C :   -0.365739
  19 H :    0.122915
  20 H :    0.131569
  21 H :    0.124701
  22 H :    0.110701
  23 H :    0.119143
  24 H :    0.109523
  25 H :    0.119915
  26 H :    0.126301
  27 H :    0.120409
  28 H :    0.128764
  29 H :    0.135768
  30 H :    0.122918
  31 H :    0.114226
  32 H :    0.106794
  33 H :    0.132190
  34 H :    0.122585
  35 H :    0.122181
  36 H :    0.120116
  37 H :    0.108245
  38 H :    0.127636
  39 H :    0.121330
  40 H :    0.128899

  Mayer bond orders larger than 0.100000
B(  0-C ,  1-C ) :   1.1665 B(  0-C , 19-H ) :   0.9354 B(  0-C , 20-H ) :   0.9375
B(  0-C , 21-H ) :   0.9444 B(  1-C ,  2-O ) :   0.9073 B(  1-C , 22-H ) :   0.9164
B(  1-C , 23-H ) :   0.9340 B(  2-O ,  3-P ) :   1.1171 B(  3-P ,  4-S ) :   1.5802
B(  3-P ,  5-O ) :   1.1291 B(  3-P ,  8-S ) :   0.9641 B(  4-S ,  8-S ) :   0.1083
B(  5-O ,  6-C ) :   0.9030 B(  6-C ,  7-C ) :   1.1630 B(  6-C , 24-H ) :   0.9153
B(  6-C , 25-H ) :   0.9346 B(  7-C , 26-H ) :   0.9455 B(  7-C , 27-H ) :   0.9344
B(  7-C , 28-H ) :   0.9398 B(  8-S ,  9-C ) :   0.9995 B(  9-C , 10-S ) :   0.9981
B(  9-C , 29-H ) :   0.9112 B(  9-C , 30-H ) :   0.8511 B( 10-S , 11-P ) :   0.9600
B( 10-S , 12-S ) :   0.1186 B( 11-P , 12-S ) :   1.6082 B( 11-P , 13-O ) :   1.0951
B( 11-P , 16-O ) :   1.1143 B( 13-O , 14-C ) :   0.9026 B( 14-C , 15-C ) :   1.1634
B( 14-C , 31-H ) :   0.9312 B( 14-C , 32-H ) :   0.9003 B( 15-C , 33-H ) :   0.9386
B( 15-C , 34-H ) :   0.9378 B( 15-C , 35-H ) :   0.9406 B( 16-O , 17-C ) :   0.9159
B( 17-C , 18-C ) :   1.1642 B( 17-C , 36-H ) :   0.9356 B( 17-C , 37-H ) :   0.9175
B( 18-C , 38-H ) :   0.9388 B( 18-C , 39-H ) :   0.9319 B( 18-C , 40-H ) :   0.9460

Dispersion correction           -0.066817446
FINAL SINGLE POINT ENERGY     -2929.520327353399

DIPOLE MOMENT
-------------

Method             : SCF
Type of density    : Electron Density
Multiplicity       :   1
Irrep              :   0
Energy             : -2929.6380490559154168 Eh
Relativity type    :
Basis              : AO
                                X                 Y                 Z
Electronic contribution:      5.812698757     -14.588961451      -6.899216735
Nuclear contribution   :     -5.843945754      15.026928372       7.745205780
                        -----------------------------------------
Total Dipole Moment    :     -0.031246997       0.437966920       0.845989045
                        -----------------------------------------
Magnitude (a.u.)       :      0.953146821
Magnitude (Debye)      :      2.422706683

Rotational constants in cm-1:             0.013302             0.004976             0.004654
Rotational constants in MHz :           398.775228           149.184737           139.515036

                             ****ORCA TERMINATED NORMALLY****
TOTAL RUN TIME: 0 days 0 hours 0 minutes 21 seconds 126 msec
