                         Program Version 6.0.0  -   RELEASE  -
|  1> ! pbe def2-sv(p) def2/J RI DEFGRID1 loosescf d4 GCP(DFT/SV(P)) printgap
|  2> %output
|  3>     printlevel normal
|  4> end
|  5> * xyz 0 1
|  6> C 4.1843800849 -1.1671953898 -2.844423048
|  7> C 4.2942197084 -0.3727789636 -1.5575606447
|  8> O 3.3025906565 -0.8112722181 -0.6086315454
|  9> P 1.9614623163 0.0351225519 -0.3613624136
| 10> S 1.020679875 0.4811830474 -2.0185546994
| 11> O 2.4052821871 1.3541965026 0.3960191426
| 12> C 2.7107231586 1.4735340301 1.8043592975
| 13> C 3.8217797231 0.5448368763 2.2468172664
| 14> S 1.0770517719 -1.3095091813 0.9885212763
| 15> C -0.2601401722 -1.9352497452 -0.0789869136
| 16> S -1.9211284036 -1.6370736878 0.5733074813
| 17> P -2.0880275209 0.4667231005 0.2847288864
| 18> S -0.72481288 1.6183409148 1.0941265016
| 19> O -3.5875958407 0.7304939749 0.7354375839
| 20> C -4.1919701119 0.2437263852 1.9502268108
| 21> C -3.3842527432 0.5808342115 3.1852585611
| 22> O -2.1578824902 0.768559663 -1.2577152061
| 23> C -3.137897746 0.2379316062 -2.1844094925
| 24> C -2.6005040834 -0.9811842646 -2.9085868437
| 25> H 3.2275120831 -0.9713137192 -3.3234472417
| 26> H 4.985097091 -0.8751619944 -3.5162929133
| 27> H 4.2598908249 -2.2291572807 -2.6294808774
| 28> H 4.1682273761 0.6991582575 -1.7442618207
| 29> H 5.2534674405 -0.5467945956 -1.0657827983
| 30> H 2.9917704092 2.5228698594 1.907626876
| 31> H 1.7883959765 1.2917909086 2.3628179032
| 32> H 4.030427226 0.7256080181 3.2966368071
| 33> H 3.5215635367 -0.4944738901 2.1207997187
| 34> H 4.7223351446 0.7277872317 1.6654671473
| 35> H -0.1613704758 -3.0160872069 -0.1361082332
| 36> H -0.1603326718 -1.4694628108 -1.0635637975
| 37> H -5.1665468876 0.7350032071 1.9636646333
| 38> H -4.3196454601 -0.8379176244 1.8546548736
| 39> H -2.4201365353 0.0747789015 3.1535705471
| 40> H -3.2059600122 1.6522377647 3.241567507
| 41> H -3.9252700576 0.2575730925 4.0686298775
| 42> H -4.0576211734 0.0147093797 -1.6406670908
| 43> H -3.3086851665 1.0621846319 -2.8786697934
| 44> H -3.2650518282 -1.2232389719 -3.7317723455
| 45> H -1.610007092 -0.7636860704 -3.3034645241
| 46> H -2.5404271196 -1.8369386501 -2.2406917574
| 47> *
| 48>
| 49>                          ****END OF INPUT****

CARTESIAN COORDINATES (ANGSTROEM)
---------------------------------
  C      4.184380   -1.167195   -2.844423
  C      4.294220   -0.372779   -1.557561
  O      3.302591   -0.811272   -0.608632
  P      1.961462    0.035123   -0.361362
  S      1.020680    0.481183   -2.018555
  O      2.405282    1.354197    0.396019
  C      2.710723    1.473534    1.804359
  C      3.821780    0.544837    2.246817
  S      1.077052   -1.309509    0.988521
  C     -0.260140   -1.935250   -0.078987
  S     -1.921128   -1.637074    0.573307
  P     -2.088028    0.466723    0.284729
  S     -0.724813    1.618341    1.094127
  O     -3.587596    0.730494    0.735438
  C     -4.191970    0.243726    1.950227
  C     -3.384253    0.580834    3.185259
  O     -2.157882    0.768560   -1.257715
  C     -3.137898    0.237932   -2.184409
  C     -2.600504   -0.981184   -2.908587
  H      3.227512   -0.971314   -3.323447
  H      4.985097   -0.875162   -3.516293
  H      4.259891   -2.229157   -2.629481
  H      4.168227    0.699158   -1.744262
  H      5.253467   -0.546795   -1.065783
  H      2.991770    2.522870    1.907627
  H      1.788396    1.291791    2.362818
  H      4.030427    0.725608    3.296637
  H      3.521564   -0.494474    2.120800
  H      4.722335    0.727787    1.665467
  H     -0.161370   -3.016087   -0.136108
  H     -0.160333   -1.469463   -1.063564
  H     -5.166547    0.735003    1.963665
  H     -4.319645   -0.837918    1.854655
  H     -2.420137    0.074779    3.153571
  H     -3.205960    1.652238    3.241568
  H     -3.925270    0.257573    4.068630
  H     -4.057621    0.014709   -1.640667
  H     -3.308685    1.062185   -2.878670
  H     -3.265052   -1.223239   -3.731772
  H     -1.610007   -0.763686   -3.303465
  H     -2.540427   -1.836939   -2.240692

 Total Charge           Charge          ....    0
 Multiplicity           Mult            ....    1
 Number of Electrons    NEL             ....  202
 Basis Dimension        Dim             ....  334

ORBITAL ENERGIES
----------------

  NO   OCC          E(Eh)            E(eV)
   0   2.0000     -88.044659     -2395.8170
   1   2.0000     -88.039368     -2395.6730
   2   2.0000     -87.976042     -2393.9498
   3   2.0000     -87.973345     -2393.8764
   4   2.0000     -76.421450     -2079.5334
   5   2.0000     -76.417927     -2079.4375
   6   2.0000     -18.789745      -511.2949
   7   2.0000     -18.784549      -511.1536
   8   2.0000     -18.782179      -511.0891
   9   2.0000     -18.775828      -510.9163
  10   2.0000      -9.958469      -270.9837
  11   2.0000      -9.957751      -270.9642
  12   2.0000      -9.950763      -270.7740
  13   2.0000      -9.950132      -270.7569
  14   2.0000      -9.945222      -270.6232
  15   2.0000      -9.887262      -269.0461
  16   2.0000      -9.881714      -268.8951
  17   2.0000      -9.881360      -268.8855
  18   2.0000      -9.874388      -268.6958
  19   2.0000      -7.689539      -209.2430
  20   2.0000      -7.684687      -209.1110
  21   2.0000      -7.621256      -207.3849
  22   2.0000      -7.618327      -207.3052
  23   2.0000      -6.418470      -174.6555
  24   2.0000      -6.415557      -174.5762
  25   2.0000      -5.717112      -155.5705
  26   2.0000      -5.714021      -155.4864
  27   2.0000      -5.712600      -155.4477
  28   2.0000      -5.709415      -155.3611
  29   2.0000      -5.706870      -155.2918
  30   2.0000      -5.701304      -155.1404
  31   2.0000      -5.650274      -153.7518
  32   2.0000      -5.647448      -153.6749
  33   2.0000      -5.642430      -153.5383
  34   2.0000      -5.640626      -153.4892
  35   2.0000      -5.638846      -153.4408
  36   2.0000      -5.638376      -153.4280
  37   2.0000      -4.641440      -126.3000
  38   2.0000      -4.640613      -126.2775
  39   2.0000      -4.638409      -126.2175
  40   2.0000      -4.638296      -126.2145
  41   2.0000      -4.637238      -126.1856
  42   2.0000      -4.635887      -126.1489
  43   2.0000      -0.983520       -26.7629
  44   2.0000      -0.974026       -26.5046
  45   2.0000      -0.939395       -25.5622
  46   2.0000      -0.932901       -25.3855
  47   2.0000      -0.761829       -20.7304
  48   2.0000      -0.717044       -19.5118
  49   2.0000      -0.707900       -19.2629
  50   2.0000      -0.688114       -18.7245
  51   2.0000      -0.687498       -18.7078
  52   2.0000      -0.671708       -18.2781
  53   2.0000      -0.646820       -17.6009
  54   2.0000      -0.631564       -17.1857
  55   2.0000      -0.588898       -16.0247
  56   2.0000      -0.582767       -15.8579
  57   2.0000      -0.575031       -15.6474
  58   2.0000      -0.573188       -15.5973
  59   2.0000      -0.558395       -15.1947
  60   2.0000      -0.500535       -13.6202
  61   2.0000      -0.491989       -13.3877
  62   2.0000      -0.469145       -12.7661
  63   2.0000      -0.467548       -12.7226
  64   2.0000      -0.453519       -12.3409
  65   2.0000      -0.448716       -12.2102
  66   2.0000      -0.437025       -11.8920
  67   2.0000      -0.433154       -11.7867
  68   2.0000      -0.425993       -11.5919
  69   2.0000      -0.415775       -11.3138
  70   2.0000      -0.405424       -11.0321
  71   2.0000      -0.400745       -10.9048
  72   2.0000      -0.394244       -10.7279
  73   2.0000      -0.382635       -10.4120
  74   2.0000      -0.377736       -10.2787
  75   2.0000      -0.362202        -9.8560
  76   2.0000      -0.353254        -9.6125
  77   2.0000      -0.352249        -9.5852
  78   2.0000      -0.349386        -9.5073
  79   2.0000      -0.348357        -9.4793
  80   2.0000      -0.344493        -9.3741
  81   2.0000      -0.342082        -9.3085
  82   2.0000      -0.340305        -9.2602
  83   2.0000      -0.338545        -9.2123
  84   2.0000      -0.330678        -8.9982
  85   2.0000      -0.315847        -8.5946
  86   2.0000      -0.305969        -8.3258
  87   2.0000      -0.299628        -8.1533
  88   2.0000      -0.294275        -8.0076
  89   2.0000      -0.287576        -7.8253
  90   2.0000      -0.273306        -7.4370
  91   2.0000      -0.271747        -7.3946
  92   2.0000      -0.265351        -7.2206
  93   2.0000      -0.258889        -7.0447
  94   2.0000      -0.257108        -6.9963
  95   2.0000      -0.241056        -6.5595
  96   2.0000      -0.216528        -5.8920
  97   2.0000      -0.201880        -5.4934
  98   2.0000      -0.194071        -5.2809
  99   2.0000      -0.182124        -4.9558
 100   2.0000      -0.176756        -4.8098
 101   0.0000      -0.040604        -1.1049
 102   0.0000      -0.029423        -0.8006
 103   0.0000      -0.011443        -0.3114
 104   0.0000       0.001539         0.0419
 105   0.0000       0.022856         0.6219

MULLIKEN ATOMIC CHARGES
-----------------------
   0 C :   -0.279951
   1 C :   -0.017907
   2 O :   -0.381874
   3 P :    0.610188
   4 S :   -0.301942
   5 O :   -0.367676
   6 C :   -0.013596
   7 C :   -0.321741
   8 S :   -0.080584
   9 C :   -0.343120
  10 S :   -0.136925
  11 P :    0.604829
  12 S :   -0.301163
  13 O :   -0.380934
  14 C :   -0.013811
  15 C :   -0.308951
  16 O :   -0.340683
  17 C :   -0.003815
  18 C :   -0.311970
  19 H :    0.121577
  20 H :    0.102803
  21 H :    0.108288
  22 H :    0.104635
  23 H :    0.099920
  24 H :    0.110791
  25 H :    0.128093
  26 H :    0.115400
  27 H :    0.132961
  28 H :    0.117335
  29 H :    0.183963
  30 H :    0.201276
  31 H :    0.110118
  32 H :    0.113700
  33 H :    0.127008
  34 H :    0.128331
  35 H :    0.109560
  36 H :    0.099584
  37 H :    0.111605
  38 H :    0.108407
  39 H :    0.139141
  40 H :    0.117132
Sum of atomic charges:    0.0000000

LOEWDIN ATOMIC CHARGES
----------------------
   0 C :   -0.361457
   1 C :   -0.120227
   2 O :   -0.264463
   3 P :    0.572632
   4 S :   -0.295545
   5 O :   -0.236154
   6 C :   -0.117406
   7 C :   -0.367463
   8 S :    0.090588
   9 C :   -0.477769
  10 S :    0.058554
  11 P :    0.562746
  12 S :   -0.297849
  13 O :   -0.246322
  14 C :   -0.114872
  15 C :   -0.371043
  16 O :   -0.223922
  17 C :   -0.109728
  18 C :   -0.367806
  19 H :    0.123175
  20 H :    0.126177
  21 H :    0.123709
  22 H :    0.108940
  23 H :    0.113169
  24 H :    0.123348
  25 H :    0.110870
  26 H :    0.132644
  27 H :    0.119797
  28 H :    0.125771
  29 H :    0.138839
  30 H :    0.122660
  31 H :    0.121787
  32 H :    0.107160
  33 H :    0.121588
  34 H :    0.130928
  35 H :    0.129192
  36 H :    0.107887
  37 H :    0.123510
  38 H :    0.128944
  39 H :    0.131200
  40 H :    0.116210

  Mayer bond orders larger than 0.100000
B(  0-C ,  1-C ) :   1.1686 B(  0-C , 19-H ) :   0.9335 B(  0-C , 20-H ) :   0.9408
B(  0-C , 21-H ) :   0.9475 B(  1-C ,  2-O ) :   0.9078 B(  1-C , 22-H ) :   0.9136
B(  1-C , 23-H ) :   0.9331 B(  2-O ,  3-P ) :   1.0730 B(  3-P ,  4-S ) :   1.6090
B(  3-P ,  5-O ) :   1.1192 B(  3-P ,  8-S ) :   0.9567 B(  4-S ,  8-S ) :   0.1103
B(  4-S , 30-H ) :   0.1139 B(  5-O ,  6-C ) :   0.9045 B(  6-C ,  7-C ) :   1.1610
B(  6-C , 24-H ) :   0.9355 B(  6-C , 25-H ) :   0.9134 B(  7-C , 26-H ) :   0.9365
B(  7-C , 27-H ) :   0.9356 B(  7-C , 28-H ) :   0.9440 B(  8-S ,  9-C ) :   1.0122
B(  9-C , 10-S ) :   0.9891 B(  9-C , 29-H ) :   0.9114 B(  9-C , 30-H ) :   0.8417
B( 10-S , 11-P ) :   0.9322 B( 10-S , 12-S ) :   0.1163 B( 11-P , 12-S ) :   1.6598
B( 11-P , 13-O ) :   1.0833 B( 11-P , 16-O ) :   1.1446 B( 13-O , 14-C ) :   0.9135
B( 14-C , 15-C ) :   1.1683 B( 14-C , 31-H ) :   0.9334 B( 14-C , 32-H ) :   0.9259
B( 15-C , 33-H ) :   0.9312 B( 15-C , 34-H ) :   0.9415 B( 15-C , 35-H ) :   0.9340
B( 16-O , 17-C ) :   0.8992 B( 17-C , 18-C ) :   1.1697 B( 17-C , 36-H ) :   0.9196
B( 17-C , 37-H ) :   0.9348 B( 18-C , 38-H ) :   0.9383 B( 18-C , 39-H ) :   0.9350
B( 18-C , 40-H ) :   0.9332

Dispersion correction           -0.068112723
FINAL SINGLE POINT ENERGY     -2929.505001314411

DIPOLE MOMENT
-------------

Method             : SCF
Type of density    : Electron Density
Multiplicity       :   1
Irrep              :   0
Energy             : -2929.6221516170039649 Eh
Relativity type    :
Basis              : AO
                                X                 Y                 Z
Electronic contribution:     -4.897305543       3.719650389       1.898299461
Nuclear contribution   :      4.638784135      -4.615911381      -1.498307494
                        -----------------------------------------
Total Dipole Moment    :     -0.258521409      -0.896260992       0.399991967
                        -----------------------------------------
Magnitude (a.u.)       :      1.014943673
Magnitude (Debye)      :      2.579781797

Rotational constants in cm-1:             0.012476             0.005625             0.004754
Rotational constants in MHz :           374.031128           168.622383           142.528104

                             ****ORCA TERMINATED NORMALLY****
TOTAL RUN TIME: 0 days 0 hours 0 minutes 21 seconds 216 msec
