                         Program Version 6.0.0  -   RELEASE  -
|  1> ! pbe def2-sv(p) def2/J RI DEFGRID1 loosescf d4 GCP(DFT/SV(P)) printgap
|  2> %output
|  3>     printlevel normal
|  4> end
|  5> * xyz 0 1
|  6> C 3.9607019751 -1.9132098433 -2.092855011
|  7> C 4.1734519421 -1.8222734104 -0.5957397665
|  8> O 2.9353367029 -1.6338832611 0.1109942322
|  9> P 2.1095797611 -0.2762643148 0.035301515
| 10> S 3.2301454366 1.3370389488 -0.0123429234
| 11> O 1.1104310432 -0.4668864269 1.2496144396
| 12> C 1.5178853509 -0.3137192228 2.6296889952
| 13> C 1.3783422763 1.1238203089 3.0909293912
| 14> S 0.7551620255 -0.5366418082 -1.5620496325
| 15> C 0.2382875234 1.1976927005 -1.6744370599
| 16> S -0.6233585952 1.7792569678 -0.1962158213
| 17> P -2.2688387681 0.4333746431 -0.3341115659
| 18> S -2.9229691468 0.0407701237 -2.1316864447
| 19> O -3.370899913 1.1402773744 0.5488672808
| 20> C -3.1423880703 1.8430143592 1.7927443188
| 21> C -2.773867663 0.9024498232 2.9208210285
| 22> O -1.8080945331 -0.8399359454 0.5106857945
| 23> C -1.770422064 -2.183052334 0.0050463462
| 24> C -3.0202963162 -2.929404854 0.4266938276
| 25> H 3.2149816 -2.6697702746 -2.3237007017
| 26> H 3.6165538712 -0.9544979338 -2.4789296528
| 27> H 4.8982422128 -2.1704459935 -2.5751467189
| 28> H 4.8414609822 -0.9898635362 -0.35179442
| 29> H 4.5711080962 -2.7519807904 -0.1867808641
| 30> H 0.8440082008 -0.9744236383 3.1785082512
| 31> H 2.5464465048 -0.6669565874 2.739663672
| 32> H 2.0747287929 1.7653735905 2.5558385493
| 33> H 0.3699655977 1.4829260928 2.9038129417
| 34> H 1.5901719447 1.1792603896 4.1539186792
| 35> H -0.4246489217 1.2650389634 -2.5367083302
| 36> H 1.1147675332 1.8347591189 -1.7915117318
| 37> H -2.3595010487 2.5890547596 1.6282680384
| 38> H -4.0939026611 2.3438717372 1.9787892906
| 39> H -2.6596008154 1.4734366667 3.8371476654
| 40> H -3.5528063507 0.1568694019 3.0566056042
| 41> H -1.8393008198 0.3947540923 2.6937981511
| 42> H -1.6854802101 -2.1578622364 -1.0862591565
| 43> H -0.8664877211 -2.6247288314 0.4297488179
| 44> H -3.8954966868 -2.4522833241 -0.0109539235
| 45> H -2.9615073079 -3.9543839063 0.0750821055
| 46> H -3.1176986284 -2.9228857479 1.5086296113
| 47> *
| 48>
| 49>                          ****END OF INPUT****

CARTESIAN COORDINATES (ANGSTROEM)
---------------------------------
  C      3.960702   -1.913210   -2.092855
  C      4.173452   -1.822273   -0.595740
  O      2.935337   -1.633883    0.110994
  P      2.109580   -0.276264    0.035302
  S      3.230145    1.337039   -0.012343
  O      1.110431   -0.466886    1.249614
  C      1.517885   -0.313719    2.629689
  C      1.378342    1.123820    3.090929
  S      0.755162   -0.536642   -1.562050
  C      0.238288    1.197693   -1.674437
  S     -0.623359    1.779257   -0.196216
  P     -2.268839    0.433375   -0.334112
  S     -2.922969    0.040770   -2.131686
  O     -3.370900    1.140277    0.548867
  C     -3.142388    1.843014    1.792744
  C     -2.773868    0.902450    2.920821
  O     -1.808095   -0.839936    0.510686
  C     -1.770422   -2.183052    0.005046
  C     -3.020296   -2.929405    0.426694
  H      3.214982   -2.669770   -2.323701
  H      3.616554   -0.954498   -2.478930
  H      4.898242   -2.170446   -2.575147
  H      4.841461   -0.989864   -0.351794
  H      4.571108   -2.751981   -0.186781
  H      0.844008   -0.974424    3.178508
  H      2.546447   -0.666957    2.739664
  H      2.074729    1.765374    2.555839
  H      0.369966    1.482926    2.903813
  H      1.590172    1.179260    4.153919
  H     -0.424649    1.265039   -2.536708
  H      1.114768    1.834759   -1.791512
  H     -2.359501    2.589055    1.628268
  H     -4.093903    2.343872    1.978789
  H     -2.659601    1.473437    3.837148
  H     -3.552806    0.156869    3.056606
  H     -1.839301    0.394754    2.693798
  H     -1.685480   -2.157862   -1.086259
  H     -0.866488   -2.624729    0.429749
  H     -3.895497   -2.452283   -0.010954
  H     -2.961507   -3.954384    0.075082
  H     -3.117699   -2.922886    1.508630

 Total Charge           Charge          ....    0
 Multiplicity           Mult            ....    1
 Number of Electrons    NEL             ....  202
 Basis Dimension        Dim             ....  334

ORBITAL ENERGIES
----------------

  NO   OCC          E(Eh)            E(eV)
   0   2.0000     -88.046223     -2395.8595
   1   2.0000     -88.040011     -2395.6905
   2   2.0000     -87.991652     -2394.3746
   3   2.0000     -87.984209     -2394.1720
   4   2.0000     -76.429937     -2079.7643
   5   2.0000     -76.425339     -2079.6392
   6   2.0000     -18.797989      -511.5193
   7   2.0000     -18.794576      -511.4264
   8   2.0000     -18.791140      -511.3329
   9   2.0000     -18.785719      -511.1854
  10   2.0000      -9.962292      -271.0877
  11   2.0000      -9.957506      -270.9575
  12   2.0000      -9.955580      -270.9051
  13   2.0000      -9.955065      -270.8911
  14   2.0000      -9.943846      -270.5858
  15   2.0000      -9.891713      -269.1672
  16   2.0000      -9.886535      -269.0263
  17   2.0000      -9.882498      -268.9164
  18   2.0000      -9.880157      -268.8527
  19   2.0000      -7.690968      -209.2819
  20   2.0000      -7.684985      -209.1191
  21   2.0000      -7.636550      -207.8011
  22   2.0000      -7.629467      -207.6084
  23   2.0000      -6.427461      -174.9001
  24   2.0000      -6.422720      -174.7711
  25   2.0000      -5.718835      -155.6174
  26   2.0000      -5.715628      -155.5301
  27   2.0000      -5.712803      -155.4533
  28   2.0000      -5.709635      -155.3671
  29   2.0000      -5.707795      -155.3170
  30   2.0000      -5.701863      -155.1556
  31   2.0000      -5.665294      -154.1605
  32   2.0000      -5.658474      -153.9749
  33   2.0000      -5.657341      -153.9441
  34   2.0000      -5.656735      -153.9276
  35   2.0000      -5.650165      -153.7488
  36   2.0000      -5.649402      -153.7280
  37   2.0000      -4.650097      -126.5356
  38   2.0000      -4.649066      -126.5075
  39   2.0000      -4.648011      -126.4788
  40   2.0000      -4.645475      -126.4098
  41   2.0000      -4.644314      -126.3782
  42   2.0000      -4.643232      -126.3488
  43   2.0000      -0.990306       -26.9476
  44   2.0000      -0.983743       -26.7690
  45   2.0000      -0.947602       -25.7856
  46   2.0000      -0.942987       -25.6600
  47   2.0000      -0.767116       -20.8743
  48   2.0000      -0.723126       -19.6773
  49   2.0000      -0.711786       -19.3687
  50   2.0000      -0.690911       -18.8007
  51   2.0000      -0.688265       -18.7287
  52   2.0000      -0.674401       -18.3514
  53   2.0000      -0.652299       -17.7500
  54   2.0000      -0.640260       -17.4223
  55   2.0000      -0.600803       -16.3487
  56   2.0000      -0.593797       -16.1581
  57   2.0000      -0.578510       -15.7421
  58   2.0000      -0.573213       -15.5979
  59   2.0000      -0.561697       -15.2846
  60   2.0000      -0.504633       -13.7318
  61   2.0000      -0.496645       -13.5144
  62   2.0000      -0.479408       -13.0454
  63   2.0000      -0.472325       -12.8526
  64   2.0000      -0.459673       -12.5083
  65   2.0000      -0.449286       -12.2257
  66   2.0000      -0.440453       -11.9853
  67   2.0000      -0.436774       -11.8852
  68   2.0000      -0.427682       -11.6378
  69   2.0000      -0.415593       -11.3089
  70   2.0000      -0.408316       -11.1109
  71   2.0000      -0.403047       -10.9675
  72   2.0000      -0.393901       -10.7186
  73   2.0000      -0.383630       -10.4391
  74   2.0000      -0.378707       -10.3051
  75   2.0000      -0.377445       -10.2708
  76   2.0000      -0.371239       -10.1019
  77   2.0000      -0.361483        -9.8364
  78   2.0000      -0.357132        -9.7181
  79   2.0000      -0.353335        -9.6147
  80   2.0000      -0.348802        -9.4914
  81   2.0000      -0.346805        -9.4370
  82   2.0000      -0.346588        -9.4311
  83   2.0000      -0.342164        -9.3107
  84   2.0000      -0.333675        -9.0798
  85   2.0000      -0.317755        -8.6465
  86   2.0000      -0.311802        -8.4846
  87   2.0000      -0.300073        -8.1654
  88   2.0000      -0.298703        -8.1281
  89   2.0000      -0.291309        -7.9269
  90   2.0000      -0.281780        -7.6676
  91   2.0000      -0.281111        -7.6494
  92   2.0000      -0.274836        -7.4787
  93   2.0000      -0.267047        -7.2667
  94   2.0000      -0.255589        -6.9549
  95   2.0000      -0.233495        -6.3537
  96   2.0000      -0.216372        -5.8878
  97   2.0000      -0.215798        -5.8722
  98   2.0000      -0.206398        -5.6164
  99   2.0000      -0.200670        -5.4605
 100   2.0000      -0.198006        -5.3880
 101   0.0000      -0.048370        -1.3162
 102   0.0000      -0.025486        -0.6935
 103   0.0000      -0.006621        -0.1802
 104   0.0000       0.001154         0.0314
 105   0.0000       0.008677         0.2361

MULLIKEN ATOMIC CHARGES
-----------------------
   0 C :   -0.316477
   1 C :   -0.006150
   2 O :   -0.376327
   3 P :    0.620344
   4 S :   -0.337885
   5 O :   -0.357764
   6 C :   -0.001315
   7 C :   -0.309259
   8 S :   -0.077669
   9 C :   -0.348514
  10 S :   -0.112544
  11 P :    0.624772
  12 S :   -0.317976
  13 O :   -0.363620
  14 C :   -0.031208
  15 C :   -0.324866
  16 O :   -0.376762
  17 C :   -0.012253
  18 C :   -0.281271
  19 H :    0.118057
  20 H :    0.127665
  21 H :    0.114877
  22 H :    0.112586
  23 H :    0.105068
  24 H :    0.108141
  25 H :    0.102710
  26 H :    0.132238
  27 H :    0.120734
  28 H :    0.105450
  29 H :    0.195021
  30 H :    0.190998
  31 H :    0.125571
  32 H :    0.116356
  33 H :    0.113004
  34 H :    0.120698
  35 H :    0.152333
  36 H :    0.114369
  37 H :    0.098008
  38 H :    0.118193
  39 H :    0.107552
  40 H :    0.107114
Sum of atomic charges:   -0.0000000

LOEWDIN ATOMIC CHARGES
----------------------
   0 C :   -0.368940
   1 C :   -0.120925
   2 O :   -0.246363
   3 P :    0.571343
   4 S :   -0.322109
   5 O :   -0.237273
   6 C :   -0.109376
   7 C :   -0.366317
   8 S :    0.108641
   9 C :   -0.478947
  10 S :    0.076103
  11 P :    0.572690
  12 S :   -0.311104
  13 O :   -0.240008
  14 C :   -0.113373
  15 C :   -0.367774
  16 O :   -0.242647
  17 C :   -0.127549
  18 C :   -0.357914
  19 H :    0.124859
  20 H :    0.121670
  21 H :    0.132018
  22 H :    0.110330
  23 H :    0.118491
  24 H :    0.118487
  25 H :    0.110481
  26 H :    0.125033
  27 H :    0.121464
  28 H :    0.127397
  29 H :    0.132446
  30 H :    0.130765
  31 H :    0.107595
  32 H :    0.125003
  33 H :    0.130391
  34 H :    0.129171
  35 H :    0.126650
  36 H :    0.102844
  37 H :    0.111374
  38 H :    0.125738
  39 H :    0.128620
  40 H :    0.121019

  Mayer bond orders larger than 0.100000
B(  0-C ,  1-C ) :   1.1650 B(  0-C , 19-H ) :   0.9454 B(  0-C , 20-H ) :   0.9352
B(  0-C , 21-H ) :   0.9382 B(  1-C ,  2-O ) :   0.9071 B(  1-C , 22-H ) :   0.9138
B(  1-C , 23-H ) :   0.9333 B(  2-O ,  3-P ) :   1.1044 B(  3-P ,  4-S ) :   1.5974
B(  3-P ,  5-O ) :   1.1266 B(  3-P ,  8-S ) :   0.9538 B(  4-S ,  8-S ) :   0.1096
B(  5-O ,  6-C ) :   0.8987 B(  6-C ,  7-C ) :   1.1719 B(  6-C , 24-H ) :   0.9325
B(  6-C , 25-H ) :   0.9210 B(  7-C , 26-H ) :   0.9286 B(  7-C , 27-H ) :   0.9399
B(  7-C , 28-H ) :   0.9383 B(  8-S ,  9-C ) :   0.9980 B(  9-C , 10-S ) :   1.0200
B(  9-C , 29-H ) :   0.8816 B(  9-C , 30-H ) :   0.8826 B( 10-S , 11-P ) :   0.9403
B( 10-S , 12-S ) :   0.1004 B( 11-P , 12-S ) :   1.6251 B( 11-P , 13-O ) :   1.1399
B( 11-P , 16-O ) :   1.0833 B( 13-O , 14-C ) :   0.9083 B( 14-C , 15-C ) :   1.1670
B( 14-C , 31-H ) :   0.9150 B( 14-C , 32-H ) :   0.9344 B( 15-C , 33-H ) :   0.9364
B( 15-C , 34-H ) :   0.9425 B( 15-C , 35-H ) :   0.9211 B( 16-O , 17-C ) :   0.8979
B( 17-C , 18-C ) :   1.1611 B( 17-C , 36-H ) :   0.9010 B( 17-C , 37-H ) :   0.9304
B( 18-C , 38-H ) :   0.9439 B( 18-C , 39-H ) :   0.9416 B( 18-C , 40-H ) :   0.9492

Dispersion correction           -0.067829852
FINAL SINGLE POINT ENERGY     -2929.521036211938

DIPOLE MOMENT
-------------

Method             : SCF
Type of density    : Electron Density
Multiplicity       :   1
Irrep              :   0
Energy             : -2929.6390831046132917 Eh
Relativity type    :
Basis              : AO
                                X                 Y                 Z
Electronic contribution:     -1.652817519       9.589630489     -15.302762965
Nuclear contribution   :      2.201182612     -10.379598128      16.738129346
                        -----------------------------------------
Total Dipole Moment    :      0.548365093      -0.789967639       1.435366381
                        -----------------------------------------
Magnitude (a.u.)       :      1.727723877
Magnitude (Debye)      :      4.391525095

Rotational constants in cm-1:             0.011605             0.005757             0.005186
Rotational constants in MHz :           347.915099           172.600570           155.466706

                             ****ORCA TERMINATED NORMALLY****
TOTAL RUN TIME: 0 days 0 hours 0 minutes 22 seconds 85 msec
