                         Program Version 6.0.0  -   RELEASE  -
|  1> ! pbe def2-sv(p) def2/J RI DEFGRID1 loosescf d4 GCP(DFT/SV(P)) printgap
|  2> %output
|  3>     printlevel normal
|  4> end
|  5> * xyz 0 1
|  6> C 5.4708283786 -0.7274885303 0.8831029393
|  7> C 4.2480701347 -1.5068795559 0.4451401015
|  8> O 3.6153454906 -0.8780107677 -0.6980797015
|  9> P 2.3991031497 0.1169027599 -0.5903371576
| 10> S 1.8642928923 0.7186489248 -2.3725867859
| 11> O 2.9325282779 1.1918468329 0.4512523361
| 12> C 2.1900223327 2.3622946789 0.8431149548
| 13> C 2.5628915825 3.5495845102 -0.0220106424
| 14> S 0.9251886888 -0.9328879684 0.535569249
| 15> C -0.1331584638 -1.4614170632 -0.8544747221
| 16> S -1.8170525935 -1.7999069939 -0.3229070118
| 17> P -2.4537800668 0.1891575118 0.1556612684
| 18> S -1.2750026976 1.6554887916 -0.3775172793
| 19> O -2.8263778419 0.1519705694 1.7038666691
| 20> C -1.8626176168 0.2384957676 2.7698107237
| 21> C -1.4638426645 -1.1377530006 3.2660854645
| 22> O -3.8773124069 0.315377246 -0.4957990354
| 23> C -4.9301101865 -0.6697281129 -0.3051445277
| 24> C -5.2022851183 -1.3909926189 -1.609426115
| 25> H 5.1848412751 0.2618567068 1.2291065408
| 26> H 5.961802116 -1.2626464999 1.6899037632
| 27> H 6.1607908364 -0.6206814831 0.0505633318
| 28> H 3.5162975658 -1.587903537 1.2541890599
| 29> H 4.5185116544 -2.5024560832 0.0889398666
| 30> H 1.1179408763 2.1605712027 0.7716475682
| 31> H 2.4656686359 2.5259316472 1.8865746527
| 32> H 2.0367280109 4.4292841965 0.3340280148
| 33> H 3.6343963148 3.7244555581 0.0180353997
| 34> H 2.273841099 3.363407834 -1.0545211474
| 35> H 0.2480797976 -2.3943321552 -1.2630962707
| 36> H -0.1238330569 -0.6665503326 -1.6050244472
| 37> H -0.9933159835 0.8032672776 2.418331545
| 38> H -2.3732999375 0.8072689541 3.549068899
| 39> H -0.8369117167 -1.026607072 4.1445236595
| 40> H -2.3495456181 -1.7101236662 3.5263250268
| 41> H -0.903789435 -1.6750295978 2.5038581688
| 42> H -4.6320506874 -1.3658694914 0.4808849753
| 43> H -5.7974770171 -0.0941286482 0.0211508257
| 44> H -5.4321968747 -0.6719867896 -2.3908340519
| 45> H -4.3346490781 -1.9728957515 -1.9102559149
| 46> H -6.0480747158 -2.0576923216 -1.4754087628
| 47> *
| 48>
| 49>                          ****END OF INPUT****

CARTESIAN COORDINATES (ANGSTROEM)
---------------------------------
  C      5.470828   -0.727489    0.883103
  C      4.248070   -1.506880    0.445140
  O      3.615345   -0.878011   -0.698080
  P      2.399103    0.116903   -0.590337
  S      1.864293    0.718649   -2.372587
  O      2.932528    1.191847    0.451252
  C      2.190022    2.362295    0.843115
  C      2.562892    3.549585   -0.022011
  S      0.925189   -0.932888    0.535569
  C     -0.133158   -1.461417   -0.854475
  S     -1.817053   -1.799907   -0.322907
  P     -2.453780    0.189158    0.155661
  S     -1.275003    1.655489   -0.377517
  O     -2.826378    0.151971    1.703867
  C     -1.862618    0.238496    2.769811
  C     -1.463843   -1.137753    3.266085
  O     -3.877312    0.315377   -0.495799
  C     -4.930110   -0.669728   -0.305145
  C     -5.202285   -1.390993   -1.609426
  H      5.184841    0.261857    1.229107
  H      5.961802   -1.262646    1.689904
  H      6.160791   -0.620681    0.050563
  H      3.516298   -1.587904    1.254189
  H      4.518512   -2.502456    0.088940
  H      1.117941    2.160571    0.771648
  H      2.465669    2.525932    1.886575
  H      2.036728    4.429284    0.334028
  H      3.634396    3.724456    0.018035
  H      2.273841    3.363408   -1.054521
  H      0.248080   -2.394332   -1.263096
  H     -0.123833   -0.666550   -1.605024
  H     -0.993316    0.803267    2.418332
  H     -2.373300    0.807269    3.549069
  H     -0.836912   -1.026607    4.144524
  H     -2.349546   -1.710124    3.526325
  H     -0.903789   -1.675030    2.503858
  H     -4.632051   -1.365869    0.480885
  H     -5.797477   -0.094129    0.021151
  H     -5.432197   -0.671987   -2.390834
  H     -4.334649   -1.972896   -1.910256
  H     -6.048075   -2.057692   -1.475409

 Total Charge           Charge          ....    0
 Multiplicity           Mult            ....    1
 Number of Electrons    NEL             ....  202
 Basis Dimension        Dim             ....  334

ORBITAL ENERGIES
----------------

  NO   OCC          E(Eh)            E(eV)
   0   2.0000     -88.048105     -2395.9107
   1   2.0000     -88.040213     -2395.6960
   2   2.0000     -87.984560     -2394.1816
   3   2.0000     -87.981773     -2394.1057
   4   2.0000     -76.426689     -2079.6759
   5   2.0000     -76.423569     -2079.5910
   6   2.0000     -18.793128      -511.3870
   7   2.0000     -18.792484      -511.3695
   8   2.0000     -18.789889      -511.2989
   9   2.0000     -18.788150      -511.2515
  10   2.0000      -9.961478      -271.0656
  11   2.0000      -9.955424      -270.9009
  12   2.0000      -9.953507      -270.8487
  13   2.0000      -9.952932      -270.8330
  14   2.0000      -9.948360      -270.7086
  15   2.0000      -9.888855      -269.0894
  16   2.0000      -9.885621      -269.0014
  17   2.0000      -9.884588      -268.9733
  18   2.0000      -9.875765      -268.7332
  19   2.0000      -7.692879      -209.3339
  20   2.0000      -7.684701      -209.1113
  21   2.0000      -7.629509      -207.6095
  22   2.0000      -7.626976      -207.5406
  23   2.0000      -6.424300      -174.8141
  24   2.0000      -6.421033      -174.7252
  25   2.0000      -5.720783      -155.6704
  26   2.0000      -5.717285      -155.5752
  27   2.0000      -5.712515      -155.4454
  28   2.0000      -5.709961      -155.3759
  29   2.0000      -5.709334      -155.3589
  30   2.0000      -5.701731      -155.1520
  31   2.0000      -5.658648      -153.9796
  32   2.0000      -5.656052      -153.9090
  33   2.0000      -5.649842      -153.7400
  34   2.0000      -5.649688      -153.7358
  35   2.0000      -5.647432      -153.6745
  36   2.0000      -5.647097      -153.6653
  37   2.0000      -4.646976      -126.4506
  38   2.0000      -4.646077      -126.4262
  39   2.0000      -4.644641      -126.3871
  40   2.0000      -4.643839      -126.3653
  41   2.0000      -4.642822      -126.3376
  42   2.0000      -4.641286      -126.2958
  43   2.0000      -0.988697       -26.9038
  44   2.0000      -0.986390       -26.8410
  45   2.0000      -0.944188       -25.6927
  46   2.0000      -0.943073       -25.6623
  47   2.0000      -0.762318       -20.7437
  48   2.0000      -0.721832       -19.6420
  49   2.0000      -0.712908       -19.3992
  50   2.0000      -0.690989       -18.8028
  51   2.0000      -0.687411       -18.7054
  52   2.0000      -0.674818       -18.3627
  53   2.0000      -0.649043       -17.6614
  54   2.0000      -0.635884       -17.3033
  55   2.0000      -0.593171       -16.1410
  56   2.0000      -0.584998       -15.9186
  57   2.0000      -0.577364       -15.7109
  58   2.0000      -0.571238       -15.5442
  59   2.0000      -0.562971       -15.3192
  60   2.0000      -0.508186       -13.8285
  61   2.0000      -0.501200       -13.6383
  62   2.0000      -0.478881       -13.0310
  63   2.0000      -0.477386       -12.9903
  64   2.0000      -0.453300       -12.3349
  65   2.0000      -0.446650       -12.1540
  66   2.0000      -0.441418       -12.0116
  67   2.0000      -0.437177       -11.8962
  68   2.0000      -0.428677       -11.6649
  69   2.0000      -0.423114       -11.5135
  70   2.0000      -0.405830       -11.0432
  71   2.0000      -0.399160       -10.8617
  72   2.0000      -0.393930       -10.7194
  73   2.0000      -0.383573       -10.4376
  74   2.0000      -0.376185       -10.2365
  75   2.0000      -0.370874       -10.0920
  76   2.0000      -0.360944        -9.8218
  77   2.0000      -0.359327        -9.7778
  78   2.0000      -0.355308        -9.6684
  79   2.0000      -0.354300        -9.6410
  80   2.0000      -0.350145        -9.5279
  81   2.0000      -0.344478        -9.3737
  82   2.0000      -0.341101        -9.2818
  83   2.0000      -0.339283        -9.2324
  84   2.0000      -0.330790        -9.0012
  85   2.0000      -0.316738        -8.6189
  86   2.0000      -0.312822        -8.5123
  87   2.0000      -0.303733        -8.2650
  88   2.0000      -0.294899        -8.0246
  89   2.0000      -0.291731        -7.9384
  90   2.0000      -0.289537        -7.8787
  91   2.0000      -0.277229        -7.5438
  92   2.0000      -0.273073        -7.4307
  93   2.0000      -0.262217        -7.1353
  94   2.0000      -0.259178        -7.0526
  95   2.0000      -0.238102        -6.4791
  96   2.0000      -0.220242        -5.9931
  97   2.0000      -0.209660        -5.7051
  98   2.0000      -0.198581        -5.4037
  99   2.0000      -0.194281        -5.2866
 100   2.0000      -0.190646        -5.1877
 101   0.0000      -0.048631        -1.3233
 102   0.0000      -0.033641        -0.9154
 103   0.0000      -0.013308        -0.3621
 104   0.0000       0.003485         0.0948
 105   0.0000       0.011039         0.3004

MULLIKEN ATOMIC CHARGES
-----------------------
   0 C :   -0.289153
   1 C :   -0.011377
   2 O :   -0.355810
   3 P :    0.611417
   4 S :   -0.292274
   5 O :   -0.382751
   6 C :   -0.040778
   7 C :   -0.290705
   8 S :   -0.142614
   9 C :   -0.323802
  10 S :   -0.135619
  11 P :    0.599835
  12 S :   -0.290431
  13 O :   -0.378205
  14 C :   -0.007878
  15 C :   -0.302378
  16 O :   -0.354025
  17 C :   -0.021857
  18 C :   -0.284964
  19 H :    0.122266
  20 H :    0.107681
  21 H :    0.120368
  22 H :    0.099023
  23 H :    0.108485
  24 H :    0.145603
  25 H :    0.098878
  26 H :    0.108659
  27 H :    0.109453
  28 H :    0.131579
  29 H :    0.181181
  30 H :    0.212172
  31 H :    0.110484
  32 H :    0.105326
  33 H :    0.106824
  34 H :    0.110128
  35 H :    0.131996
  36 H :    0.109567
  37 H :    0.116100
  38 H :    0.124588
  39 H :    0.122674
  40 H :    0.110335
Sum of atomic charges:   -0.0000000

LOEWDIN ATOMIC CHARGES
----------------------
   0 C :   -0.359735
   1 C :   -0.115044
   2 O :   -0.238595
   3 P :    0.566153
   4 S :   -0.285222
   5 O :   -0.244950
   6 C :   -0.122627
   7 C :   -0.360480
   8 S :    0.053360
   9 C :   -0.477162
  10 S :    0.069228
  11 P :    0.564805
  12 S :   -0.283018
  13 O :   -0.251383
  14 C :   -0.116950
  15 C :   -0.364809
  16 O :   -0.235278
  17 C :   -0.111990
  18 C :   -0.358317
  19 H :    0.126095
  20 H :    0.128388
  21 H :    0.129181
  22 H :    0.101495
  23 H :    0.120659
  24 H :    0.106406
  25 H :    0.114530
  26 H :    0.129880
  27 H :    0.123329
  28 H :    0.127516
  29 H :    0.135124
  30 H :    0.124220
  31 H :    0.105979
  32 H :    0.118772
  33 H :    0.129049
  34 H :    0.124030
  35 H :    0.110963
  36 H :    0.107941
  37 H :    0.124043
  38 H :    0.131666
  39 H :    0.122744
  40 H :    0.130004

  Mayer bond orders larger than 0.100000
B(  0-C ,  1-C ) :   1.1635 B(  0-C , 19-H ) :   0.9415 B(  0-C , 20-H ) :   0.9399
B(  0-C , 21-H ) :   0.9469 B(  1-C ,  2-O ) :   0.8979 B(  1-C , 22-H ) :   0.9122
B(  1-C , 23-H ) :   0.9366 B(  2-O ,  3-P ) :   1.1369 B(  3-P ,  4-S ) :   1.6605
B(  3-P ,  5-O ) :   1.0887 B(  3-P ,  8-S ) :   0.9423 B(  4-S ,  8-S ) :   0.1157
B(  5-O ,  6-C ) :   0.8917 B(  6-C ,  7-C ) :   1.1719 B(  6-C , 24-H ) :   0.8950
B(  6-C , 25-H ) :   0.9359 B(  7-C , 26-H ) :   0.9393 B(  7-C , 27-H ) :   0.9484
B(  7-C , 28-H ) :   0.9329 B(  8-S ,  9-C ) :   0.9783 B(  9-C , 10-S ) :   1.0233
B(  9-C , 29-H ) :   0.9078 B(  9-C , 30-H ) :   0.8500 B( 10-S , 11-P ) :   0.9136
B( 10-S , 12-S ) :   0.1131 B( 11-P , 12-S ) :   1.6659 B( 11-P , 13-O ) :   1.0873
B( 11-P , 16-O ) :   1.1526 B( 13-O , 14-C ) :   0.9094 B( 14-C , 15-C ) :   1.1696
B( 14-C , 31-H ) :   0.9068 B( 14-C , 32-H ) :   0.9354 B( 15-C , 33-H ) :   0.9399
B( 15-C , 34-H ) :   0.9462 B( 15-C , 35-H ) :   0.9282 B( 16-O , 17-C ) :   0.8855
B( 17-C , 18-C ) :   1.1637 B( 17-C , 36-H ) :   0.9188 B( 17-C , 37-H ) :   0.9339
B( 18-C , 38-H ) :   0.9458 B( 18-C , 39-H ) :   0.9408 B( 18-C , 40-H ) :   0.9395

Dispersion correction           -0.064228982
FINAL SINGLE POINT ENERGY     -2929.515019030206

DIPOLE MOMENT
-------------

Method             : SCF
Type of density    : Electron Density
Multiplicity       :   1
Irrep              :   0
Energy             : -2929.6348229699315198 Eh
Relativity type    :
Basis              : AO
                                X                 Y                 Z
Electronic contribution:     -3.423665061       0.700984851     -12.113774774
Nuclear contribution   :      3.145412232      -1.689600919      13.861899906
                        -----------------------------------------
Total Dipole Moment    :     -0.278252828      -0.988616068       1.748125133
                        -----------------------------------------
Magnitude (a.u.)       :      2.027492995
Magnitude (Debye)      :      5.153477640

Rotational constants in cm-1:             0.013043             0.004507             0.004435
Rotational constants in MHz :           391.023476           135.124201           132.945915

                             ****ORCA TERMINATED NORMALLY****
TOTAL RUN TIME: 0 days 0 hours 0 minutes 20 seconds 794 msec
