                         Program Version 6.0.0  -   RELEASE  -
|  1> ! r2scan-3c def2/J RI DEFGRID2 scfconv6 printgap
|  2> %output
|  3>     printlevel normal
|  4> end
|  5> * xyz 0 1
|  6> C 2.7711627474 -2.7803606238 1.4113080239
|  7> C 1.7159332158 -2.0205423313 0.632090157
|  8> O 1.9201317724 -0.6101504142 0.8110485347
|  9> P 2.3118790024 0.4168806185 -0.3453520488
| 10> S 3.0070333206 -0.3910280437 -1.980747758
| 11> O 3.3606015883 1.3780895798 0.3313232323
| 12> C 3.0998616117 2.2628213801 1.4485140199
| 13> C 3.2576787467 1.5461320756 2.7737782835
| 14> S 0.6021893476 1.6824654745 -0.5583021032
| 15> C -0.1411979939 0.8197956776 -1.9581770157
| 16> S -0.6493028585 -0.8746780082 -1.5535517537
| 17> P -2.0941562522 -0.3717947065 -0.0960215327
| 18> S -3.1282346298 1.2673004633 -0.408966647
| 19> O -1.2475241846 -0.4461663979 1.2373377969
| 20> C -1.6920404979 0.1769561813 2.4680609371
| 21> C -0.9533284244 1.4794995628 2.6978292434
| 22> O -2.9426237944 -1.712035982 0.0300832062
| 23> C -3.9465889015 -2.084115042 -0.9372565565
| 24> C -5.3272783487 -1.6778303417 -0.4595637869
| 25> H 3.7583554781 -2.5475802586 1.0184263553
| 26> H 2.7346702383 -2.5070549041 2.461945083
| 27> H 2.5897429128 -3.845391149 1.3093848598
| 28> H 0.7085320025 -2.2335823806 0.997914322
| 29> H 1.7727215889 -2.2610648064 -0.4348278799
| 30> H 3.8422757091 3.0543060391 1.3324672685
| 31> H 2.0964021194 2.6830542748 1.3363012917
| 32> H 3.1093507342 2.2573854263 3.580445217
| 33> H 2.5283585024 0.7451300995 2.8615869948
| 34> H 4.2541247127 1.119456731 2.8498163456
| 35> H 0.5811159744 0.7370381519 -2.7697543164
| 36> H -1.0127363994 1.4039379113 -2.2523425436
| 37> H -2.7713637432 0.3431286725 2.4174467988
| 38> H -1.4685450659 -0.5549387803 3.2457581185
| 39> H -1.2096144353 2.1989963458 1.9228433527
| 40> H -1.2313374266 1.882833372 3.6660500765
| 41> H 0.1192279708 1.3078453676 2.6719555139
| 42> H -3.71220164 -1.6200120756 -1.8993161767
| 43> H -3.8576513074 -3.1682997698 -1.0260617511
| 44> H -6.0684308878 -2.0266101599 -1.1713865812
| 45> H -5.5290095103 -2.115530929 0.5139961605
| 46> H -5.3944031654 -0.5949732375 -0.3802451697
| 47> *
| 48>
| 49>                          ****END OF INPUT****

CARTESIAN COORDINATES (ANGSTROEM)
---------------------------------
  C      2.771163   -2.780361    1.411308
  C      1.715933   -2.020542    0.632090
  O      1.920132   -0.610150    0.811049
  P      2.311879    0.416881   -0.345352
  S      3.007033   -0.391028   -1.980748
  O      3.360602    1.378090    0.331323
  C      3.099862    2.262821    1.448514
  C      3.257679    1.546132    2.773778
  S      0.602189    1.682465   -0.558302
  C     -0.141198    0.819796   -1.958177
  S     -0.649303   -0.874678   -1.553552
  P     -2.094156   -0.371795   -0.096022
  S     -3.128235    1.267300   -0.408967
  O     -1.247524   -0.446166    1.237338
  C     -1.692040    0.176956    2.468061
  C     -0.953328    1.479500    2.697829
  O     -2.942624   -1.712036    0.030083
  C     -3.946589   -2.084115   -0.937257
  C     -5.327278   -1.677830   -0.459564
  H      3.758355   -2.547580    1.018426
  H      2.734670   -2.507055    2.461945
  H      2.589743   -3.845391    1.309385
  H      0.708532   -2.233582    0.997914
  H      1.772722   -2.261065   -0.434828
  H      3.842276    3.054306    1.332467
  H      2.096402    2.683054    1.336301
  H      3.109351    2.257385    3.580445
  H      2.528359    0.745130    2.861587
  H      4.254125    1.119457    2.849816
  H      0.581116    0.737038   -2.769754
  H     -1.012736    1.403938   -2.252343
  H     -2.771364    0.343129    2.417447
  H     -1.468545   -0.554939    3.245758
  H     -1.209614    2.198996    1.922843
  H     -1.231337    1.882833    3.666050
  H      0.119228    1.307845    2.671956
  H     -3.712202   -1.620012   -1.899316
  H     -3.857651   -3.168300   -1.026062
  H     -6.068431   -2.026610   -1.171387
  H     -5.529010   -2.115531    0.513996
  H     -5.394403   -0.594973   -0.380245

 Total Charge           Charge          ....    0
 Multiplicity           Mult            ....    1
 Number of Electrons    NEL             ....  202
 Basis Dimension        Dim             ....  539

ORBITAL ENERGIES
----------------

  NO   OCC          E(Eh)            E(eV)
   0   2.0000     -88.578641     -2410.3474
   1   2.0000     -88.572153     -2410.1708
   2   2.0000     -88.524203     -2408.8660
   3   2.0000     -88.518863     -2408.7207
   4   2.0000     -76.917446     -2093.0301
   5   2.0000     -76.914046     -2092.9376
   6   2.0000     -18.994185      -516.8580
   7   2.0000     -18.992782      -516.8199
   8   2.0000     -18.992574      -516.8142
   9   2.0000     -18.986888      -516.6595
  10   2.0000     -10.109079      -275.0820
  11   2.0000     -10.106000      -274.9982
  12   2.0000     -10.103496      -274.9301
  13   2.0000     -10.102580      -274.9052
  14   2.0000     -10.089970      -274.5620
  15   2.0000     -10.036351      -273.1030
  16   2.0000     -10.029846      -272.9260
  17   2.0000     -10.028375      -272.8860
  18   2.0000     -10.026482      -272.8344
  19   2.0000      -7.872909      -214.2327
  20   2.0000      -7.866637      -214.0621
  21   2.0000      -7.819052      -212.7672
  22   2.0000      -7.813746      -212.6228
  23   2.0000      -6.595836      -179.4818
  24   2.0000      -6.592112      -179.3805
  25   2.0000      -5.819770      -158.3640
  26   2.0000      -5.816720      -158.2810
  27   2.0000      -5.813525      -158.1940
  28   2.0000      -5.810524      -158.1124
  29   2.0000      -5.810107      -158.1010
  30   2.0000      -5.803665      -157.9257
  31   2.0000      -5.766676      -156.9192
  32   2.0000      -5.761528      -156.7791
  33   2.0000      -5.759410      -156.7215
  34   2.0000      -5.758996      -156.7103
  35   2.0000      -5.754054      -156.5758
  36   2.0000      -5.753554      -156.5622
  37   2.0000      -4.741320      -129.0179
  38   2.0000      -4.740737      -129.0020
  39   2.0000      -4.739627      -128.9718
  40   2.0000      -4.737892      -128.9246
  41   2.0000      -4.736892      -128.8974
  42   2.0000      -4.735782      -128.8672
  43   2.0000      -1.052132       -28.6300
  44   2.0000      -1.047818       -28.5126
  45   2.0000      -1.012094       -27.5405
  46   2.0000      -1.008412       -27.4403
  47   2.0000      -0.803424       -21.8623
  48   2.0000      -0.761547       -20.7227
  49   2.0000      -0.753369       -20.5002
  50   2.0000      -0.734274       -19.9806
  51   2.0000      -0.732498       -19.9323
  52   2.0000      -0.709301       -19.3011
  53   2.0000      -0.686628       -18.6841
  54   2.0000      -0.672031       -18.2869
  55   2.0000      -0.629050       -17.1173
  56   2.0000      -0.624004       -16.9800
  57   2.0000      -0.609720       -16.5913
  58   2.0000      -0.605812       -16.4850
  59   2.0000      -0.593514       -16.1503
  60   2.0000      -0.535325       -14.5669
  61   2.0000      -0.523191       -14.2367
  62   2.0000      -0.501538       -13.6475
  63   2.0000      -0.498177       -13.5561
  64   2.0000      -0.473041       -12.8721
  65   2.0000      -0.466459       -12.6930
  66   2.0000      -0.461940       -12.5700
  67   2.0000      -0.453314       -12.3353
  68   2.0000      -0.445471       -12.1219
  69   2.0000      -0.429415       -11.6850
  70   2.0000      -0.422262       -11.4903
  71   2.0000      -0.419110       -11.4046
  72   2.0000      -0.408178       -11.1071
  73   2.0000      -0.403384       -10.9766
  74   2.0000      -0.398172       -10.8348
  75   2.0000      -0.390477       -10.6254
  76   2.0000      -0.384125       -10.4526
  77   2.0000      -0.377074       -10.2607
  78   2.0000      -0.371547       -10.1103
  79   2.0000      -0.366208        -9.9650
  80   2.0000      -0.365369        -9.9422
  81   2.0000      -0.364078        -9.9071
  82   2.0000      -0.360482        -9.8092
  83   2.0000      -0.356961        -9.7134
  84   2.0000      -0.348170        -9.4742
  85   2.0000      -0.332049        -9.0355
  86   2.0000      -0.324653        -8.8343
  87   2.0000      -0.315994        -8.5986
  88   2.0000      -0.313084        -8.5195
  89   2.0000      -0.307607        -8.3704
  90   2.0000      -0.300275        -8.1709
  91   2.0000      -0.297137        -8.0855
  92   2.0000      -0.290151        -7.8954
  93   2.0000      -0.281459        -7.6589
  94   2.0000      -0.269779        -7.3411
  95   2.0000      -0.247843        -6.7442
  96   2.0000      -0.229304        -6.2397
  97   2.0000      -0.227573        -6.1926
  98   2.0000      -0.221005        -6.0139
  99   2.0000      -0.214621        -5.8401
 100   2.0000      -0.211381        -5.7520
 101   0.0000      -0.049439        -1.3453
 102   0.0000      -0.028185        -0.7669
 103   0.0000      -0.005049        -0.1374
 104   0.0000       0.004472         0.1217
 105   0.0000       0.006056         0.1648

MULLIKEN ATOMIC CHARGES
-----------------------
   0 C :   -0.481770
   1 C :   -0.124812
   2 O :   -0.242642
   3 P :    0.664141
   4 S :   -0.454087
   5 O :   -0.287991
   6 C :   -0.142480
   7 C :   -0.435243
   8 S :   -0.162041
   9 C :   -0.235039
  10 S :   -0.134317
  11 P :    0.662606
  12 S :   -0.472912
  13 O :   -0.258685
  14 C :   -0.118348
  15 C :   -0.469085
  16 O :   -0.296439
  17 C :   -0.125973
  18 C :   -0.454372
  19 H :    0.164613
  20 H :    0.147649
  21 H :    0.146223
  22 H :    0.165081
  23 H :    0.177479
  24 H :    0.158561
  25 H :    0.150769
  26 H :    0.149913
  27 H :    0.160719
  28 H :    0.157318
  29 H :    0.212493
  30 H :    0.211290
  31 H :    0.158705
  32 H :    0.149287
  33 H :    0.184227
  34 H :    0.144474
  35 H :    0.149574
  36 H :    0.153534
  37 H :    0.150442
  38 H :    0.145697
  39 H :    0.150909
  40 H :    0.180532
Sum of atomic charges:    0.0000000

LOEWDIN ATOMIC CHARGES
----------------------
   0 C :   -0.392052
   1 C :    0.002794
   2 O :   -0.676477
   3 P :    0.390628
   4 S :   -0.099944
   5 O :   -0.652029
   6 C :    0.026412
   7 C :   -0.399220
   8 S :    0.137322
   9 C :   -0.421181
  10 S :    0.172117
  11 P :    0.375435
  12 S :   -0.127041
  13 O :   -0.670528
  14 C :    0.027803
  15 C :   -0.403898
  16 O :   -0.662718
  17 C :    0.021557
  18 C :   -0.400605
  19 H :    0.162767
  20 H :    0.155838
  21 H :    0.159160
  22 H :    0.180513
  23 H :    0.183771
  24 H :    0.183626
  25 H :    0.175024
  26 H :    0.159700
  27 H :    0.166025
  28 H :    0.163172
  29 H :    0.191097
  30 H :    0.190632
  31 H :    0.178227
  32 H :    0.177457
  33 H :    0.168837
  34 H :    0.157388
  35 H :    0.159015
  36 H :    0.176322
  37 H :    0.178290
  38 H :    0.158562
  39 H :    0.157920
  40 H :    0.168283

  Mayer bond orders larger than 0.100000
B(  0-C ,  1-C ) :   0.9390 B(  0-C , 19-H ) :   0.9730 B(  0-C , 20-H ) :   0.9786
B(  0-C , 21-H ) :   0.9666 B(  1-C ,  2-O ) :   0.7277 B(  1-C , 22-H ) :   0.9538
B(  1-C , 23-H ) :   0.9496 B(  2-O ,  3-P ) :   1.0420 B(  3-P ,  4-S ) :   1.8337
B(  3-P ,  5-O ) :   1.1811 B(  3-P ,  8-S ) :   0.9954 B(  5-O ,  6-C ) :   0.7666
B(  6-C ,  7-C ) :   0.9441 B(  6-C , 24-H ) :   0.9632 B(  6-C , 25-H ) :   0.9634
B(  7-C , 26-H ) :   0.9666 B(  7-C , 27-H ) :   0.9606 B(  7-C , 28-H ) :   0.9662
B(  8-S ,  9-C ) :   0.9076 B(  9-C , 10-S ) :   0.8859 B(  9-C , 29-H ) :   0.9096
B(  9-C , 30-H ) :   0.9113 B( 10-S , 11-P ) :   1.0977 B( 11-P , 12-S ) :   1.7521
B( 11-P , 13-O ) :   1.1606 B( 11-P , 16-O ) :   1.0668 B( 13-O , 14-C ) :   0.7574
B( 14-C , 15-C ) :   0.9469 B( 14-C , 31-H ) :   0.9659 B( 14-C , 32-H ) :   0.9602
B( 15-C , 33-H ) :   0.9614 B( 15-C , 34-H ) :   0.9628 B( 15-C , 35-H ) :   0.9673
B( 16-O , 17-C ) :   0.7728 B( 17-C , 18-C ) :   0.9571 B( 17-C , 36-H ) :   0.9623
B( 17-C , 37-H ) :   0.9632 B( 18-C , 38-H ) :   0.9647 B( 18-C , 39-H ) :   0.9751
B( 18-C , 40-H ) :   0.9581

Dispersion correction           -0.022185053
FINAL SINGLE POINT ENERGY     -2932.461341611733

DIPOLE MOMENT
-------------

Method             : SCF
Type of density    : Electron Density
Multiplicity       :   1
Irrep              :   0
Energy             : -2932.4856612905464317 Eh
Relativity type    :
Basis              : AO
                                X                 Y                 Z
Electronic contribution:      3.451301551       5.045585744     -19.872951810
Nuclear contribution   :     -4.076697078      -5.496536554      21.436944347
                        -----------------------------------------
Total Dipole Moment    :     -0.625395527      -0.450950809       1.563992537
                        -----------------------------------------
Magnitude (a.u.)       :      1.743716965
Magnitude (Debye)      :      4.432176295

Rotational constants in cm-1:             0.012245             0.005338             0.005011
Rotational constants in MHz :           367.081815           160.017266           150.239723

                             ****ORCA TERMINATED NORMALLY****
TOTAL RUN TIME: 0 days 0 hours 1 minutes 26 seconds 917 msec
