                         Program Version 6.0.0  -   RELEASE  -
|  1> ! r2scan-3c def2/J RI DEFGRID2 scfconv6 printgap
|  2> %output
|  3>     printlevel normal
|  4> end
|  5> %cpcm
|  6>     smd true
|  7>     smdsolvent "water"
|  8> end
|  9> * xyz 0 1
| 10> C 2.7711627474 -2.7803606238 1.4113080239
| 11> C 1.7159332158 -2.0205423313 0.632090157
| 12> O 1.9201317724 -0.6101504142 0.8110485347
| 13> P 2.3118790024 0.4168806185 -0.3453520488
| 14> S 3.0070333206 -0.3910280437 -1.980747758
| 15> O 3.3606015883 1.3780895798 0.3313232323
| 16> C 3.0998616117 2.2628213801 1.4485140199
| 17> C 3.2576787467 1.5461320756 2.7737782835
| 18> S 0.6021893476 1.6824654745 -0.5583021032
| 19> C -0.1411979939 0.8197956776 -1.9581770157
| 20> S -0.6493028585 -0.8746780082 -1.5535517537
| 21> P -2.0941562522 -0.3717947065 -0.0960215327
| 22> S -3.1282346298 1.2673004633 -0.408966647
| 23> O -1.2475241846 -0.4461663979 1.2373377969
| 24> C -1.6920404979 0.1769561813 2.4680609371
| 25> C -0.9533284244 1.4794995628 2.6978292434
| 26> O -2.9426237944 -1.712035982 0.0300832062
| 27> C -3.9465889015 -2.084115042 -0.9372565565
| 28> C -5.3272783487 -1.6778303417 -0.4595637869
| 29> H 3.7583554781 -2.5475802586 1.0184263553
| 30> H 2.7346702383 -2.5070549041 2.461945083
| 31> H 2.5897429128 -3.845391149 1.3093848598
| 32> H 0.7085320025 -2.2335823806 0.997914322
| 33> H 1.7727215889 -2.2610648064 -0.4348278799
| 34> H 3.8422757091 3.0543060391 1.3324672685
| 35> H 2.0964021194 2.6830542748 1.3363012917
| 36> H 3.1093507342 2.2573854263 3.580445217
| 37> H 2.5283585024 0.7451300995 2.8615869948
| 38> H 4.2541247127 1.119456731 2.8498163456
| 39> H 0.5811159744 0.7370381519 -2.7697543164
| 40> H -1.0127363994 1.4039379113 -2.2523425436
| 41> H -2.7713637432 0.3431286725 2.4174467988
| 42> H -1.4685450659 -0.5549387803 3.2457581185
| 43> H -1.2096144353 2.1989963458 1.9228433527
| 44> H -1.2313374266 1.882833372 3.6660500765
| 45> H 0.1192279708 1.3078453676 2.6719555139
| 46> H -3.71220164 -1.6200120756 -1.8993161767
| 47> H -3.8576513074 -3.1682997698 -1.0260617511
| 48> H -6.0684308878 -2.0266101599 -1.1713865812
| 49> H -5.5290095103 -2.115530929 0.5139961605
| 50> H -5.3944031654 -0.5949732375 -0.3802451697
| 51> *
| 52>
| 53>                          ****END OF INPUT****

CARTESIAN COORDINATES (ANGSTROEM)
---------------------------------
  C      2.771163   -2.780361    1.411308
  C      1.715933   -2.020542    0.632090
  O      1.920132   -0.610150    0.811049
  P      2.311879    0.416881   -0.345352
  S      3.007033   -0.391028   -1.980748
  O      3.360602    1.378090    0.331323
  C      3.099862    2.262821    1.448514
  C      3.257679    1.546132    2.773778
  S      0.602189    1.682465   -0.558302
  C     -0.141198    0.819796   -1.958177
  S     -0.649303   -0.874678   -1.553552
  P     -2.094156   -0.371795   -0.096022
  S     -3.128235    1.267300   -0.408967
  O     -1.247524   -0.446166    1.237338
  C     -1.692040    0.176956    2.468061
  C     -0.953328    1.479500    2.697829
  O     -2.942624   -1.712036    0.030083
  C     -3.946589   -2.084115   -0.937257
  C     -5.327278   -1.677830   -0.459564
  H      3.758355   -2.547580    1.018426
  H      2.734670   -2.507055    2.461945
  H      2.589743   -3.845391    1.309385
  H      0.708532   -2.233582    0.997914
  H      1.772722   -2.261065   -0.434828
  H      3.842276    3.054306    1.332467
  H      2.096402    2.683054    1.336301
  H      3.109351    2.257385    3.580445
  H      2.528359    0.745130    2.861587
  H      4.254125    1.119457    2.849816
  H      0.581116    0.737038   -2.769754
  H     -1.012736    1.403938   -2.252343
  H     -2.771364    0.343129    2.417447
  H     -1.468545   -0.554939    3.245758
  H     -1.209614    2.198996    1.922843
  H     -1.231337    1.882833    3.666050
  H      0.119228    1.307845    2.671956
  H     -3.712202   -1.620012   -1.899316
  H     -3.857651   -3.168300   -1.026062
  H     -6.068431   -2.026610   -1.171387
  H     -5.529010   -2.115531    0.513996
  H     -5.394403   -0.594973   -0.380245

 Total Charge           Charge          ....    0
 Multiplicity           Mult            ....    1
 Number of Electrons    NEL             ....  202
 Basis Dimension        Dim             ....  539

ORBITAL ENERGIES
----------------

  NO   OCC          E(Eh)            E(eV)
   0   2.0000     -88.580659     -2410.4023
   1   2.0000     -88.576372     -2410.2856
   2   2.0000     -88.530287     -2409.0316
   3   2.0000     -88.528036     -2408.9703
   4   2.0000     -76.921393     -2093.1375
   5   2.0000     -76.919652     -2093.0901
   6   2.0000     -18.996314      -516.9160
   7   2.0000     -18.994069      -516.8549
   8   2.0000     -18.991890      -516.7956
   9   2.0000     -18.991385      -516.7819
  10   2.0000     -10.104991      -274.9708
  11   2.0000     -10.096183      -274.7311
  12   2.0000     -10.090873      -274.5866
  13   2.0000     -10.090421      -274.5743
  14   2.0000     -10.086234      -274.4604
  15   2.0000     -10.019244      -272.6375
  16   2.0000     -10.017050      -272.5778
  17   2.0000     -10.016740      -272.5694
  18   2.0000     -10.015939      -272.5476
  19   2.0000      -7.874995      -214.2895
  20   2.0000      -7.870794      -214.1752
  21   2.0000      -7.825532      -212.9436
  22   2.0000      -7.823147      -212.8787
  23   2.0000      -6.599510      -179.5818
  24   2.0000      -6.598045      -179.5419
  25   2.0000      -5.821835      -158.4202
  26   2.0000      -5.818801      -158.3376
  27   2.0000      -5.817667      -158.3068
  28   2.0000      -5.814662      -158.2250
  29   2.0000      -5.812213      -158.1583
  30   2.0000      -5.807872      -158.0402
  31   2.0000      -5.773197      -157.0967
  32   2.0000      -5.770727      -157.0295
  33   2.0000      -5.765822      -156.8960
  34   2.0000      -5.765405      -156.8847
  35   2.0000      -5.763497      -156.8327
  36   2.0000      -5.763095      -156.8218
  37   2.0000      -4.745254      -129.1249
  38   2.0000      -4.744267      -129.0981
  39   2.0000      -4.743477      -129.0766
  40   2.0000      -4.743280      -129.0712
  41   2.0000      -4.742950      -129.0622
  42   2.0000      -4.741916      -129.0341
  43   2.0000      -1.051824       -28.6216
  44   2.0000      -1.051028       -28.5999
  45   2.0000      -1.011978       -27.5373
  46   2.0000      -1.010411       -27.4947
  47   2.0000      -0.804960       -21.9041
  48   2.0000      -0.757284       -20.6067
  49   2.0000      -0.745471       -20.2853
  50   2.0000      -0.726369       -19.7655
  51   2.0000      -0.721509       -19.6333
  52   2.0000      -0.707769       -19.2594
  53   2.0000      -0.689178       -18.7535
  54   2.0000      -0.676841       -18.4178
  55   2.0000      -0.626349       -17.0438
  56   2.0000      -0.618986       -16.8435
  57   2.0000      -0.602488       -16.3945
  58   2.0000      -0.598133       -16.2760
  59   2.0000      -0.589806       -16.0494
  60   2.0000      -0.530276       -14.4295
  61   2.0000      -0.519292       -14.1307
  62   2.0000      -0.498392       -13.5619
  63   2.0000      -0.492243       -13.3946
  64   2.0000      -0.472402       -12.8547
  65   2.0000      -0.460946       -12.5430
  66   2.0000      -0.455736       -12.4012
  67   2.0000      -0.447223       -12.1695
  68   2.0000      -0.439360       -11.9556
  69   2.0000      -0.427258       -11.6263
  70   2.0000      -0.418087       -11.3767
  71   2.0000      -0.414146       -11.2695
  72   2.0000      -0.403729       -10.9860
  73   2.0000      -0.400884       -10.9086
  74   2.0000      -0.392586       -10.6828
  75   2.0000      -0.385318       -10.4850
  76   2.0000      -0.380036       -10.3413
  77   2.0000      -0.371122       -10.0987
  78   2.0000      -0.363064        -9.8795
  79   2.0000      -0.358920        -9.7667
  80   2.0000      -0.355903        -9.6846
  81   2.0000      -0.355070        -9.6620
  82   2.0000      -0.352127        -9.5819
  83   2.0000      -0.349100        -9.4995
  84   2.0000      -0.342478        -9.3193
  85   2.0000      -0.330416        -8.9911
  86   2.0000      -0.318969        -8.6796
  87   2.0000      -0.308158        -8.3854
  88   2.0000      -0.307631        -8.3711
  89   2.0000      -0.302284        -8.2256
  90   2.0000      -0.299284        -8.1439
  91   2.0000      -0.293693        -7.9918
  92   2.0000      -0.289383        -7.8745
  93   2.0000      -0.280518        -7.6333
  94   2.0000      -0.271697        -7.3932
  95   2.0000      -0.249849        -6.7987
  96   2.0000      -0.238054        -6.4778
  97   2.0000      -0.234768        -6.3883
  98   2.0000      -0.226824        -6.1722
  99   2.0000      -0.222766        -6.0618
 100   2.0000      -0.218644        -5.9496
 101   0.0000      -0.053312        -1.4507
 102   0.0000      -0.033557        -0.9131
 103   0.0000      -0.006600        -0.1796
 104   0.0000       0.000338         0.0092
 105   0.0000       0.006364         0.1732

MULLIKEN ATOMIC CHARGES
-----------------------
   0 C :   -0.522823
   1 C :   -0.099818
   2 O :   -0.268720
   3 P :    0.676098
   4 S :   -0.507685
   5 O :   -0.326611
   6 C :   -0.119738
   7 C :   -0.478874
   8 S :   -0.171586
   9 C :   -0.246441
  10 S :   -0.146328
  11 P :    0.697424
  12 S :   -0.513931
  13 O :   -0.285296
  14 C :   -0.123206
  15 C :   -0.494826
  16 O :   -0.324410
  17 C :   -0.123891
  18 C :   -0.491655
  19 H :    0.166754
  20 H :    0.166873
  21 H :    0.168953
  22 H :    0.176323
  23 H :    0.174850
  24 H :    0.181217
  25 H :    0.161748
  26 H :    0.173537
  27 H :    0.168686
  28 H :    0.168210
  29 H :    0.231184
  30 H :    0.233723
  31 H :    0.170139
  32 H :    0.175825
  33 H :    0.172309
  34 H :    0.168391
  35 H :    0.165830
  36 H :    0.164419
  37 H :    0.176280
  38 H :    0.169557
  39 H :    0.166453
  40 H :    0.171057
Sum of atomic charges:    0.0000000

LOEWDIN ATOMIC CHARGES
----------------------
   0 C :   -0.395384
   1 C :    0.007405
   2 O :   -0.683810
   3 P :    0.390278
   4 S :   -0.141247
   5 O :   -0.673846
   6 C :    0.034875
   7 C :   -0.400052
   8 S :    0.137324
   9 C :   -0.416629
  10 S :    0.166483
  11 P :    0.380991
  12 S :   -0.152339
  13 O :   -0.682683
  14 C :    0.032334
  15 C :   -0.405740
  16 O :   -0.674800
  17 C :    0.026258
  18 C :   -0.404918
  19 H :    0.162009
  20 H :    0.162326
  21 H :    0.167598
  22 H :    0.185418
  23 H :    0.182815
  24 H :    0.193309
  25 H :    0.181241
  26 H :    0.169889
  27 H :    0.166922
  28 H :    0.164800
  29 H :    0.196304
  30 H :    0.197615
  31 H :    0.181809
  32 H :    0.188721
  33 H :    0.163013
  34 H :    0.166174
  35 H :    0.164008
  36 H :    0.180072
  37 H :    0.189225
  38 H :    0.167390
  39 H :    0.162326
  40 H :    0.162518

  Mayer bond orders larger than 0.100000
B(  0-C ,  1-C ) :   0.9376 B(  0-C , 19-H ) :   0.9719 B(  0-C , 20-H ) :   0.9736
B(  0-C , 21-H ) :   0.9608 B(  1-C ,  2-O ) :   0.7178 B(  1-C , 22-H ) :   0.9444
B(  1-C , 23-H ) :   0.9482 B(  2-O ,  3-P ) :   1.0445 B(  3-P ,  4-S ) :   1.8134
B(  3-P ,  5-O ) :   1.1867 B(  3-P ,  8-S ) :   1.0127 B(  5-O ,  6-C ) :   0.7596
B(  6-C ,  7-C ) :   0.9324 B(  6-C , 24-H ) :   0.9532 B(  6-C , 25-H ) :   0.9523
B(  7-C , 26-H ) :   0.9596 B(  7-C , 27-H ) :   0.9595 B(  7-C , 28-H ) :   0.9661
B(  8-S ,  9-C ) :   0.8938 B(  9-C , 10-S ) :   0.8788 B(  9-C , 29-H ) :   0.9047
B(  9-C , 30-H ) :   0.9048 B( 10-S , 11-P ) :   1.1029 B( 11-P , 12-S ) :   1.7193
B( 11-P , 13-O ) :   1.1694 B( 11-P , 16-O ) :   1.0716 B( 13-O , 14-C ) :   0.7430
B( 14-C , 15-C ) :   0.9348 B( 14-C , 31-H ) :   0.9627 B( 14-C , 32-H ) :   0.9496
B( 15-C , 33-H ) :   0.9647 B( 15-C , 34-H ) :   0.9588 B( 15-C , 35-H ) :   0.9638
B( 16-O , 17-C ) :   0.7599 B( 17-C , 18-C ) :   0.9471 B( 17-C , 36-H ) :   0.9562
B( 17-C , 37-H ) :   0.9531 B( 18-C , 38-H ) :   0.9598 B( 18-C , 39-H ) :   0.9719
B( 18-C , 40-H ) :   0.9623

Dispersion correction           -0.022185053
FINAL SINGLE POINT ENERGY     -2932.470723840991

DIPOLE MOMENT
-------------

Method             : SCF
Type of density    : Electron Density
Multiplicity       :   1
Irrep              :   0
Energy             : -2932.4950435198043124 Eh
Relativity type    :
Basis              : AO
                                X                 Y                 Z
Electronic contribution:      3.123316125       4.921965010     -19.348100853
Nuclear contribution   :     -4.076697078      -5.496536554      21.436944347
                        -----------------------------------------
Total Dipole Moment    :     -0.953380952      -0.574571544       2.088843495
                        -----------------------------------------
Magnitude (a.u.)       :      2.366925188
Magnitude (Debye)      :      6.016245708

Rotational constants in cm-1:             0.012245             0.005338             0.005011
Rotational constants in MHz :           367.081815           160.017266           150.239723

                             ****ORCA TERMINATED NORMALLY****
TOTAL RUN TIME: 0 days 0 hours 1 minutes 53 seconds 80 msec
