                         Program Version 6.0.1  -  RELEASE   -
|  1> ! pbe def2-sv(p) def2/J RI DEFGRID1 loosescf d4 GCP(DFT/SV(P)) printgap
|  2> %output
|  3>     printlevel normal
|  4> end
|  5> * xyz 0 1
|  6> C 3.3268922024 -3.8647157705 0.1887721204
|  7> C 3.7925120756 -2.8965919388 -0.8867067297
|  8> O 2.6666578679 -2.286111305 -1.5522882231
|  9> C 2.1322600448 -1.2076451288 -1.0302945467
| 10> O 2.5380353743 -0.6474474076 -0.0301501305
| 11> C 0.9194790572 -0.7498974174 -1.8067761868
| 12> C 0.5438938844 0.691417004 -1.4582922109
| 13> H 1.0272267054 1.4121916313 -2.1176015431
| 14> C 0.8530145447 1.0488485782 -0.0185315328
| 15> O 0.1844761329 0.585731436 0.8959317521
| 16> O 1.7487705232 1.979031203 0.1073449408
| 17> C 2.095020827 2.4143617472 1.4407057332
| 18> C 2.853469144 3.7208709415 1.3236628989
| 19> S -1.2569460643 0.9508841272 -1.6167323942
| 20> P -2.0482916644 0.1864867387 0.2073022327
| 21> S -2.4308973798 1.2288100927 1.8346041281
| 22> O -3.4180061498 -0.0544911386 -0.6100539298
| 23> C -4.641977156 -0.4231369412 0.0260477515
| 24> O -1.6252500625 -1.3497850339 0.4297240125
| 25> C -0.9232882567 -1.8421048092 1.5677538202
| 26> H 2.8044452675 -3.3287199488 0.9785458006
| 27> H 2.657916367 -4.6063964354 -0.2386373429
| 28> H 4.1886674281 -4.3654120428 0.6173028072
| 29> H 4.3272139091 -3.4138300239 -1.6829759338
| 30> H 4.414345786 -2.106675644 -0.4567649304
| 31> H 0.1023319763 -1.425902978 -1.5353716184
| 32> H 1.0915862856 -0.8612016055 -2.8760718971
| 33> H 1.1723260881 2.519721934 2.0206463224
| 34> H 2.7048382676 1.6251176802 1.8900282903
| 35> H 2.2265026142 4.4779371033 0.8620637752
| 36> H 3.1432010636 4.0533379308 2.3147348665
| 37> H 3.7422325178 3.5797029562 0.7165205239
| 38> H -5.4315979855 -0.1611934901 -0.6739602016
| 39> H -4.7631953981 0.1299824029 0.9604856507
| 40> H -4.6464857616 -1.494014521 0.2271379687
| 41> H -1.1443369805 -1.2269359222 2.4415592966
| 42> H 0.1502896509 -1.8197346171 1.3821493717
| 43> H -1.2717318056 -2.8617522996 1.7151130535
| 44> *
| 45>
| 46>                          ****END OF INPUT****

CARTESIAN COORDINATES (ANGSTROEM)
---------------------------------
  C      3.326892   -3.864716    0.188772
  C      3.792512   -2.896592   -0.886707
  O      2.666658   -2.286111   -1.552288
  C      2.132260   -1.207645   -1.030295
  O      2.538035   -0.647447   -0.030150
  C      0.919479   -0.749897   -1.806776
  C      0.543894    0.691417   -1.458292
  H      1.027227    1.412192   -2.117602
  C      0.853015    1.048849   -0.018532
  O      0.184476    0.585731    0.895932
  O      1.748771    1.979031    0.107345
  C      2.095021    2.414362    1.440706
  C      2.853469    3.720871    1.323663
  S     -1.256946    0.950884   -1.616732
  P     -2.048292    0.186487    0.207302
  S     -2.430897    1.228810    1.834604
  O     -3.418006   -0.054491   -0.610054
  C     -4.641977   -0.423137    0.026048
  O     -1.625250   -1.349785    0.429724
  C     -0.923288   -1.842105    1.567754
  H      2.804445   -3.328720    0.978546
  H      2.657916   -4.606396   -0.238637
  H      4.188667   -4.365412    0.617303
  H      4.327214   -3.413830   -1.682976
  H      4.414346   -2.106676   -0.456765
  H      0.102332   -1.425903   -1.535372
  H      1.091586   -0.861202   -2.876072
  H      1.172326    2.519722    2.020646
  H      2.704838    1.625118    1.890028
  H      2.226503    4.477937    0.862064
  H      3.143201    4.053338    2.314735
  H      3.742233    3.579703    0.716521
  H     -5.431598   -0.161193   -0.673960
  H     -4.763195    0.129982    0.960486
  H     -4.646486   -1.494015    0.227138
  H     -1.144337   -1.226936    2.441559
  H      0.150290   -1.819735    1.382149
  H     -1.271732   -2.861752    1.715113

 Total Charge           Charge          ....    0
 Multiplicity           Mult            ....    1
 Number of Electrons    NEL             ....  174
 Basis Dimension        Dim             ....  316

ORBITAL ENERGIES
----------------

  NO   OCC          E(Eh)            E(eV)
   0   2.0000     -88.030763     -2395.4388
   1   2.0000     -87.958195     -2393.4642
   2   2.0000     -76.410743     -2079.2420
   3   2.0000     -18.822339      -512.1819
   4   2.0000     -18.812690      -511.9193
   5   2.0000     -18.777388      -510.9587
   6   2.0000     -18.762531      -510.5544
   7   2.0000     -18.761565      -510.5281
   8   2.0000     -18.753390      -510.3057
   9   2.0000     -10.030887      -272.9543
  10   2.0000     -10.024797      -272.7886
  11   2.0000      -9.963778      -271.1282
  12   2.0000      -9.948605      -270.7153
  13   2.0000      -9.948352      -270.7084
  14   2.0000      -9.928996      -270.1817
  15   2.0000      -9.922089      -269.9938
  16   2.0000      -9.920559      -269.9521
  17   2.0000      -9.900374      -269.4029
  18   2.0000      -9.889379      -269.1037
  19   2.0000      -7.675606      -208.8638
  20   2.0000      -7.603425      -206.8997
  21   2.0000      -6.405975      -174.3154
  22   2.0000      -5.704147      -155.2177
  23   2.0000      -5.699976      -155.1042
  24   2.0000      -5.692080      -154.8894
  25   2.0000      -5.632680      -153.2730
  26   2.0000      -5.624258      -153.0438
  27   2.0000      -5.623017      -153.0101
  28   2.0000      -4.628918      -125.9593
  29   2.0000      -4.628025      -125.9350
  30   2.0000      -4.626338      -125.8891
  31   2.0000      -1.032723       -28.1018
  32   2.0000      -1.024218       -27.8704
  33   2.0000      -0.961753       -26.1706
  34   2.0000      -0.939271       -25.5589
  35   2.0000      -0.930489       -25.3199
  36   2.0000      -0.918092       -24.9825
  37   2.0000      -0.765884       -20.8408
  38   2.0000      -0.725595       -19.7444
  39   2.0000      -0.710231       -19.3264
  40   2.0000      -0.688198       -18.7268
  41   2.0000      -0.656244       -17.8573
  42   2.0000      -0.621240       -16.9048
  43   2.0000      -0.609095       -16.5743
  44   2.0000      -0.607145       -16.5213
  45   2.0000      -0.605860       -16.4863
  46   2.0000      -0.557733       -15.1767
  47   2.0000      -0.516456       -14.0535
  48   2.0000      -0.512939       -13.9578
  49   2.0000      -0.499741       -13.5986
  50   2.0000      -0.486203       -13.2303
  51   2.0000      -0.468031       -12.7358
  52   2.0000      -0.460324       -12.5261
  53   2.0000      -0.455237       -12.3876
  54   2.0000      -0.444503       -12.0955
  55   2.0000      -0.439345       -11.9552
  56   2.0000      -0.434756       -11.8303
  57   2.0000      -0.414511       -11.2794
  58   2.0000      -0.411790       -11.2054
  59   2.0000      -0.406458       -11.0603
  60   2.0000      -0.402429       -10.9506
  61   2.0000      -0.394970       -10.7477
  62   2.0000      -0.385978       -10.5030
  63   2.0000      -0.384105       -10.4520
  64   2.0000      -0.379263       -10.3203
  65   2.0000      -0.368940       -10.0394
  66   2.0000      -0.362079        -9.8527
  67   2.0000      -0.360040        -9.7972
  68   2.0000      -0.354098        -9.6355
  69   2.0000      -0.346565        -9.4305
  70   2.0000      -0.339559        -9.2399
  71   2.0000      -0.328040        -8.9264
  72   2.0000      -0.322454        -8.7744
  73   2.0000      -0.313166        -8.5217
  74   2.0000      -0.310320        -8.4442
  75   2.0000      -0.294439        -8.0121
  76   2.0000      -0.288183        -7.8419
  77   2.0000      -0.283041        -7.7019
  78   2.0000      -0.267922        -7.2905
  79   2.0000      -0.263992        -7.1836
  80   2.0000      -0.254497        -6.9252
  81   2.0000      -0.251455        -6.8424
  82   2.0000      -0.245716        -6.6863
  83   2.0000      -0.235738        -6.4148
  84   2.0000      -0.211432        -5.7534
  85   2.0000      -0.178949        -4.8695
  86   2.0000      -0.170318        -4.6346
  87   0.0000      -0.050589        -1.3766
  88   0.0000      -0.043175        -1.1749
  89   0.0000      -0.015728        -0.4280
  90   0.0000       0.011102         0.3021
  91   0.0000       0.028014         0.7623

MULLIKEN ATOMIC CHARGES
-----------------------
   0 C :   -0.312805
   1 C :   -0.015017
   2 O :   -0.220250
   3 C :    0.131254
   4 O :   -0.210481
   5 C :   -0.065500
   6 C :   -0.294887
   7 H :    0.132042
   8 C :    0.221724
   9 O :   -0.227146
  10 O :   -0.206695
  11 C :   -0.034132
  12 C :   -0.276477
  13 S :   -0.066125
  14 P :    0.650691
  15 S :   -0.341796
  16 O :   -0.403192
  17 C :   -0.094750
  18 O :   -0.397276
  19 C :   -0.106371
  20 H :    0.133117
  21 H :    0.120488
  22 H :    0.119083
  23 H :    0.110156
  24 H :    0.112806
  25 H :    0.148223
  26 H :    0.125039
  27 H :    0.128982
  28 H :    0.111136
  29 H :    0.120407
  30 H :    0.114314
  31 H :    0.114287
  32 H :    0.114917
  33 H :    0.111961
  34 H :    0.102247
  35 H :    0.119168
  36 H :    0.119006
  37 H :    0.111853
Sum of atomic charges:    0.0000000

LOEWDIN ATOMIC CHARGES
----------------------
   0 C :   -0.355842
   1 C :   -0.108554
   2 O :   -0.049552
   3 C :    0.043018
   4 O :   -0.152872
   5 C :   -0.255834
   6 C :   -0.262942
   7 H :    0.141629
   8 C :    0.019520
   9 O :   -0.164301
  10 O :   -0.029900
  11 C :   -0.103671
  12 C :   -0.350070
  13 S :    0.125475
  14 P :    0.589145
  15 S :   -0.339776
  16 O :   -0.278005
  17 C :   -0.218775
  18 O :   -0.261064
  19 C :   -0.221079
  20 H :    0.130534
  21 H :    0.127984
  22 H :    0.134129
  23 H :    0.121560
  24 H :    0.121680
  25 H :    0.154215
  26 H :    0.147102
  27 H :    0.126788
  28 H :    0.121311
  29 H :    0.129103
  30 H :    0.132664
  31 H :    0.126248
  32 H :    0.117050
  33 H :    0.104554
  34 H :    0.107330
  35 H :    0.111427
  36 H :    0.105923
  37 H :    0.113846

  Mayer bond orders larger than 0.100000
B(  0-C ,  1-C ) :   1.1761 B(  0-C , 20-H ) :   0.9435 B(  0-C , 21-H ) :   0.9482
B(  0-C , 22-H ) :   0.9423 B(  1-C ,  2-O ) :   0.9055 B(  1-C , 23-H ) :   0.9363
B(  1-C , 24-H ) :   0.9151 B(  2-O ,  3-C ) :   1.2600 B(  3-C ,  4-O ) :   1.9318
B(  3-C ,  5-C ) :   1.0149 B(  4-O ,  8-C ) :   0.1313 B(  5-C ,  6-C ) :   0.9965
B(  5-C , 25-H ) :   0.8659 B(  5-C , 26-H ) :   0.9024 B(  6-C ,  7-H ) :   0.8827
B(  6-C ,  8-C ) :   0.9234 B(  6-C , 13-S ) :   1.0295 B(  8-C ,  9-O ) :   1.8162
B(  8-C , 10-O ) :   1.2932 B(  9-O , 14-P ) :   0.1850 B( 10-O , 11-C ) :   0.8919
B( 11-C , 12-C ) :   1.1569 B( 11-C , 27-H ) :   0.9211 B( 11-C , 28-H ) :   0.9301
B( 12-C , 29-H ) :   0.9511 B( 12-C , 30-H ) :   0.9432 B( 12-C , 31-H ) :   0.9488
B( 13-S , 14-P ) :   0.9154 B( 14-P , 15-S ) :   1.5784 B( 14-P , 16-O ) :   1.0462
B( 14-P , 18-O ) :   1.0459 B( 16-O , 17-C ) :   0.9446 B( 17-C , 32-H ) :   0.9606
B( 17-C , 33-H ) :   0.9253 B( 17-C , 34-H ) :   0.9535 B( 18-O , 19-C ) :   0.9327
B( 19-C , 35-H ) :   0.9306 B( 19-C , 36-H ) :   0.9409 B( 19-C , 37-H ) :   0.9534

Dispersion correction           -0.051443801
FINAL SINGLE POINT ENERGY     -1979.002611097981

DIPOLE MOMENT
-------------

Method             : SCF
Type of density    : Electron Density
Multiplicity       :   1
Irrep              :   0
Energy             : -1979.1361041877239586 Eh
Relativity type    :
Basis              : AO
                                X                 Y                 Z
Electronic contribution:    -15.373372539       8.294485122      -6.442990945
Nuclear contribution   :     17.443806845      -9.519281364       5.937460218
                        -----------------------------------------
Total Dipole Moment    :      2.070434305      -1.224796242      -0.505530726
                        -----------------------------------------
Magnitude (a.u.)       :      2.458126393
Magnitude (Debye)      :      6.248060749

Rotational constants in cm-1:             0.012255             0.007175             0.005724
Rotational constants in MHz :           367.395481           215.095084           171.601767

                             ****ORCA TERMINATED NORMALLY****
TOTAL RUN TIME: 0 days 0 hours 0 minutes 41 seconds 294 msec
