                         Program Version 6.0.1  -  RELEASE   -
|  1> ! pbe def2-sv(p) def2/J RI DEFGRID1 loosescf d4 GCP(DFT/SV(P)) printgap
|  2> %output
|  3>     printlevel normal
|  4> end
|  5> * xyz 0 1
|  6> C 5.4471717824 -1.1784690917 -0.8476438958
|  7> C 4.6357187741 -2.1407945683 -1.7000361157
|  8> O 3.3639675985 -2.3997765253 -1.0752318676
|  9> C 2.3132133672 -1.7092238431 -1.4651713911
| 10> O 2.3013670928 -0.9175203317 -2.3833991034
| 11> C 1.0823172384 -2.0732791809 -0.6526053058
| 12> C 0.3094973205 -0.7977382584 -0.3504009108
| 13> H 0.0476858863 -0.2900985502 -1.2908794168
| 14> C 1.1654578578 0.1852835408 0.4249652086
| 15> O 2.3755120361 0.1604304355 0.3924637909
| 16> O 0.4471613694 1.0624472614 1.0912955481
| 17> C 1.1412629876 2.1157475883 1.797444312
| 18> C 0.357097514 2.4890567169 3.0394303809
| 19> S -1.2432599556 -1.1548959871 0.5230225602
| 20> P -2.2471015861 0.6872611748 0.1430256029
| 21> S -1.5700955616 1.7850228266 -1.3313345119
| 22> O -3.762326546 0.2023268221 -0.0457473733
| 23> C -4.1666711986 -0.5412926018 -1.1995690673
| 24> O -2.375236486 1.4626141797 1.5100874324
| 25> C -2.9629225489 0.8410963526 2.6723553203
| 26> H 5.6317414607 -1.6108044097 0.1314417719
| 27> H 6.3928239945 -0.9688072684 -1.336168278
| 28> H 4.89518173 -0.2498056981 -0.7172994292
| 29> H 5.1189454997 -3.1157364384 -1.7741047495
| 30> H 4.4557754358 -1.7257719728 -2.6958735903
| 31> H 1.3939434011 -2.5766636471 0.2614810439
| 32> H 0.4594497651 -2.7461759411 -1.2435191094
| 33> H 2.1447256016 1.7516243927 2.0372248669
| 34> H 1.2219232312 2.9606687636 1.1074845703
| 35> H 0.2488706018 1.6271897067 3.691620174
| 36> H 0.8907906793 3.2725841642 3.5671354407
| 37> H -0.6263595254 2.8525424487 2.7573772919
| 38> H -3.8141824999 -0.0491820242 -2.1075137398
| 39> H -5.2532371598 -0.5547796383 -1.1736263039
| 40> H -3.7683426432 -1.5543901295 -1.1454897107
| 41> H -4.0236009002 0.6694878775 2.5020802325
| 42> H -2.8115263918 1.547338932 3.4844002379
| 43> H -2.4613482868 -0.1036619021 2.8821297191
| 44> *
| 45>
| 46>                          ****END OF INPUT****

CARTESIAN COORDINATES (ANGSTROEM)
---------------------------------
  C      5.447172   -1.178469   -0.847644
  C      4.635719   -2.140795   -1.700036
  O      3.363968   -2.399777   -1.075232
  C      2.313213   -1.709224   -1.465171
  O      2.301367   -0.917520   -2.383399
  C      1.082317   -2.073279   -0.652605
  C      0.309497   -0.797738   -0.350401
  H      0.047686   -0.290099   -1.290879
  C      1.165458    0.185284    0.424965
  O      2.375512    0.160430    0.392464
  O      0.447161    1.062447    1.091296
  C      1.141263    2.115748    1.797444
  C      0.357098    2.489057    3.039430
  S     -1.243260   -1.154896    0.523023
  P     -2.247102    0.687261    0.143026
  S     -1.570096    1.785023   -1.331335
  O     -3.762327    0.202327   -0.045747
  C     -4.166671   -0.541293   -1.199569
  O     -2.375236    1.462614    1.510087
  C     -2.962923    0.841096    2.672355
  H      5.631741   -1.610804    0.131442
  H      6.392824   -0.968807   -1.336168
  H      4.895182   -0.249806   -0.717299
  H      5.118945   -3.115736   -1.774105
  H      4.455775   -1.725772   -2.695874
  H      1.393943   -2.576664    0.261481
  H      0.459450   -2.746176   -1.243519
  H      2.144726    1.751624    2.037225
  H      1.221923    2.960669    1.107485
  H      0.248871    1.627190    3.691620
  H      0.890791    3.272584    3.567135
  H     -0.626360    2.852542    2.757377
  H     -3.814182   -0.049182   -2.107514
  H     -5.253237   -0.554780   -1.173626
  H     -3.768343   -1.554390   -1.145490
  H     -4.023601    0.669488    2.502080
  H     -2.811526    1.547339    3.484400
  H     -2.461348   -0.103662    2.882130

 Total Charge           Charge          ....    0
 Multiplicity           Mult            ....    1
 Number of Electrons    NEL             ....  174
 Basis Dimension        Dim             ....  316

ORBITAL ENERGIES
----------------

  NO   OCC          E(Eh)            E(eV)
   0   2.0000     -88.044338     -2395.8082
   1   2.0000     -87.985920     -2394.2186
   2   2.0000     -76.428303     -2079.7198
   3   2.0000     -18.812339      -511.9098
   4   2.0000     -18.799718      -511.5663
   5   2.0000     -18.795023      -511.4386
   6   2.0000     -18.792411      -511.3675
   7   2.0000     -18.744695      -510.0691
   8   2.0000     -18.727520      -509.6017
   9   2.0000     -10.018300      -272.6118
  10   2.0000     -10.003983      -272.2222
  11   2.0000      -9.955380      -270.8997
  12   2.0000      -9.949419      -270.7374
  13   2.0000      -9.946846      -270.6674
  14   2.0000      -9.944179      -270.5949
  15   2.0000      -9.938201      -270.4322
  16   2.0000      -9.909609      -269.6542
  17   2.0000      -9.889415      -269.1047
  18   2.0000      -9.875639      -268.7298
  19   2.0000      -7.688989      -209.2280
  20   2.0000      -7.631033      -207.6510
  21   2.0000      -6.425556      -174.8483
  22   2.0000      -5.716654      -155.5581
  23   2.0000      -5.713649      -155.4763
  24   2.0000      -5.706118      -155.2714
  25   2.0000      -5.660212      -154.0222
  26   2.0000      -5.651576      -153.7872
  27   2.0000      -5.651000      -153.7715
  28   2.0000      -4.648315      -126.4871
  29   2.0000      -4.647392      -126.4620
  30   2.0000      -4.645828      -126.4194
  31   2.0000      -1.019472       -27.7412
  32   2.0000      -1.000350       -27.2209
  33   2.0000      -0.992441       -27.0057
  34   2.0000      -0.947067       -25.7710
  35   2.0000      -0.925240       -25.1770
  36   2.0000      -0.905308       -24.6347
  37   2.0000      -0.766274       -20.8514
  38   2.0000      -0.710978       -19.3467
  39   2.0000      -0.706092       -19.2137
  40   2.0000      -0.692696       -18.8492
  41   2.0000      -0.659301       -17.9405
  42   2.0000      -0.641052       -17.4439
  43   2.0000      -0.624258       -16.9869
  44   2.0000      -0.615523       -16.7492
  45   2.0000      -0.589829       -16.0501
  46   2.0000      -0.557801       -15.1785
  47   2.0000      -0.520327       -14.1588
  48   2.0000      -0.509771       -13.8716
  49   2.0000      -0.492942       -13.4136
  50   2.0000      -0.479965       -13.0605
  51   2.0000      -0.472958       -12.8699
  52   2.0000      -0.464052       -12.6275
  53   2.0000      -0.444896       -12.1062
  54   2.0000      -0.439622       -11.9627
  55   2.0000      -0.437023       -11.8920
  56   2.0000      -0.425372       -11.5750
  57   2.0000      -0.420431       -11.4405
  58   2.0000      -0.416447       -11.3321
  59   2.0000      -0.409597       -11.1457
  60   2.0000      -0.406104       -11.0506
  61   2.0000      -0.402764       -10.9598
  62   2.0000      -0.381715       -10.3870
  63   2.0000      -0.379407       -10.3242
  64   2.0000      -0.376046       -10.2327
  65   2.0000      -0.363646        -9.8953
  66   2.0000      -0.356954        -9.7132
  67   2.0000      -0.349328        -9.5057
  68   2.0000      -0.344962        -9.3869
  69   2.0000      -0.342407        -9.3174
  70   2.0000      -0.332339        -9.0434
  71   2.0000      -0.323508        -8.8031
  72   2.0000      -0.318953        -8.6792
  73   2.0000      -0.315690        -8.5904
  74   2.0000      -0.314984        -8.5711
  75   2.0000      -0.301489        -8.2039
  76   2.0000      -0.296003        -8.0546
  77   2.0000      -0.283882        -7.7248
  78   2.0000      -0.274778        -7.4771
  79   2.0000      -0.268445        -7.3048
  80   2.0000      -0.262770        -7.1503
  81   2.0000      -0.250150        -6.8069
  82   2.0000      -0.247452        -6.7335
  83   2.0000      -0.216862        -5.9011
  84   2.0000      -0.214646        -5.8408
  85   2.0000      -0.205735        -5.5983
  86   2.0000      -0.200678        -5.4607
  87   0.0000      -0.045899        -1.2490
  88   0.0000      -0.028477        -0.7749
  89   0.0000      -0.010961        -0.2983
  90   0.0000       0.008761         0.2384
  91   0.0000       0.014507         0.3948

MULLIKEN ATOMIC CHARGES
-----------------------
   0 C :   -0.296236
   1 C :   -0.022073
   2 O :   -0.229586
   3 C :    0.116605
   4 O :   -0.206991
   5 C :   -0.050718
   6 C :   -0.355066
   7 H :    0.179757
   8 C :    0.236960
   9 O :   -0.189485
  10 O :   -0.225679
  11 C :   -0.023751
  12 C :   -0.298998
  13 S :   -0.107395
  14 P :    0.622667
  15 S :   -0.304857
  16 O :   -0.391414
  17 C :   -0.100069
  18 O :   -0.361857
  19 C :   -0.111550
  20 H :    0.109088
  21 H :    0.106307
  22 H :    0.137370
  23 H :    0.099231
  24 H :    0.110165
  25 H :    0.104002
  26 H :    0.119822
  27 H :    0.115541
  28 H :    0.116345
  29 H :    0.108768
  30 H :    0.111996
  31 H :    0.138310
  32 H :    0.120888
  33 H :    0.125805
  34 H :    0.113926
  35 H :    0.130375
  36 H :    0.130961
  37 H :    0.120837
Sum of atomic charges:   -0.0000000

LOEWDIN ATOMIC CHARGES
----------------------
   0 C :   -0.354365
   1 C :   -0.111253
   2 O :   -0.056313
   3 C :    0.032690
   4 O :   -0.172525
   5 C :   -0.244847
   6 C :   -0.280955
   7 H :    0.148287
   8 C :    0.032129
   9 O :   -0.146881
  10 O :   -0.053494
  11 C :   -0.103748
  12 C :   -0.355117
  13 S :    0.087492
  14 P :    0.576635
  15 S :   -0.300081
  16 O :   -0.261281
  17 C :   -0.216507
  18 O :   -0.235299
  19 C :   -0.211172
  20 H :    0.123329
  21 H :    0.126771
  22 H :    0.135561
  23 H :    0.115013
  24 H :    0.119899
  25 H :    0.134419
  26 H :    0.146593
  27 H :    0.120022
  28 H :    0.123841
  29 H :    0.123369
  30 H :    0.131036
  31 H :    0.130401
  32 H :    0.113257
  33 H :    0.122791
  34 H :    0.108302
  35 H :    0.118701
  36 H :    0.123763
  37 H :    0.109538

  Mayer bond orders larger than 0.100000
B(  0-C ,  1-C ) :   1.1771 B(  0-C , 20-H ) :   0.9504 B(  0-C , 21-H ) :   0.9441
B(  0-C , 22-H ) :   0.9406 B(  1-C ,  2-O ) :   0.9142 B(  1-C , 23-H ) :   0.9377
B(  1-C , 24-H ) :   0.9082 B(  2-O ,  3-C ) :   1.2419 B(  3-C ,  4-O ) :   2.0381
B(  3-C ,  5-C ) :   1.0026 B(  5-C ,  6-C ) :   1.0620 B(  5-C , 25-H ) :   0.9056
B(  5-C , 26-H ) :   0.8820 B(  6-C ,  7-H ) :   0.8146 B(  6-C ,  8-C ) :   0.8923
B(  6-C , 13-S ) :   1.0237 B(  8-C ,  9-O ) :   2.0233 B(  8-C , 10-O ) :   1.2572
B( 10-O , 11-C ) :   0.8925 B( 11-C , 12-C ) :   1.1682 B( 11-C , 27-H ) :   0.9166
B( 11-C , 28-H ) :   0.9314 B( 12-C , 29-H ) :   0.9507 B( 12-C , 30-H ) :   0.9409
B( 12-C , 31-H ) :   0.9354 B( 13-S , 14-P ) :   0.9436 B( 13-S , 15-S ) :   0.1164
B( 14-P , 15-S ) :   1.6498 B( 14-P , 16-O ) :   1.0655 B( 14-P , 18-O ) :   1.1182
B( 16-O , 17-C ) :   0.9317 B( 17-C , 32-H ) :   0.9358 B( 17-C , 33-H ) :   0.9585
B( 17-C , 34-H ) :   0.9461 B( 18-O , 19-C ) :   0.9156 B( 19-C , 35-H ) :   0.9479
B( 19-C , 36-H ) :   0.9551 B( 19-C , 37-H ) :   0.9369

Dispersion correction           -0.051523801
FINAL SINGLE POINT ENERGY     -1979.022272346684

DIPOLE MOMENT
-------------

Method             : SCF
Type of density    : Electron Density
Multiplicity       :   1
Irrep              :   0
Energy             : -1979.1543856135258466 Eh
Relativity type    :
Basis              : AO
                                X                 Y                 Z
Electronic contribution:    -12.197778328       0.721671290      -6.843216946
Nuclear contribution   :     11.640168555      -1.449668351       8.273326943
                        -----------------------------------------
Total Dipole Moment    :     -0.557609773      -0.727997061       1.430109997
                        -----------------------------------------
Magnitude (a.u.)       :      1.698859318
Magnitude (Debye)      :      4.318157218

Rotational constants in cm-1:             0.016178             0.005938             0.005103
Rotational constants in MHz :           485.004085           178.002685           152.976545

                             ****ORCA TERMINATED NORMALLY****
TOTAL RUN TIME: 0 days 0 hours 0 minutes 38 seconds 796 msec
