                         Program Version 6.0.0  -   RELEASE  -
|  1> ! pbe def2-sv(p) def2/J RI DEFGRID1 loosescf d4 GCP(DFT/SV(P)) printgap
|  2> %output
|  3>     printlevel normal
|  4> end
|  5> * xyz 0 1
|  6> C 4.5460250952 0.9515506695 -2.113062101
|  7> C 4.8420404987 -0.144315231 -1.1100024756
|  8> O 3.6593353468 -0.8802443645 -0.74929672
|  9> P 2.4739745262 -0.2250214525 0.0860282632
| 10> S 3.0697211325 0.9874401756 1.512656363
| 11> O 1.6743878214 -1.5058723688 0.5613400281
| 12> C 2.1860563702 -2.3386066707 1.6307907089
| 13> C 1.0143660838 -2.9969614215 2.3275346631
| 14> S 1.1357976858 0.5455485312 -1.3393325893
| 15> C 0.2099726442 1.610046557 -0.1928374197
| 16> S -0.8453028099 0.700738719 0.9622786635
| 17> P -2.3943049553 0.1884581393 -0.4287563773
| 18> S -1.9808201521 -1.0686353436 -1.8664401863
| 19> O -2.855715225 1.589578875 -0.9907249998
| 20> C -3.4138132231 2.6460739964 -0.1664240906
| 21> C -4.9276927056 2.5990253863 -0.1873383529
| 22> O -3.593105098 -0.2381025164 0.5240671313
| 23> C -3.7871956422 -1.5988534576 0.9478085073
| 24> C -2.6420257254 -2.0877215476 1.8089242438
| 25> H 5.4778922649 1.4004831437 -2.4413852785
| 26> H 4.0168688098 0.5453854413 -2.9717323589
| 27> H 3.9263207986 1.7195737675 -1.6515946061
| 28> H 5.2764913341 0.2766046075 -0.1975088903
| 29> H 5.5065167375 -0.9036632613 -1.5241267347
| 30> H 2.854782909 -3.0758230915 1.1807363954
| 31> H 2.7559200735 -1.7072194028 2.321664034
| 32> H 0.4362257222 -3.5756928832 1.6126894671
| 33> H 1.3888281848 -3.6554224173 3.1044683486
| 34> H 0.3736235036 -2.2415307724 2.7743136595
| 35> H -0.3940748231 2.2702117804 -0.8108486415
| 36> H 0.9161353336 2.1723695647 0.4194220297
| 37> H -3.0282891575 2.5456069314 0.8514779899
| 38> H -3.0424380103 3.5687083246 -0.6168678297
| 39> H -5.2867376547 2.6437646391 -1.2118970738
| 40> H -5.2835194769 1.6797728048 0.2692341479
| 41> H -5.3157766642 3.4483636419 0.3662855864
| 42> H -4.7276554701 -1.5709213425 1.4997698478
| 43> H -3.8931218926 -2.2254672995 0.0569586001
| 44> H -2.4811652111 -1.4113934525 2.6451782695
| 45> H -2.8654900423 -3.0812509969 2.1836870534
| 46> H -1.7322001723 -2.1309483123 1.2109691821
| 47> *
| 48>
| 49>                          ****END OF INPUT****

CARTESIAN COORDINATES (ANGSTROEM)
---------------------------------
  C      4.546025    0.951551   -2.113062
  C      4.842040   -0.144315   -1.110002
  O      3.659335   -0.880244   -0.749297
  P      2.473975   -0.225021    0.086028
  S      3.069721    0.987440    1.512656
  O      1.674388   -1.505872    0.561340
  C      2.186056   -2.338607    1.630791
  C      1.014366   -2.996961    2.327535
  S      1.135798    0.545549   -1.339333
  C      0.209973    1.610047   -0.192837
  S     -0.845303    0.700739    0.962279
  P     -2.394305    0.188458   -0.428756
  S     -1.980820   -1.068635   -1.866440
  O     -2.855715    1.589579   -0.990725
  C     -3.413813    2.646074   -0.166424
  C     -4.927693    2.599025   -0.187338
  O     -3.593105   -0.238103    0.524067
  C     -3.787196   -1.598853    0.947809
  C     -2.642026   -2.087722    1.808924
  H      5.477892    1.400483   -2.441385
  H      4.016869    0.545385   -2.971732
  H      3.926321    1.719574   -1.651595
  H      5.276491    0.276605   -0.197509
  H      5.506517   -0.903663   -1.524127
  H      2.854783   -3.075823    1.180736
  H      2.755920   -1.707219    2.321664
  H      0.436226   -3.575693    1.612689
  H      1.388828   -3.655422    3.104468
  H      0.373624   -2.241531    2.774314
  H     -0.394075    2.270212   -0.810849
  H      0.916135    2.172370    0.419422
  H     -3.028289    2.545607    0.851478
  H     -3.042438    3.568708   -0.616868
  H     -5.286738    2.643765   -1.211897
  H     -5.283519    1.679773    0.269234
  H     -5.315777    3.448364    0.366286
  H     -4.727655   -1.570921    1.499770
  H     -3.893122   -2.225467    0.056959
  H     -2.481165   -1.411393    2.645178
  H     -2.865490   -3.081251    2.183687
  H     -1.732200   -2.130948    1.210969

 Total Charge           Charge          ....    0
 Multiplicity           Mult            ....    1
 Number of Electrons    NEL             ....  202
 Basis Dimension        Dim             ....  334

ORBITAL ENERGIES
----------------

  NO   OCC          E(Eh)            E(eV)
   0   2.0000     -88.039929     -2395.6883
   1   2.0000     -88.039268     -2395.6703
   2   2.0000     -87.985788     -2394.2150
   3   2.0000     -87.980750     -2394.0779
   4   2.0000     -76.425215     -2079.6358
   5   2.0000     -76.422583     -2079.5642
   6   2.0000     -18.795914      -511.4628
   7   2.0000     -18.794870      -511.4344
   8   2.0000     -18.791087      -511.3315
   9   2.0000     -18.785371      -511.1759
  10   2.0000      -9.958466      -270.9836
  11   2.0000      -9.955595      -270.9055
  12   2.0000      -9.955445      -270.9014
  13   2.0000      -9.950442      -270.7653
  14   2.0000      -9.948112      -270.7019
  15   2.0000      -9.887797      -269.0606
  16   2.0000      -9.886742      -269.0319
  17   2.0000      -9.883856      -268.9534
  18   2.0000      -9.882253      -268.9098
  19   2.0000      -7.684667      -209.1104
  20   2.0000      -7.684626      -209.1093
  21   2.0000      -7.630797      -207.6445
  22   2.0000      -7.625942      -207.5124
  23   2.0000      -6.422634      -174.7687
  24   2.0000      -6.420570      -174.7126
  25   2.0000      -5.712529      -155.4458
  26   2.0000      -5.712355      -155.4411
  27   2.0000      -5.709292      -155.3577
  28   2.0000      -5.709269      -155.3571
  29   2.0000      -5.701699      -155.1511
  30   2.0000      -5.701401      -155.1430
  31   2.0000      -5.659441      -154.0012
  32   2.0000      -5.654988      -153.8800
  33   2.0000      -5.651566      -153.7869
  34   2.0000      -5.651087      -153.7739
  35   2.0000      -5.646568      -153.6509
  36   2.0000      -5.645976      -153.6348
  37   2.0000      -4.645824      -126.4193
  38   2.0000      -4.644372      -126.3798
  39   2.0000      -4.643118      -126.3457
  40   2.0000      -4.642543      -126.3300
  41   2.0000      -4.642138      -126.3190
  42   2.0000      -4.641153      -126.2922
  43   2.0000      -0.990625       -26.9563
  44   2.0000      -0.983670       -26.7670
  45   2.0000      -0.948699       -25.8154
  46   2.0000      -0.941424       -25.6174
  47   2.0000      -0.762535       -20.7496
  48   2.0000      -0.720651       -19.6099
  49   2.0000      -0.709250       -19.2997
  50   2.0000      -0.693162       -18.8619
  51   2.0000      -0.685286       -18.6476
  52   2.0000      -0.673711       -18.3326
  53   2.0000      -0.649683       -17.6788
  54   2.0000      -0.636744       -17.3267
  55   2.0000      -0.598497       -16.2859
  56   2.0000      -0.589750       -16.0479
  57   2.0000      -0.578208       -15.7338
  58   2.0000      -0.569884       -15.5073
  59   2.0000      -0.555504       -15.1160
  60   2.0000      -0.503798       -13.7090
  61   2.0000      -0.500421       -13.6171
  62   2.0000      -0.477538       -12.9945
  63   2.0000      -0.470573       -12.8049
  64   2.0000      -0.458823       -12.4852
  65   2.0000      -0.449003       -12.2180
  66   2.0000      -0.439467       -11.9585
  67   2.0000      -0.431089       -11.7305
  68   2.0000      -0.430164       -11.7053
  69   2.0000      -0.422330       -11.4922
  70   2.0000      -0.413076       -11.2404
  71   2.0000      -0.395234       -10.7549
  72   2.0000      -0.388380       -10.5683
  73   2.0000      -0.383632       -10.4392
  74   2.0000      -0.379737       -10.3332
  75   2.0000      -0.373908       -10.1745
  76   2.0000      -0.363969        -9.9041
  77   2.0000      -0.360351        -9.8056
  78   2.0000      -0.355801        -9.6818
  79   2.0000      -0.353683        -9.6242
  80   2.0000      -0.349070        -9.4987
  81   2.0000      -0.348434        -9.4814
  82   2.0000      -0.343363        -9.3434
  83   2.0000      -0.337635        -9.1875
  84   2.0000      -0.332890        -9.0584
  85   2.0000      -0.319478        -8.6934
  86   2.0000      -0.309850        -8.4315
  87   2.0000      -0.300136        -8.1671
  88   2.0000      -0.294702        -8.0192
  89   2.0000      -0.293764        -7.9937
  90   2.0000      -0.286644        -7.8000
  91   2.0000      -0.273207        -7.4343
  92   2.0000      -0.270795        -7.3687
  93   2.0000      -0.260966        -7.1013
  94   2.0000      -0.260172        -7.0796
  95   2.0000      -0.238270        -6.4836
  96   2.0000      -0.215564        -5.8658
  97   2.0000      -0.209725        -5.7069
  98   2.0000      -0.203728        -5.5437
  99   2.0000      -0.197568        -5.3761
 100   2.0000      -0.188219        -5.1217
 101   0.0000      -0.041469        -1.1284
 102   0.0000      -0.022356        -0.6083
 103   0.0000      -0.006654        -0.1811
 104   0.0000       0.000985         0.0268
 105   0.0000       0.016899         0.4599

MULLIKEN ATOMIC CHARGES
-----------------------
   0 C :   -0.316222
   1 C :   -0.003205
   2 O :   -0.378342
   3 P :    0.610639
   4 S :   -0.348225
   5 O :   -0.356704
   6 C :   -0.012418
   7 C :   -0.291030
   8 S :   -0.039795
   9 C :   -0.374935
  10 S :   -0.083690
  11 P :    0.586718
  12 S :   -0.293594
  13 O :   -0.365406
  14 C :   -0.017436
  15 C :   -0.286256
  16 O :   -0.383320
  17 C :    0.013030
  18 C :   -0.361493
  19 H :    0.112677
  20 H :    0.120601
  21 H :    0.124259
  22 H :    0.110725
  23 H :    0.104914
  24 H :    0.104157
  25 H :    0.102806
  26 H :    0.126520
  27 H :    0.107907
  28 H :    0.129171
  29 H :    0.187431
  30 H :    0.194850
  31 H :    0.103957
  32 H :    0.107574
  33 H :    0.120765
  34 H :    0.123465
  35 H :    0.109740
  36 H :    0.104128
  37 H :    0.113037
  38 H :    0.122514
  39 H :    0.116882
  40 H :    0.153603
Sum of atomic charges:    0.0000000

LOEWDIN ATOMIC CHARGES
----------------------
   0 C :   -0.369524
   1 C :   -0.119449
   2 O :   -0.246866
   3 P :    0.570639
   4 S :   -0.333728
   5 O :   -0.240661
   6 C :   -0.116572
   7 C :   -0.352181
   8 S :    0.113323
   9 C :   -0.485021
  10 S :    0.076481
  11 P :    0.565344
  12 S :   -0.304594
  13 O :   -0.241061
  14 C :   -0.117151
  15 C :   -0.358089
  16 O :   -0.247640
  17 C :   -0.116134
  18 C :   -0.375994
  19 H :    0.130873
  20 H :    0.125688
  21 H :    0.120177
  22 H :    0.110136
  23 H :    0.118546
  24 H :    0.113810
  25 H :    0.106549
  26 H :    0.128087
  27 H :    0.129260
  28 H :    0.128637
  29 H :    0.132265
  30 H :    0.129760
  31 H :    0.105514
  32 H :    0.118570
  33 H :    0.129231
  34 H :    0.127024
  35 H :    0.129819
  36 H :    0.118047
  37 H :    0.113758
  38 H :    0.123895
  39 H :    0.132776
  40 H :    0.126455

  Mayer bond orders larger than 0.100000
B(  0-C ,  1-C ) :   1.1652 B(  0-C , 19-H ) :   0.9380 B(  0-C , 20-H ) :   0.9449
B(  0-C , 21-H ) :   0.9348 B(  1-C ,  2-O ) :   0.9100 B(  1-C , 22-H ) :   0.9151
B(  1-C , 23-H ) :   0.9336 B(  2-O ,  3-P ) :   1.1029 B(  3-P ,  4-S ) :   1.5874
B(  3-P ,  5-O ) :   1.1395 B(  3-P ,  8-S ) :   0.9815 B(  4-S ,  8-S ) :   0.1120
B(  5-O ,  6-C ) :   0.9016 B(  6-C ,  7-C ) :   1.1680 B(  6-C , 24-H ) :   0.9317
B(  6-C , 25-H ) :   0.9055 B(  7-C , 26-H ) :   0.9437 B(  7-C , 27-H ) :   0.9389
B(  7-C , 28-H ) :   0.9438 B(  8-S ,  9-C ) :   1.0089 B(  9-C , 10-S ) :   0.9972
B(  9-C , 29-H ) :   0.8961 B(  9-C , 30-H ) :   0.8737 B( 10-S , 11-P ) :   0.9476
B( 10-S , 12-S ) :   0.1127 B( 11-P , 12-S ) :   1.6858 B( 11-P , 13-O ) :   1.1126
B( 11-P , 16-O ) :   1.0727 B( 13-O , 14-C ) :   0.8898 B( 14-C , 15-C ) :   1.1701
B( 14-C , 31-H ) :   0.9089 B( 14-C , 32-H ) :   0.9340 B( 15-C , 33-H ) :   0.9471
B( 15-C , 34-H ) :   0.9422 B( 15-C , 35-H ) :   0.9396 B( 16-O , 17-C ) :   0.9041
B( 17-C , 18-C ) :   1.1623 B( 17-C , 36-H ) :   0.9323 B( 17-C , 37-H ) :   0.9168
B( 18-C , 38-H ) :   0.9410 B( 18-C , 39-H ) :   0.9373 B( 18-C , 40-H ) :   0.9215

Dispersion correction           -0.064156069
FINAL SINGLE POINT ENERGY     -2929.519033672970

DIPOLE MOMENT
-------------

Method             : SCF
Type of density    : Electron Density
Multiplicity       :   1
Irrep              :   0
Energy             : -2929.6391995908084027 Eh
Relativity type    :
Basis              : AO
                                X                 Y                 Z
Electronic contribution:      4.577373892       3.199624588      -8.122137950
Nuclear contribution   :     -4.931878784      -3.120310661       8.827746335
                        -----------------------------------------
Total Dipole Moment    :     -0.354504892       0.079313927       0.705608385
                        -----------------------------------------
Magnitude (a.u.)       :      0.793629391
Magnitude (Debye)      :      2.017245598

Rotational constants in cm-1:             0.012505             0.004798             0.004254
Rotational constants in MHz :           374.890574           143.849157           127.543192

                             ****ORCA TERMINATED NORMALLY****
TOTAL RUN TIME: 0 days 0 hours 0 minutes 20 seconds 912 msec
