                         Program Version 6.0.1  -  RELEASE   -
|  1> ! pbe def2-sv(p) def2/J RI DEFGRID1 loosescf d4 GCP(DFT/SV(P)) printgap
|  2> %output
|  3>     printlevel normal
|  4> end
|  5> * xyz 0 1
|  6> C 1.7839555546 -4.3353127352 -1.3063728475
|  7> C 2.9183939569 -3.6067138634 -0.603613588
|  8> O 2.4482856499 -2.3782274854 -0.0149090516
|  9> C 2.5056198397 -1.2772504864 -0.7350227089
| 10> O 2.9436574732 -1.2067539525 -1.8610969126
| 11> C 1.9506148808 -0.0861894024 0.0255044921
| 12> C 0.9313350924 0.6350950318 -0.8543889606
| 13> H 1.3973303801 0.8783525335 -1.8144482537
| 14> C 0.4127915035 1.902442968 -0.2080392676
| 15> O -0.7688485163 2.0813837407 0.0179192152
| 16> O 1.3690831777 2.7371990279 0.0756543677
| 17> C 1.0257762324 3.9874410324 0.7160893114
| 18> C 0.6051558405 5.0258516578 -0.3099924553
| 19> S -0.4944102486 -0.424121159 -1.272067503
| 20> P -1.7140792989 -0.2181984137 0.4606279397
| 21> S -0.9096588793 0.0979634879 2.2308858674
| 22> O -3.0476221301 0.5517892789 0.0864296414
| 23> C -3.4670158371 1.8061422556 0.6266699135
| 24> O -2.4169491584 -1.6599969277 0.4027780766
| 25> C -1.6749460881 -2.8494012661 0.6767131267
| 26> H 2.1634713855 -5.253819036 -1.7415342261
| 27> H 0.9949536515 -4.5750117163 -0.598536691
| 28> H 1.3743268757 -3.7115559598 -2.0983140469
| 29> H 3.7200632743 -3.3682213723 -1.3081131616
| 30> H 3.3052776421 -4.1862534881 0.2346521666
| 31> H 2.7695110045 0.6022304522 0.2440171105
| 32> H 1.5034411497 -0.4256347291 0.9607912835
| 33> H 0.2267273772 3.7985423104 1.4378940742
| 34> H 1.9407740835 4.2809703409 1.2297146606
| 35> H 0.4136822446 5.9670383735 0.1943840662
| 36> H 1.3927903916 5.1671264179 -1.0448266471
| 37> H -0.3021789078 4.7088428523 -0.8189322802
| 38> H -4.5426209801 1.7261238992 0.769165657
| 39> H -3.2259205372 2.5991227408 -0.0786228456
| 40> H -2.970471827 1.9972089915 1.579398428
| 41> H -2.4116630861 -3.6457527349 0.7434638261
| 42> H -1.1364242582 -2.7478574971 1.6215279193
| 43> H -0.9701792025 -3.0471591941 -0.1319256537
| 44> *
| 45>
| 46>                          ****END OF INPUT****

CARTESIAN COORDINATES (ANGSTROEM)
---------------------------------
  C      1.783956   -4.335313   -1.306373
  C      2.918394   -3.606714   -0.603614
  O      2.448286   -2.378227   -0.014909
  C      2.505620   -1.277250   -0.735023
  O      2.943657   -1.206754   -1.861097
  C      1.950615   -0.086189    0.025504
  C      0.931335    0.635095   -0.854389
  H      1.397330    0.878353   -1.814448
  C      0.412792    1.902443   -0.208039
  O     -0.768849    2.081384    0.017919
  O      1.369083    2.737199    0.075654
  C      1.025776    3.987441    0.716089
  C      0.605156    5.025852   -0.309992
  S     -0.494410   -0.424121   -1.272068
  P     -1.714079   -0.218198    0.460628
  S     -0.909659    0.097963    2.230886
  O     -3.047622    0.551789    0.086430
  C     -3.467016    1.806142    0.626670
  O     -2.416949   -1.659997    0.402778
  C     -1.674946   -2.849401    0.676713
  H      2.163471   -5.253819   -1.741534
  H      0.994954   -4.575012   -0.598537
  H      1.374327   -3.711556   -2.098314
  H      3.720063   -3.368221   -1.308113
  H      3.305278   -4.186253    0.234652
  H      2.769511    0.602230    0.244017
  H      1.503441   -0.425635    0.960791
  H      0.226727    3.798542    1.437894
  H      1.940774    4.280970    1.229715
  H      0.413682    5.967038    0.194384
  H      1.392790    5.167126   -1.044827
  H     -0.302179    4.708843   -0.818932
  H     -4.542621    1.726124    0.769166
  H     -3.225921    2.599123   -0.078623
  H     -2.970472    1.997209    1.579398
  H     -2.411663   -3.645753    0.743464
  H     -1.136424   -2.747857    1.621528
  H     -0.970179   -3.047159   -0.131926

 Total Charge           Charge          ....    0
 Multiplicity           Mult            ....    1
 Number of Electrons    NEL             ....  174
 Basis Dimension        Dim             ....  316

ORBITAL ENERGIES
----------------

  NO   OCC          E(Eh)            E(eV)
   0   2.0000     -88.036251     -2395.5882
   1   2.0000     -87.974075     -2393.8963
   2   2.0000     -76.420396     -2079.5047
   3   2.0000     -18.828721      -512.3555
   4   2.0000     -18.805735      -511.7301
   5   2.0000     -18.780043      -511.0309
   6   2.0000     -18.773240      -510.8458
   7   2.0000     -18.763470      -510.5800
   8   2.0000     -18.740492      -509.9547
   9   2.0000     -10.033941      -273.0374
  10   2.0000     -10.011810      -272.4352
  11   2.0000      -9.963883      -271.1310
  12   2.0000      -9.952661      -270.8257
  13   2.0000      -9.949280      -270.7337
  14   2.0000      -9.933427      -270.3023
  15   2.0000      -9.931138      -270.2400
  16   2.0000      -9.907364      -269.5931
  17   2.0000      -9.899704      -269.3846
  18   2.0000      -9.889111      -269.0964
  19   2.0000      -7.680950      -209.0093
  20   2.0000      -7.619186      -207.3286
  21   2.0000      -6.415914      -174.5859
  22   2.0000      -5.709023      -155.3504
  23   2.0000      -5.705472      -155.2538
  24   2.0000      -5.697745      -155.0435
  25   2.0000      -5.648224      -153.6960
  26   2.0000      -5.640135      -153.4759
  27   2.0000      -5.638850      -153.4409
  28   2.0000      -4.638323      -126.2152
  29   2.0000      -4.638089      -126.2088
  30   2.0000      -4.636543      -126.1667
  31   2.0000      -1.038525       -28.2597
  32   2.0000      -1.012978       -27.5645
  33   2.0000      -0.973013       -26.4770
  34   2.0000      -0.943054       -25.6618
  35   2.0000      -0.926963       -25.2239
  36   2.0000      -0.918630       -24.9972
  37   2.0000      -0.767775       -20.8922
  38   2.0000      -0.720226       -19.5983
  39   2.0000      -0.710224       -19.3262
  40   2.0000      -0.688014       -18.7218
  41   2.0000      -0.653441       -17.7810
  42   2.0000      -0.633902       -17.2494
  43   2.0000      -0.622420       -16.9369
  44   2.0000      -0.611097       -16.6288
  45   2.0000      -0.599895       -16.3240
  46   2.0000      -0.568462       -15.4686
  47   2.0000      -0.516395       -14.0518
  48   2.0000      -0.505776       -13.7629
  49   2.0000      -0.500681       -13.6242
  50   2.0000      -0.489246       -13.3131
  51   2.0000      -0.465336       -12.6624
  52   2.0000      -0.459496       -12.5035
  53   2.0000      -0.448722       -12.2103
  54   2.0000      -0.442374       -12.0376
  55   2.0000      -0.431477       -11.7411
  56   2.0000      -0.429127       -11.6771
  57   2.0000      -0.421085       -11.4583
  58   2.0000      -0.414223       -11.2716
  59   2.0000      -0.405335       -11.0297
  60   2.0000      -0.399946       -10.8831
  61   2.0000      -0.397906       -10.8276
  62   2.0000      -0.388903       -10.5826
  63   2.0000      -0.387491       -10.5442
  64   2.0000      -0.383564       -10.4373
  65   2.0000      -0.371901       -10.1199
  66   2.0000      -0.364603        -9.9214
  67   2.0000      -0.360130        -9.7996
  68   2.0000      -0.353074        -9.6076
  69   2.0000      -0.344150        -9.3648
  70   2.0000      -0.339773        -9.2457
  71   2.0000      -0.331356        -9.0167
  72   2.0000      -0.330144        -8.9837
  73   2.0000      -0.313454        -8.5295
  74   2.0000      -0.304233        -8.2786
  75   2.0000      -0.294764        -8.0209
  76   2.0000      -0.294548        -8.0151
  77   2.0000      -0.287386        -7.8202
  78   2.0000      -0.278170        -7.5694
  79   2.0000      -0.264012        -7.1841
  80   2.0000      -0.261418        -7.1136
  81   2.0000      -0.247130        -6.7247
  82   2.0000      -0.244867        -6.6632
  83   2.0000      -0.228010        -6.2045
  84   2.0000      -0.220467        -5.9992
  85   2.0000      -0.194151        -5.2831
  86   2.0000      -0.187287        -5.0963
  87   0.0000      -0.050843        -1.3835
  88   0.0000      -0.036728        -0.9994
  89   0.0000      -0.018944        -0.5155
  90   0.0000       0.003907         0.1063
  91   0.0000       0.031805         0.8655

MULLIKEN ATOMIC CHARGES
-----------------------
   0 C :   -0.309514
   1 C :   -0.020370
   2 O :   -0.218151
   3 C :    0.126793
   4 O :   -0.207567
   5 C :   -0.086160
   6 C :   -0.317269
   7 H :    0.158979
   8 C :    0.233652
   9 O :   -0.196664
  10 O :   -0.216336
  11 C :   -0.011148
  12 C :   -0.311767
  13 S :   -0.087844
  14 P :    0.622577
  15 S :   -0.351631
  16 O :   -0.365724
  17 C :   -0.085652
  18 O :   -0.373316
  19 C :   -0.115876
  20 H :    0.113664
  21 H :    0.124771
  22 H :    0.130392
  23 H :    0.110405
  24 H :    0.105860
  25 H :    0.122563
  26 H :    0.118517
  27 H :    0.121993
  28 H :    0.111759
  29 H :    0.120670
  30 H :    0.120381
  31 H :    0.130624
  32 H :    0.119310
  33 H :    0.115172
  34 H :    0.115049
  35 H :    0.120342
  36 H :    0.111765
  37 H :    0.119752
Sum of atomic charges:    0.0000000

LOEWDIN ATOMIC CHARGES
----------------------
   0 C :   -0.355357
   1 C :   -0.111525
   2 O :   -0.051073
   3 C :    0.026990
   4 O :   -0.171493
   5 C :   -0.256933
   6 C :   -0.260226
   7 H :    0.155057
   8 C :    0.028303
   9 O :   -0.155544
  10 O :   -0.032145
  11 C :   -0.104772
  12 C :   -0.356053
  13 S :    0.109002
  14 P :    0.588823
  15 S :   -0.340965
  16 O :   -0.236400
  17 C :   -0.207581
  18 O :   -0.258094
  19 C :   -0.225213
  20 H :    0.131257
  21 H :    0.123733
  22 H :    0.132082
  23 H :    0.120681
  24 H :    0.118981
  25 H :    0.146854
  26 H :    0.130353
  27 H :    0.126524
  28 H :    0.123015
  29 H :    0.134915
  30 H :    0.128076
  31 H :    0.131183
  32 H :    0.117505
  33 H :    0.112074
  34 H :    0.108390
  35 H :    0.120162
  36 H :    0.106916
  37 H :    0.102499

  Mayer bond orders larger than 0.100000
B(  0-C ,  1-C ) :   1.1782 B(  0-C , 20-H ) :   0.9418 B(  0-C , 21-H ) :   0.9396
B(  0-C , 22-H ) :   0.9446 B(  1-C ,  2-O ) :   0.9140 B(  1-C , 23-H ) :   0.9105
B(  1-C , 24-H ) :   0.9362 B(  2-O ,  3-C ) :   1.2522 B(  3-C ,  4-O ) :   2.0349
B(  3-C ,  5-C ) :   1.0007 B(  5-C ,  6-C ) :   1.0589 B(  5-C , 25-H ) :   0.8688
B(  5-C , 26-H ) :   0.8810 B(  6-C ,  7-H ) :   0.8521 B(  6-C ,  8-C ) :   0.9216
B(  6-C , 13-S ) :   1.0238 B(  8-C ,  9-O ) :   1.9234 B(  8-C , 10-O ) :   1.2867
B(  9-O , 14-P ) :   0.1139 B( 10-O , 11-C ) :   0.8964 B( 11-C , 12-C ) :   1.1747
B( 11-C , 27-H ) :   0.9154 B( 11-C , 28-H ) :   0.9358 B( 12-C , 29-H ) :   0.9430
B( 12-C , 30-H ) :   0.9470 B( 12-C , 31-H ) :   0.9451 B( 13-S , 14-P ) :   0.9261
B( 13-S , 15-S ) :   0.1170 B( 14-P , 15-S ) :   1.5504 B( 14-P , 16-O ) :   1.1404
B( 14-P , 18-O ) :   1.0817 B( 16-O , 17-C ) :   0.9286 B( 17-C , 32-H ) :   0.9542
B( 17-C , 33-H ) :   0.9540 B( 17-C , 34-H ) :   0.9350 B( 18-O , 19-C ) :   0.9452
B( 19-C , 35-H ) :   0.9578 B( 19-C , 36-H ) :   0.9332 B( 19-C , 37-H ) :   0.9343

Dispersion correction           -0.052021044
FINAL SINGLE POINT ENERGY     -1979.018090853026

DIPOLE MOMENT
-------------

Method             : SCF
Type of density    : Electron Density
Multiplicity       :   1
Irrep              :   0
Energy             : -1979.1485391480246108 Eh
Relativity type    :
Basis              : AO
                                X                 Y                 Z
Electronic contribution:     -6.215534062      -0.270490333       1.059816712
Nuclear contribution   :      6.873998944       0.923298632      -1.040379127
                        -----------------------------------------
Total Dipole Moment    :      0.658464882       0.652808299       0.019437585
                        -----------------------------------------
Magnitude (a.u.)       :      0.927422501
Magnitude (Debye)      :      2.357320658

Rotational constants in cm-1:             0.012122             0.007921             0.005596
Rotational constants in MHz :           363.411632           237.462196           167.749420

                             ****ORCA TERMINATED NORMALLY****
TOTAL RUN TIME: 0 days 0 hours 0 minutes 28 seconds 229 msec
