                         Program Version 6.0.0  -   RELEASE  -
|  1> ! r2scan-3c def2/J RI DEFGRID2 scfconv6 printgap
|  2> %output
|  3>     printlevel normal
|  4> end
|  5> * xyz 0 1
|  6> C 2.3901628754 -0.8096564551 3.426274013
|  7> C 1.2061386181 -0.8968273512 2.4861417565
|  8> O 1.3130741457 0.0920474243 1.4479059442
|  9> P 2.1612679527 -0.1127546971 0.1261937264
| 10> S 2.8035468788 -1.944191338 -0.1710076704
| 11> O 3.2382343596 1.0297519782 0.348437616
| 12> C 4.0148457509 1.6666321118 -0.6829895061
| 13> C 4.7451209476 0.6773342713 -1.5675960232
| 14> S 0.9112199292 0.7030860867 -1.3842105736
| 15> C 0.0455196276 -0.8348245769 -1.7934921233
| 16> S -0.8689208445 -1.5333776535 -0.394554309
| 17> P -2.17017616 0.1206864873 -0.099470679
| 18> S -2.7542051878 1.0638844685 -1.7193228099
| 19> O -1.4013540238 1.016578719 0.9556886436
| 20> C -1.270081991 2.4442125588 0.8484852432
| 21> C -2.4718636097 3.1332209468 1.4606152209
| 22> O -3.2813768274 -0.4744361856 0.8618128584
| 23> C -4.0164898917 -1.6928421869 0.6438799506
| 24> C -4.6867837501 -1.7420320132 -0.7137053325
| 25> H 3.3051046117 -1.0368451989 2.8804777898
| 26> H 2.4685820758 0.191807133 3.8401587335
| 27> H 2.2676909506 -1.5279535135 4.2305546833
| 28> H 0.2641992168 -0.6641354808 2.9860514517
| 29> H 1.1440662527 -1.8905757746 2.0290945827
| 30> H 3.3439069429 2.2947536367 -1.2760595694
| 31> H 4.7126779813 2.2944674685 -0.1259097802
| 32> H 5.3837159162 1.2165722178 -2.2598693353
| 33> H 5.3527259554 0.0059696687 -0.965318325
| 34> H 4.0314983463 0.0812606673 -2.1349141677
| 35> H 0.7663191138 -1.5935728602 -2.0966474007
| 36> H -0.6453751855 -0.5905120553 -2.5998265035
| 37> H -0.3465225028 2.6741352156 1.3829854821
| 38> H -1.1611347293 2.7170727079 -0.2069706541
| 39> H -2.5989664979 2.8200922209 2.4931339417
| 40> H -2.331384218 4.2086102099 1.4205754645
| 41> H -3.3675518981 2.8687556717 0.9001975793
| 42> H -3.327851536 -2.5337814598 0.7666381861
| 43> H -4.7506983248 -1.6956481812 1.4516026841
| 44> H -5.3114311899 -0.8640008945 -0.8604464647
| 45> H -3.9368807258 -1.7677003286 -1.5032454772
| 46> H -5.3001437648 -2.6348740271 -0.7802922119
| 47> *
| 48>
| 49>                          ****END OF INPUT****

CARTESIAN COORDINATES (ANGSTROEM)
---------------------------------
  C      2.390163   -0.809656    3.426274
  C      1.206139   -0.896827    2.486142
  O      1.313074    0.092047    1.447906
  P      2.161268   -0.112755    0.126194
  S      2.803547   -1.944191   -0.171008
  O      3.238234    1.029752    0.348438
  C      4.014846    1.666632   -0.682990
  C      4.745121    0.677334   -1.567596
  S      0.911220    0.703086   -1.384211
  C      0.045520   -0.834825   -1.793492
  S     -0.868921   -1.533378   -0.394554
  P     -2.170176    0.120686   -0.099471
  S     -2.754205    1.063884   -1.719323
  O     -1.401354    1.016579    0.955689
  C     -1.270082    2.444213    0.848485
  C     -2.471864    3.133221    1.460615
  O     -3.281377   -0.474436    0.861813
  C     -4.016490   -1.692842    0.643880
  C     -4.686784   -1.742032   -0.713705
  H      3.305105   -1.036845    2.880478
  H      2.468582    0.191807    3.840159
  H      2.267691   -1.527954    4.230555
  H      0.264199   -0.664135    2.986051
  H      1.144066   -1.890576    2.029095
  H      3.343907    2.294754   -1.276060
  H      4.712678    2.294467   -0.125910
  H      5.383716    1.216572   -2.259869
  H      5.352726    0.005970   -0.965318
  H      4.031498    0.081261   -2.134914
  H      0.766319   -1.593573   -2.096647
  H     -0.645375   -0.590512   -2.599827
  H     -0.346523    2.674135    1.382985
  H     -1.161135    2.717073   -0.206971
  H     -2.598966    2.820092    2.493134
  H     -2.331384    4.208610    1.420575
  H     -3.367552    2.868756    0.900198
  H     -3.327852   -2.533781    0.766638
  H     -4.750698   -1.695648    1.451603
  H     -5.311431   -0.864001   -0.860446
  H     -3.936881   -1.767700   -1.503245
  H     -5.300144   -2.634874   -0.780292

 Total Charge           Charge          ....    0
 Multiplicity           Mult            ....    1
 Number of Electrons    NEL             ....  202
 Basis Dimension        Dim             ....  539

ORBITAL ENERGIES
----------------

  NO   OCC          E(Eh)            E(eV)
   0   2.0000     -88.576736     -2410.2955
   1   2.0000     -88.576369     -2410.2855
   2   2.0000     -88.519392     -2408.7351
   3   2.0000     -88.519267     -2408.7317
   4   2.0000     -76.914041     -2092.9375
   5   2.0000     -76.913849     -2092.9322
   6   2.0000     -18.992751      -516.8190
   7   2.0000     -18.992520      -516.8127
   8   2.0000     -18.983862      -516.5771
   9   2.0000     -18.983744      -516.5739
  10   2.0000     -10.107890      -275.0497
  11   2.0000     -10.104696      -274.9628
  12   2.0000     -10.104414      -274.9551
  13   2.0000     -10.090373      -274.5730
  14   2.0000     -10.089988      -274.5625
  15   2.0000     -10.028378      -272.8860
  16   2.0000     -10.028150      -272.8798
  17   2.0000     -10.023610      -272.7563
  18   2.0000     -10.023269      -272.7470
  19   2.0000      -7.871067      -214.1826
  20   2.0000      -7.870676      -214.1720
  21   2.0000      -7.814258      -212.6368
  22   2.0000      -7.814140      -212.6336
  23   2.0000      -6.592248      -179.3842
  24   2.0000      -6.592045      -179.3787
  25   2.0000      -5.817877      -158.3125
  26   2.0000      -5.817494      -158.3021
  27   2.0000      -5.814891      -158.2312
  28   2.0000      -5.814497      -158.2205
  29   2.0000      -5.808290      -158.0516
  30   2.0000      -5.807901      -158.0410
  31   2.0000      -5.761944      -156.7905
  32   2.0000      -5.761826      -156.7873
  33   2.0000      -5.754560      -156.5895
  34   2.0000      -5.754422      -156.5858
  35   2.0000      -5.754198      -156.5797
  36   2.0000      -5.754102      -156.5771
  37   2.0000      -4.737702      -128.9194
  38   2.0000      -4.737486      -128.9136
  39   2.0000      -4.737314      -128.9089
  40   2.0000      -4.737122      -128.9036
  41   2.0000      -4.735934      -128.8713
  42   2.0000      -4.735734      -128.8659
  43   2.0000      -1.049272       -28.5521
  44   2.0000      -1.048067       -28.5194
  45   2.0000      -1.008634       -27.4463
  46   2.0000      -1.006885       -27.3987
  47   2.0000      -0.803735       -21.8707
  48   2.0000      -0.757201       -20.6045
  49   2.0000      -0.749228       -20.3875
  50   2.0000      -0.729155       -19.8413
  51   2.0000      -0.727354       -19.7923
  52   2.0000      -0.710041       -19.3212
  53   2.0000      -0.687415       -18.7055
  54   2.0000      -0.671325       -18.2677
  55   2.0000      -0.629173       -17.1207
  56   2.0000      -0.626306       -17.0427
  57   2.0000      -0.606316       -16.4987
  58   2.0000      -0.602003       -16.3813
  59   2.0000      -0.594855       -16.1868
  60   2.0000      -0.524854       -14.2820
  61   2.0000      -0.514314       -13.9952
  62   2.0000      -0.489562       -13.3216
  63   2.0000      -0.486870       -13.2484
  64   2.0000      -0.477290       -12.9877
  65   2.0000      -0.461815       -12.5666
  66   2.0000      -0.454930       -12.3793
  67   2.0000      -0.451328       -12.2812
  68   2.0000      -0.445223       -12.1151
  69   2.0000      -0.437651       -11.9091
  70   2.0000      -0.432737       -11.7754
  71   2.0000      -0.405495       -11.0341
  72   2.0000      -0.402902       -10.9635
  73   2.0000      -0.401971       -10.9382
  74   2.0000      -0.399804       -10.8792
  75   2.0000      -0.396589       -10.7917
  76   2.0000      -0.388679       -10.5765
  77   2.0000      -0.370869       -10.0919
  78   2.0000      -0.361503        -9.8370
  79   2.0000      -0.361055        -9.8248
  80   2.0000      -0.360199        -9.8015
  81   2.0000      -0.358848        -9.7647
  82   2.0000      -0.356365        -9.6972
  83   2.0000      -0.354128        -9.6363
  84   2.0000      -0.345236        -9.3944
  85   2.0000      -0.333324        -9.0702
  86   2.0000      -0.323309        -8.7977
  87   2.0000      -0.311899        -8.4872
  88   2.0000      -0.311148        -8.4668
  89   2.0000      -0.298640        -8.1264
  90   2.0000      -0.296909        -8.0793
  91   2.0000      -0.292656        -7.9636
  92   2.0000      -0.286523        -7.7967
  93   2.0000      -0.279513        -7.6059
  94   2.0000      -0.265837        -7.2338
  95   2.0000      -0.245525        -6.6811
  96   2.0000      -0.232036        -6.3140
  97   2.0000      -0.226065        -6.1515
  98   2.0000      -0.219548        -5.9742
  99   2.0000      -0.211590        -5.7577
 100   2.0000      -0.210231        -5.7207
 101   0.0000      -0.049658        -1.3513
 102   0.0000      -0.026422        -0.7190
 103   0.0000      -0.003782        -0.1029
 104   0.0000      -0.001502        -0.0409
 105   0.0000       0.010205         0.2777

MULLIKEN ATOMIC CHARGES
-----------------------
   0 C :   -0.449260
   1 C :   -0.152982
   2 O :   -0.258553
   3 P :    0.665714
   4 S :   -0.463061
   5 O :   -0.292855
   6 C :   -0.153296
   7 C :   -0.426250
   8 S :   -0.145596
   9 C :   -0.233632
  10 S :   -0.145482
  11 P :    0.669835
  12 S :   -0.463463
  13 O :   -0.259866
  14 C :   -0.150336
  15 C :   -0.451976
  16 O :   -0.296122
  17 C :   -0.153047
  18 C :   -0.426367
  19 H :    0.166231
  20 H :    0.151726
  21 H :    0.145242
  22 H :    0.161083
  23 H :    0.175799
  24 H :    0.152396
  25 H :    0.150360
  26 H :    0.147547
  27 H :    0.164980
  28 H :    0.168444
  29 H :    0.209632
  30 H :    0.209645
  31 H :    0.161564
  32 H :    0.175710
  33 H :    0.151586
  34 H :    0.144996
  35 H :    0.166059
  36 H :    0.152453
  37 H :    0.150392
  38 H :    0.164814
  39 H :    0.168471
  40 H :    0.147464
Sum of atomic charges:   -0.0000000

LOEWDIN ATOMIC CHARGES
----------------------
   0 C :   -0.397167
   1 C :    0.009290
   2 O :   -0.664804
   3 P :    0.386058
   4 S :   -0.126169
   5 O :   -0.653938
   6 C :    0.023713
   7 C :   -0.406730
   8 S :    0.160903
   9 C :   -0.419277
  10 S :    0.160097
  11 P :    0.386801
  12 S :   -0.126473
  13 O :   -0.662495
  14 C :    0.008041
  15 C :   -0.396807
  16 O :   -0.653216
  17 C :    0.023618
  18 C :   -0.406642
  19 H :    0.164357
  20 H :    0.158097
  21 H :    0.158753
  22 H :    0.181371
  23 H :    0.182052
  24 H :    0.171831
  25 H :    0.181781
  26 H :    0.158164
  27 H :    0.165468
  28 H :    0.165811
  29 H :    0.190104
  30 H :    0.190160
  31 H :    0.181184
  32 H :    0.182132
  33 H :    0.158049
  34 H :    0.158657
  35 H :    0.164191
  36 H :    0.171882
  37 H :    0.181783
  38 H :    0.165426
  39 H :    0.165806
  40 H :    0.158138

  Mayer bond orders larger than 0.100000
B(  0-C ,  1-C ) :   0.9319 B(  0-C , 19-H ) :   0.9635 B(  0-C , 20-H ) :   0.9755
B(  0-C , 21-H ) :   0.9660 B(  1-C ,  2-O ) :   0.7684 B(  1-C , 22-H ) :   0.9627
B(  1-C , 23-H ) :   0.9570 B(  2-O ,  3-P ) :   1.1315 B(  3-P ,  4-S ) :   1.7745
B(  3-P ,  5-O ) :   1.1074 B(  3-P ,  8-S ) :   1.0382 B(  5-O ,  6-C ) :   0.8062
B(  6-C ,  7-C ) :   0.9395 B(  6-C , 24-H ) :   0.9642 B(  6-C , 25-H ) :   0.9581
B(  7-C , 26-H ) :   0.9623 B(  7-C , 27-H ) :   0.9661 B(  7-C , 28-H ) :   0.9543
B(  8-S ,  9-C ) :   0.9020 B(  9-C , 10-S ) :   0.9032 B(  9-C , 29-H ) :   0.9111
B(  9-C , 30-H ) :   0.9111 B( 10-S , 11-P ) :   1.0349 B( 11-P , 12-S ) :   1.7736
B( 11-P , 13-O ) :   1.1323 B( 11-P , 16-O ) :   1.1104 B( 13-O , 14-C ) :   0.7637
B( 14-C , 15-C ) :   0.9336 B( 14-C , 31-H ) :   0.9626 B( 14-C , 32-H ) :   0.9564
B( 15-C , 33-H ) :   0.9759 B( 15-C , 34-H ) :   0.9664 B( 15-C , 35-H ) :   0.9643
B( 16-O , 17-C ) :   0.8066 B( 17-C , 18-C ) :   0.9396 B( 17-C , 36-H ) :   0.9640
B( 17-C , 37-H ) :   0.9581 B( 18-C , 38-H ) :   0.9662 B( 18-C , 39-H ) :   0.9544
B( 18-C , 40-H ) :   0.9624

Dispersion correction           -0.022066849
FINAL SINGLE POINT ENERGY     -2932.459107704034

DIPOLE MOMENT
-------------

Method             : SCF
Type of density    : Electron Density
Multiplicity       :   1
Irrep              :   0
Energy             : -2932.4834947659446698 Eh
Relativity type    :
Basis              : AO
                                X                 Y                 Z
Electronic contribution:      0.038559529      -4.053787265      -8.463719787
Nuclear contribution   :     -0.031777149       4.358174515       9.116007682
                        -----------------------------------------
Total Dipole Moment    :      0.006782379       0.304387250       0.652287895
                        -----------------------------------------
Magnitude (a.u.)       :      0.719845189
Magnitude (Debye)      :      1.829701063

Rotational constants in cm-1:             0.012427             0.005197             0.005082
Rotational constants in MHz :           372.559093           155.788305           152.345347

                             ****ORCA TERMINATED NORMALLY****
TOTAL RUN TIME: 0 days 0 hours 1 minutes 22 seconds 338 msec
