                         Program Version 6.0.0  -   RELEASE  -
|  1> ! r2scan-3c def2/J RI DEFGRID2 scfconv6 printgap
|  2> %output
|  3>     printlevel normal
|  4> end
|  5> %cpcm
|  6>     smd true
|  7>     smdsolvent "water"
|  8> end
|  9> * xyz 0 1
| 10> C 2.3901628754 -0.8096564551 3.426274013
| 11> C 1.2061386181 -0.8968273512 2.4861417565
| 12> O 1.3130741457 0.0920474243 1.4479059442
| 13> P 2.1612679527 -0.1127546971 0.1261937264
| 14> S 2.8035468788 -1.944191338 -0.1710076704
| 15> O 3.2382343596 1.0297519782 0.348437616
| 16> C 4.0148457509 1.6666321118 -0.6829895061
| 17> C 4.7451209476 0.6773342713 -1.5675960232
| 18> S 0.9112199292 0.7030860867 -1.3842105736
| 19> C 0.0455196276 -0.8348245769 -1.7934921233
| 20> S -0.8689208445 -1.5333776535 -0.394554309
| 21> P -2.17017616 0.1206864873 -0.099470679
| 22> S -2.7542051878 1.0638844685 -1.7193228099
| 23> O -1.4013540238 1.016578719 0.9556886436
| 24> C -1.270081991 2.4442125588 0.8484852432
| 25> C -2.4718636097 3.1332209468 1.4606152209
| 26> O -3.2813768274 -0.4744361856 0.8618128584
| 27> C -4.0164898917 -1.6928421869 0.6438799506
| 28> C -4.6867837501 -1.7420320132 -0.7137053325
| 29> H 3.3051046117 -1.0368451989 2.8804777898
| 30> H 2.4685820758 0.191807133 3.8401587335
| 31> H 2.2676909506 -1.5279535135 4.2305546833
| 32> H 0.2641992168 -0.6641354808 2.9860514517
| 33> H 1.1440662527 -1.8905757746 2.0290945827
| 34> H 3.3439069429 2.2947536367 -1.2760595694
| 35> H 4.7126779813 2.2944674685 -0.1259097802
| 36> H 5.3837159162 1.2165722178 -2.2598693353
| 37> H 5.3527259554 0.0059696687 -0.965318325
| 38> H 4.0314983463 0.0812606673 -2.1349141677
| 39> H 0.7663191138 -1.5935728602 -2.0966474007
| 40> H -0.6453751855 -0.5905120553 -2.5998265035
| 41> H -0.3465225028 2.6741352156 1.3829854821
| 42> H -1.1611347293 2.7170727079 -0.2069706541
| 43> H -2.5989664979 2.8200922209 2.4931339417
| 44> H -2.331384218 4.2086102099 1.4205754645
| 45> H -3.3675518981 2.8687556717 0.9001975793
| 46> H -3.327851536 -2.5337814598 0.7666381861
| 47> H -4.7506983248 -1.6956481812 1.4516026841
| 48> H -5.3114311899 -0.8640008945 -0.8604464647
| 49> H -3.9368807258 -1.7677003286 -1.5032454772
| 50> H -5.3001437648 -2.6348740271 -0.7802922119
| 51> *
| 52>
| 53>                          ****END OF INPUT****

CARTESIAN COORDINATES (ANGSTROEM)
---------------------------------
  C      2.390163   -0.809656    3.426274
  C      1.206139   -0.896827    2.486142
  O      1.313074    0.092047    1.447906
  P      2.161268   -0.112755    0.126194
  S      2.803547   -1.944191   -0.171008
  O      3.238234    1.029752    0.348438
  C      4.014846    1.666632   -0.682990
  C      4.745121    0.677334   -1.567596
  S      0.911220    0.703086   -1.384211
  C      0.045520   -0.834825   -1.793492
  S     -0.868921   -1.533378   -0.394554
  P     -2.170176    0.120686   -0.099471
  S     -2.754205    1.063884   -1.719323
  O     -1.401354    1.016579    0.955689
  C     -1.270082    2.444213    0.848485
  C     -2.471864    3.133221    1.460615
  O     -3.281377   -0.474436    0.861813
  C     -4.016490   -1.692842    0.643880
  C     -4.686784   -1.742032   -0.713705
  H      3.305105   -1.036845    2.880478
  H      2.468582    0.191807    3.840159
  H      2.267691   -1.527954    4.230555
  H      0.264199   -0.664135    2.986051
  H      1.144066   -1.890576    2.029095
  H      3.343907    2.294754   -1.276060
  H      4.712678    2.294467   -0.125910
  H      5.383716    1.216572   -2.259869
  H      5.352726    0.005970   -0.965318
  H      4.031498    0.081261   -2.134914
  H      0.766319   -1.593573   -2.096647
  H     -0.645375   -0.590512   -2.599827
  H     -0.346523    2.674135    1.382985
  H     -1.161135    2.717073   -0.206971
  H     -2.598966    2.820092    2.493134
  H     -2.331384    4.208610    1.420575
  H     -3.367552    2.868756    0.900198
  H     -3.327852   -2.533781    0.766638
  H     -4.750698   -1.695648    1.451603
  H     -5.311431   -0.864001   -0.860446
  H     -3.936881   -1.767700   -1.503245
  H     -5.300144   -2.634874   -0.780292

 Total Charge           Charge          ....    0
 Multiplicity           Mult            ....    1
 Number of Electrons    NEL             ....  202
 Basis Dimension        Dim             ....  539

ORBITAL ENERGIES
----------------

  NO   OCC          E(Eh)            E(eV)
   0   2.0000     -88.579268     -2410.3644
   1   2.0000     -88.579064     -2410.3589
   2   2.0000     -88.526547     -2408.9298
   3   2.0000     -88.526449     -2408.9272
   4   2.0000     -76.919423     -2093.0839
   5   2.0000     -76.919359     -2093.0822
   6   2.0000     -18.995362      -516.8901
   7   2.0000     -18.995236      -516.8866
   8   2.0000     -18.989820      -516.7393
   9   2.0000     -18.989583      -516.7328
  10   2.0000     -10.105887      -274.9952
  11   2.0000     -10.093228      -274.6507
  12   2.0000     -10.093177      -274.6493
  13   2.0000     -10.086882      -274.4780
  14   2.0000     -10.086785      -274.4754
  15   2.0000     -10.018679      -272.6221
  16   2.0000     -10.018674      -272.6220
  17   2.0000     -10.017049      -272.5778
  18   2.0000     -10.016929      -272.5745
  19   2.0000      -7.873588      -214.2512
  20   2.0000      -7.873361      -214.2450
  21   2.0000      -7.821696      -212.8392
  22   2.0000      -7.821594      -212.8364
  23   2.0000      -6.597690      -179.5323
  24   2.0000      -6.597633      -179.5307
  25   2.0000      -5.820401      -158.3812
  26   2.0000      -5.820182      -158.3752
  27   2.0000      -5.817414      -158.2999
  28   2.0000      -5.817183      -158.2936
  29   2.0000      -5.810815      -158.1203
  30   2.0000      -5.810589      -158.1142
  31   2.0000      -5.769328      -156.9914
  32   2.0000      -5.769225      -156.9886
  33   2.0000      -5.761989      -156.7917
  34   2.0000      -5.761903      -156.7894
  35   2.0000      -5.761648      -156.7824
  36   2.0000      -5.761528      -156.7792
  37   2.0000      -4.743099      -129.0663
  38   2.0000      -4.743051      -129.0650
  39   2.0000      -4.742785      -129.0577
  40   2.0000      -4.742718      -129.0559
  41   2.0000      -4.741411      -129.0204
  42   2.0000      -4.741354      -129.0188
  43   2.0000      -1.053164       -28.6581
  44   2.0000      -1.051766       -28.6200
  45   2.0000      -1.012143       -27.5418
  46   2.0000      -1.010484       -27.4967
  47   2.0000      -0.804880       -21.9019
  48   2.0000      -0.755261       -20.5517
  49   2.0000      -0.744588       -20.2613
  50   2.0000      -0.722677       -19.6650
  51   2.0000      -0.721547       -19.6343
  52   2.0000      -0.710277       -19.3276
  53   2.0000      -0.690923       -18.8010
  54   2.0000      -0.676095       -18.3975
  55   2.0000      -0.629299       -17.1241
  56   2.0000      -0.624386       -16.9904
  57   2.0000      -0.602170       -16.3859
  58   2.0000      -0.597763       -16.2660
  59   2.0000      -0.593192       -16.1416
  60   2.0000      -0.523130       -14.2351
  61   2.0000      -0.511266       -13.9123
  62   2.0000      -0.487801       -13.2737
  63   2.0000      -0.484856       -13.1936
  64   2.0000      -0.475924       -12.9505
  65   2.0000      -0.459190       -12.4952
  66   2.0000      -0.453958       -12.3528
  67   2.0000      -0.447523       -12.1777
  68   2.0000      -0.444227       -12.0880
  69   2.0000      -0.435498       -11.8505
  70   2.0000      -0.429731       -11.6936
  71   2.0000      -0.403618       -10.9830
  72   2.0000      -0.401690       -10.9305
  73   2.0000      -0.399508       -10.8712
  74   2.0000      -0.397817       -10.8251
  75   2.0000      -0.394965       -10.7476
  76   2.0000      -0.388412       -10.5692
  77   2.0000      -0.370797       -10.0899
  78   2.0000      -0.356891        -9.7115
  79   2.0000      -0.354793        -9.6544
  80   2.0000      -0.352856        -9.6017
  81   2.0000      -0.351991        -9.5782
  82   2.0000      -0.351095        -9.5538
  83   2.0000      -0.350630        -9.5411
  84   2.0000      -0.344258        -9.3677
  85   2.0000      -0.332097        -9.0368
  86   2.0000      -0.321029        -8.7356
  87   2.0000      -0.308337        -8.3903
  88   2.0000      -0.308288        -8.3889
  89   2.0000      -0.298161        -8.1134
  90   2.0000      -0.297953        -8.1077
  91   2.0000      -0.294194        -8.0054
  92   2.0000      -0.287005        -7.8098
  93   2.0000      -0.280529        -7.6336
  94   2.0000      -0.268375        -7.3028
  95   2.0000      -0.248740        -6.7686
  96   2.0000      -0.235976        -6.4212
  97   2.0000      -0.233558        -6.3554
  98   2.0000      -0.226743        -6.1700
  99   2.0000      -0.218824        -5.9545
 100   2.0000      -0.217030        -5.9057
 101   0.0000      -0.053280        -1.4498
 102   0.0000      -0.031795        -0.8652
 103   0.0000      -0.006463        -0.1759
 104   0.0000      -0.006441        -0.1753
 105   0.0000       0.010270         0.2795

MULLIKEN ATOMIC CHARGES
-----------------------
   0 C :   -0.492334
   1 C :   -0.139579
   2 O :   -0.291465
   3 P :    0.701605
   4 S :   -0.507267
   5 O :   -0.326901
   6 C :   -0.154040
   7 C :   -0.466620
   8 S :   -0.151033
   9 C :   -0.243947
  10 S :   -0.151281
  11 P :    0.704867
  12 S :   -0.506962
  13 O :   -0.293657
  14 C :   -0.136222
  15 C :   -0.494892
  16 O :   -0.330119
  17 C :   -0.153899
  18 C :   -0.466606
  19 H :    0.165104
  20 H :    0.167026
  21 H :    0.170453
  22 H :    0.179224
  23 H :    0.176776
  24 H :    0.172664
  25 H :    0.176915
  26 H :    0.173777
  27 H :    0.170524
  28 H :    0.166211
  29 H :    0.231941
  30 H :    0.231844
  31 H :    0.179330
  32 H :    0.176633
  33 H :    0.166741
  34 H :    0.170192
  35 H :    0.165097
  36 H :    0.172353
  37 H :    0.177022
  38 H :    0.170528
  39 H :    0.166126
  40 H :    0.173869
Sum of atomic charges:   -0.0000000

LOEWDIN ATOMIC CHARGES
----------------------
   0 C :   -0.401044
   1 C :    0.012862
   2 O :   -0.682535
   3 P :    0.390475
   4 S :   -0.153806
   5 O :   -0.668925
   6 C :    0.030006
   7 C :   -0.410268
   8 S :    0.161156
   9 C :   -0.412418
  10 S :    0.160116
  11 P :    0.390898
  12 S :   -0.153816
  13 O :   -0.680565
  14 C :    0.011706
  15 C :   -0.400725
  16 O :   -0.668609
  17 C :    0.029919
  18 C :   -0.410168
  19 H :    0.161778
  20 H :    0.162585
  21 H :    0.167987
  22 H :    0.188740
  23 H :    0.182670
  24 H :    0.179631
  25 H :    0.193090
  26 H :    0.168132
  27 H :    0.164346
  28 H :    0.161872
  29 H :    0.197231
  30 H :    0.197239
  31 H :    0.188419
  32 H :    0.182804
  33 H :    0.162540
  34 H :    0.167907
  35 H :    0.161701
  36 H :    0.179536
  37 H :    0.193132
  38 H :    0.164381
  39 H :    0.161831
  40 H :    0.168189

  Mayer bond orders larger than 0.100000
B(  0-C ,  1-C ) :   0.9255 B(  0-C , 19-H ) :   0.9644 B(  0-C , 20-H ) :   0.9727
B(  0-C , 21-H ) :   0.9601 B(  1-C ,  2-O ) :   0.7574 B(  1-C , 22-H ) :   0.9536
B(  1-C , 23-H ) :   0.9528 B(  2-O ,  3-P ) :   1.1313 B(  3-P ,  4-S ) :   1.7371
B(  3-P ,  5-O ) :   1.1131 B(  3-P ,  8-S ) :   1.0543 B(  5-O ,  6-C ) :   0.7968
B(  6-C ,  7-C ) :   0.9206 B(  6-C , 24-H ) :   0.9589 B(  6-C , 25-H ) :   0.9483
B(  7-C , 26-H ) :   0.9562 B(  7-C , 27-H ) :   0.9670 B(  7-C , 28-H ) :   0.9566
B(  8-S ,  9-C ) :   0.8907 B(  9-C , 10-S ) :   0.8918 B(  9-C , 29-H ) :   0.9048
B(  9-C , 30-H ) :   0.9049 B( 10-S , 11-P ) :   1.0513 B( 11-P , 12-S ) :   1.7377
B( 11-P , 13-O ) :   1.1311 B( 11-P , 16-O ) :   1.1155 B( 13-O , 14-C ) :   0.7532
B( 14-C , 15-C ) :   0.9276 B( 14-C , 31-H ) :   0.9534 B( 14-C , 32-H ) :   0.9522
B( 15-C , 33-H ) :   0.9730 B( 15-C , 34-H ) :   0.9605 B( 15-C , 35-H ) :   0.9651
B( 16-O , 17-C ) :   0.7971 B( 17-C , 18-C ) :   0.9209 B( 17-C , 36-H ) :   0.9587
B( 17-C , 37-H ) :   0.9483 B( 18-C , 38-H ) :   0.9671 B( 18-C , 39-H ) :   0.9566
B( 18-C , 40-H ) :   0.9562

Dispersion correction           -0.022066849
FINAL SINGLE POINT ENERGY     -2932.466797469223

DIPOLE MOMENT
-------------

Method             : SCF
Type of density    : Electron Density
Multiplicity       :   1
Irrep              :   0
Energy             : -2932.4911845311335128 Eh
Relativity type    :
Basis              : AO
                                X                 Y                 Z
Electronic contribution:      0.045886616      -4.012108161      -8.384112405
Nuclear contribution   :     -0.031777149       4.358174515       9.116007682
                        -----------------------------------------
Total Dipole Moment    :      0.014109467       0.346066355       0.731895277
                        -----------------------------------------
Magnitude (a.u.)       :      0.809710871
Magnitude (Debye)      :      2.058121473

Rotational constants in cm-1:             0.012427             0.005197             0.005082
Rotational constants in MHz :           372.559093           155.788305           152.345347

                             ****ORCA TERMINATED NORMALLY****
TOTAL RUN TIME: 0 days 0 hours 1 minutes 51 seconds 276 msec
