                         Program Version 6.0.0  -   RELEASE  -
|  1> ! pbe def2-sv(p) def2/J RI DEFGRID1 loosescf d4 GCP(DFT/SV(P)) printgap
|  2> %output
|  3>     printlevel normal
|  4> end
|  5> * xyz 0 1
|  6> C 5.0897070593 -0.6863733284 -1.9789258939
|  7> C 4.7357201136 -0.2326216829 -0.5772952901
|  8> O 3.6075662148 0.6773116369 -0.6073710333
|  9> P 2.1389045696 0.2499061266 -0.1974055895
| 10> S 0.9627915628 1.8089274849 -0.3014161483
| 11> O 2.2180484501 -0.467581764 1.2306754545
| 12> C 2.1176264839 0.2665460054 2.4636834032
| 13> C 3.3458098137 1.1175206946 2.7102310268
| 14> S 1.7651375645 -1.4550817092 -1.3723490047
| 15> C 0.1248925132 -1.9310586314 -0.7724023837
| 16> S -1.2486393325 -1.0784219321 -1.6263581519
| 17> P -2.1200609508 -0.0069224854 -0.0298224022
| 18> S -1.3120641005 -0.2544998533 1.7432566766
| 19> O -3.6484046492 -0.4520657454 -0.0867231508
| 20> C -4.0744336011 -1.742759757 0.3889386732
| 21> C -5.5857401073 -1.7239923271 0.4978004469
| 22> O -2.2238839742 1.4421376876 -0.6390049494
| 23> C -2.385649803 2.6266783122 0.1669801567
| 24> C -3.6922930062 2.6183576579 0.9306131314
| 25> H 5.9844922984 -1.2992855043 -1.9374831117
| 26> H 4.276900055 -1.269023957 -2.4070834146
| 27> H 5.2740225717 0.1767439685 -2.6124737349
| 28> H 5.5458440478 0.3505189986 -0.135612977
| 29> H 4.4938587359 -1.0815141017 0.066690956
| 30> H 1.2153890168 0.8850735303 2.4296661678
| 31> H 1.9927452492 -0.5078568003 3.2218421526
| 32> H 3.2478798208 1.6157490667 3.669551382
| 33> H 4.2403305506 0.5000568375 2.7140917632
| 34> H 3.4340735768 1.8711640075 1.9277945751
| 35> H 0.0526371015 -1.735298068 0.3007404047
| 36> H 0.0315193824 -2.9910859309 -0.9915877308
| 37> H -3.7355491817 -2.4996748616 -0.3245679009
| 38> H -3.6033226569 -1.9288697699 1.3602425579
| 39> H -5.9007159984 -0.9694681135 1.2128982967
| 40> H -6.0224513147 -1.4954544622 -0.4699733015
| 41> H -5.9307862093 -2.697990913 0.8285594304
| 42> H -1.5280463666 2.7018409437 0.8432505131
| 43> H -2.3386068812 3.4379159589 -0.5606201956
| 44> H -4.5240292868 2.473814197 0.2459881262
| 45> H -3.6895884059 1.8083115214 1.6594868183
| 46> H -3.8086526392 3.5631062834 1.4522609885
| 47> *
| 48>
| 49>                          ****END OF INPUT****

CARTESIAN COORDINATES (ANGSTROEM)
---------------------------------
  C      5.089707   -0.686373   -1.978926
  C      4.735720   -0.232622   -0.577295
  O      3.607566    0.677312   -0.607371
  P      2.138905    0.249906   -0.197406
  S      0.962792    1.808927   -0.301416
  O      2.218048   -0.467582    1.230675
  C      2.117626    0.266546    2.463683
  C      3.345810    1.117521    2.710231
  S      1.765138   -1.455082   -1.372349
  C      0.124893   -1.931059   -0.772402
  S     -1.248639   -1.078422   -1.626358
  P     -2.120061   -0.006922   -0.029822
  S     -1.312064   -0.254500    1.743257
  O     -3.648405   -0.452066   -0.086723
  C     -4.074434   -1.742760    0.388939
  C     -5.585740   -1.723992    0.497800
  O     -2.223884    1.442138   -0.639005
  C     -2.385650    2.626678    0.166980
  C     -3.692293    2.618358    0.930613
  H      5.984492   -1.299286   -1.937483
  H      4.276900   -1.269024   -2.407083
  H      5.274023    0.176744   -2.612474
  H      5.545844    0.350519   -0.135613
  H      4.493859   -1.081514    0.066691
  H      1.215389    0.885074    2.429666
  H      1.992745   -0.507857    3.221842
  H      3.247880    1.615749    3.669551
  H      4.240331    0.500057    2.714092
  H      3.434074    1.871164    1.927795
  H      0.052637   -1.735298    0.300740
  H      0.031519   -2.991086   -0.991588
  H     -3.735549   -2.499675   -0.324568
  H     -3.603323   -1.928870    1.360243
  H     -5.900716   -0.969468    1.212898
  H     -6.022451   -1.495454   -0.469973
  H     -5.930786   -2.697991    0.828559
  H     -1.528046    2.701841    0.843251
  H     -2.338607    3.437916   -0.560620
  H     -4.524029    2.473814    0.245988
  H     -3.689588    1.808312    1.659487
  H     -3.808653    3.563106    1.452261

 Total Charge           Charge          ....    0
 Multiplicity           Mult            ....    1
 Number of Electrons    NEL             ....  202
 Basis Dimension        Dim             ....  334

ORBITAL ENERGIES
----------------

  NO   OCC          E(Eh)            E(eV)
   0   2.0000     -88.041193     -2395.7227
   1   2.0000     -88.038254     -2395.6427
   2   2.0000     -87.987126     -2394.2514
   3   2.0000     -87.975221     -2393.9275
   4   2.0000     -76.423191     -2079.5807
   5   2.0000     -76.419953     -2079.4926
   6   2.0000     -18.791530      -511.3435
   7   2.0000     -18.786068      -511.1949
   8   2.0000     -18.785057      -511.1674
   9   2.0000     -18.784774      -511.1597
  10   2.0000      -9.957048      -270.9451
  11   2.0000      -9.955449      -270.9015
  12   2.0000      -9.948643      -270.7163
  13   2.0000      -9.945912      -270.6420
  14   2.0000      -9.942182      -270.5405
  15   2.0000      -9.888526      -269.0805
  16   2.0000      -9.886285      -269.0195
  17   2.0000      -9.881345      -268.8851
  18   2.0000      -9.878951      -268.8199
  19   2.0000      -7.686785      -209.1680
  20   2.0000      -7.683761      -209.0858
  21   2.0000      -7.631854      -207.6733
  22   2.0000      -7.620319      -207.3594
  23   2.0000      -6.420700      -174.7161
  24   2.0000      -6.417878      -174.6393
  25   2.0000      -5.714700      -155.5049
  26   2.0000      -5.711644      -155.4217
  27   2.0000      -5.711163      -155.4087
  28   2.0000      -5.708287      -155.3304
  29   2.0000      -5.703726      -155.2063
  30   2.0000      -5.700635      -155.1222
  31   2.0000      -5.660509      -154.0303
  32   2.0000      -5.653000      -153.8259
  33   2.0000      -5.651712      -153.7909
  34   2.0000      -5.649374      -153.7273
  35   2.0000      -5.640941      -153.4978
  36   2.0000      -5.640281      -153.4799
  37   2.0000      -4.642887      -126.3394
  38   2.0000      -4.642360      -126.3250
  39   2.0000      -4.641603      -126.3045
  40   2.0000      -4.640873      -126.2846
  41   2.0000      -4.639439      -126.2456
  42   2.0000      -4.638131      -126.2100
  43   2.0000      -0.982231       -26.7279
  44   2.0000      -0.981734       -26.7143
  45   2.0000      -0.941018       -25.6064
  46   2.0000      -0.939592       -25.5676
  47   2.0000      -0.759397       -20.6642
  48   2.0000      -0.719919       -19.5900
  49   2.0000      -0.708223       -19.2717
  50   2.0000      -0.689465       -18.7613
  51   2.0000      -0.684502       -18.6262
  52   2.0000      -0.670750       -18.2520
  53   2.0000      -0.649118       -17.6634
  54   2.0000      -0.632900       -17.2221
  55   2.0000      -0.598568       -16.2879
  56   2.0000      -0.583245       -15.8709
  57   2.0000      -0.576238       -15.6802
  58   2.0000      -0.562781       -15.3140
  59   2.0000      -0.558635       -15.2012
  60   2.0000      -0.501789       -13.6544
  61   2.0000      -0.495853       -13.4928
  62   2.0000      -0.474748       -12.9186
  63   2.0000      -0.471140       -12.8204
  64   2.0000      -0.451371       -12.2824
  65   2.0000      -0.446729       -12.1561
  66   2.0000      -0.437943       -11.9170
  67   2.0000      -0.430447       -11.7131
  68   2.0000      -0.424456       -11.5500
  69   2.0000      -0.415447       -11.3049
  70   2.0000      -0.404793       -11.0150
  71   2.0000      -0.397164       -10.8074
  72   2.0000      -0.392952       -10.6928
  73   2.0000      -0.382468       -10.4075
  74   2.0000      -0.377182       -10.2636
  75   2.0000      -0.371429       -10.1071
  76   2.0000      -0.364072        -9.9069
  77   2.0000      -0.356662        -9.7053
  78   2.0000      -0.354782        -9.6541
  79   2.0000      -0.352032        -9.5793
  80   2.0000      -0.344466        -9.3734
  81   2.0000      -0.341405        -9.2901
  82   2.0000      -0.340136        -9.2556
  83   2.0000      -0.335176        -9.1206
  84   2.0000      -0.331123        -9.0103
  85   2.0000      -0.312650        -8.5076
  86   2.0000      -0.308789        -8.4026
  87   2.0000      -0.303236        -8.2515
  88   2.0000      -0.296807        -8.0765
  89   2.0000      -0.282392        -7.6843
  90   2.0000      -0.272108        -7.4044
  91   2.0000      -0.271366        -7.3842
  92   2.0000      -0.269688        -7.3386
  93   2.0000      -0.263172        -7.1613
  94   2.0000      -0.256348        -6.9756
  95   2.0000      -0.234787        -6.3889
  96   2.0000      -0.220694        -6.0054
  97   2.0000      -0.209770        -5.7081
  98   2.0000      -0.205289        -5.5862
  99   2.0000      -0.191255        -5.2043
 100   2.0000      -0.182281        -4.9601
 101   0.0000      -0.035934        -0.9778
 102   0.0000      -0.026798        -0.7292
 103   0.0000      -0.011802        -0.3212
 104   0.0000       0.009782         0.2662
 105   0.0000       0.023744         0.6461

MULLIKEN ATOMIC CHARGES
-----------------------
   0 C :   -0.290407
   1 C :   -0.034061
   2 O :   -0.366337
   3 P :    0.615490
   4 S :   -0.309559
   5 O :   -0.387229
   6 C :   -0.015513
   7 C :   -0.313458
   8 S :   -0.104547
   9 C :   -0.350632
  10 S :   -0.074816
  11 P :    0.625675
  12 S :   -0.334435
  13 O :   -0.374361
  14 C :   -0.006896
  15 C :   -0.280240
  16 O :   -0.358636
  17 C :   -0.003372
  18 C :   -0.307367
  19 H :    0.110854
  20 H :    0.131663
  21 H :    0.123789
  22 H :    0.111189
  23 H :    0.110035
  24 H :    0.129568
  25 H :    0.101249
  26 H :    0.112355
  27 H :    0.108083
  28 H :    0.129940
  29 H :    0.201996
  30 H :    0.181132
  31 H :    0.092941
  32 H :    0.099848
  33 H :    0.118479
  34 H :    0.117537
  35 H :    0.109801
  36 H :    0.121726
  37 H :    0.108321
  38 H :    0.116699
  39 H :    0.123027
  40 H :    0.110468
Sum of atomic charges:    0.0000000

LOEWDIN ATOMIC CHARGES
----------------------
   0 C :   -0.359439
   1 C :   -0.121421
   2 O :   -0.240801
   3 P :    0.563633
   4 S :   -0.302634
   5 O :   -0.253270
   6 C :   -0.125022
   7 C :   -0.366699
   8 S :    0.084120
   9 C :   -0.478400
  10 S :    0.085759
  11 P :    0.575654
  12 S :   -0.306151
  13 O :   -0.249813
  14 C :   -0.124331
  15 C :   -0.350172
  16 O :   -0.228683
  17 C :   -0.113516
  18 C :   -0.366995
  19 H :    0.130758
  20 H :    0.120164
  21 H :    0.131015
  22 H :    0.120468
  23 H :    0.109197
  24 H :    0.108618
  25 H :    0.116892
  26 H :    0.131066
  27 H :    0.120119
  28 H :    0.125657
  29 H :    0.124055
  30 H :    0.136677
  31 H :    0.104801
  32 H :    0.104668
  33 H :    0.127460
  34 H :    0.127357
  35 H :    0.129679
  36 H :    0.110706
  37 H :    0.121686
  38 H :    0.126099
  39 H :    0.121007
  40 H :    0.130034

  Mayer bond orders larger than 0.100000
B(  0-C ,  1-C ) :   1.1672 B(  0-C , 19-H ) :   0.9390 B(  0-C , 20-H ) :   0.9370
B(  0-C , 21-H ) :   0.9454 B(  1-C ,  2-O ) :   0.8969 B(  1-C , 22-H ) :   0.9320
B(  1-C , 23-H ) :   0.9139 B(  2-O ,  3-P ) :   1.1137 B(  3-P ,  4-S ) :   1.6616
B(  3-P ,  5-O ) :   1.0690 B(  3-P ,  8-S ) :   0.9657 B(  4-S ,  8-S ) :   0.1072
B(  5-O ,  6-C ) :   0.9031 B(  6-C ,  7-C ) :   1.1586 B(  6-C , 24-H ) :   0.9049
B(  6-C , 25-H ) :   0.9361 B(  7-C , 26-H ) :   0.9403 B(  7-C , 27-H ) :   0.9453
B(  7-C , 28-H ) :   0.9352 B(  8-S ,  9-C ) :   0.9965 B(  9-C , 10-S ) :   1.0052
B(  9-C , 29-H ) :   0.8473 B(  9-C , 30-H ) :   0.9127 B( 10-S , 11-P ) :   0.9635
B( 10-S , 12-S ) :   0.1169 B( 11-P , 12-S ) :   1.5773 B( 11-P , 13-O ) :   1.0914
B( 11-P , 16-O ) :   1.1604 B( 12-S , 29-H ) :   0.1054 B( 13-O , 14-C ) :   0.9132
B( 14-C , 15-C ) :   1.1608 B( 14-C , 31-H ) :   0.9229 B( 14-C , 32-H ) :   0.9096
B( 15-C , 33-H ) :   0.9522 B( 15-C , 34-H ) :   0.9505 B( 15-C , 35-H ) :   0.9423
B( 16-O , 17-C ) :   0.8963 B( 17-C , 18-C ) :   1.1636 B( 17-C , 36-H ) :   0.9158
B( 17-C , 37-H ) :   0.9356 B( 18-C , 38-H ) :   0.9446 B( 18-C , 39-H ) :   0.9340
B( 18-C , 40-H ) :   0.9379

Dispersion correction           -0.065878877
FINAL SINGLE POINT ENERGY     -2929.518926341987

DIPOLE MOMENT
-------------

Method             : SCF
Type of density    : Electron Density
Multiplicity       :   1
Irrep              :   0
Energy             : -2929.6380877038532162 Eh
Relativity type    :
Basis              : AO
                                X                 Y                 Z
Electronic contribution:      1.476819966      -1.489300702     -11.364541411
Nuclear contribution   :     -1.234539779       0.681588773      11.967780587
                        -----------------------------------------
Total Dipole Moment    :      0.242280187      -0.807711929       0.603239176
                        -----------------------------------------
Magnitude (a.u.)       :      1.036820019
Magnitude (Debye)      :      2.635387051

Rotational constants in cm-1:             0.013741             0.004839             0.004377
Rotational constants in MHz :           411.941486           145.074643           131.225149

                             ****ORCA TERMINATED NORMALLY****
TOTAL RUN TIME: 0 days 0 hours 0 minutes 21 seconds 456 msec
