                         Program Version 6.0.0  -   RELEASE  -
|  1> ! pbe def2-sv(p) def2/J RI DEFGRID1 loosescf d4 GCP(DFT/SV(P)) printgap
|  2> %output
|  3>     printlevel normal
|  4> end
|  5> * xyz 0 1
|  6> C 4.5118736201 -2.7222766455 -0.7654110482
|  7> C 3.8388884275 -1.741410587 -1.7028549354
|  8> O 3.8663664227 -0.3944751602 -1.165386537
|  9> P 2.7529387458 0.2251812352 -0.247189402
| 10> S 3.0626707861 2.1188064329 0.1239707205
| 11> O 2.7969632556 -0.7224496349 1.0332081117
| 12> C 2.1115528635 -0.4268958665 2.2649975848
| 13> C 0.9665954545 -1.3976865663 2.4783236125
| 14> S 0.9309030452 -0.23215999 -1.2859999354
| 15> C 0.0708097424 1.3296745335 -0.9947908866
| 16> S -0.757183535 1.3941680371 0.6136646321
| 17> P -2.3743079194 0.1422475827 0.067379611
| 18> S -3.1163230791 0.4131942123 -1.7341693044
| 19> O -3.3666254461 0.2422216823 1.3012931966
| 20> C -3.8474655625 1.4620595516 1.8940489194
| 21> C -4.45660588 2.409310694 0.8810406512
| 22> O -1.755400881 -1.2991737632 0.2934062691
| 23> C -2.2300801175 -2.4634722922 -0.4090745835
| 24> C -3.5725845078 -2.9098667194 0.1295839018
| 25> H 4.5403124154 -3.6993294231 -1.2377215804
| 26> H 5.526611326 -2.3966439729 -0.5534735653
| 27> H 3.9640158 -2.7906022929 0.1700550589
| 28> H 2.7996705226 -2.0215732148 -1.8961315295
| 29> H 4.3789898048 -1.6585723972 -2.647624756
| 30> H 2.8674393464 -0.5331497182 3.0459504304
| 31> H 1.7618183943 0.6106674056 2.2461935438
| 32> H 0.2191884422 -1.2927182038 1.6956936858
| 33> H 1.3376357894 -2.4186152007 2.4740023142
| 34> H 0.5006101486 -1.1890362556 3.4359235815
| 35> H -0.6750346665 1.4323425688 -1.7841045818
| 36> H 0.7917416601 2.1479413467 -1.0120342592
| 37> H -4.5899625767 1.1202886375 2.6173954644
| 38> H -3.0126698957 1.9386054512 2.415695182
| 39> H -5.2394736016 1.9096736692 0.3151166124
| 40> H -4.8776894092 3.2668031364 1.3960512025
| 41> H -3.6945935259 2.7555557919 0.1836025055
| 42> H -2.2963307853 -2.226342936 -1.4759751943
| 43> H -1.4525862586 -3.2102012073 -0.2448087932
| 44> H -3.5073994548 -3.0893322089 1.1992000397
| 45> H -4.3137545296 -2.13163777 -0.05047415
| 46> H -3.8826271246 -3.8195017455 -0.3748116839
| 47> *
| 48>
| 49>                          ****END OF INPUT****

CARTESIAN COORDINATES (ANGSTROEM)
---------------------------------
  C      4.511874   -2.722277   -0.765411
  C      3.838888   -1.741411   -1.702855
  O      3.866366   -0.394475   -1.165387
  P      2.752939    0.225181   -0.247189
  S      3.062671    2.118806    0.123971
  O      2.796963   -0.722450    1.033208
  C      2.111553   -0.426896    2.264998
  C      0.966595   -1.397687    2.478324
  S      0.930903   -0.232160   -1.286000
  C      0.070810    1.329675   -0.994791
  S     -0.757184    1.394168    0.613665
  P     -2.374308    0.142248    0.067380
  S     -3.116323    0.413194   -1.734169
  O     -3.366625    0.242222    1.301293
  C     -3.847466    1.462060    1.894049
  C     -4.456606    2.409311    0.881041
  O     -1.755401   -1.299174    0.293406
  C     -2.230080   -2.463472   -0.409075
  C     -3.572585   -2.909867    0.129584
  H      4.540312   -3.699329   -1.237722
  H      5.526611   -2.396644   -0.553474
  H      3.964016   -2.790602    0.170055
  H      2.799671   -2.021573   -1.896132
  H      4.378990   -1.658572   -2.647625
  H      2.867439   -0.533150    3.045950
  H      1.761818    0.610667    2.246194
  H      0.219188   -1.292718    1.695694
  H      1.337636   -2.418615    2.474002
  H      0.500610   -1.189036    3.435924
  H     -0.675035    1.432343   -1.784105
  H      0.791742    2.147941   -1.012034
  H     -4.589963    1.120289    2.617395
  H     -3.012670    1.938605    2.415695
  H     -5.239474    1.909674    0.315117
  H     -4.877689    3.266803    1.396051
  H     -3.694594    2.755556    0.183603
  H     -2.296331   -2.226343   -1.475975
  H     -1.452586   -3.210201   -0.244809
  H     -3.507399   -3.089332    1.199200
  H     -4.313755   -2.131638   -0.050474
  H     -3.882627   -3.819502   -0.374812

 Total Charge           Charge          ....    0
 Multiplicity           Mult            ....    1
 Number of Electrons    NEL             ....  202
 Basis Dimension        Dim             ....  334

ORBITAL ENERGIES
----------------

  NO   OCC          E(Eh)            E(eV)
   0   2.0000     -88.047786     -2395.9021
   1   2.0000     -88.040721     -2395.7098
   2   2.0000     -87.991681     -2394.3754
   3   2.0000     -87.986948     -2394.2466
   4   2.0000     -76.431890     -2079.8174
   5   2.0000     -76.426761     -2079.6779
   6   2.0000     -18.798813      -511.5417
   7   2.0000     -18.795269      -511.4453
   8   2.0000     -18.793713      -511.4029
   9   2.0000     -18.789799      -511.2964
  10   2.0000      -9.963226      -271.1132
  11   2.0000      -9.962357      -271.0895
  12   2.0000      -9.952659      -270.8256
  13   2.0000      -9.952360      -270.8175
  14   2.0000      -9.948366      -270.7088
  15   2.0000      -9.889105      -269.0962
  16   2.0000      -9.887086      -269.0413
  17   2.0000      -9.885609      -269.0011
  18   2.0000      -9.877616      -268.7836
  19   2.0000      -7.692701      -209.3290
  20   2.0000      -7.685615      -209.1362
  21   2.0000      -7.636521      -207.8003
  22   2.0000      -7.632235      -207.6837
  23   2.0000      -6.429252      -174.9488
  24   2.0000      -6.424404      -174.8169
  25   2.0000      -5.720374      -155.6593
  26   2.0000      -5.717279      -155.5751
  27   2.0000      -5.713398      -155.4695
  28   2.0000      -5.710237      -155.3834
  29   2.0000      -5.709833      -155.3724
  30   2.0000      -5.702619      -155.1761
  31   2.0000      -5.665359      -154.1623
  32   2.0000      -5.661228      -154.0499
  33   2.0000      -5.657284      -153.9425
  34   2.0000      -5.656656      -153.9254
  35   2.0000      -5.652804      -153.8206
  36   2.0000      -5.652311      -153.8072
  37   2.0000      -4.651768      -126.5810
  38   2.0000      -4.651189      -126.5653
  39   2.0000      -4.649617      -126.5225
  40   2.0000      -4.647130      -126.4548
  41   2.0000      -4.646049      -126.4254
  42   2.0000      -4.644815      -126.3918
  43   2.0000      -0.992184       -26.9987
  44   2.0000      -0.988424       -26.8964
  45   2.0000      -0.951066       -25.8798
  46   2.0000      -0.945015       -25.7152
  47   2.0000      -0.765504       -20.8304
  48   2.0000      -0.724407       -19.7121
  49   2.0000      -0.713414       -19.4130
  50   2.0000      -0.691739       -18.8232
  51   2.0000      -0.688952       -18.7473
  52   2.0000      -0.676960       -18.4210
  53   2.0000      -0.652381       -17.7522
  54   2.0000      -0.640505       -17.4290
  55   2.0000      -0.602387       -16.3918
  56   2.0000      -0.593332       -16.1454
  57   2.0000      -0.578724       -15.7479
  58   2.0000      -0.574064       -15.6211
  59   2.0000      -0.561439       -15.2775
  60   2.0000      -0.506267       -13.7762
  61   2.0000      -0.496401       -13.5078
  62   2.0000      -0.481683       -13.1073
  63   2.0000      -0.475140       -12.9292
  64   2.0000      -0.462903       -12.5962
  65   2.0000      -0.447707       -12.1827
  66   2.0000      -0.444301       -12.0900
  67   2.0000      -0.440611       -11.9896
  68   2.0000      -0.428550       -11.6614
  69   2.0000      -0.421772       -11.4770
  70   2.0000      -0.410046       -11.1579
  71   2.0000      -0.395231       -10.7548
  72   2.0000      -0.394376       -10.7315
  73   2.0000      -0.389550       -10.6002
  74   2.0000      -0.384078       -10.4513
  75   2.0000      -0.379197       -10.3185
  76   2.0000      -0.367264        -9.9938
  77   2.0000      -0.357443        -9.7265
  78   2.0000      -0.352682        -9.5970
  79   2.0000      -0.351493        -9.5646
  80   2.0000      -0.350848        -9.5471
  81   2.0000      -0.348684        -9.4882
  82   2.0000      -0.346768        -9.4360
  83   2.0000      -0.341881        -9.3030
  84   2.0000      -0.331274        -9.0144
  85   2.0000      -0.323153        -8.7934
  86   2.0000      -0.317563        -8.6413
  87   2.0000      -0.301813        -8.2127
  88   2.0000      -0.295585        -8.0433
  89   2.0000      -0.291820        -7.9408
  90   2.0000      -0.288424        -7.8484
  91   2.0000      -0.279360        -7.6018
  92   2.0000      -0.278331        -7.5738
  93   2.0000      -0.268585        -7.3086
  94   2.0000      -0.256160        -6.9705
  95   2.0000      -0.236300        -6.4300
  96   2.0000      -0.219254        -5.9662
  97   2.0000      -0.212921        -5.7939
  98   2.0000      -0.205334        -5.5874
  99   2.0000      -0.204550        -5.5661
 100   2.0000      -0.201660        -5.4874
 101   0.0000      -0.047384        -1.2894
 102   0.0000      -0.029784        -0.8105
 103   0.0000      -0.012801        -0.3483
 104   0.0000      -0.001917        -0.0522
 105   0.0000       0.011585         0.3152

MULLIKEN ATOMIC CHARGES
-----------------------
   0 C :   -0.293367
   1 C :   -0.021654
   2 O :   -0.355537
   3 P :    0.608023
   4 S :   -0.308098
   5 O :   -0.380380
   6 C :   -0.002501
   7 C :   -0.322150
   8 S :   -0.119489
   9 C :   -0.356779
  10 S :   -0.090374
  11 P :    0.613288
  12 S :   -0.327629
  13 O :   -0.372872
  14 C :   -0.012326
  15 C :   -0.311888
  16 O :   -0.353821
  17 C :   -0.002964
  18 C :   -0.304052
  19 H :    0.110284
  20 H :    0.122185
  21 H :    0.126380
  22 H :    0.113991
  23 H :    0.116211
  24 H :    0.104380
  25 H :    0.104555
  26 H :    0.153201
  27 H :    0.104047
  28 H :    0.103564
  29 H :    0.194167
  30 H :    0.198194
  31 H :    0.111038
  32 H :    0.116026
  33 H :    0.126854
  34 H :    0.114052
  35 H :    0.127701
  36 H :    0.113452
  37 H :    0.103091
  38 H :    0.115672
  39 H :    0.123354
  40 H :    0.112170
Sum of atomic charges:    0.0000000

LOEWDIN ATOMIC CHARGES
----------------------
   0 C :   -0.360967
   1 C :   -0.110194
   2 O :   -0.233984
   3 P :    0.571216
   4 S :   -0.300357
   5 O :   -0.249360
   6 C :   -0.117432
   7 C :   -0.369005
   8 S :    0.060417
   9 C :   -0.487491
  10 S :    0.089809
  11 P :    0.574979
  12 S :   -0.314286
  13 O :   -0.242840
  14 C :   -0.113217
  15 C :   -0.369410
  16 O :   -0.231900
  17 C :   -0.119842
  18 C :   -0.362913
  19 H :    0.129759
  20 H :    0.130491
  21 H :    0.126563
  22 H :    0.105505
  23 H :    0.124520
  24 H :    0.117125
  25 H :    0.102356
  26 H :    0.121774
  27 H :    0.120566
  28 H :    0.128046
  29 H :    0.128337
  30 H :    0.128421
  31 H :    0.122443
  32 H :    0.110668
  33 H :    0.130017
  34 H :    0.131361
  35 H :    0.122273
  36 H :    0.109158
  37 H :    0.117390
  38 H :    0.125979
  39 H :    0.123617
  40 H :    0.130409

  Mayer bond orders larger than 0.100000
B(  0-C ,  1-C ) :   1.1636 B(  0-C , 19-H ) :   0.9384 B(  0-C , 20-H ) :   0.9464
B(  0-C , 21-H ) :   0.9388 B(  1-C ,  2-O ) :   0.8953 B(  1-C , 22-H ) :   0.9151
B(  1-C , 23-H ) :   0.9358 B(  2-O ,  3-P ) :   1.1527 B(  3-P ,  4-S ) :   1.6460
B(  3-P ,  5-O ) :   1.0858 B(  3-P ,  8-S ) :   0.9337 B(  4-S ,  8-S ) :   0.1130
B(  5-O ,  6-C ) :   0.8960 B(  6-C ,  7-C ) :   1.1649 B(  6-C , 24-H ) :   0.9356
B(  6-C , 25-H ) :   0.9018 B(  7-C , 26-H ) :   0.9192 B(  7-C , 27-H ) :   0.9470
B(  7-C , 28-H ) :   0.9402 B(  8-S ,  9-C ) :   1.0201 B(  9-C , 10-S ) :   1.0018
B(  9-C , 29-H ) :   0.8657 B(  9-C , 30-H ) :   0.8604 B( 10-S , 11-P ) :   0.9529
B( 10-S , 12-S ) :   0.1079 B( 11-P , 12-S ) :   1.5960 B( 11-P , 13-O ) :   1.1147
B( 11-P , 16-O ) :   1.1140 B( 13-O , 14-C ) :   0.9116 B( 14-C , 15-C ) :   1.1641
B( 14-C , 31-H ) :   0.9340 B( 14-C , 32-H ) :   0.9281 B( 15-C , 33-H ) :   0.9430
B( 15-C , 34-H ) :   0.9348 B( 15-C , 35-H ) :   0.9328 B( 16-O , 17-C ) :   0.8997
B( 17-C , 18-C ) :   1.1640 B( 17-C , 36-H ) :   0.9110 B( 17-C , 37-H ) :   0.9329
B( 18-C , 38-H ) :   0.9471 B( 18-C , 39-H ) :   0.9366 B( 18-C , 40-H ) :   0.9398

Dispersion correction           -0.064591782
FINAL SINGLE POINT ENERGY     -2929.519593345836

DIPOLE MOMENT
-------------

Method             : SCF
Type of density    : Electron Density
Multiplicity       :   1
Irrep              :   0
Energy             : -2929.6405210653674658 Eh
Relativity type    :
Basis              : AO
                                X                 Y                 Z
Electronic contribution:      8.041753988      15.303288453      -8.754999435
Nuclear contribution   :     -8.625613111     -16.693462861       9.552919067
                        -----------------------------------------
Total Dipole Moment    :     -0.583859124      -1.390174407       0.797919631
                        -----------------------------------------
Magnitude (a.u.)       :      1.705916791
Magnitude (Debye)      :      4.336095887

Rotational constants in cm-1:             0.012702             0.004696             0.004336
Rotational constants in MHz :           380.786567           140.794583           130.004287

                             ****ORCA TERMINATED NORMALLY****
TOTAL RUN TIME: 0 days 0 hours 0 minutes 21 seconds 109 msec
