                         Program Version 6.0.0  -   RELEASE  -
|  1> ! pbe def2-sv(p) def2/J RI DEFGRID1 loosescf d4 GCP(DFT/SV(P)) printgap
|  2> %output
|  3>     printlevel normal
|  4> end
|  5> * xyz 0 1
|  6> C 4.5994746589 0.3260301418 -1.9048524834
|  7> C 4.3718702562 1.1891850958 -0.680974425
|  8> O 3.5154584685 0.5556528564 0.2859689879
|  9> P 1.9710998692 0.2825677412 0.0204671879
| 10> S 1.0310235654 1.7225805282 -0.9085545331
| 11> O 1.4120321689 0.0332319523 1.4732584611
| 12> C 1.9181529333 -0.9760768257 2.3831083387
| 13> C 2.9564717139 -0.3916655189 3.317924205
| 14> S 1.9887683367 -1.6276821388 -0.919662581
| 15> C 0.2329438264 -1.7585106804 -1.3214229083
| 16> S -0.8314888639 -1.9058653039 0.1510053772
| 17> P -1.9807197862 -0.1461697734 -0.0170859068
| 18> S -2.2149611007 0.4725149616 -1.8685934701
| 19> O -1.2966541447 0.7810112459 1.063852168
| 20> C -1.9335806568 1.8989210513 1.7196059651
| 21> C -2.4515626433 2.926034549 0.7357156431
| 22> O -3.3291918636 -0.5311007408 0.7350417117
| 23> C -4.3870909995 -1.2648561665 0.0847501857
| 24> C -5.494532689 -0.3241498247 -0.3481627678
| 25> H 5.3619652827 0.7833504284 -2.5271810414
| 26> H 4.920333424 -0.6704025468 -1.6117658192
| 27> H 3.6791708571 0.2437117715 -2.4807889799
| 28> H 3.9228969734 2.1466468247 -0.9629022443
| 29> H 5.2989645042 1.3612934297 -0.1322861794
| 30> H 1.0331062323 -1.3156532632 2.9252697275
| 31> H 2.3312430804 -1.804569971 1.8006754305
| 32> H 2.5430645557 0.4600698676 3.8510760913
| 33> H 3.2537357953 -1.1525790029 4.0328161715
| 34> H 3.8279286034 -0.0656628798 2.7567816861
| 35> H 0.1278264982 -2.6698850337 -1.9043614996
| 36> H -0.0904669317 -0.8849523084 -1.8958185367
| 37> H -2.7392706219 1.5094159824 2.3461051348
| 38> H -1.1365564098 2.3097218079 2.3421856146
| 39> H -3.2523036943 2.4987783391 0.1330613975
| 40> H -2.8313599653 3.7878647879 1.2751814384
| 41> H -1.6506830166 3.2413743917 0.0686116963
| 42> H -3.9784953314 -1.803430559 -0.7743485677
| 43> H -4.7355110487 -1.9781120311 0.8335523542
| 44> H -5.1235001812 0.3643113182 -1.1047062585
| 45> H -6.3103375297 -0.9029462102 -0.7686346029
| 46> H -5.8578439489 0.2455679967 0.5025408959
| 47> *
| 48>
| 49>                          ****END OF INPUT****

CARTESIAN COORDINATES (ANGSTROEM)
---------------------------------
  C      4.599475    0.326030   -1.904852
  C      4.371870    1.189185   -0.680974
  O      3.515458    0.555653    0.285969
  P      1.971100    0.282568    0.020467
  S      1.031024    1.722581   -0.908555
  O      1.412032    0.033232    1.473258
  C      1.918153   -0.976077    2.383108
  C      2.956472   -0.391666    3.317924
  S      1.988768   -1.627682   -0.919663
  C      0.232944   -1.758511   -1.321423
  S     -0.831489   -1.905865    0.151005
  P     -1.980720   -0.146170   -0.017086
  S     -2.214961    0.472515   -1.868593
  O     -1.296654    0.781011    1.063852
  C     -1.933581    1.898921    1.719606
  C     -2.451563    2.926035    0.735716
  O     -3.329192   -0.531101    0.735042
  C     -4.387091   -1.264856    0.084750
  C     -5.494533   -0.324150   -0.348163
  H      5.361965    0.783350   -2.527181
  H      4.920333   -0.670403   -1.611766
  H      3.679171    0.243712   -2.480789
  H      3.922897    2.146647   -0.962902
  H      5.298965    1.361293   -0.132286
  H      1.033106   -1.315653    2.925270
  H      2.331243   -1.804570    1.800675
  H      2.543065    0.460070    3.851076
  H      3.253736   -1.152579    4.032816
  H      3.827929   -0.065663    2.756782
  H      0.127826   -2.669885   -1.904361
  H     -0.090467   -0.884952   -1.895819
  H     -2.739271    1.509416    2.346105
  H     -1.136556    2.309722    2.342186
  H     -3.252304    2.498778    0.133061
  H     -2.831360    3.787865    1.275181
  H     -1.650683    3.241374    0.068612
  H     -3.978495   -1.803431   -0.774349
  H     -4.735511   -1.978112    0.833552
  H     -5.123500    0.364311   -1.104706
  H     -6.310338   -0.902946   -0.768635
  H     -5.857844    0.245568    0.502541

 Total Charge           Charge          ....    0
 Multiplicity           Mult            ....    1
 Number of Electrons    NEL             ....  202
 Basis Dimension        Dim             ....  334

ORBITAL ENERGIES
----------------

  NO   OCC          E(Eh)            E(eV)
   0   2.0000     -88.040640     -2395.7076
   1   2.0000     -88.038369     -2395.6458
   2   2.0000     -87.979406     -2394.0413
   3   2.0000     -87.977758     -2393.9965
   4   2.0000     -76.421647     -2079.5387
   5   2.0000     -76.421138     -2079.5249
   6   2.0000     -18.791941      -511.3547
   7   2.0000     -18.790857      -511.3252
   8   2.0000     -18.785341      -511.1751
   9   2.0000     -18.779270      -511.0099
  10   2.0000      -9.951735      -270.8005
  11   2.0000      -9.951238      -270.7870
  12   2.0000      -9.951155      -270.7847
  13   2.0000      -9.949420      -270.7375
  14   2.0000      -9.946837      -270.6672
  15   2.0000      -9.883063      -268.9318
  16   2.0000      -9.882647      -268.9205
  17   2.0000      -9.881119      -268.8789
  18   2.0000      -9.873966      -268.6843
  19   2.0000      -7.685635      -209.1367
  20   2.0000      -7.683612      -209.0817
  21   2.0000      -7.624407      -207.4707
  22   2.0000      -7.622875      -207.4290
  23   2.0000      -6.418820      -174.6650
  24   2.0000      -6.418530      -174.6571
  25   2.0000      -5.713451      -155.4709
  26   2.0000      -5.711454      -155.4166
  27   2.0000      -5.709960      -155.3759
  28   2.0000      -5.708089      -155.3250
  29   2.0000      -5.702854      -155.1826
  30   2.0000      -5.700595      -155.1211
  31   2.0000      -5.653286      -153.8337
  32   2.0000      -5.651851      -153.7947
  33   2.0000      -5.645134      -153.6119
  34   2.0000      -5.644484      -153.5942
  35   2.0000      -5.643367      -153.5638
  36   2.0000      -5.643053      -153.5553
  37   2.0000      -4.641699      -126.3071
  38   2.0000      -4.641431      -126.2998
  39   2.0000      -4.640340      -126.2701
  40   2.0000      -4.640330      -126.2698
  41   2.0000      -4.639307      -126.2420
  42   2.0000      -4.638660      -126.2243
  43   2.0000      -0.984191       -26.7812
  44   2.0000      -0.982040       -26.7227
  45   2.0000      -0.941430       -25.6176
  46   2.0000      -0.936888       -25.4940
  47   2.0000      -0.759138       -20.6572
  48   2.0000      -0.717064       -19.5123
  49   2.0000      -0.706045       -19.2124
  50   2.0000      -0.687605       -18.7107
  51   2.0000      -0.683370       -18.5954
  52   2.0000      -0.671342       -18.2681
  53   2.0000      -0.647965       -17.6320
  54   2.0000      -0.630191       -17.1484
  55   2.0000      -0.593442       -16.1484
  56   2.0000      -0.586129       -15.9494
  57   2.0000      -0.572361       -15.5747
  58   2.0000      -0.569660       -15.5012
  59   2.0000      -0.558743       -15.2042
  60   2.0000      -0.499925       -13.6036
  61   2.0000      -0.493631       -13.4324
  62   2.0000      -0.471283       -12.8243
  63   2.0000      -0.466606       -12.6970
  64   2.0000      -0.447216       -12.1694
  65   2.0000      -0.443223       -12.0607
  66   2.0000      -0.439046       -11.9471
  67   2.0000      -0.432131       -11.7589
  68   2.0000      -0.424845       -11.5606
  69   2.0000      -0.413507       -11.2521
  70   2.0000      -0.406278       -11.0554
  71   2.0000      -0.403437       -10.9781
  72   2.0000      -0.388026       -10.5587
  73   2.0000      -0.383583       -10.4378
  74   2.0000      -0.377460       -10.2712
  75   2.0000      -0.366182        -9.9643
  76   2.0000      -0.362089        -9.8529
  77   2.0000      -0.355514        -9.6740
  78   2.0000      -0.350296        -9.5320
  79   2.0000      -0.349169        -9.5014
  80   2.0000      -0.344205        -9.3663
  81   2.0000      -0.339768        -9.2456
  82   2.0000      -0.335030        -9.1166
  83   2.0000      -0.331719        -9.0265
  84   2.0000      -0.328705        -8.9445
  85   2.0000      -0.313710        -8.5365
  86   2.0000      -0.312217        -8.4958
  87   2.0000      -0.295134        -8.0310
  88   2.0000      -0.293052        -7.9744
  89   2.0000      -0.288445        -7.8490
  90   2.0000      -0.278031        -7.5656
  91   2.0000      -0.271107        -7.3772
  92   2.0000      -0.265386        -7.2215
  93   2.0000      -0.259407        -7.0588
  94   2.0000      -0.254571        -6.9272
  95   2.0000      -0.234488        -6.3807
  96   2.0000      -0.220635        -6.0038
  97   2.0000      -0.210026        -5.7151
  98   2.0000      -0.197444        -5.3727
  99   2.0000      -0.188683        -5.1343
 100   2.0000      -0.181115        -4.9284
 101   0.0000      -0.035849        -0.9755
 102   0.0000      -0.028188        -0.7670
 103   0.0000      -0.006515        -0.1773
 104   0.0000       0.014979         0.4076
 105   0.0000       0.019994         0.5441

MULLIKEN ATOMIC CHARGES
-----------------------
   0 C :   -0.320216
   1 C :    0.000106
   2 O :   -0.382105
   3 P :    0.593454
   4 S :   -0.293368
   5 O :   -0.343259
   6 C :   -0.011014
   7 C :   -0.286579
   8 S :   -0.106427
   9 C :   -0.353225
  10 S :   -0.100266
  11 P :    0.621285
  12 S :   -0.312100
  13 O :   -0.350277
  14 C :    0.009385
  15 C :   -0.325637
  16 O :   -0.386559
  17 C :   -0.002877
  18 C :   -0.293047
  19 H :    0.113820
  20 H :    0.116296
  21 H :    0.131966
  22 H :    0.111642
  23 H :    0.102724
  24 H :    0.106629
  25 H :    0.100548
  26 H :    0.115538
  27 H :    0.107144
  28 H :    0.120772
  29 H :    0.180751
  30 H :    0.206521
  31 H :    0.102432
  32 H :    0.105657
  33 H :    0.125465
  34 H :    0.105754
  35 H :    0.137426
  36 H :    0.099970
  37 H :    0.104237
  38 H :    0.128954
  39 H :    0.108139
  40 H :    0.110340
Sum of atomic charges:   -0.0000000

LOEWDIN ATOMIC CHARGES
----------------------
   0 C :   -0.371783
   1 C :   -0.118229
   2 O :   -0.249566
   3 P :    0.563498
   4 S :   -0.296064
   5 O :   -0.227180
   6 C :   -0.118779
   7 C :   -0.360024
   8 S :    0.075063
   9 C :   -0.482094
  10 S :    0.073360
  11 P :    0.570236
  12 S :   -0.303164
  13 O :   -0.228941
  14 C :   -0.107033
  15 C :   -0.369579
  16 O :   -0.252062
  17 C :   -0.117053
  18 C :   -0.361666
  19 H :    0.131537
  20 H :    0.122561
  21 H :    0.123211
  22 H :    0.112131
  23 H :    0.117226
  24 H :    0.117802
  25 H :    0.101189
  26 H :    0.126562
  27 H :    0.128375
  28 H :    0.125343
  29 H :    0.137043
  30 H :    0.125449
  31 H :    0.109513
  32 H :    0.120829
  33 H :    0.119824
  34 H :    0.127094
  35 H :    0.132384
  36 H :    0.108102
  37 H :    0.116899
  38 H :    0.125394
  39 H :    0.129119
  40 H :    0.123470

  Mayer bond orders larger than 0.100000
B(  0-C ,  1-C ) :   1.1669 B(  0-C , 19-H ) :   0.9373 B(  0-C , 20-H ) :   0.9436
B(  0-C , 21-H ) :   0.9344 B(  1-C ,  2-O ) :   0.9077 B(  1-C , 22-H ) :   0.9156
B(  1-C , 23-H ) :   0.9339 B(  2-O ,  3-P ) :   1.0756 B(  3-P ,  4-S ) :   1.6582
B(  3-P ,  5-O ) :   1.1427 B(  3-P ,  8-S ) :   0.9425 B(  4-S ,  8-S ) :   0.1060
B(  5-O ,  6-C ) :   0.8943 B(  6-C ,  7-C ) :   1.1630 B(  6-C , 24-H ) :   0.9329
B(  6-C , 25-H ) :   0.9085 B(  7-C , 26-H ) :   0.9477 B(  7-C , 27-H ) :   0.9401
B(  7-C , 28-H ) :   0.9412 B(  8-S ,  9-C ) :   0.9973 B(  9-C , 10-S ) :   0.9977
B(  9-C , 29-H ) :   0.9119 B(  9-C , 30-H ) :   0.8450 B( 10-S , 11-P ) :   0.9619
B( 10-S , 12-S ) :   0.1233 B( 11-P , 12-S ) :   1.6013 B( 11-P , 13-O ) :   1.1475
B( 11-P , 16-O ) :   1.0796 B( 13-O , 14-C ) :   0.9056 B( 14-C , 15-C ) :   1.1673
B( 14-C , 31-H ) :   0.9315 B( 14-C , 32-H ) :   0.9322 B( 15-C , 33-H ) :   0.9349
B( 15-C , 34-H ) :   0.9355 B( 15-C , 35-H ) :   0.9401 B( 16-O , 17-C ) :   0.9024
B( 17-C , 18-C ) :   1.1682 B( 17-C , 36-H ) :   0.9110 B( 17-C , 37-H ) :   0.9352
B( 18-C , 38-H ) :   0.9333 B( 18-C , 39-H ) :   0.9402 B( 18-C , 40-H ) :   0.9476

Dispersion correction           -0.067755266
FINAL SINGLE POINT ENERGY     -2929.516733463899

DIPOLE MOMENT
-------------

Method             : SCF
Type of density    : Electron Density
Multiplicity       :   1
Irrep              :   0
Energy             : -2929.6344337748960243 Eh
Relativity type    :
Basis              : AO
                                X                 Y                 Z
Electronic contribution:      1.539860628      -5.894925569      -7.258728298
Nuclear contribution   :     -1.305322106       5.280545351       8.319162059
                        -----------------------------------------
Total Dipole Moment    :      0.234538523      -0.614380218       1.060433761
                        -----------------------------------------
Magnitude (a.u.)       :      1.247794507
Magnitude (Debye)      :      3.171641582

Rotational constants in cm-1:             0.013338             0.005105             0.005073
Rotational constants in MHz :           399.877097           153.054485           152.083713

                             ****ORCA TERMINATED NORMALLY****
TOTAL RUN TIME: 0 days 0 hours 0 minutes 21 seconds 677 msec
