                         Program Version 6.0.1  -  RELEASE   -
|  1> ! pbe def2-sv(p) def2/J RI DEFGRID1 loosescf d4 GCP(DFT/SV(P)) printgap
|  2> %output
|  3>     printlevel normal
|  4> end
|  5> * xyz 0 1
|  6> C 1.8869980136 -3.6755118116 -2.1186925218
|  7> C 3.116979322 -2.8924565508 -1.6882368256
|  8> O 2.7409724796 -1.5988411518 -1.1796887855
|  9> C 2.3693568542 -1.5033489921 0.0815695848
| 10> O 2.3948867984 -2.4129538412 0.879263226
| 11> C 1.9128406338 -0.0969766094 0.4275992006
| 12> C 1.0241344377 0.4798312616 -0.6731961074
| 13> H 1.6008353092 0.5984463478 -1.5942067471
| 14> C 0.4285459571 1.8119768641 -0.2679239254
| 15> O -0.7719320795 2.0044470881 -0.2279276846
| 16> O 1.3348849437 2.6959693142 0.0282782919
| 17> C 0.8852947539 3.993174549 0.4832954773
| 18> C 2.1111226213 4.8289291721 0.7889321567
| 19> S -0.3455242628 -0.6325100938 -1.1225802011
| 20> P -1.7254582193 -0.2785677513 0.4702597247
| 21> S -1.1794594039 0.4093527607 2.2233704029
| 22> O -3.065786865 0.3054001691 -0.1745750217
| 23> C -3.5031205159 1.6627541695 -0.2226602358
| 24> O -2.2148323341 -1.7764668703 0.7182119325
| 25> C -2.7818840325 -2.6044415499 -0.3096038248
| 26> H 1.3073616543 -3.096131023 -2.8322595539
| 27> H 2.1949765529 -4.6106811826 -2.5739467199
| 28> H 1.2624234176 -3.890625836 -1.2544789244
| 29> H 3.7668325475 -2.672079658 -2.5348664463
| 30> H 3.6674203584 -3.4293915495 -0.9105792581
| 31> H 2.7910547704 0.5410626666 0.5446977183
| 32> H 1.3825059669 -0.1407516837 1.3820065712
| 33> H 0.2731479116 4.438495769 -0.3061523964
| 34> H 0.2588186767 3.8420205572 1.3676865481
| 35> H 1.7969101431 5.8139046124 1.1172337247
| 36> H 2.6960807254 4.3616723578 1.5750904305
| 37> H 2.7274196076 4.9265006441 -0.0995050191
| 38> H -3.0898273398 2.1517807331 -1.1024113566
| 39> H -3.1868580665 2.194499123 0.6743251926
| 40> H -4.5886364181 1.6142778559 -0.2769906566
| 41> H -2.878282486 -3.5899551293 0.1389884144
| 42> H -2.1166942383 -2.6393001193 -1.173165187
| 43> H -3.7548635679 -2.2147557853 -0.6031377101
| 44> *
| 45>
| 46>                          ****END OF INPUT****

CARTESIAN COORDINATES (ANGSTROEM)
---------------------------------
  C      1.886998   -3.675512   -2.118693
  C      3.116979   -2.892457   -1.688237
  O      2.740972   -1.598841   -1.179689
  C      2.369357   -1.503349    0.081570
  O      2.394887   -2.412954    0.879263
  C      1.912841   -0.096977    0.427599
  C      1.024134    0.479831   -0.673196
  H      1.600835    0.598446   -1.594207
  C      0.428546    1.811977   -0.267924
  O     -0.771932    2.004447   -0.227928
  O      1.334885    2.695969    0.028278
  C      0.885295    3.993175    0.483295
  C      2.111123    4.828929    0.788932
  S     -0.345524   -0.632510   -1.122580
  P     -1.725458   -0.278568    0.470260
  S     -1.179459    0.409353    2.223370
  O     -3.065787    0.305400   -0.174575
  C     -3.503121    1.662754   -0.222660
  O     -2.214832   -1.776467    0.718212
  C     -2.781884   -2.604442   -0.309604
  H      1.307362   -3.096131   -2.832260
  H      2.194977   -4.610681   -2.573947
  H      1.262423   -3.890626   -1.254479
  H      3.766833   -2.672080   -2.534866
  H      3.667420   -3.429392   -0.910579
  H      2.791055    0.541063    0.544698
  H      1.382506   -0.140752    1.382007
  H      0.273148    4.438496   -0.306152
  H      0.258819    3.842021    1.367687
  H      1.796910    5.813905    1.117234
  H      2.696081    4.361672    1.575090
  H      2.727420    4.926501   -0.099505
  H     -3.089827    2.151781   -1.102411
  H     -3.186858    2.194499    0.674325
  H     -4.588636    1.614278   -0.276991
  H     -2.878282   -3.589955    0.138988
  H     -2.116694   -2.639300   -1.173165
  H     -3.754864   -2.214756   -0.603138

 Total Charge           Charge          ....    0
 Multiplicity           Mult            ....    1
 Number of Electrons    NEL             ....  174
 Basis Dimension        Dim             ....  316

ORBITAL ENERGIES
----------------

  NO   OCC          E(Eh)            E(eV)
   0   2.0000     -88.034860     -2395.5503
   1   2.0000     -87.969771     -2393.7792
   2   2.0000     -76.419014     -2079.4671
   3   2.0000     -18.827058      -512.3103
   4   2.0000     -18.802246      -511.6351
   5   2.0000     -18.782324      -511.0930
   6   2.0000     -18.772505      -510.8258
   7   2.0000     -18.759116      -510.4615
   8   2.0000     -18.733115      -509.7540
   9   2.0000     -10.030457      -272.9426
  10   2.0000     -10.007066      -272.3061
  11   2.0000      -9.962229      -271.0860
  12   2.0000      -9.953275      -270.8424
  13   2.0000      -9.947685      -270.6903
  14   2.0000      -9.938280      -270.4343
  15   2.0000      -9.934467      -270.3306
  16   2.0000      -9.905327      -269.5377
  17   2.0000      -9.899358      -269.3752
  18   2.0000      -9.884079      -268.9595
  19   2.0000      -7.679625      -208.9732
  20   2.0000      -7.615127      -207.2182
  21   2.0000      -6.414744      -174.5541
  22   2.0000      -5.707693      -155.3142
  23   2.0000      -5.704247      -155.2204
  24   2.0000      -5.696295      -155.0041
  25   2.0000      -5.644561      -153.5963
  26   2.0000      -5.635894      -153.3605
  27   2.0000      -5.634548      -153.3238
  28   2.0000      -4.637604      -126.1956
  29   2.0000      -4.636663      -126.1700
  30   2.0000      -4.635247      -126.1315
  31   2.0000      -1.036559       -28.2062
  32   2.0000      -1.009262       -27.4634
  33   2.0000      -0.971599       -26.4386
  34   2.0000      -0.939263       -25.5587
  35   2.0000      -0.925889       -25.1947
  36   2.0000      -0.911182       -24.7945
  37   2.0000      -0.768397       -20.9091
  38   2.0000      -0.721999       -19.6466
  39   2.0000      -0.706923       -19.2364
  40   2.0000      -0.687659       -18.7121
  41   2.0000      -0.653056       -17.7706
  42   2.0000      -0.628998       -17.1159
  43   2.0000      -0.627228       -17.0678
  44   2.0000      -0.607254       -16.5242
  45   2.0000      -0.592888       -16.1333
  46   2.0000      -0.567611       -15.4455
  47   2.0000      -0.525293       -14.2939
  48   2.0000      -0.505500       -13.7554
  49   2.0000      -0.498392       -13.5619
  50   2.0000      -0.485534       -13.2120
  51   2.0000      -0.467950       -12.7336
  52   2.0000      -0.463118       -12.6021
  53   2.0000      -0.449930       -12.2432
  54   2.0000      -0.447452       -12.1758
  55   2.0000      -0.433666       -11.8007
  56   2.0000      -0.421924       -11.4811
  57   2.0000      -0.419295       -11.4096
  58   2.0000      -0.414263       -11.2727
  59   2.0000      -0.404267       -11.0007
  60   2.0000      -0.398434       -10.8419
  61   2.0000      -0.389069       -10.5871
  62   2.0000      -0.388529       -10.5724
  63   2.0000      -0.383506       -10.4357
  64   2.0000      -0.380605       -10.3568
  65   2.0000      -0.371155       -10.0996
  66   2.0000      -0.367450        -9.9988
  67   2.0000      -0.357289        -9.7223
  68   2.0000      -0.343744        -9.3538
  69   2.0000      -0.341425        -9.2907
  70   2.0000      -0.332850        -9.0573
  71   2.0000      -0.330042        -8.9809
  72   2.0000      -0.324896        -8.8409
  73   2.0000      -0.317493        -8.6394
  74   2.0000      -0.307321        -8.3626
  75   2.0000      -0.293478        -7.9859
  76   2.0000      -0.291268        -7.9258
  77   2.0000      -0.287769        -7.8306
  78   2.0000      -0.283532        -7.7153
  79   2.0000      -0.261004        -7.1023
  80   2.0000      -0.259294        -7.0558
  81   2.0000      -0.250810        -6.8249
  82   2.0000      -0.246760        -6.7147
  83   2.0000      -0.216199        -5.8831
  84   2.0000      -0.212070        -5.7707
  85   2.0000      -0.190824        -5.1926
  86   2.0000      -0.182183        -4.9575
  87   0.0000      -0.047079        -1.2811
  88   0.0000      -0.037792        -1.0284
  89   0.0000      -0.015805        -0.4301
  90   0.0000      -0.002297        -0.0625
  91   0.0000       0.031098         0.8462

MULLIKEN ATOMIC CHARGES
-----------------------
   0 C :   -0.305665
   1 C :   -0.010933
   2 O :   -0.242980
   3 C :    0.131123
   4 O :   -0.183652
   5 C :   -0.094317
   6 C :   -0.291268
   7 H :    0.150325
   8 C :    0.218142
   9 O :   -0.196514
  10 O :   -0.219056
  11 C :   -0.033262
  12 C :   -0.274361
  13 S :   -0.116642
  14 P :    0.638792
  15 S :   -0.326983
  16 O :   -0.399110
  17 C :   -0.077415
  18 O :   -0.367670
  19 C :   -0.111743
  20 H :    0.113547
  21 H :    0.110590
  22 H :    0.132339
  23 H :    0.099756
  24 H :    0.109730
  25 H :    0.120688
  26 H :    0.126519
  27 H :    0.108988
  28 H :    0.124519
  29 H :    0.117142
  30 H :    0.123528
  31 H :    0.117177
  32 H :    0.112810
  33 H :    0.114650
  34 H :    0.115306
  35 H :    0.129462
  36 H :    0.118782
  37 H :    0.117655
Sum of atomic charges:   -0.0000000

LOEWDIN ATOMIC CHARGES
----------------------
   0 C :   -0.357711
   1 C :   -0.109953
   2 O :   -0.066338
   3 C :    0.025466
   4 O :   -0.153805
   5 C :   -0.256338
   6 C :   -0.262457
   7 H :    0.150479
   8 C :    0.022623
   9 O :   -0.155881
  10 O :   -0.037716
  11 C :   -0.102800
  12 C :   -0.350188
  13 S :    0.095869
  14 P :    0.587331
  15 S :   -0.322061
  16 O :   -0.254242
  17 C :   -0.205940
  18 O :   -0.253255
  19 C :   -0.213798
  20 H :    0.122453
  21 H :    0.128964
  22 H :    0.132145
  23 H :    0.116210
  24 H :    0.120633
  25 H :    0.145346
  26 H :    0.137871
  27 H :    0.118694
  28 H :    0.126249
  29 H :    0.134374
  30 H :    0.130701
  31 H :    0.127852
  32 H :    0.111619
  33 H :    0.111674
  34 H :    0.115494
  35 H :    0.124829
  36 H :    0.102816
  37 H :    0.112794

  Mayer bond orders larger than 0.100000
B(  0-C ,  1-C ) :   1.1760 B(  0-C , 20-H ) :   0.9467 B(  0-C , 21-H ) :   0.9428
B(  0-C , 22-H ) :   0.9435 B(  1-C ,  2-O ) :   0.9174 B(  1-C , 23-H ) :   0.9378
B(  1-C , 24-H ) :   0.9148 B(  2-O ,  3-C ) :   1.2000 B(  3-C ,  4-O ) :   2.0830
B(  3-C ,  5-C ) :   1.0216 B(  5-C ,  6-C ) :   1.0478 B(  5-C , 25-H ) :   0.8684
B(  5-C , 26-H ) :   0.8792 B(  6-C ,  7-H ) :   0.8530 B(  6-C ,  8-C ) :   0.9251
B(  6-C , 13-S ) :   1.0428 B(  8-C ,  9-O ) :   1.9383 B(  8-C , 10-O ) :   1.2818
B(  9-O , 14-P ) :   0.1004 B( 10-O , 11-C ) :   0.8866 B( 11-C , 12-C ) :   1.1553
B( 11-C , 27-H ) :   0.9316 B( 11-C , 28-H ) :   0.9279 B( 12-C , 29-H ) :   0.9420
B( 12-C , 30-H ) :   0.9490 B( 12-C , 31-H ) :   0.9495 B( 13-S , 14-P ) :   0.9141
B( 13-S , 15-S ) :   0.1098 B( 14-P , 15-S ) :   1.5853 B( 14-P , 16-O ) :   1.0864
B( 14-P , 18-O ) :   1.1037 B( 16-O , 17-C ) :   0.9294 B( 17-C , 32-H ) :   0.9528
B( 17-C , 33-H ) :   0.9424 B( 17-C , 34-H ) :   0.9539 B( 18-O , 19-C ) :   0.9352
B( 19-C , 35-H ) :   0.9604 B( 19-C , 36-H ) :   0.9358 B( 19-C , 37-H ) :   0.9469

Dispersion correction           -0.051777341
FINAL SINGLE POINT ENERGY     -1979.009631527118

DIPOLE MOMENT
-------------

Method             : SCF
Type of density    : Electron Density
Multiplicity       :   1
Irrep              :   0
Energy             : -1979.1401706793863013 Eh
Relativity type    :
Basis              : AO
                                X                 Y                 Z
Electronic contribution:     -6.894679396      -3.025301495       6.602731476
Nuclear contribution   :      7.324861486       4.183144971      -8.389898969
                        -----------------------------------------
Total Dipole Moment    :      0.430182091       1.157843476      -1.787167494
                        -----------------------------------------
Magnitude (a.u.)       :      2.172469976
Magnitude (Debye)      :      5.521979840

Rotational constants in cm-1:             0.010599             0.008556             0.005693
Rotational constants in MHz :           317.751893           256.505048           170.663572

                             ****ORCA TERMINATED NORMALLY****
TOTAL RUN TIME: 0 days 0 hours 0 minutes 36 seconds 910 msec
