                         Program Version 6.0.0  -   RELEASE  -
|  1> ! pbe def2-sv(p) def2/J RI DEFGRID1 loosescf d4 GCP(DFT/SV(P)) printgap
|  2> %output
|  3>     printlevel normal
|  4> end
|  5> * xyz 0 1
|  6> C 4.4007071081 0.2849745133 -2.4577904252
|  7> C 4.9000914812 -0.3663616459 -1.1847551746
|  8> O 3.8297846956 -0.9114804197 -0.3909910765
|  9> P 2.6980513076 -0.006463571 0.2630349345
| 10> S 3.2698858269 1.702398254 1.0182727261
| 11> O 2.1106296434 -0.9551028381 1.3742839633
| 12> C 1.6460694923 -2.3058399768 1.1229580627
| 13> C 1.0690370924 -2.827212851 2.4218505228
| 14> S 1.1938538784 0.1054405462 -1.2494529807
| 15> C 0.1785977273 1.3307181271 -0.3857691879
| 16> S -0.8741848401 0.6142911567 0.9039805747
| 17> P -2.508986963 0.1682562172 -0.4072143688
| 18> S -2.1289516026 -0.9392904299 -1.9707239099
| 19> O -3.0310514868 1.5990932599 -0.8271538086
| 20> C -3.5303191558 2.5842732151 0.1127829741
| 21> C -5.0389347353 2.5069780881 0.2248641743
| 22> O -3.639498838 -0.3666205516 0.5705565523
| 23> C -3.7954108894 -1.7669379545 0.8688512865
| 24> C -2.6005108414 -2.3215072604 1.6146528705
| 25> H 3.8316377254 1.1822545985 -2.2182745689
| 26> H 5.2489340825 0.5617662892 -3.0756362464
| 27> H 3.7599917858 -0.3993806403 -3.0089219754
| 28> H 5.4475456183 0.3566236826 -0.5725107938
| 29> H 5.5317302373 -1.2308456056 -1.39438538
| 30> H 0.8949131295 -2.2713764821 0.3273320871
| 31> H 2.4944905094 -2.9034154397 0.7844684237
| 32> H 0.273062122 -2.1709256927 2.762078805
| 33> H 0.6733532112 -3.8249103565 2.2628863026
| 34> H 1.8421835045 -2.8607782029 3.1837360081
| 35> H -0.4453576161 1.8107455969 -1.1374587607
| 36> H 0.839091219 2.0512975519 0.0999209182
| 37> H -3.0516423323 2.4245705761 1.0827629766
| 38> H -3.2131806875 3.5423333874 -0.3037037168
| 39> H -5.387195663 3.3109764386 0.8658279203
| 40> H -5.4903609532 2.6104891334 -0.758091679
| 41> H -5.3382994614 1.553340717 0.6504428525
| 42> H -4.7039818013 -1.8065784005 1.471112871
| 43> H -3.9452428038 -2.3043079392 -0.0723132358
| 44> H -2.8018297678 -3.3454938615 1.9118559461
| 45> H -1.726900554 -2.3075196805 0.9645213636
| 46> H -2.3950969711 -1.7207988811 2.4974574097
| 47> *
| 48>
| 49>                          ****END OF INPUT****

CARTESIAN COORDINATES (ANGSTROEM)
---------------------------------
  C      4.400707    0.284975   -2.457790
  C      4.900091   -0.366362   -1.184755
  O      3.829785   -0.911480   -0.390991
  P      2.698051   -0.006464    0.263035
  S      3.269886    1.702398    1.018273
  O      2.110630   -0.955103    1.374284
  C      1.646069   -2.305840    1.122958
  C      1.069037   -2.827213    2.421851
  S      1.193854    0.105441   -1.249453
  C      0.178598    1.330718   -0.385769
  S     -0.874185    0.614291    0.903981
  P     -2.508987    0.168256   -0.407214
  S     -2.128952   -0.939290   -1.970724
  O     -3.031051    1.599093   -0.827154
  C     -3.530319    2.584273    0.112783
  C     -5.038935    2.506978    0.224864
  O     -3.639499   -0.366621    0.570557
  C     -3.795411   -1.766938    0.868851
  C     -2.600511   -2.321507    1.614653
  H      3.831638    1.182255   -2.218275
  H      5.248934    0.561766   -3.075636
  H      3.759992   -0.399381   -3.008922
  H      5.447546    0.356624   -0.572511
  H      5.531730   -1.230846   -1.394385
  H      0.894913   -2.271376    0.327332
  H      2.494491   -2.903415    0.784468
  H      0.273062   -2.170926    2.762079
  H      0.673353   -3.824910    2.262886
  H      1.842184   -2.860778    3.183736
  H     -0.445358    1.810746   -1.137459
  H      0.839091    2.051298    0.099921
  H     -3.051642    2.424571    1.082763
  H     -3.213181    3.542333   -0.303704
  H     -5.387196    3.310976    0.865828
  H     -5.490361    2.610489   -0.758092
  H     -5.338299    1.553341    0.650443
  H     -4.703982   -1.806578    1.471113
  H     -3.945243   -2.304308   -0.072313
  H     -2.801830   -3.345494    1.911856
  H     -1.726901   -2.307520    0.964521
  H     -2.395097   -1.720799    2.497457

 Total Charge           Charge          ....    0
 Multiplicity           Mult            ....    1
 Number of Electrons    NEL             ....  202
 Basis Dimension        Dim             ....  334

ORBITAL ENERGIES
----------------

  NO   OCC          E(Eh)            E(eV)
   0   2.0000     -88.043154     -2395.7760
   1   2.0000     -88.038192     -2395.6410
   2   2.0000     -87.987871     -2394.2717
   3   2.0000     -87.983310     -2394.1476
   4   2.0000     -76.429933     -2079.7642
   5   2.0000     -76.422587     -2079.5643
   6   2.0000     -18.801391      -511.6119
   7   2.0000     -18.796880      -511.4891
   8   2.0000     -18.793597      -511.3998
   9   2.0000     -18.788622      -511.2644
  10   2.0000      -9.960737      -271.0454
  11   2.0000      -9.958902      -270.9955
  12   2.0000      -9.953577      -270.8506
  13   2.0000      -9.953481      -270.8480
  14   2.0000      -9.951120      -270.7837
  15   2.0000      -9.892526      -269.1893
  16   2.0000      -9.888894      -269.0905
  17   2.0000      -9.886075      -269.0138
  18   2.0000      -9.883208      -268.9358
  19   2.0000      -7.687821      -209.1962
  20   2.0000      -7.682807      -209.0598
  21   2.0000      -7.633061      -207.7062
  22   2.0000      -7.628643      -207.5859
  23   2.0000      -6.427399      -174.8984
  24   2.0000      -6.420379      -174.7074
  25   2.0000      -5.715434      -155.5249
  26   2.0000      -5.712475      -155.4443
  27   2.0000      -5.710476      -155.3899
  28   2.0000      -5.707482      -155.3085
  29   2.0000      -5.704978      -155.2403
  30   2.0000      -5.699881      -155.1016
  31   2.0000      -5.662070      -154.0728
  32   2.0000      -5.657549      -153.9497
  33   2.0000      -5.653676      -153.8443
  34   2.0000      -5.653153      -153.8301
  35   2.0000      -5.649282      -153.7248
  36   2.0000      -5.648748      -153.7102
  37   2.0000      -4.650507      -126.5467
  38   2.0000      -4.649103      -126.5085
  39   2.0000      -4.647421      -126.4627
  40   2.0000      -4.643341      -126.3517
  41   2.0000      -4.641934      -126.3134
  42   2.0000      -4.640632      -126.2780
  43   2.0000      -0.994330       -27.0571
  44   2.0000      -0.986667       -26.8486
  45   2.0000      -0.952137       -25.9090
  46   2.0000      -0.943675       -25.6787
  47   2.0000      -0.762302       -20.7433
  48   2.0000      -0.723032       -19.6747
  49   2.0000      -0.712922       -19.3996
  50   2.0000      -0.696997       -18.9662
  51   2.0000      -0.688568       -18.7369
  52   2.0000      -0.675949       -18.3935
  53   2.0000      -0.652081       -17.7440
  54   2.0000      -0.637791       -17.3552
  55   2.0000      -0.600360       -16.3366
  56   2.0000      -0.591301       -16.0901
  57   2.0000      -0.580131       -15.7862
  58   2.0000      -0.569638       -15.5006
  59   2.0000      -0.558311       -15.1924
  60   2.0000      -0.507221       -13.8022
  61   2.0000      -0.502742       -13.6803
  62   2.0000      -0.481397       -13.0995
  63   2.0000      -0.473588       -12.8870
  64   2.0000      -0.461367       -12.5544
  65   2.0000      -0.453641       -12.3442
  66   2.0000      -0.440546       -11.9879
  67   2.0000      -0.433991       -11.8095
  68   2.0000      -0.431675       -11.7465
  69   2.0000      -0.428033       -11.6474
  70   2.0000      -0.414781       -11.2868
  71   2.0000      -0.398145       -10.8341
  72   2.0000      -0.391154       -10.6439
  73   2.0000      -0.385855       -10.4996
  74   2.0000      -0.376119       -10.2347
  75   2.0000      -0.373071       -10.1518
  76   2.0000      -0.364896        -9.9293
  77   2.0000      -0.361292        -9.8313
  78   2.0000      -0.358771        -9.7627
  79   2.0000      -0.356821        -9.7096
  80   2.0000      -0.352348        -9.5879
  81   2.0000      -0.351077        -9.5533
  82   2.0000      -0.344827        -9.3832
  83   2.0000      -0.337135        -9.1739
  84   2.0000      -0.334816        -9.1108
  85   2.0000      -0.322377        -8.7723
  86   2.0000      -0.313861        -8.5406
  87   2.0000      -0.303345        -8.2544
  88   2.0000      -0.299815        -8.1584
  89   2.0000      -0.297958        -8.1079
  90   2.0000      -0.293821        -7.9953
  91   2.0000      -0.275150        -7.4872
  92   2.0000      -0.269589        -7.3359
  93   2.0000      -0.262501        -7.1430
  94   2.0000      -0.259713        -7.0672
  95   2.0000      -0.239809        -6.5255
  96   2.0000      -0.218065        -5.9339
  97   2.0000      -0.211670        -5.7598
  98   2.0000      -0.204941        -5.5767
  99   2.0000      -0.200202        -5.4478
 100   2.0000      -0.193439        -5.2637
 101   0.0000      -0.040036        -1.0894
 102   0.0000      -0.027121        -0.7380
 103   0.0000      -0.007794        -0.2121
 104   0.0000       0.004670         0.1271
 105   0.0000       0.014635         0.3982

MULLIKEN ATOMIC CHARGES
-----------------------
   0 C :   -0.323522
   1 C :    0.001714
   2 O :   -0.386514
   3 P :    0.600231
   4 S :   -0.319853
   5 O :   -0.358314
   6 C :   -0.029833
   7 C :   -0.285693
   8 S :   -0.066479
   9 C :   -0.368050
  10 S :   -0.081397
  11 P :    0.580413
  12 S :   -0.306393
  13 O :   -0.361630
  14 C :   -0.011568
  15 C :   -0.290931
  16 O :   -0.380946
  17 C :    0.011875
  18 C :   -0.361099
  19 H :    0.130619
  20 H :    0.114460
  21 H :    0.121439
  22 H :    0.113104
  23 H :    0.105125
  24 H :    0.124260
  25 H :    0.106022
  26 H :    0.129154
  27 H :    0.107775
  28 H :    0.118293
  29 H :    0.191454
  30 H :    0.191308
  31 H :    0.103591
  32 H :    0.109369
  33 H :    0.111242
  34 H :    0.120760
  35 H :    0.122402
  36 H :    0.106880
  37 H :    0.115034
  38 H :    0.117597
  39 H :    0.150431
  40 H :    0.127672
Sum of atomic charges:    0.0000000

LOEWDIN ATOMIC CHARGES
----------------------
   0 C :   -0.372149
   1 C :   -0.114808
   2 O :   -0.248603
   3 P :    0.568990
   4 S :   -0.318453
   5 O :   -0.236878
   6 C :   -0.118119
   7 C :   -0.351347
   8 S :    0.091257
   9 C :   -0.487718
  10 S :    0.074180
  11 P :    0.568963
  12 S :   -0.311901
  13 O :   -0.240371
  14 C :   -0.116373
  15 C :   -0.359071
  16 O :   -0.245562
  17 C :   -0.114604
  18 C :   -0.373980
  19 H :    0.122645
  20 H :    0.131907
  21 H :    0.124629
  22 H :    0.113860
  23 H :    0.118773
  24 H :    0.106960
  25 H :    0.113078
  26 H :    0.128080
  27 H :    0.128588
  28 H :    0.128389
  29 H :    0.134322
  30 H :    0.127417
  31 H :    0.104839
  32 H :    0.120705
  33 H :    0.130426
  34 H :    0.129150
  35 H :    0.126189
  36 H :    0.119573
  37 H :    0.114740
  38 H :    0.133472
  39 H :    0.123584
  40 H :    0.125222

  Mayer bond orders larger than 0.100000
B(  0-C ,  1-C ) :   1.1656 B(  0-C , 19-H ) :   0.9337 B(  0-C , 20-H ) :   0.9367
B(  0-C , 21-H ) :   0.9429 B(  1-C ,  2-O ) :   0.9059 B(  1-C , 22-H ) :   0.9205
B(  1-C , 23-H ) :   0.9344 B(  2-O ,  3-P ) :   1.0913 B(  3-P ,  4-S ) :   1.6249
B(  3-P ,  5-O ) :   1.1431 B(  3-P ,  8-S ) :   0.9525 B(  4-S ,  8-S ) :   0.1078
B(  4-S , 30-H ) :   0.1028 B(  5-O ,  6-C ) :   0.8888 B(  6-C ,  7-C ) :   1.1672
B(  6-C , 24-H ) :   0.9066 B(  6-C , 25-H ) :   0.9252 B(  7-C , 26-H ) :   0.9414
B(  7-C , 27-H ) :   0.9407 B(  7-C , 28-H ) :   0.9484 B(  8-S ,  9-C ) :   1.0118
B(  9-C , 10-S ) :   0.9834 B(  9-C , 29-H ) :   0.8909 B(  9-C , 30-H ) :   0.8611
B( 10-S , 11-P ) :   0.9579 B( 10-S , 12-S ) :   0.1114 B( 11-P , 12-S ) :   1.6565
B( 11-P , 13-O ) :   1.1158 B( 11-P , 16-O ) :   1.0818 B( 13-O , 14-C ) :   0.8913
B( 14-C , 15-C ) :   1.1667 B( 14-C , 31-H ) :   0.9095 B( 14-C , 32-H ) :   0.9356
B( 15-C , 33-H ) :   0.9397 B( 15-C , 34-H ) :   0.9470 B( 15-C , 35-H ) :   0.9426
B( 16-O , 17-C ) :   0.9025 B( 17-C , 18-C ) :   1.1623 B( 17-C , 36-H ) :   0.9325
B( 17-C , 37-H ) :   0.9178 B( 18-C , 38-H ) :   0.9361 B( 18-C , 39-H ) :   0.9258
B( 18-C , 40-H ) :   0.9396

Dispersion correction           -0.063923416
FINAL SINGLE POINT ENERGY     -2929.520557213168

DIPOLE MOMENT
-------------

Method             : SCF
Type of density    : Electron Density
Multiplicity       :   1
Irrep              :   0
Energy             : -2929.6415099294035826 Eh
Relativity type    :
Basis              : AO
                                X                 Y                 Z
Electronic contribution:      6.679010207       6.872369102      -5.677368100
Nuclear contribution   :     -7.410442012      -7.460141502       6.109320039
                        -----------------------------------------
Total Dipole Moment    :     -0.731431805      -0.587772400       0.431951939
                        -----------------------------------------
Magnitude (a.u.)       :      1.032981780
Magnitude (Debye)      :      2.625631022

Rotational constants in cm-1:             0.012674             0.004524             0.004159
Rotational constants in MHz :           379.969750           135.641060           124.683389

                             ****ORCA TERMINATED NORMALLY****
TOTAL RUN TIME: 0 days 0 hours 0 minutes 20 seconds 732 msec
