                         Program Version 6.0.0  -   RELEASE  -
|  1> ! pbe def2-sv(p) def2/J RI DEFGRID1 loosescf d4 GCP(DFT/SV(P)) printgap
|  2> %output
|  3>     printlevel normal
|  4> end
|  5> * xyz 0 1
|  6> C 1.9297133685 -0.0139783264 -2.8085498029
|  7> C 2.289976343 -1.1575928995 -1.8814574675
|  8> O 1.4784483146 -1.1123819582 -0.6843219623
|  9> P 2.0543383882 -0.6088667114 0.7058826805
| 10> S 3.3034646548 0.9073753013 0.6791593088
| 11> O 2.6880821311 -1.9552779318 1.2645044529
| 12> C 3.4866791323 -1.9887528359 2.4658921689
| 13> C 4.3817145991 -3.2099357949 2.4007417403
| 14> S 0.282435231 -0.3993983267 1.8168852691
| 15> C -0.0251940254 1.3534473419 1.4465838827
| 16> S -0.0454734472 1.7319434533 -0.3303056543
| 17> P -1.9679005406 1.0111815232 -0.8280764392
| 18> S -2.3871022894 0.9696075817 -2.7393357295
| 19> O -2.8264971099 1.9792910654 0.0874764369
| 20> C -4.2311385477 2.2084143877 -0.1542297687
| 21> C -5.0560364877 0.9564743543 0.0560339098
| 22> O -2.135844072 -0.3798728525 -0.0737402849
| 23> C -1.8983111878 -1.6574663785 -0.6891022892
| 24> C -2.706532205 -2.6906453132 0.0695785887
| 25> H 2.4874092754 -0.1136748326 -3.7340453193
| 26> H 0.8646765827 -0.0249630249 -3.0312167921
| 27> H 2.1746941981 0.9398229084 -2.3451952118
| 28> H 3.3458247003 -1.1127509284 -1.6012787941
| 29> H 2.0698145082 -2.1253564685 -2.3348582893
| 30> H 4.0715621737 -1.0644367563 2.521676781
| 31> H 2.8066644866 -2.037402674 3.3198930189
| 32> H 5.0581795496 -3.1356100709 1.5538813221
| 33> H 4.9608895565 -3.2749141043 3.3160065471
| 34> H 3.7777229795 -4.1059489221 2.2916037871
| 35> H 0.7848169739 1.9525814372 1.8598110578
| 36> H -0.9816203097 1.6108333733 1.8930081893
| 37> H -4.4909590519 2.9922746515 0.5584700693
| 38> H -4.3474707748 2.5807554261 -1.1766329545
| 39> H -4.8554745943 0.5330824345 1.036813662
| 40> H -6.1101583191 1.2033615914 -0.0237277336
| 41> H -4.8075594986 0.2197863053 -0.706846977
| 42> H -2.194965653 -1.5985354298 -1.7420367081
| 43> H -0.8283893372 -1.8755908378 -0.6317938181
| 44> H -2.4128130336 -2.6878564666 1.1156290726
| 45> H -3.7672311469 -2.4672040205 -0.0018320972
| 46> H -2.5175237 -3.670936951 -0.355287063
| 47> *
| 48>
| 49>                          ****END OF INPUT****

CARTESIAN COORDINATES (ANGSTROEM)
---------------------------------
  C      1.929713   -0.013978   -2.808550
  C      2.289976   -1.157593   -1.881457
  O      1.478448   -1.112382   -0.684322
  P      2.054338   -0.608867    0.705883
  S      3.303465    0.907375    0.679159
  O      2.688082   -1.955278    1.264504
  C      3.486679   -1.988753    2.465892
  C      4.381715   -3.209936    2.400742
  S      0.282435   -0.399398    1.816885
  C     -0.025194    1.353447    1.446584
  S     -0.045473    1.731943   -0.330306
  P     -1.967901    1.011182   -0.828076
  S     -2.387102    0.969608   -2.739336
  O     -2.826497    1.979291    0.087476
  C     -4.231139    2.208414   -0.154230
  C     -5.056036    0.956474    0.056034
  O     -2.135844   -0.379873   -0.073740
  C     -1.898311   -1.657466   -0.689102
  C     -2.706532   -2.690645    0.069579
  H      2.487409   -0.113675   -3.734045
  H      0.864677   -0.024963   -3.031217
  H      2.174694    0.939823   -2.345195
  H      3.345825   -1.112751   -1.601279
  H      2.069815   -2.125356   -2.334858
  H      4.071562   -1.064437    2.521677
  H      2.806664   -2.037403    3.319893
  H      5.058180   -3.135610    1.553881
  H      4.960890   -3.274914    3.316007
  H      3.777723   -4.105949    2.291604
  H      0.784817    1.952581    1.859811
  H     -0.981620    1.610833    1.893008
  H     -4.490959    2.992275    0.558470
  H     -4.347471    2.580755   -1.176633
  H     -4.855475    0.533082    1.036814
  H     -6.110158    1.203362   -0.023728
  H     -4.807559    0.219786   -0.706847
  H     -2.194966   -1.598535   -1.742037
  H     -0.828389   -1.875591   -0.631794
  H     -2.412813   -2.687856    1.115629
  H     -3.767231   -2.467204   -0.001832
  H     -2.517524   -3.670937   -0.355287

 Total Charge           Charge          ....    0
 Multiplicity           Mult            ....    1
 Number of Electrons    NEL             ....  202
 Basis Dimension        Dim             ....  334

ORBITAL ENERGIES
----------------

  NO   OCC          E(Eh)            E(eV)
   0   2.0000     -88.045410     -2395.8374
   1   2.0000     -88.039914     -2395.6879
   2   2.0000     -87.990187     -2394.3347
   3   2.0000     -87.988890     -2394.2994
   4   2.0000     -76.429423     -2079.7503
   5   2.0000     -76.424948     -2079.6286
   6   2.0000     -18.795344      -511.4473
   7   2.0000     -18.792996      -511.3834
   8   2.0000     -18.791886      -511.3532
   9   2.0000     -18.790300      -511.3100
  10   2.0000      -9.959267      -271.0054
  11   2.0000      -9.954603      -270.8785
  12   2.0000      -9.954387      -270.8726
  13   2.0000      -9.951430      -270.7922
  14   2.0000      -9.943298      -270.5709
  15   2.0000      -9.890351      -269.1301
  16   2.0000      -9.886750      -269.0321
  17   2.0000      -9.883541      -268.9448
  18   2.0000      -9.873459      -268.6705
  19   2.0000      -7.690771      -209.2765
  20   2.0000      -7.684788      -209.1137
  21   2.0000      -7.635137      -207.7627
  22   2.0000      -7.633977      -207.7311
  23   2.0000      -6.426868      -174.8840
  24   2.0000      -6.422945      -174.7772
  25   2.0000      -5.718632      -155.6119
  26   2.0000      -5.715304      -155.5213
  27   2.0000      -5.713076      -155.4607
  28   2.0000      -5.709138      -155.3535
  29   2.0000      -5.707637      -155.3127
  30   2.0000      -5.701473      -155.1450
  31   2.0000      -5.663973      -154.1245
  32   2.0000      -5.662814      -154.0930
  33   2.0000      -5.655856      -153.9037
  34   2.0000      -5.655325      -153.8892
  35   2.0000      -5.654674      -153.8715
  36   2.0000      -5.654146      -153.8571
  37   2.0000      -4.649356      -126.5154
  38   2.0000      -4.648654      -126.4963
  39   2.0000      -4.647401      -126.4622
  40   2.0000      -4.645278      -126.4045
  41   2.0000      -4.644937      -126.3952
  42   2.0000      -4.643388      -126.3530
  43   2.0000      -0.988221       -26.8909
  44   2.0000      -0.986263       -26.8376
  45   2.0000      -0.945918       -25.7397
  46   2.0000      -0.944588       -25.7035
  47   2.0000      -0.765900       -20.8412
  48   2.0000      -0.724662       -19.7190
  49   2.0000      -0.709853       -19.3161
  50   2.0000      -0.687696       -18.7132
  51   2.0000      -0.686486       -18.6802
  52   2.0000      -0.671693       -18.2777
  53   2.0000      -0.653252       -17.7759
  54   2.0000      -0.639950       -17.4139
  55   2.0000      -0.598914       -16.2973
  56   2.0000      -0.592282       -16.1168
  57   2.0000      -0.572464       -15.5775
  58   2.0000      -0.563920       -15.3450
  59   2.0000      -0.560232       -15.2447
  60   2.0000      -0.509970       -13.8770
  61   2.0000      -0.500161       -13.6101
  62   2.0000      -0.477927       -13.0050
  63   2.0000      -0.477180       -12.9847
  64   2.0000      -0.461589       -12.5605
  65   2.0000      -0.446455       -12.1487
  66   2.0000      -0.436331       -11.8732
  67   2.0000      -0.434683       -11.8283
  68   2.0000      -0.426974       -11.6186
  69   2.0000      -0.415094       -11.2953
  70   2.0000      -0.411752       -11.2043
  71   2.0000      -0.400970       -10.9109
  72   2.0000      -0.387053       -10.5323
  73   2.0000      -0.381300       -10.3757
  74   2.0000      -0.380065       -10.3421
  75   2.0000      -0.376719       -10.2511
  76   2.0000      -0.365649        -9.9498
  77   2.0000      -0.356663        -9.7053
  78   2.0000      -0.355311        -9.6685
  79   2.0000      -0.354047        -9.6341
  80   2.0000      -0.348475        -9.4825
  81   2.0000      -0.346038        -9.4162
  82   2.0000      -0.342603        -9.3227
  83   2.0000      -0.338229        -9.2037
  84   2.0000      -0.332188        -9.0393
  85   2.0000      -0.320554        -8.7227
  86   2.0000      -0.306170        -8.3313
  87   2.0000      -0.302281        -8.2255
  88   2.0000      -0.294702        -8.0193
  89   2.0000      -0.291094        -7.9211
  90   2.0000      -0.286925        -7.8076
  91   2.0000      -0.278634        -7.5820
  92   2.0000      -0.275770        -7.5041
  93   2.0000      -0.265919        -7.2360
  94   2.0000      -0.256871        -6.9898
  95   2.0000      -0.232464        -6.3257
  96   2.0000      -0.218214        -5.9379
  97   2.0000      -0.209329        -5.6961
  98   2.0000      -0.208447        -5.6721
  99   2.0000      -0.204914        -5.5760
 100   2.0000      -0.202080        -5.4989
 101   0.0000      -0.045510        -1.2384
 102   0.0000      -0.018547        -0.5047
 103   0.0000      -0.008890        -0.2419
 104   0.0000       0.003399         0.0925
 105   0.0000       0.010063         0.2738

MULLIKEN ATOMIC CHARGES
-----------------------
   0 C :   -0.293301
   1 C :   -0.003425
   2 O :   -0.363541
   3 P :    0.611372
   4 S :   -0.330491
   5 O :   -0.376960
   6 C :   -0.010603
   7 C :   -0.281449
   8 S :   -0.086625
   9 C :   -0.352431
  10 S :   -0.057249
  11 P :    0.619587
  12 S :   -0.322021
  13 O :   -0.380726
  14 C :   -0.002433
  15 C :   -0.314967
  16 O :   -0.381257
  17 C :   -0.024670
  18 C :   -0.285282
  19 H :    0.105242
  20 H :    0.117522
  21 H :    0.130672
  22 H :    0.102003
  23 H :    0.105558
  24 H :    0.106947
  25 H :    0.101091
  26 H :    0.118417
  27 H :    0.112876
  28 H :    0.116637
  29 H :    0.194681
  30 H :    0.186473
  31 H :    0.106264
  32 H :    0.114379
  33 H :    0.117392
  34 H :    0.113362
  35 H :    0.127100
  36 H :    0.104705
  37 H :    0.120470
  38 H :    0.113243
  39 H :    0.112839
  40 H :    0.108602
Sum of atomic charges:    0.0000000

LOEWDIN ATOMIC CHARGES
----------------------
   0 C :   -0.362929
   1 C :   -0.111415
   2 O :   -0.239028
   3 P :    0.565142
   4 S :   -0.324349
   5 O :   -0.251468
   6 C :   -0.120805
   7 C :   -0.350594
   8 S :    0.088393
   9 C :   -0.473741
  10 S :    0.110229
  11 P :    0.566251
  12 S :   -0.319076
  13 O :   -0.249272
  14 C :   -0.114319
  15 C :   -0.366877
  16 O :   -0.244851
  17 C :   -0.130184
  18 C :   -0.350840
  19 H :    0.127366
  20 H :    0.122640
  21 H :    0.125462
  22 H :    0.108583
  23 H :    0.117334
  24 H :    0.107543
  25 H :    0.110628
  26 H :    0.127985
  27 H :    0.131299
  28 H :    0.126819
  29 H :    0.136184
  30 H :    0.135150
  31 H :    0.119359
  32 H :    0.113783
  33 H :    0.126013
  34 H :    0.131050
  35 H :    0.122192
  36 H :    0.104406
  37 H :    0.108718
  38 H :    0.124646
  39 H :    0.123248
  40 H :    0.129322

  Mayer bond orders larger than 0.100000
B(  0-C ,  1-C ) :   1.1727 B(  0-C , 19-H ) :   0.9388 B(  0-C , 20-H ) :   0.9372
B(  0-C , 21-H ) :   0.9382 B(  1-C ,  2-O ) :   0.8837 B(  1-C , 22-H ) :   0.9129
B(  1-C , 23-H ) :   0.9338 B(  2-O ,  3-P ) :   1.1161 B(  3-P ,  4-S ) :   1.6000
B(  3-P ,  5-O ) :   1.1124 B(  3-P ,  8-S ) :   0.9784 B(  4-S ,  8-S ) :   0.1118
B(  5-O ,  6-C ) :   0.9040 B(  6-C ,  7-C ) :   1.1617 B(  6-C , 24-H ) :   0.9064
B(  6-C , 25-H ) :   0.9305 B(  7-C , 26-H ) :   0.9511 B(  7-C , 27-H ) :   0.9419
B(  7-C , 28-H ) :   0.9507 B(  8-S ,  9-C ) :   0.9856 B(  9-C , 10-S ) :   0.9966
B(  9-C , 29-H ) :   0.8923 B(  9-C , 30-H ) :   0.8982 B( 10-S , 11-P ) :   0.9742
B( 11-P , 12-S ) :   1.6340 B( 11-P , 13-O ) :   1.1005 B( 11-P , 16-O ) :   1.0972
B( 13-O , 14-C ) :   0.9078 B( 14-C , 15-C ) :   1.1625 B( 14-C , 31-H ) :   0.9359
B( 14-C , 32-H ) :   0.9204 B( 15-C , 33-H ) :   0.9452 B( 15-C , 34-H ) :   0.9370
B( 15-C , 35-H ) :   0.9330 B( 16-O , 17-C ) :   0.8918 B( 17-C , 18-C ) :   1.1607
B( 17-C , 36-H ) :   0.9096 B( 17-C , 37-H ) :   0.9067 B( 18-C , 38-H ) :   0.9493
B( 18-C , 39-H ) :   0.9510 B( 18-C , 40-H ) :   0.9425

Dispersion correction           -0.065045824
FINAL SINGLE POINT ENERGY     -2929.526159545830

DIPOLE MOMENT
-------------

Method             : SCF
Type of density    : Electron Density
Multiplicity       :   1
Irrep              :   0
Energy             : -2929.6459846190073222 Eh
Relativity type    :
Basis              : AO
                                X                 Y                 Z
Electronic contribution:      4.353205394      15.592980018      -0.833455764
Nuclear contribution   :     -4.730620145     -16.669484997       1.806442096
                        -----------------------------------------
Total Dipole Moment    :     -0.377414750      -1.076504978       0.972986332
                        -----------------------------------------
Magnitude (a.u.)       :      1.499335608
Magnitude (Debye)      :      3.811008249

Rotational constants in cm-1:             0.013428             0.004768             0.004579
Rotational constants in MHz :           402.555575           142.948233           137.269672

                             ****ORCA TERMINATED NORMALLY****
TOTAL RUN TIME: 0 days 0 hours 0 minutes 21 seconds 212 msec
