                         Program Version 6.0.1  -  RELEASE   -
|  1> ! pbe def2-sv(p) def2/J RI DEFGRID1 loosescf d4 GCP(DFT/SV(P)) printgap
|  2> %output
|  3>     printlevel normal
|  4> end
|  5> * xyz 0 1
|  6> C 1.0986923995 -4.1069641531 -0.9614271553
|  7> C 2.3812360482 -3.5283620536 -0.3855803302
|  8> O 2.1582430116 -2.1730792899 0.0476956114
|  9> C 2.4402336443 -1.18785548 -0.7791187958
| 10> O 2.9440463398 -1.3170846737 -1.8717701539
| 11> C 2.0200195782 0.148723293 -0.1941805193
| 12> C 0.8746152912 0.7055379972 -1.0429545198
| 13> H 1.237014833 0.9197669313 -2.0525289479
| 14> C 0.2885312401 1.9592378344 -0.4263319435
| 15> O -0.879593757 2.0380446747 -0.0985452982
| 16> O 1.1683710219 2.9056777393 -0.2845838292
| 17> C 0.7390187388 4.1317423266 0.3525193327
| 18> C 1.9436588043 5.0426939557 0.4681597254
| 19> S -0.476772822 -0.489779402 -1.2781158345
| 20> P -1.4857982589 -0.37686469 0.6095514099
| 21> S -0.6046509992 0.2356723187 2.2482443496
| 22> O -2.9716195116 0.1383606915 0.3277869785
| 23> C -3.4981482014 1.4497465632 0.523739199
| 24> O -1.8030772408 -1.92491034 0.8178732133
| 25> C -2.551189196 -2.7092609268 -0.1252554844
| 26> H 0.8060838629 -3.5527317704 -1.8507338523
| 27> H 1.2567399527 -5.1474080458 -1.224170206
| 28> H 0.3021286552 -4.0367443835 -0.2251624867
| 29> H 3.1833546071 -3.5290514795 -1.1288286073
| 30> H 2.6909409302 -4.062772552 0.5130094396
| 31> H 2.8558308771 0.8477750354 -0.235433413
| 32> H 1.7032773736 0.0017612412 0.8397710401
| 33> H -0.0513773449 4.5752044087 -0.2596954838
| 34> H 0.3213669829 3.8751279591 1.3308053628
| 35> H 1.6404730584 5.975856792 0.9306756061
| 36> H 2.7095188362 4.5747789787 1.0788691517
| 37> H 2.3534375556 5.2466128908 -0.5162778657
| 38> H -4.559692368 1.3098517575 0.7167476315
| 39> H -3.3402561258 2.0474594891 -0.3716835569
| 40> H -3.0136918837 1.9295992228 1.3738027515
| 41> H -2.5515583632 -3.7185674458 0.2788476215
| 42> H -2.0652949175 -2.6841976194 -1.1011217443
| 43> H -3.5668619853 -2.3266432501 -0.2051570699
| 44> *
| 45>
| 46>                          ****END OF INPUT****

CARTESIAN COORDINATES (ANGSTROEM)
---------------------------------
  C      1.098692   -4.106964   -0.961427
  C      2.381236   -3.528362   -0.385580
  O      2.158243   -2.173079    0.047696
  C      2.440234   -1.187855   -0.779119
  O      2.944046   -1.317085   -1.871770
  C      2.020020    0.148723   -0.194181
  C      0.874615    0.705538   -1.042955
  H      1.237015    0.919767   -2.052529
  C      0.288531    1.959238   -0.426332
  O     -0.879594    2.038045   -0.098545
  O      1.168371    2.905678   -0.284584
  C      0.739019    4.131742    0.352519
  C      1.943659    5.042694    0.468160
  S     -0.476773   -0.489779   -1.278116
  P     -1.485798   -0.376865    0.609551
  S     -0.604651    0.235672    2.248244
  O     -2.971620    0.138361    0.327787
  C     -3.498148    1.449747    0.523739
  O     -1.803077   -1.924910    0.817873
  C     -2.551189   -2.709261   -0.125255
  H      0.806084   -3.552732   -1.850734
  H      1.256740   -5.147408   -1.224170
  H      0.302129   -4.036744   -0.225162
  H      3.183355   -3.529051   -1.128829
  H      2.690941   -4.062773    0.513009
  H      2.855831    0.847775   -0.235433
  H      1.703277    0.001761    0.839771
  H     -0.051377    4.575204   -0.259695
  H      0.321367    3.875128    1.330805
  H      1.640473    5.975857    0.930676
  H      2.709519    4.574779    1.078869
  H      2.353438    5.246613   -0.516278
  H     -4.559692    1.309852    0.716748
  H     -3.340256    2.047459   -0.371684
  H     -3.013692    1.929599    1.373803
  H     -2.551558   -3.718567    0.278848
  H     -2.065295   -2.684198   -1.101122
  H     -3.566862   -2.326643   -0.205157

 Total Charge           Charge          ....    0
 Multiplicity           Mult            ....    1
 Number of Electrons    NEL             ....  174
 Basis Dimension        Dim             ....  316

ORBITAL ENERGIES
----------------

  NO   OCC          E(Eh)            E(eV)
   0   2.0000     -88.035321     -2395.5629
   1   2.0000     -87.972404     -2393.8508
   2   2.0000     -76.421551     -2079.5361
   3   2.0000     -18.826287      -512.2893
   4   2.0000     -18.797375      -511.5026
   5   2.0000     -18.784549      -511.1536
   6   2.0000     -18.777371      -510.9582
   7   2.0000     -18.760538      -510.5002
   8   2.0000     -18.732629      -509.7407
   9   2.0000     -10.030299      -272.9383
  10   2.0000     -10.005539      -272.2646
  11   2.0000      -9.962295      -271.0878
  12   2.0000      -9.954164      -270.8666
  13   2.0000      -9.941678      -270.5268
  14   2.0000      -9.941510      -270.5222
  15   2.0000      -9.935760      -270.3658
  16   2.0000      -9.903041      -269.4755
  17   2.0000      -9.898962      -269.3645
  18   2.0000      -9.881727      -268.8955
  19   2.0000      -7.679967      -208.9825
  20   2.0000      -7.617796      -207.2908
  21   2.0000      -6.417279      -174.6230
  22   2.0000      -5.708040      -155.3237
  23   2.0000      -5.704621      -155.2306
  24   2.0000      -5.696604      -155.0125
  25   2.0000      -5.647170      -153.6673
  26   2.0000      -5.638528      -153.4321
  27   2.0000      -5.637292      -153.3985
  28   2.0000      -4.640170      -126.2654
  29   2.0000      -4.639174      -126.2384
  30   2.0000      -4.637769      -126.2001
  31   2.0000      -1.036452       -28.2033
  32   2.0000      -1.005041       -27.3486
  33   2.0000      -0.974973       -26.5304
  34   2.0000      -0.939935       -25.5769
  35   2.0000      -0.929207       -25.2850
  36   2.0000      -0.911107       -24.7925
  37   2.0000      -0.767328       -20.8800
  38   2.0000      -0.721557       -19.6346
  39   2.0000      -0.704616       -19.1736
  40   2.0000      -0.689888       -18.7728
  41   2.0000      -0.652267       -17.7491
  42   2.0000      -0.631373       -17.1805
  43   2.0000      -0.627152       -17.0657
  44   2.0000      -0.610311       -16.6074
  45   2.0000      -0.591182       -16.0869
  46   2.0000      -0.562460       -15.3053
  47   2.0000      -0.525072       -14.2879
  48   2.0000      -0.507060       -13.7978
  49   2.0000      -0.494689       -13.4612
  50   2.0000      -0.488243       -13.2858
  51   2.0000      -0.470277       -12.7969
  52   2.0000      -0.463549       -12.6138
  53   2.0000      -0.448490       -12.2040
  54   2.0000      -0.443376       -12.0649
  55   2.0000      -0.431446       -11.7402
  56   2.0000      -0.422365       -11.4931
  57   2.0000      -0.418741       -11.3945
  58   2.0000      -0.415435       -11.3045
  59   2.0000      -0.405564       -11.0360
  60   2.0000      -0.401427       -10.9234
  61   2.0000      -0.394369       -10.7313
  62   2.0000      -0.385625       -10.4934
  63   2.0000      -0.380939       -10.3659
  64   2.0000      -0.379784       -10.3344
  65   2.0000      -0.371453       -10.1077
  66   2.0000      -0.368930       -10.0391
  67   2.0000      -0.353210        -9.6113
  68   2.0000      -0.344137        -9.3644
  69   2.0000      -0.339311        -9.2331
  70   2.0000      -0.333463        -9.0740
  71   2.0000      -0.330220        -8.9858
  72   2.0000      -0.323464        -8.8019
  73   2.0000      -0.318148        -8.6573
  74   2.0000      -0.305291        -8.3074
  75   2.0000      -0.295422        -8.0388
  76   2.0000      -0.291344        -7.9279
  77   2.0000      -0.286845        -7.8055
  78   2.0000      -0.283349        -7.7103
  79   2.0000      -0.263174        -7.1613
  80   2.0000      -0.254960        -6.9378
  81   2.0000      -0.252598        -6.8736
  82   2.0000      -0.246747        -6.7143
  83   2.0000      -0.220244        -5.9931
  84   2.0000      -0.212891        -5.7931
  85   2.0000      -0.192157        -5.2289
  86   2.0000      -0.185614        -5.0508
  87   0.0000      -0.047786        -1.3003
  88   0.0000      -0.039167        -1.0658
  89   0.0000      -0.012641        -0.3440
  90   0.0000      -0.004215        -0.1147
  91   0.0000       0.032093         0.8733

MULLIKEN ATOMIC CHARGES
-----------------------
   0 C :   -0.313861
   1 C :   -0.015578
   2 O :   -0.213905
   3 C :    0.121091
   4 O :   -0.207082
   5 C :   -0.072012
   6 C :   -0.312560
   7 H :    0.156749
   8 C :    0.224203
   9 O :   -0.195902
  10 O :   -0.218196
  11 C :   -0.033763
  12 C :   -0.274121
  13 S :   -0.113753
  14 P :    0.641784
  15 S :   -0.328291
  16 O :   -0.398727
  17 C :   -0.078589
  18 O :   -0.372475
  19 C :   -0.117533
  20 H :    0.124420
  21 H :    0.107881
  22 H :    0.127686
  23 H :    0.108789
  24 H :    0.104701
  25 H :    0.115204
  26 H :    0.120942
  27 H :    0.109508
  28 H :    0.123575
  29 H :    0.116850
  30 H :    0.123074
  31 H :    0.119098
  32 H :    0.115429
  33 H :    0.114893
  34 H :    0.115076
  35 H :    0.128872
  36 H :    0.124126
  37 H :    0.122398
Sum of atomic charges:    0.0000000

LOEWDIN ATOMIC CHARGES
----------------------
   0 C :   -0.357389
   1 C :   -0.110188
   2 O :   -0.047683
   3 C :    0.021804
   4 O :   -0.173934
   5 C :   -0.256828
   6 C :   -0.255342
   7 H :    0.153645
   8 C :    0.022945
   9 O :   -0.155455
  10 O :   -0.037109
  11 C :   -0.102605
  12 C :   -0.350062
  13 S :    0.097814
  14 P :    0.588458
  15 S :   -0.321249
  16 O :   -0.253196
  17 C :   -0.206097
  18 O :   -0.253576
  19 C :   -0.215850
  20 H :    0.126502
  21 H :    0.127523
  22 H :    0.127166
  23 H :    0.119125
  24 H :    0.118686
  25 H :    0.143014
  26 H :    0.130454
  27 H :    0.119047
  28 H :    0.125662
  29 H :    0.134252
  30 H :    0.130596
  31 H :    0.128752
  32 H :    0.115497
  33 H :    0.112564
  34 H :    0.111603
  35 H :    0.122947
  36 H :    0.105075
  37 H :    0.113434

  Mayer bond orders larger than 0.100000
B(  0-C ,  1-C ) :   1.1781 B(  0-C , 20-H ) :   0.9436 B(  0-C , 21-H ) :   0.9425
B(  0-C , 22-H ) :   0.9417 B(  1-C ,  2-O ) :   0.9157 B(  1-C , 23-H ) :   0.9093
B(  1-C , 24-H ) :   0.9363 B(  2-O ,  3-C ) :   1.2466 B(  3-C ,  4-O ) :   2.0473
B(  3-C ,  5-C ) :   1.0066 B(  5-C ,  6-C ) :   1.0580 B(  5-C , 25-H ) :   0.8740
B(  5-C , 26-H ) :   0.8735 B(  6-C ,  7-H ) :   0.8577 B(  6-C ,  8-C ) :   0.9260
B(  6-C , 13-S ) :   1.0469 B(  8-C ,  9-O ) :   1.9409 B(  8-C , 10-O ) :   1.2833
B( 10-O , 11-C ) :   0.8866 B( 11-C , 12-C ) :   1.1558 B( 11-C , 27-H ) :   0.9321
B( 11-C , 28-H ) :   0.9278 B( 12-C , 29-H ) :   0.9418 B( 12-C , 30-H ) :   0.9492
B( 12-C , 31-H ) :   0.9491 B( 13-S , 14-P ) :   0.9130 B( 13-S , 15-S ) :   0.1112
B( 14-P , 15-S ) :   1.5901 B( 14-P , 16-O ) :   1.0886 B( 14-P , 18-O ) :   1.0992
B( 16-O , 17-C ) :   0.9280 B( 17-C , 32-H ) :   0.9537 B( 17-C , 33-H ) :   0.9527
B( 17-C , 34-H ) :   0.9419 B( 18-O , 19-C ) :   0.9299 B( 19-C , 35-H ) :   0.9579
B( 19-C , 36-H ) :   0.9353 B( 19-C , 37-H ) :   0.9459

Dispersion correction           -0.052650309
FINAL SINGLE POINT ENERGY     -1979.011745247645

DIPOLE MOMENT
-------------

Method             : SCF
Type of density    : Electron Density
Multiplicity       :   1
Irrep              :   0
Energy             : -1979.1419034329933311 Eh
Relativity type    :
Basis              : AO
                                X                 Y                 Z
Electronic contribution:     -3.506610953      -1.658622835       2.095600780
Nuclear contribution   :      3.161257676       2.445986355      -2.566357073
                        -----------------------------------------
Total Dipole Moment    :     -0.345353276       0.787363519      -0.470756293
                        -----------------------------------------
Magnitude (a.u.)       :      0.980215121
Magnitude (Debye)      :      2.491508835

Rotational constants in cm-1:             0.011532             0.008599             0.005823
Rotational constants in MHz :           345.725422           257.777262           174.579583

                             ****ORCA TERMINATED NORMALLY****
TOTAL RUN TIME: 0 days 0 hours 0 minutes 38 seconds 674 msec
