                         Program Version 6.0.0  -   RELEASE  -
|  1> ! pbe def2-sv(p) def2/J RI DEFGRID1 loosescf d4 GCP(DFT/SV(P)) printgap
|  2> %output
|  3>     printlevel normal
|  4> end
|  5> * xyz 0 1
|  6> C 4.4397575976 -0.7152316679 -1.691687181
|  7> C 3.1350882639 -0.0005122485 -1.967764895
|  8> O 2.6343998165 0.7205007215 -0.8169568994
|  9> P 2.3666687534 0.1399709609 0.6232671109
| 10> S 1.1851656477 1.316445111 1.6464882856
| 11> O 3.8314536152 -0.0068104081 1.2189578656
| 12> C 4.0954522659 -0.1030056614 2.6296586145
| 13> C 3.5553175436 -1.3836258998 3.2327698395
| 14> S 1.6932429587 -1.8696915934 0.3692723072
| 15> C -0.0595087578 -1.5018019804 0.2232953415
| 16> S -0.3774064685 -0.5714064101 -1.3293534268
| 17> P -2.281948098 0.1703038633 -0.8686567048
| 18> S -3.0516519115 1.3632108798 -2.2174809194
| 19> O -2.1894898298 0.7984420941 0.5960717137
| 20> C -2.1902875683 2.2128502936 0.8537201706
| 21> C -3.5567291773 2.6435019296 1.3471355355
| 22> O -2.9824105679 -1.2213228156 -0.5635609413
| 23> C -4.3433262915 -1.3065397744 -0.0803718956
| 24> C -5.3303784287 -1.3579625399 -1.2290981806
| 25> H 4.8052103088 -1.1503446265 -2.6167236201
| 26> H 5.1769828906 -0.0159526791 -1.306004704
| 27> H 4.289624973 -1.5084128081 -0.9619297273
| 28> H 2.3577161762 -0.6996046964 -2.2910223457
| 29> H 3.2523915993 0.7829329675 -2.7179028155
| 30> H 5.1835194396 -0.0560008409 2.6920383244
| 31> H 3.6573541381 0.7699413145 3.1239431391
| 32> H 3.8999377844 -1.4678050974 4.2584539699
| 33> H 2.4667973422 -1.3685178014 3.2276057669
| 34> H 3.8975092593 -2.2444989563 2.6643947393
| 35> H -0.3776032839 -0.8853615183 1.0653046308
| 36> H -0.5865114153 -2.4511140293 0.1871051783
| 37> H -1.4133578332 2.371380721 1.6046724925
| 38> H -1.9233909643 2.7469095215 -0.0629900837
| 39> H -3.5255237402 3.6973920503 1.6028784412
| 40> H -4.2974180949 2.490544481 0.5641496109
| 41> H -3.8363770782 2.0686976467 2.2256982555
| 42> H -4.361682352 -2.2303565661 0.5006602835
| 43> H -4.5421645149 -0.4559176787 0.5763606679
| 44> H -5.0950570989 -2.1903743406 -1.886559144
| 45> H -6.3333850092 -1.4837537241 -0.8338350601
| 46> H -5.2886615024 -0.4371757435 -1.8072361981
| 47> *
| 48>
| 49>                          ****END OF INPUT****

CARTESIAN COORDINATES (ANGSTROEM)
---------------------------------
  C      4.439758   -0.715232   -1.691687
  C      3.135088   -0.000512   -1.967765
  O      2.634400    0.720501   -0.816957
  P      2.366669    0.139971    0.623267
  S      1.185166    1.316445    1.646488
  O      3.831454   -0.006810    1.218958
  C      4.095452   -0.103006    2.629659
  C      3.555318   -1.383626    3.232770
  S      1.693243   -1.869692    0.369272
  C     -0.059509   -1.501802    0.223295
  S     -0.377406   -0.571406   -1.329353
  P     -2.281948    0.170304   -0.868657
  S     -3.051652    1.363211   -2.217481
  O     -2.189490    0.798442    0.596072
  C     -2.190288    2.212850    0.853720
  C     -3.556729    2.643502    1.347136
  O     -2.982411   -1.221323   -0.563561
  C     -4.343326   -1.306540   -0.080372
  C     -5.330378   -1.357963   -1.229098
  H      4.805210   -1.150345   -2.616724
  H      5.176983   -0.015953   -1.306005
  H      4.289625   -1.508413   -0.961930
  H      2.357716   -0.699605   -2.291022
  H      3.252392    0.782933   -2.717903
  H      5.183519   -0.056001    2.692038
  H      3.657354    0.769941    3.123943
  H      3.899938   -1.467805    4.258454
  H      2.466797   -1.368518    3.227606
  H      3.897509   -2.244499    2.664395
  H     -0.377603   -0.885362    1.065305
  H     -0.586511   -2.451114    0.187105
  H     -1.413358    2.371381    1.604672
  H     -1.923391    2.746910   -0.062990
  H     -3.525524    3.697392    1.602878
  H     -4.297418    2.490544    0.564150
  H     -3.836377    2.068698    2.225698
  H     -4.361682   -2.230357    0.500660
  H     -4.542165   -0.455918    0.576361
  H     -5.095057   -2.190374   -1.886559
  H     -6.333385   -1.483754   -0.833835
  H     -5.288662   -0.437176   -1.807236

 Total Charge           Charge          ....    0
 Multiplicity           Mult            ....    1
 Number of Electrons    NEL             ....  202
 Basis Dimension        Dim             ....  334

ORBITAL ENERGIES
----------------

  NO   OCC          E(Eh)            E(eV)
   0   2.0000     -88.053546     -2396.0588
   1   2.0000     -88.038018     -2395.6363
   2   2.0000     -87.986371     -2394.2309
   3   2.0000     -87.984016     -2394.1668
   4   2.0000     -76.430355     -2079.7757
   5   2.0000     -76.422460     -2079.5609
   6   2.0000     -18.797224      -511.4985
   7   2.0000     -18.791341      -511.3384
   8   2.0000     -18.789905      -511.2993
   9   2.0000     -18.786800      -511.2148
  10   2.0000      -9.956694      -270.9354
  11   2.0000      -9.956102      -270.9193
  12   2.0000      -9.956008      -270.9168
  13   2.0000      -9.955335      -270.8985
  14   2.0000      -9.940774      -270.5022
  15   2.0000      -9.889154      -269.0976
  16   2.0000      -9.888354      -269.0758
  17   2.0000      -9.880660      -268.8664
  18   2.0000      -9.878585      -268.8100
  19   2.0000      -7.698149      -209.4773
  20   2.0000      -7.683306      -209.0734
  21   2.0000      -7.631438      -207.6620
  22   2.0000      -7.629160      -207.6000
  23   2.0000      -6.427524      -174.9018
  24   2.0000      -6.420358      -174.7068
  25   2.0000      -5.725898      -155.8096
  26   2.0000      -5.722620      -155.7204
  27   2.0000      -5.715370      -155.5231
  28   2.0000      -5.711709      -155.4235
  29   2.0000      -5.707677      -155.3138
  30   2.0000      -5.699876      -155.1015
  31   2.0000      -5.660400      -154.0273
  32   2.0000      -5.658125      -153.9654
  33   2.0000      -5.652011      -153.7990
  34   2.0000      -5.651564      -153.7869
  35   2.0000      -5.649816      -153.7393
  36   2.0000      -5.649233      -153.7234
  37   2.0000      -4.650243      -126.5395
  38   2.0000      -4.649411      -126.5169
  39   2.0000      -4.647802      -126.4731
  40   2.0000      -4.642929      -126.3405
  41   2.0000      -4.642133      -126.3189
  42   2.0000      -4.640833      -126.2835
  43   2.0000      -0.989684       -26.9307
  44   2.0000      -0.983301       -26.7570
  45   2.0000      -0.948000       -25.7964
  46   2.0000      -0.939775       -25.5726
  47   2.0000      -0.766048       -20.8452
  48   2.0000      -0.723133       -19.6775
  49   2.0000      -0.711238       -19.3538
  50   2.0000      -0.693319       -18.8662
  51   2.0000      -0.682605       -18.5746
  52   2.0000      -0.674410       -18.3516
  53   2.0000      -0.653716       -17.7885
  54   2.0000      -0.638156       -17.3651
  55   2.0000      -0.600953       -16.3528
  56   2.0000      -0.585774       -15.9397
  57   2.0000      -0.578965       -15.7544
  58   2.0000      -0.570535       -15.5250
  59   2.0000      -0.563271       -15.3274
  60   2.0000      -0.500243       -13.6123
  61   2.0000      -0.494222       -13.4485
  62   2.0000      -0.474090       -12.9006
  63   2.0000      -0.472408       -12.8549
  64   2.0000      -0.453788       -12.3482
  65   2.0000      -0.449427       -12.2295
  66   2.0000      -0.445818       -12.1313
  67   2.0000      -0.436315       -11.8727
  68   2.0000      -0.428136       -11.6502
  69   2.0000      -0.420435       -11.4406
  70   2.0000      -0.413948       -11.2641
  71   2.0000      -0.399786       -10.8787
  72   2.0000      -0.393720       -10.7137
  73   2.0000      -0.386029       -10.5044
  74   2.0000      -0.383202       -10.4275
  75   2.0000      -0.371948       -10.1212
  76   2.0000      -0.368270       -10.0211
  77   2.0000      -0.357618        -9.7313
  78   2.0000      -0.354826        -9.6553
  79   2.0000      -0.351069        -9.5531
  80   2.0000      -0.349768        -9.5177
  81   2.0000      -0.347510        -9.4562
  82   2.0000      -0.340535        -9.2664
  83   2.0000      -0.336948        -9.1688
  84   2.0000      -0.327609        -8.9147
  85   2.0000      -0.315566        -8.5870
  86   2.0000      -0.313157        -8.5214
  87   2.0000      -0.296311        -8.0630
  88   2.0000      -0.293849        -7.9960
  89   2.0000      -0.291442        -7.9305
  90   2.0000      -0.286240        -7.7890
  91   2.0000      -0.276314        -7.5189
  92   2.0000      -0.275437        -7.4950
  93   2.0000      -0.265475        -7.2239
  94   2.0000      -0.260414        -7.0862
  95   2.0000      -0.235753        -6.4152
  96   2.0000      -0.220482        -5.9996
  97   2.0000      -0.205958        -5.6044
  98   2.0000      -0.204631        -5.5683
  99   2.0000      -0.201732        -5.4894
 100   2.0000      -0.197013        -5.3610
 101   0.0000      -0.046402        -1.2627
 102   0.0000      -0.023525        -0.6401
 103   0.0000      -0.015352        -0.4178
 104   0.0000       0.005204         0.1416
 105   0.0000       0.012516         0.3406

MULLIKEN ATOMIC CHARGES
-----------------------
   0 C :   -0.307862
   1 C :   -0.005197
   2 O :   -0.350053
   3 P :    0.607902
   4 S :   -0.321278
   5 O :   -0.372642
   6 C :   -0.001894
   7 C :   -0.318052
   8 S :   -0.110657
   9 C :   -0.347484
  10 S :   -0.086345
  11 P :    0.633876
  12 S :   -0.319565
  13 O :   -0.384561
  14 C :   -0.012787
  15 C :   -0.293171
  16 O :   -0.384178
  17 C :   -0.015620
  18 C :   -0.294911
  19 H :    0.115582
  20 H :    0.123307
  21 H :    0.117296
  22 H :    0.117136
  23 H :    0.114132
  24 H :    0.106421
  25 H :    0.115082
  26 H :    0.115398
  27 H :    0.127531
  28 H :    0.116589
  29 H :    0.201762
  30 H :    0.184530
  31 H :    0.119021
  32 H :    0.109084
  33 H :    0.111141
  34 H :    0.113887
  35 H :    0.110798
  36 H :    0.104967
  37 H :    0.107198
  38 H :    0.115575
  39 H :    0.106914
  40 H :    0.131132
Sum of atomic charges:   -0.0000000

LOEWDIN ATOMIC CHARGES
----------------------
   0 C :   -0.366482
   1 C :   -0.114494
   2 O :   -0.229645
   3 P :    0.574674
   4 S :   -0.305607
   5 O :   -0.241265
   6 C :   -0.117019
   7 C :   -0.370918
   8 S :    0.085798
   9 C :   -0.474775
  10 S :    0.084246
  11 P :    0.564287
  12 S :   -0.316875
  13 O :   -0.243929
  14 C :   -0.122191
  15 C :   -0.361022
  16 O :   -0.249808
  17 C :   -0.113043
  18 C :   -0.363990
  19 H :    0.132515
  20 H :    0.129243
  21 H :    0.115954
  22 H :    0.104516
  23 H :    0.125335
  24 H :    0.119538
  25 H :    0.113642
  26 H :    0.132261
  27 H :    0.121272
  28 H :    0.122956
  29 H :    0.125455
  30 H :    0.134657
  31 H :    0.112154
  32 H :    0.109749
  33 H :    0.130603
  34 H :    0.120915
  35 H :    0.121820
  36 H :    0.118198
  37 H :    0.110710
  38 H :    0.127332
  39 H :    0.128234
  40 H :    0.124998

  Mayer bond orders larger than 0.100000
B(  0-C ,  1-C ) :   1.1685 B(  0-C , 19-H ) :   0.9361 B(  0-C , 20-H ) :   0.9428
B(  0-C , 21-H ) :   0.9382 B(  1-C ,  2-O ) :   0.8986 B(  1-C , 22-H ) :   0.9144
B(  1-C , 23-H ) :   0.9335 B(  2-O ,  3-P ) :   1.1540 B(  3-P ,  4-S ) :   1.6248
B(  3-P ,  5-O ) :   1.0980 B(  3-P ,  8-S ) :   0.9259 B(  4-S ,  8-S ) :   0.1083
B(  5-O ,  6-C ) :   0.9045 B(  6-C ,  7-C ) :   1.1655 B(  6-C , 24-H ) :   0.9339
B(  6-C , 25-H ) :   0.9166 B(  7-C , 26-H ) :   0.9374 B(  7-C , 27-H ) :   0.9350
B(  7-C , 28-H ) :   0.9446 B(  8-S ,  9-C ) :   1.0164 B(  9-C , 10-S ) :   0.9615
B(  9-C , 29-H ) :   0.8645 B(  9-C , 30-H ) :   0.9045 B( 10-S , 11-P ) :   0.9919
B( 11-P , 12-S ) :   1.6441 B( 11-P , 13-O ) :   1.0819 B( 11-P , 16-O ) :   1.0887
B( 13-O , 14-C ) :   0.8982 B( 14-C , 15-C ) :   1.1637 B( 14-C , 31-H ) :   0.9210
B( 14-C , 32-H ) :   0.9101 B( 15-C , 33-H ) :   0.9411 B( 15-C , 34-H ) :   0.9395
B( 15-C , 35-H ) :   0.9467 B( 16-O , 17-C ) :   0.9018 B( 17-C , 18-C ) :   1.1696
B( 17-C , 36-H ) :   0.9362 B( 17-C , 37-H ) :   0.9167 B( 18-C , 38-H ) :   0.9469
B( 18-C , 39-H ) :   0.9393 B( 18-C , 40-H ) :   0.9313

Dispersion correction           -0.064014243
FINAL SINGLE POINT ENERGY     -2929.518020908047

DIPOLE MOMENT
-------------

Method             : SCF
Type of density    : Electron Density
Multiplicity       :   1
Irrep              :   0
Energy             : -2929.6394123238569591 Eh
Relativity type    :
Basis              : AO
                                X                 Y                 Z
Electronic contribution:      3.084709356       2.669159392      -8.520973117
Nuclear contribution   :     -2.474295929      -3.767383521       9.472597545
                        -----------------------------------------
Total Dipole Moment    :      0.610413427      -1.098224128       0.951624428
                        -----------------------------------------
Magnitude (a.u.)       :      1.576163012
Magnitude (Debye)      :      4.006287992

Rotational constants in cm-1:             0.013502             0.004368             0.004140
Rotational constants in MHz :           404.788657           130.944634           124.127521

                             ****ORCA TERMINATED NORMALLY****
TOTAL RUN TIME: 0 days 0 hours 0 minutes 20 seconds 789 msec
