                         Program Version 6.0.1  -  RELEASE   -
|  1> ! pbe def2-sv(p) def2/J RI DEFGRID1 loosescf d4 GCP(DFT/SV(P)) printgap
|  2> %output
|  3>     printlevel normal
|  4> end
|  5> * xyz 0 1
|  6> C 3.0294430641 -3.8677347853 1.2196006316
|  7> C 2.9666261559 -3.2331883815 -0.16042158
|  8> O 2.9220119897 -1.7955949292 -0.0636496312
|  9> C 1.7559804879 -1.2095203422 0.0905090015
| 10> O 0.6943658543 -1.8025012946 0.1258812099
| 11> C 1.897661016 0.2907901846 0.2178451932
| 12> C 0.5906490627 0.9802439691 -0.1307990094
| 13> H 0.2298964152 0.6551133966 -1.1175677995
| 14> C 0.6349335811 2.5004748798 -0.1260579487
| 15> O -0.3000287676 3.175519144 -0.4933998304
| 16> O 1.7722938872 2.9662250502 0.3342664205
| 17> C 1.9472730648 4.3972978091 0.40367495
| 18> C 2.4612849034 4.9482715057 -0.9164002614
| 19> S -0.744953693 0.5286749578 1.0421029771
| 20> P -1.7939156123 -0.8786219022 -0.1699715476
| 21> S -1.306298886 -1.0330318548 -2.0596727418
| 22> O -1.9196223609 -2.2483898058 0.5978422919
| 23> C -2.3427666007 -2.3214235059 1.9732339234
| 24> O -3.3074370927 -0.3490187989 0.0132516678
| 25> C -3.7267943618 0.876819709 -0.5858658817
| 26> H 3.1345284306 -4.9424594817 1.1145052357
| 27> H 3.8785678156 -3.4760591897 1.7726696913
| 28> H 2.1161694568 -3.6557596343 1.7707986981
| 29> H 2.0822522384 -3.5736127192 -0.7071623299
| 30> H 3.8700629321 -3.437344952 -0.7349562833
| 31> H 2.6970079235 0.6262134202 -0.4431338808
| 32> H 2.1863944791 0.5229482179 1.2456364452
| 33> H 0.9884763909 4.8521883953 0.6661575642
| 34> H 2.6721496839 4.5402042808 1.2047879994
| 35> H 1.7270863788 4.7836456694 -1.7018505189
| 36> H 2.6337858735 6.0146021721 -0.8152870489
| 37> H 3.391614591 4.4600168639 -1.1923759191
| 38> H -1.694334262 -1.7035509877 2.5946463834
| 39> H -2.2479320315 -3.3706771451 2.2406709388
| 40> H -3.3753013815 -1.9880160149 2.0617995594
| 41> H -3.5722239543 0.8378346639 -1.6654868315
| 42> H -3.1656461473 1.7156039269 -0.1697709997
| 43> H -4.7842162714 0.9715221427 -0.3541510418
| 44> *
| 45>
| 46>                          ****END OF INPUT****

CARTESIAN COORDINATES (ANGSTROEM)
---------------------------------
  C      3.029443   -3.867735    1.219601
  C      2.966626   -3.233188   -0.160422
  O      2.922012   -1.795595   -0.063650
  C      1.755980   -1.209520    0.090509
  O      0.694366   -1.802501    0.125881
  C      1.897661    0.290790    0.217845
  C      0.590649    0.980244   -0.130799
  H      0.229896    0.655113   -1.117568
  C      0.634934    2.500475   -0.126058
  O     -0.300029    3.175519   -0.493400
  O      1.772294    2.966225    0.334266
  C      1.947273    4.397298    0.403675
  C      2.461285    4.948272   -0.916400
  S     -0.744954    0.528675    1.042103
  P     -1.793916   -0.878622   -0.169972
  S     -1.306299   -1.033032   -2.059673
  O     -1.919622   -2.248390    0.597842
  C     -2.342767   -2.321424    1.973234
  O     -3.307437   -0.349019    0.013252
  C     -3.726794    0.876820   -0.585866
  H      3.134528   -4.942459    1.114505
  H      3.878568   -3.476059    1.772670
  H      2.116169   -3.655760    1.770799
  H      2.082252   -3.573613   -0.707162
  H      3.870063   -3.437345   -0.734956
  H      2.697008    0.626213   -0.443134
  H      2.186394    0.522948    1.245636
  H      0.988476    4.852188    0.666158
  H      2.672150    4.540204    1.204788
  H      1.727086    4.783646   -1.701851
  H      2.633786    6.014602   -0.815287
  H      3.391615    4.460017   -1.192376
  H     -1.694334   -1.703551    2.594646
  H     -2.247932   -3.370677    2.240671
  H     -3.375301   -1.988016    2.061800
  H     -3.572224    0.837835   -1.665487
  H     -3.165646    1.715604   -0.169771
  H     -4.784216    0.971522   -0.354151

 Total Charge           Charge          ....    0
 Multiplicity           Mult            ....    1
 Number of Electrons    NEL             ....  174
 Basis Dimension        Dim             ....  316

ORBITAL ENERGIES
----------------

  NO   OCC          E(Eh)            E(eV)
   0   2.0000     -88.032575     -2395.4882
   1   2.0000     -87.972037     -2393.8408
   2   2.0000     -76.414982     -2079.3574
   3   2.0000     -18.813639      -511.9451
   4   2.0000     -18.807662      -511.7825
   5   2.0000     -18.782822      -511.1066
   6   2.0000     -18.773646      -510.8569
   7   2.0000     -18.743150      -510.0270
   8   2.0000     -18.739921      -509.9392
   9   2.0000     -10.016250      -272.5560
  10   2.0000     -10.014172      -272.4995
  11   2.0000      -9.955609      -270.9059
  12   2.0000      -9.950295      -270.7613
  13   2.0000      -9.943978      -270.5894
  14   2.0000      -9.938767      -270.4476
  15   2.0000      -9.925517      -270.0871
  16   2.0000      -9.911077      -269.6941
  17   2.0000      -9.892791      -269.1965
  18   2.0000      -9.890333      -269.1296
  19   2.0000      -7.676851      -208.8977
  20   2.0000      -7.617361      -207.2789
  21   2.0000      -6.411477      -174.4652
  22   2.0000      -5.704833      -155.2364
  23   2.0000      -5.701711      -155.1515
  24   2.0000      -5.693508      -154.9282
  25   2.0000      -5.646541      -153.6502
  26   2.0000      -5.638287      -153.4256
  27   2.0000      -5.636861      -153.3868
  28   2.0000      -4.634235      -126.1039
  29   2.0000      -4.633342      -126.0797
  30   2.0000      -4.631890      -126.0401
  31   2.0000      -1.020290       -27.7635
  32   2.0000      -1.015934       -27.6450
  33   2.0000      -0.974446       -26.5160
  34   2.0000      -0.927489       -25.2383
  35   2.0000      -0.920569       -25.0500
  36   2.0000      -0.919934       -25.0327
  37   2.0000      -0.760517       -20.6947
  38   2.0000      -0.714623       -19.4459
  39   2.0000      -0.708425       -19.2772
  40   2.0000      -0.686308       -18.6754
  41   2.0000      -0.655570       -17.8390
  42   2.0000      -0.626298       -17.0424
  43   2.0000      -0.619092       -16.8464
  44   2.0000      -0.610781       -16.6202
  45   2.0000      -0.598010       -16.2727
  46   2.0000      -0.567581       -15.4447
  47   2.0000      -0.507862       -13.8196
  48   2.0000      -0.503015       -13.6877
  49   2.0000      -0.500038       -13.6067
  50   2.0000      -0.475796       -12.9471
  51   2.0000      -0.463475       -12.6118
  52   2.0000      -0.456899       -12.4329
  53   2.0000      -0.452679       -12.3180
  54   2.0000      -0.433127       -11.7860
  55   2.0000      -0.429451       -11.6859
  56   2.0000      -0.424064       -11.5394
  57   2.0000      -0.417469       -11.3599
  58   2.0000      -0.408816       -11.1245
  59   2.0000      -0.406821       -11.0702
  60   2.0000      -0.400943       -10.9102
  61   2.0000      -0.394271       -10.7287
  62   2.0000      -0.388778       -10.5792
  63   2.0000      -0.385953       -10.5023
  64   2.0000      -0.378696       -10.3048
  65   2.0000      -0.366442        -9.9714
  66   2.0000      -0.361221        -9.8293
  67   2.0000      -0.356941        -9.7128
  68   2.0000      -0.351560        -9.5664
  69   2.0000      -0.339096        -9.2273
  70   2.0000      -0.332955        -9.0602
  71   2.0000      -0.331719        -9.0265
  72   2.0000      -0.325774        -8.8647
  73   2.0000      -0.305581        -8.3153
  74   2.0000      -0.303076        -8.2471
  75   2.0000      -0.299733        -8.1562
  76   2.0000      -0.286324        -7.7913
  77   2.0000      -0.284747        -7.7484
  78   2.0000      -0.268273        -7.3001
  79   2.0000      -0.265707        -7.2302
  80   2.0000      -0.259587        -7.0637
  81   2.0000      -0.247600        -6.7375
  82   2.0000      -0.238257        -6.4833
  83   2.0000      -0.225889        -6.1467
  84   2.0000      -0.204151        -5.5552
  85   2.0000      -0.194293        -5.2870
  86   2.0000      -0.183912        -5.0045
  87   0.0000      -0.045757        -1.2451
  88   0.0000      -0.031351        -0.8531
  89   0.0000      -0.025301        -0.6885
  90   0.0000       0.026565         0.7229
  91   0.0000       0.034436         0.9371

MULLIKEN ATOMIC CHARGES
-----------------------
   0 C :   -0.305760
   1 C :   -0.014317
   2 O :   -0.225943
   3 C :    0.146045
   4 O :   -0.199310
   5 C :   -0.037808
   6 C :   -0.394708
   7 H :    0.159654
   8 C :    0.229267
   9 O :   -0.186206
  10 O :   -0.226740
  11 C :   -0.012342
  12 C :   -0.305994
  13 S :   -0.106711
  14 P :    0.634041
  15 S :   -0.310029
  16 O :   -0.356676
  17 C :   -0.104358
  18 O :   -0.395428
  19 C :   -0.104099
  20 H :    0.115605
  21 H :    0.113615
  22 H :    0.124848
  23 H :    0.121677
  24 H :    0.104489
  25 H :    0.114230
  26 H :    0.119780
  27 H :    0.113840
  28 H :    0.105241
  29 H :    0.131756
  30 H :    0.116373
  31 H :    0.115244
  32 H :    0.117145
  33 H :    0.128954
  34 H :    0.124909
  35 H :    0.114566
  36 H :    0.120075
  37 H :    0.115073
Sum of atomic charges:   -0.0000000

LOEWDIN ATOMIC CHARGES
----------------------
   0 C :   -0.355796
   1 C :   -0.110029
   2 O :   -0.054607
   3 C :    0.041313
   4 O :   -0.165033
   5 C :   -0.256692
   6 C :   -0.271399
   7 H :    0.136047
   8 C :    0.012630
   9 O :   -0.158807
  10 O :   -0.050419
  11 C :   -0.108765
  12 C :   -0.355491
  13 S :    0.097501
  14 P :    0.596930
  15 S :   -0.303046
  16 O :   -0.230618
  17 C :   -0.208009
  18 O :   -0.269844
  19 C :   -0.223371
  20 H :    0.132002
  21 H :    0.124489
  22 H :    0.129621
  23 H :    0.125849
  24 H :    0.118870
  25 H :    0.142714
  26 H :    0.145490
  27 H :    0.123094
  28 H :    0.119174
  29 H :    0.132953
  30 H :    0.132687
  31 H :    0.125302
  32 H :    0.108658
  33 H :    0.125079
  34 H :    0.116128
  35 H :    0.109580
  36 H :    0.108589
  37 H :    0.117228

  Mayer bond orders larger than 0.100000
B(  0-C ,  1-C ) :   1.1741 B(  0-C , 20-H ) :   0.9442 B(  0-C , 21-H ) :   0.9488
B(  0-C , 22-H ) :   0.9465 B(  1-C ,  2-O ) :   0.9107 B(  1-C , 23-H ) :   0.9139
B(  1-C , 24-H ) :   0.9371 B(  2-O ,  3-C ) :   1.2532 B(  3-C ,  4-O ) :   1.9594
B(  3-C ,  5-C ) :   1.0013 B(  5-C ,  6-C ) :   1.0072 B(  5-C , 25-H ) :   0.8903
B(  5-C , 26-H ) :   0.8763 B(  6-C ,  7-H ) :   0.8223 B(  6-C ,  8-C ) :   0.9027
B(  6-C , 13-S ) :   1.0277 B(  7-H , 15-S ) :   0.1345 B(  8-C ,  9-O ) :   2.0649
B(  8-C , 10-O ) :   1.2579 B( 10-O , 11-C ) :   0.9074 B( 11-C , 12-C ) :   1.1767
B( 11-C , 27-H ) :   0.9136 B( 11-C , 28-H ) :   0.9367 B( 12-C , 29-H ) :   0.9452
B( 12-C , 30-H ) :   0.9436 B( 12-C , 31-H ) :   0.9485 B( 13-S , 14-P ) :   0.9287
B( 13-S , 15-S ) :   0.1147 B( 14-P , 15-S ) :   1.6072 B( 14-P , 16-O ) :   1.1354
B( 14-P , 18-O ) :   1.0497 B( 16-O , 17-C ) :   0.9232 B( 17-C , 32-H ) :   0.9397
B( 17-C , 33-H ) :   0.9600 B( 17-C , 34-H ) :   0.9465 B( 18-O , 19-C ) :   0.9388
B( 19-C , 35-H ) :   0.9386 B( 19-C , 36-H ) :   0.9369 B( 19-C , 37-H ) :   0.9582

Dispersion correction           -0.050357167
FINAL SINGLE POINT ENERGY     -1979.013947223310

DIPOLE MOMENT
-------------

Method             : SCF
Type of density    : Electron Density
Multiplicity       :   1
Irrep              :   0
Energy             : -1979.1453487580342880 Eh
Relativity type    :
Basis              : AO
                                X                 Y                 Z
Electronic contribution:    -12.252570139      -4.103307190      -4.303537728
Nuclear contribution   :     13.639095565       4.394318514       5.602126119
                        -----------------------------------------
Total Dipole Moment    :      1.386525426       0.291011324       1.298588390
                        -----------------------------------------
Magnitude (a.u.)       :      1.921840824
Magnitude (Debye)      :      4.884931164

Rotational constants in cm-1:             0.010221             0.007858             0.005233
Rotational constants in MHz :           306.428896           235.569192           156.895807

                             ****ORCA TERMINATED NORMALLY****
TOTAL RUN TIME: 0 days 0 hours 0 minutes 32 seconds 587 msec
