                         Program Version 6.0.0  -   RELEASE  -
|  1> ! pbe def2-sv(p) def2/J RI DEFGRID1 loosescf d4 GCP(DFT/SV(P)) printgap
|  2> %output
|  3>     printlevel normal
|  4> end
|  5> * xyz 0 1
|  6> C 4.5197082888 1.3516183495 -1.8603794693
|  7> C 4.6812841159 -0.0289071204 -1.257912142
|  8> O 3.4160533723 -0.6896979358 -1.0746903745
|  9> P 2.3416391304 -0.1922478036 -0.0129680171
| 10> S 3.1117373244 0.4288250798 1.6826751478
| 11> O 1.3760768965 -1.4389571486 0.0783723231
| 12> C 1.6379246855 -2.5799266463 0.9274727299
| 13> C 0.3627126739 -2.9361439968 1.6642506598
| 14> S 1.1067202942 1.1449948919 -1.0653505512
| 15> C 0.2977461059 1.8616958191 0.3938681487
| 16> S -0.7571252856 0.7049560969 1.3065540963
| 17> P -2.0930198762 0.1177817529 -0.2796669999
| 18> S -1.500871966 -1.2532306384 -1.541660616
| 19> O -2.4663160726 1.4519732526 -1.0244924423
| 20> C -3.1679117523 2.5593562061 -0.4002883121
| 21> C -4.6512950769 2.4794563257 -0.6968409692
| 22> O -3.4066917934 -0.2073828255 0.5554420366
| 23> C -3.4684833587 -1.2355431018 1.5628446173
| 24> C -3.8083457704 -2.585590096 0.962999061
| 25> H 3.9274384945 1.2993065483 -2.7708014404
| 26> H 4.0168998736 2.0095900266 -1.1524540017
| 27> H 5.4984665918 1.7610029977 -2.0887074631
| 28> H 5.1812355664 0.0313537195 -0.2858296372
| 29> H 5.2319809382 -0.6983572233 -1.9198781327
| 30> H 1.9618484029 -3.3899227908 0.2712224466
| 31> H 2.4432467514 -2.3261803421 1.6253389833
| 32> H 0.51598993 -3.851964078 2.2251079345
| 33> H 0.0896978448 -2.1354496829 2.347942092
| 34> H -0.4412634995 -3.080660957 0.9465872913
| 35> H -0.2861089213 2.7056206089 0.0362677604
| 36> H 1.0584016748 2.1828016803 1.106974698
| 37> H -2.9805406006 2.5432704279 0.6764138626
| 38> H -2.724826328 3.451385152 -0.8476673743
| 39> H -4.8144833651 2.4551539216 -1.770727566
| 40> H -5.0744615427 1.5797496161 -0.2587795118
| 41> H -5.1448603911 3.3509197567 -0.2779775834
| 42> H -2.5144500019 -1.2680142682 2.0968289351
| 43> H -4.2522313181 -0.8972289691 2.2435664648
| 44> H -3.0419037885 -2.8882906207 0.253003742
| 45> H -3.8723288019 -3.3237771648 1.7557781855
| 46> H -4.7590503438 -2.5343423597 0.4397233278
| 47> *
| 48>
| 49>                          ****END OF INPUT****

CARTESIAN COORDINATES (ANGSTROEM)
---------------------------------
  C      4.519708    1.351618   -1.860379
  C      4.681284   -0.028907   -1.257912
  O      3.416053   -0.689698   -1.074690
  P      2.341639   -0.192248   -0.012968
  S      3.111737    0.428825    1.682675
  O      1.376077   -1.438957    0.078372
  C      1.637925   -2.579927    0.927473
  C      0.362713   -2.936144    1.664251
  S      1.106720    1.144995   -1.065351
  C      0.297746    1.861696    0.393868
  S     -0.757125    0.704956    1.306554
  P     -2.093020    0.117782   -0.279667
  S     -1.500872   -1.253231   -1.541661
  O     -2.466316    1.451973   -1.024492
  C     -3.167912    2.559356   -0.400288
  C     -4.651295    2.479456   -0.696841
  O     -3.406692   -0.207383    0.555442
  C     -3.468483   -1.235543    1.562845
  C     -3.808346   -2.585590    0.962999
  H      3.927438    1.299307   -2.770801
  H      4.016900    2.009590   -1.152454
  H      5.498467    1.761003   -2.088707
  H      5.181236    0.031354   -0.285830
  H      5.231981   -0.698357   -1.919878
  H      1.961848   -3.389923    0.271222
  H      2.443247   -2.326180    1.625339
  H      0.515990   -3.851964    2.225108
  H      0.089698   -2.135450    2.347942
  H     -0.441263   -3.080661    0.946587
  H     -0.286109    2.705621    0.036268
  H      1.058402    2.182802    1.106975
  H     -2.980541    2.543270    0.676414
  H     -2.724826    3.451385   -0.847667
  H     -4.814483    2.455154   -1.770728
  H     -5.074462    1.579750   -0.258780
  H     -5.144860    3.350920   -0.277978
  H     -2.514450   -1.268014    2.096829
  H     -4.252231   -0.897229    2.243566
  H     -3.041904   -2.888291    0.253004
  H     -3.872329   -3.323777    1.755778
  H     -4.759050   -2.534342    0.439723

 Total Charge           Charge          ....    0
 Multiplicity           Mult            ....    1
 Number of Electrons    NEL             ....  202
 Basis Dimension        Dim             ....  334

ORBITAL ENERGIES
----------------

  NO   OCC          E(Eh)            E(eV)
   0   2.0000     -88.040301     -2395.6984
   1   2.0000     -88.038928     -2395.6610
   2   2.0000     -87.984577     -2394.1821
   3   2.0000     -87.977080     -2393.9780
   4   2.0000     -76.424954     -2079.6287
   5   2.0000     -76.422131     -2079.5519
   6   2.0000     -18.796636      -511.4825
   7   2.0000     -18.793902      -511.4081
   8   2.0000     -18.789176      -511.2795
   9   2.0000     -18.780375      -511.0400
  10   2.0000      -9.961594      -271.0688
  11   2.0000      -9.961044      -271.0538
  12   2.0000      -9.958856      -270.9942
  13   2.0000      -9.949146      -270.7300
  14   2.0000      -9.944666      -270.6081
  15   2.0000      -9.889479      -269.1064
  16   2.0000      -9.882870      -268.9266
  17   2.0000      -9.881798      -268.8974
  18   2.0000      -9.876977      -268.7662
  19   2.0000      -7.685605      -209.1359
  20   2.0000      -7.683524      -209.0793
  21   2.0000      -7.629616      -207.6124
  22   2.0000      -7.622383      -207.4156
  23   2.0000      -6.422163      -174.7559
  24   2.0000      -6.419802      -174.6917
  25   2.0000      -5.713535      -155.4732
  26   2.0000      -5.711351      -155.4138
  27   2.0000      -5.710230      -155.3833
  28   2.0000      -5.708115      -155.3257
  29   2.0000      -5.702292      -155.1672
  30   2.0000      -5.700537      -155.1195
  31   2.0000      -5.658273      -153.9694
  32   2.0000      -5.651551      -153.7865
  33   2.0000      -5.650453      -153.7567
  34   2.0000      -5.649824      -153.7395
  35   2.0000      -5.643049      -153.5552
  36   2.0000      -5.642208      -153.5323
  37   2.0000      -4.645404      -126.4079
  38   2.0000      -4.644114      -126.3728
  39   2.0000      -4.642280      -126.3229
  40   2.0000      -4.641855      -126.3113
  41   2.0000      -4.641469      -126.3008
  42   2.0000      -4.640420      -126.2722
  43   2.0000      -0.991467       -26.9792
  44   2.0000      -0.980641       -26.6846
  45   2.0000      -0.948873       -25.8201
  46   2.0000      -0.938756       -25.5448
  47   2.0000      -0.762717       -20.7546
  48   2.0000      -0.720819       -19.6145
  49   2.0000      -0.708641       -19.2831
  50   2.0000      -0.694103       -18.8875
  51   2.0000      -0.682585       -18.5741
  52   2.0000      -0.670101       -18.2344
  53   2.0000      -0.648369       -17.6430
  54   2.0000      -0.636887       -17.3306
  55   2.0000      -0.594570       -16.1791
  56   2.0000      -0.585924       -15.9438
  57   2.0000      -0.578108       -15.7311
  58   2.0000      -0.569764       -15.5041
  59   2.0000      -0.558766       -15.2048
  60   2.0000      -0.509772       -13.8716
  61   2.0000      -0.496919       -13.5218
  62   2.0000      -0.483930       -13.1684
  63   2.0000      -0.467899       -12.7322
  64   2.0000      -0.459903       -12.5146
  65   2.0000      -0.447690       -12.1823
  66   2.0000      -0.436057       -11.8657
  67   2.0000      -0.432802       -11.7771
  68   2.0000      -0.426954       -11.6180
  69   2.0000      -0.415313       -11.3013
  70   2.0000      -0.404939       -11.0190
  71   2.0000      -0.398897       -10.8545
  72   2.0000      -0.392009       -10.6671
  73   2.0000      -0.383131       -10.4255
  74   2.0000      -0.381616       -10.3843
  75   2.0000      -0.376322       -10.2403
  76   2.0000      -0.362987        -9.8774
  77   2.0000      -0.356836        -9.7100
  78   2.0000      -0.351083        -9.5535
  79   2.0000      -0.348722        -9.4892
  80   2.0000      -0.347312        -9.4508
  81   2.0000      -0.346588        -9.4311
  82   2.0000      -0.338515        -9.2115
  83   2.0000      -0.336468        -9.1558
  84   2.0000      -0.333292        -9.0693
  85   2.0000      -0.324149        -8.8205
  86   2.0000      -0.307103        -8.3567
  87   2.0000      -0.300199        -8.1688
  88   2.0000      -0.296365        -8.0645
  89   2.0000      -0.292752        -7.9662
  90   2.0000      -0.282139        -7.6774
  91   2.0000      -0.278863        -7.5882
  92   2.0000      -0.270696        -7.3660
  93   2.0000      -0.260035        -7.0759
  94   2.0000      -0.257519        -7.0074
  95   2.0000      -0.234234        -6.3738
  96   2.0000      -0.215712        -5.8698
  97   2.0000      -0.206854        -5.6288
  98   2.0000      -0.202077        -5.4988
  99   2.0000      -0.192219        -5.2305
 100   2.0000      -0.183717        -4.9992
 101   0.0000      -0.047016        -1.2794
 102   0.0000      -0.020343        -0.5536
 103   0.0000      -0.017741        -0.4828
 104   0.0000       0.001990         0.0541
 105   0.0000       0.021146         0.5754

MULLIKEN ATOMIC CHARGES
-----------------------
   0 C :   -0.317052
   1 C :   -0.002016
   2 O :   -0.372644
   3 P :    0.617266
   4 S :   -0.348393
   5 O :   -0.346774
   6 C :    0.002271
   7 C :   -0.312289
   8 S :   -0.059852
   9 C :   -0.357530
  10 S :   -0.116779
  11 P :    0.599196
  12 S :   -0.279140
  13 O :   -0.362532
  14 C :   -0.030497
  15 C :   -0.280160
  16 O :   -0.381478
  17 C :   -0.027420
  18 C :   -0.298777
  19 H :    0.120066
  20 H :    0.123693
  21 H :    0.112308
  22 H :    0.110627
  23 H :    0.105338
  24 H :    0.104657
  25 H :    0.100770
  26 H :    0.102520
  27 H :    0.126637
  28 H :    0.128931
  29 H :    0.185448
  30 H :    0.192248
  31 H :    0.104199
  32 H :    0.111748
  33 H :    0.122015
  34 H :    0.124399
  35 H :    0.109346
  36 H :    0.118033
  37 H :    0.107908
  38 H :    0.141887
  39 H :    0.106875
  40 H :    0.114948
Sum of atomic charges:   -0.0000000

LOEWDIN ATOMIC CHARGES
----------------------
   0 C :   -0.369751
   1 C :   -0.119180
   2 O :   -0.245334
   3 P :    0.572884
   4 S :   -0.334692
   5 O :   -0.231491
   6 C :   -0.110971
   7 C :   -0.361131
   8 S :    0.107990
   9 C :   -0.478910
  10 S :    0.058267
  11 P :    0.560705
  12 S :   -0.288482
  13 O :   -0.236068
  14 C :   -0.117323
  15 C :   -0.356938
  16 O :   -0.249737
  17 C :   -0.114327
  18 C :   -0.364698
  19 H :    0.125303
  20 H :    0.119718
  21 H :    0.130685
  22 H :    0.110069
  23 H :    0.118828
  24 H :    0.116116
  25 H :    0.105202
  26 H :    0.125901
  27 H :    0.121728
  28 H :    0.124510
  29 H :    0.128790
  30 H :    0.131022
  31 H :    0.107090
  32 H :    0.118511
  33 H :    0.130088
  34 H :    0.127854
  35 H :    0.129793
  36 H :    0.107529
  37 H :    0.119329
  38 H :    0.124871
  39 H :    0.128596
  40 H :    0.127654

  Mayer bond orders larger than 0.100000
B(  0-C ,  1-C ) :   1.1645 B(  0-C , 19-H ) :   0.9449 B(  0-C , 20-H ) :   0.9350
B(  0-C , 21-H ) :   0.9381 B(  1-C ,  2-O ) :   0.9101 B(  1-C , 22-H ) :   0.9154
B(  1-C , 23-H ) :   0.9337 B(  2-O ,  3-P ) :   1.1126 B(  3-P ,  4-S ) :   1.5833
B(  3-P ,  5-O ) :   1.1533 B(  3-P ,  8-S ) :   0.9645 B(  4-S ,  8-S ) :   0.1094
B(  5-O ,  6-C ) :   0.8975 B(  6-C ,  7-C ) :   1.1676 B(  6-C , 24-H ) :   0.9333
B(  6-C , 25-H ) :   0.9063 B(  7-C , 26-H ) :   0.9378 B(  7-C , 27-H ) :   0.9411
B(  7-C , 28-H ) :   0.9371 B(  8-S ,  9-C ) :   1.0128 B(  9-C , 10-S ) :   1.0040
B(  9-C , 29-H ) :   0.8999 B(  9-C , 30-H ) :   0.8793 B( 10-S , 11-P ) :   0.9308
B( 10-S , 12-S ) :   0.1121 B( 11-P , 12-S ) :   1.7087 B( 11-P , 13-O ) :   1.1195
B( 11-P , 16-O ) :   1.0591 B( 13-O , 14-C ) :   0.8901 B( 14-C , 15-C ) :   1.1702
B( 14-C , 31-H ) :   0.9101 B( 14-C , 32-H ) :   0.9301 B( 15-C , 33-H ) :   0.9468
B( 15-C , 34-H ) :   0.9413 B( 15-C , 35-H ) :   0.9392 B( 16-O , 17-C ) :   0.9083
B( 17-C , 18-C ) :   1.1673 B( 17-C , 36-H ) :   0.9154 B( 17-C , 37-H ) :   0.9354
B( 18-C , 38-H ) :   0.9244 B( 18-C , 39-H ) :   0.9384 B( 18-C , 40-H ) :   0.9455

Dispersion correction           -0.066662798
FINAL SINGLE POINT ENERGY     -2929.515107328324

DIPOLE MOMENT
-------------

Method             : SCF
Type of density    : Electron Density
Multiplicity       :   1
Irrep              :   0
Energy             : -2929.6327442671918106 Eh
Relativity type    :
Basis              : AO
                                X                 Y                 Z
Electronic contribution:      9.017027889       3.281735916      -4.094188955
Nuclear contribution   :     -9.659077261      -2.813307535       4.593016764
                        -----------------------------------------
Total Dipole Moment    :     -0.642049372       0.468428382       0.498827810
                        -----------------------------------------
Magnitude (a.u.)       :      0.938339879
Magnitude (Debye)      :      2.385070427

Rotational constants in cm-1:             0.012746             0.005262             0.004564
Rotational constants in MHz :           382.118985           157.741330           136.818053

                             ****ORCA TERMINATED NORMALLY****
TOTAL RUN TIME: 0 days 0 hours 0 minutes 21 seconds 518 msec
