                         Program Version 6.0.0  -   RELEASE  -
|  1> ! pbe def2-sv(p) def2/J RI DEFGRID1 loosescf d4 GCP(DFT/SV(P)) printgap
|  2> %output
|  3>     printlevel normal
|  4> end
|  5> * xyz 0 1
|  6> C 4.1286343629 2.3930253007 -0.6239680606
|  7> C 4.502202851 0.9308819554 -0.4887450764
|  8> O 3.380591452 0.0605424393 -0.7237539801
|  9> P 2.146062098 -0.0218886588 0.2721130743
| 10> S 2.6062118878 0.0692459206 2.1789065242
| 11> O 1.4213537423 -1.3450540248 -0.2100517527
| 12> C 1.6822764585 -2.6355619304 0.3704135365
| 13> C 3.0856586746 -3.1165453044 0.0695237586
| 14> S 0.7875841975 1.4018719347 -0.4658364155
| 15> C -0.275756594 1.466238889 1.0059908167
| 16> S -1.0874996828 -0.1084816181 1.3932749377
| 17> P -2.1621594868 -0.4247235188 -0.4152015476
| 18> S -1.3025704033 -1.1817263979 -1.9993212213
| 19> O -2.849092421 0.9969418901 -0.6440505359
| 20> C -2.8676785853 1.715686793 -1.8935240497
| 21> C -2.1741056641 3.0553697725 -1.7463982169
| 22> O -3.2947312791 -1.424564973 0.0560843981
| 23> C -4.0297715942 -1.4003653778 1.3025360296
| 24> C -4.8104467839 -0.1179634123 1.4956483234
| 25> H 3.6376057264 2.5705248281 -1.5776795426
| 26> H 3.4509817583 2.6804468926 0.1790232362
| 27> H 5.0263997308 2.9995835924 -0.5612661944
| 28> H 4.8937818604 0.7252988102 0.5128634675
| 29> H 5.2299909262 0.6278098203 -1.2425837318
| 30> H 1.5151007402 -2.5669769624 1.4510557465
| 31> H 0.9247727596 -3.2792758133 -0.0809157933
| 32> H 3.2049022068 -4.1308648819 0.4372308631
| 33> H 3.2654970459 -3.094055647 -1.0023571637
| 34> H 3.8114179864 -2.4714170773 0.5639677592
| 35> H -1.024687218 2.2322993652 0.8229810546
| 36> H 0.3296790724 1.7020760845 1.8814476688
| 37> H -2.3875330622 1.1018446918 -2.6629733595
| 38> H -3.9234240685 1.8446077569 -2.1403448152
| 39> H -1.1099071287 2.917712644 -1.5630142378
| 40> H -2.299539661 3.6148317484 -2.6677203409
| 41> H -2.6134512213 3.6179699482 -0.9273056662
| 42> H -4.6900996387 -2.2650662245 1.2169152508
| 43> H -3.3230370128 -1.5562802263 2.1214305573
| 44> H -5.4648483851 0.055521046 0.6454563941
| 45> H -5.4091345296 -0.2017440476 2.3973972013
| 46> H -4.1312984859 0.725156332 1.5972350653
| 47> *
| 48>
| 49>                          ****END OF INPUT****

CARTESIAN COORDINATES (ANGSTROEM)
---------------------------------
  C      4.128634    2.393025   -0.623968
  C      4.502203    0.930882   -0.488745
  O      3.380591    0.060542   -0.723754
  P      2.146062   -0.021889    0.272113
  S      2.606212    0.069246    2.178907
  O      1.421354   -1.345054   -0.210052
  C      1.682276   -2.635562    0.370414
  C      3.085659   -3.116545    0.069524
  S      0.787584    1.401872   -0.465836
  C     -0.275757    1.466239    1.005991
  S     -1.087500   -0.108482    1.393275
  P     -2.162159   -0.424724   -0.415202
  S     -1.302570   -1.181726   -1.999321
  O     -2.849092    0.996942   -0.644051
  C     -2.867679    1.715687   -1.893524
  C     -2.174106    3.055370   -1.746398
  O     -3.294731   -1.424565    0.056084
  C     -4.029772   -1.400365    1.302536
  C     -4.810447   -0.117963    1.495648
  H      3.637606    2.570525   -1.577680
  H      3.450982    2.680447    0.179023
  H      5.026400    2.999584   -0.561266
  H      4.893782    0.725299    0.512863
  H      5.229991    0.627810   -1.242584
  H      1.515101   -2.566977    1.451056
  H      0.924773   -3.279276   -0.080916
  H      3.204902   -4.130865    0.437231
  H      3.265497   -3.094056   -1.002357
  H      3.811418   -2.471417    0.563968
  H     -1.024687    2.232299    0.822981
  H      0.329679    1.702076    1.881448
  H     -2.387533    1.101845   -2.662973
  H     -3.923424    1.844608   -2.140345
  H     -1.109907    2.917713   -1.563014
  H     -2.299540    3.614832   -2.667720
  H     -2.613451    3.617970   -0.927306
  H     -4.690100   -2.265066    1.216915
  H     -3.323037   -1.556280    2.121431
  H     -5.464848    0.055521    0.645456
  H     -5.409135   -0.201744    2.397397
  H     -4.131298    0.725156    1.597235

 Total Charge           Charge          ....    0
 Multiplicity           Mult            ....    1
 Number of Electrons    NEL             ....  202
 Basis Dimension        Dim             ....  334

ORBITAL ENERGIES
----------------

  NO   OCC          E(Eh)            E(eV)
   0   2.0000     -88.044138     -2395.8028
   1   2.0000     -88.042171     -2395.7493
   2   2.0000     -87.988200     -2394.2807
   3   2.0000     -87.973456     -2393.8794
   4   2.0000     -76.424990     -2079.6297
   5   2.0000     -76.421956     -2079.5471
   6   2.0000     -18.792768      -511.3772
   7   2.0000     -18.792719      -511.3759
   8   2.0000     -18.787843      -511.2432
   9   2.0000     -18.780673      -511.0481
  10   2.0000      -9.960227      -271.0316
  11   2.0000      -9.956193      -270.9218
  12   2.0000      -9.952567      -270.8231
  13   2.0000      -9.951091      -270.7830
  14   2.0000      -9.941278      -270.5159
  15   2.0000      -9.890115      -269.1237
  16   2.0000      -9.887201      -269.0444
  17   2.0000      -9.884880      -268.9813
  18   2.0000      -9.876857      -268.7629
  19   2.0000      -7.688963      -209.2273
  20   2.0000      -7.686920      -209.1717
  21   2.0000      -7.633122      -207.7078
  22   2.0000      -7.618859      -207.3197
  23   2.0000      -6.422478      -174.7645
  24   2.0000      -6.419174      -174.6746
  25   2.0000      -5.716802      -155.5621
  26   2.0000      -5.714925      -155.5110
  27   2.0000      -5.713646      -155.4762
  28   2.0000      -5.711320      -155.4129
  29   2.0000      -5.705771      -155.2619
  30   2.0000      -5.703895      -155.2109
  31   2.0000      -5.661852      -154.0668
  32   2.0000      -5.653898      -153.8504
  33   2.0000      -5.653352      -153.8355
  34   2.0000      -5.647983      -153.6894
  35   2.0000      -5.639209      -153.4507
  36   2.0000      -5.639002      -153.4450
  37   2.0000      -4.644811      -126.3917
  38   2.0000      -4.644168      -126.3742
  39   2.0000      -4.643253      -126.3493
  40   2.0000      -4.642194      -126.3205
  41   2.0000      -4.640915      -126.2857
  42   2.0000      -4.639287      -126.2414
  43   2.0000      -0.983286       -26.7566
  44   2.0000      -0.981050       -26.6957
  45   2.0000      -0.943594       -25.6765
  46   2.0000      -0.941336       -25.6151
  47   2.0000      -0.765437       -20.8286
  48   2.0000      -0.720569       -19.6077
  49   2.0000      -0.708005       -19.2658
  50   2.0000      -0.693759       -18.8781
  51   2.0000      -0.684182       -18.6176
  52   2.0000      -0.671273       -18.2663
  53   2.0000      -0.648022       -17.6336
  54   2.0000      -0.637764       -17.3545
  55   2.0000      -0.599721       -16.3193
  56   2.0000      -0.590456       -16.0671
  57   2.0000      -0.576176       -15.6785
  58   2.0000      -0.568976       -15.4826
  59   2.0000      -0.563663       -15.3380
  60   2.0000      -0.498697       -13.5702
  61   2.0000      -0.489334       -13.3154
  62   2.0000      -0.478563       -13.0224
  63   2.0000      -0.469852       -12.7853
  64   2.0000      -0.456572       -12.4240
  65   2.0000      -0.444023       -12.0825
  66   2.0000      -0.438210       -11.9243
  67   2.0000      -0.434811       -11.8318
  68   2.0000      -0.429438       -11.6856
  69   2.0000      -0.412197       -11.2164
  70   2.0000      -0.404495       -11.0069
  71   2.0000      -0.398519       -10.8443
  72   2.0000      -0.388594       -10.5742
  73   2.0000      -0.387266       -10.5380
  74   2.0000      -0.384138       -10.4529
  75   2.0000      -0.379842       -10.3360
  76   2.0000      -0.371306       -10.1037
  77   2.0000      -0.358543        -9.7564
  78   2.0000      -0.353554        -9.6207
  79   2.0000      -0.351699        -9.5702
  80   2.0000      -0.345311        -9.3964
  81   2.0000      -0.344600        -9.3770
  82   2.0000      -0.341398        -9.2899
  83   2.0000      -0.338029        -9.1982
  84   2.0000      -0.332166        -9.0387
  85   2.0000      -0.319949        -8.7063
  86   2.0000      -0.309446        -8.4205
  87   2.0000      -0.301255        -8.1976
  88   2.0000      -0.294636        -8.0174
  89   2.0000      -0.282046        -7.6749
  90   2.0000      -0.277847        -7.5606
  91   2.0000      -0.272036        -7.4025
  92   2.0000      -0.268301        -7.3008
  93   2.0000      -0.263866        -7.1802
  94   2.0000      -0.260049        -7.0763
  95   2.0000      -0.235936        -6.4201
  96   2.0000      -0.217862        -5.9283
  97   2.0000      -0.208239        -5.6665
  98   2.0000      -0.205030        -5.5792
  99   2.0000      -0.190221        -5.1762
 100   2.0000      -0.185520        -5.0483
 101   0.0000      -0.048714        -1.3256
 102   0.0000      -0.024188        -0.6582
 103   0.0000      -0.008746        -0.2380
 104   0.0000       0.002658         0.0723
 105   0.0000       0.019030         0.5178

MULLIKEN ATOMIC CHARGES
-----------------------
   0 C :   -0.315586
   1 C :   -0.005047
   2 O :   -0.367689
   3 P :    0.629744
   4 S :   -0.343394
   5 O :   -0.342639
   6 C :    0.002894
   7 C :   -0.310251
   8 S :   -0.088791
   9 C :   -0.356849
  10 S :   -0.105779
  11 P :    0.616309
  12 S :   -0.293589
  13 O :   -0.393093
  14 C :   -0.006609
  15 C :   -0.315559
  16 O :   -0.364687
  17 C :   -0.017260
  18 C :   -0.302967
  19 H :    0.119292
  20 H :    0.124015
  21 H :    0.113506
  22 H :    0.111420
  23 H :    0.107334
  24 H :    0.106929
  25 H :    0.108506
  26 H :    0.109861
  27 H :    0.119546
  28 H :    0.117663
  29 H :    0.187429
  30 H :    0.192032
  31 H :    0.117348
  32 H :    0.101670
  33 H :    0.132914
  34 H :    0.115378
  35 H :    0.116267
  36 H :    0.111366
  37 H :    0.118540
  38 H :    0.116236
  39 H :    0.111885
  40 H :    0.121704
Sum of atomic charges:    0.0000000

LOEWDIN ATOMIC CHARGES
----------------------
   0 C :   -0.369785
   1 C :   -0.119012
   2 O :   -0.240220
   3 P :    0.575527
   4 S :   -0.329969
   5 O :   -0.226040
   6 C :   -0.116639
   7 C :   -0.365236
   8 S :    0.103287
   9 C :   -0.476085
  10 S :    0.081293
  11 P :    0.561190
  12 S :   -0.298275
  13 O :   -0.255115
  14 C :   -0.119773
  15 C :   -0.361360
  16 O :   -0.243388
  17 C :   -0.116076
  18 C :   -0.366115
  19 H :    0.124868
  20 H :    0.119935
  21 H :    0.131278
  22 H :    0.110537
  23 H :    0.119767
  24 H :    0.108420
  25 H :    0.120258
  26 H :    0.129203
  27 H :    0.127495
  28 H :    0.119698
  29 H :    0.131029
  30 H :    0.131852
  31 H :    0.109526
  32 H :    0.115566
  33 H :    0.115515
  34 H :    0.133833
  35 H :    0.123517
  36 H :    0.122642
  37 H :    0.109156
  38 H :    0.126712
  39 H :    0.130424
  40 H :    0.120563

  Mayer bond orders larger than 0.100000
B(  0-C ,  1-C ) :   1.1659 B(  0-C , 19-H ) :   0.9446 B(  0-C , 20-H ) :   0.9353
B(  0-C , 21-H ) :   0.9378 B(  1-C ,  2-O ) :   0.9080 B(  1-C , 22-H ) :   0.9158
B(  1-C , 23-H ) :   0.9337 B(  2-O ,  3-P ) :   1.1133 B(  3-P ,  4-S ) :   1.5810
B(  3-P ,  5-O ) :   1.1500 B(  3-P ,  8-S ) :   0.9507 B(  4-S ,  8-S ) :   0.1060
B(  5-O ,  6-C ) :   0.9067 B(  6-C ,  7-C ) :   1.1634 B(  6-C , 24-H ) :   0.9195
B(  6-C , 25-H ) :   0.9293 B(  7-C , 26-H ) :   0.9399 B(  7-C , 27-H ) :   0.9458
B(  7-C , 28-H ) :   0.9376 B(  8-S ,  9-C ) :   1.0121 B(  9-C , 10-S ) :   1.0038
B(  9-C , 29-H ) :   0.8981 B(  9-C , 30-H ) :   0.8849 B( 10-S , 11-P ) :   0.9408
B( 10-S , 12-S ) :   0.1031 B( 11-P , 12-S ) :   1.6741 B( 11-P , 13-O ) :   1.0592
B( 11-P , 16-O ) :   1.1329 B( 13-O , 14-C ) :   0.9069 B( 14-C , 15-C ) :   1.1668
B( 14-C , 31-H ) :   0.8946 B( 14-C , 32-H ) :   0.9334 B( 15-C , 33-H ) :   0.9309
B( 15-C , 34-H ) :   0.9375 B( 15-C , 35-H ) :   0.9435 B( 16-O , 17-C ) :   0.9073
B( 17-C , 18-C ) :   1.1668 B( 17-C , 36-H ) :   0.9340 B( 17-C , 37-H ) :   0.9223
B( 18-C , 38-H ) :   0.9458 B( 18-C , 39-H ) :   0.9368 B( 18-C , 40-H ) :   0.9356

Dispersion correction           -0.067253568
FINAL SINGLE POINT ENERGY     -2929.516879525325

DIPOLE MOMENT
-------------

Method             : SCF
Type of density    : Electron Density
Multiplicity       :   1
Irrep              :   0
Energy             : -2929.6345579252442803 Eh
Relativity type    :
Basis              : AO
                                X                 Y                 Z
Electronic contribution:      0.603290830      -6.870317178       0.694398269
Nuclear contribution   :     -1.054179227       7.733107523      -0.488844516
                        -----------------------------------------
Total Dipole Moment    :     -0.450888397       0.862790344       0.205553753
                        -----------------------------------------
Magnitude (a.u.)       :      0.994967271
Magnitude (Debye)      :      2.529005820

Rotational constants in cm-1:             0.012387             0.005331             0.004798
Rotational constants in MHz :           371.351038           159.813950           143.849137

                             ****ORCA TERMINATED NORMALLY****
TOTAL RUN TIME: 0 days 0 hours 0 minutes 21 seconds 299 msec
