                         Program Version 6.0.0  -   RELEASE  -
|  1> ! pbe def2-sv(p) def2/J RI DEFGRID1 loosescf d4 GCP(DFT/SV(P)) printgap
|  2> %output
|  3>     printlevel normal
|  4> end
|  5> * xyz 0 1
|  6> C 5.4222544418 -1.2865743795 0.4461196609
|  7> C 4.8319025472 -1.1672404487 -0.9431461748
|  8> O 3.4024823803 -1.356216862 -0.9272313654
|  9> P 2.4219719436 -0.2820703874 -0.30744342
| 10> S 3.0293370168 1.5792581939 -0.4721271792
| 11> O 2.2385372906 -0.8747718362 1.158312108
| 12> C 1.2316411204 -0.4953951427 2.1113733714
| 13> C 1.4503787431 0.8976646467 2.6690106073
| 14> S 0.6519090632 -0.8105708237 -1.3575888855
| 15> C 0.030296098 0.8651440232 -1.6709201674
| 16> S -0.7926367351 1.6018232587 -0.2375771783
| 17> P -2.4858763958 0.3349649396 -0.2824810447
| 18> S -3.1924558034 -0.1597809668 -2.0365334227
| 19> O -3.5715979262 1.1019243134 0.5754500742
| 20> C -3.3062628308 1.9399986701 1.7254237645
| 21> C -2.7976745583 1.1468006879 2.9106408599
| 22> O -1.9472762017 -0.8979518372 0.5887132717
| 23> C -2.408478707 -2.2420610574 0.3753037793
| 24> C -3.7955926565 -2.4370422852 0.9524345844
| 25> H 5.1418567666 -2.2366462416 0.8927786736
| 26> H 6.5038774569 -1.216990881 0.387131196
| 27> H 5.0468750408 -0.4788356375 1.0731476554
| 28> H 5.193310436 -1.9515268075 -1.6092912779
| 29> H 5.0494812043 -0.1839368429 -1.3726345653
| 30> H 0.2485340264 -0.5796303135 1.6377860445
| 31> H 1.3248768152 -1.2525753957 2.8925847942
| 32> H 2.4643045643 0.9937322551 3.0486220925
| 33> H 1.2938615737 1.6501410432 1.8986291569
| 34> H 0.7492881794 1.0729614128 3.4788438026
| 35> H -0.6818442819 0.7859446143 -2.4921112845
| 36> H 0.8620968104 1.5241073132 -1.9207473671
| 37> H -2.5867295349 2.7091585206 1.4323331314
| 38> H -4.2749433123 2.3983587861 1.9307447642
| 39> H -3.505345233 0.3646781366 3.1723018761
| 40> H -1.8376460051 0.6940255974 2.6741338461
| 41> H -2.6760936109 1.815970389 3.7566206203
| 42> H -2.4018132726 -2.4488673575 -0.6997448089
| 43> H -1.6657161808 -2.8672610486 0.8727517465
| 44> H -4.4935785433 -1.7629600584 0.4558132845
| 45> H -4.1155840961 -3.4611146971 0.7887515737
| 46> H -3.7960191546 -2.224416489 2.0180262771
| 47> *
| 48>
| 49>                          ****END OF INPUT****

CARTESIAN COORDINATES (ANGSTROEM)
---------------------------------
  C      5.422254   -1.286574    0.446120
  C      4.831903   -1.167240   -0.943146
  O      3.402482   -1.356217   -0.927231
  P      2.421972   -0.282070   -0.307443
  S      3.029337    1.579258   -0.472127
  O      2.238537   -0.874772    1.158312
  C      1.231641   -0.495395    2.111373
  C      1.450379    0.897665    2.669011
  S      0.651909   -0.810571   -1.357589
  C      0.030296    0.865144   -1.670920
  S     -0.792637    1.601823   -0.237577
  P     -2.485876    0.334965   -0.282481
  S     -3.192456   -0.159781   -2.036533
  O     -3.571598    1.101924    0.575450
  C     -3.306263    1.939999    1.725424
  C     -2.797675    1.146801    2.910641
  O     -1.947276   -0.897952    0.588713
  C     -2.408479   -2.242061    0.375304
  C     -3.795593   -2.437042    0.952435
  H      5.141857   -2.236646    0.892779
  H      6.503877   -1.216991    0.387131
  H      5.046875   -0.478836    1.073148
  H      5.193310   -1.951527   -1.609291
  H      5.049481   -0.183937   -1.372635
  H      0.248534   -0.579630    1.637786
  H      1.324877   -1.252575    2.892585
  H      2.464305    0.993732    3.048622
  H      1.293862    1.650141    1.898629
  H      0.749288    1.072961    3.478844
  H     -0.681844    0.785945   -2.492111
  H      0.862097    1.524107   -1.920747
  H     -2.586730    2.709159    1.432333
  H     -4.274943    2.398359    1.930745
  H     -3.505345    0.364678    3.172302
  H     -1.837646    0.694026    2.674134
  H     -2.676094    1.815970    3.756621
  H     -2.401813   -2.448867   -0.699745
  H     -1.665716   -2.867261    0.872752
  H     -4.493579   -1.762960    0.455813
  H     -4.115584   -3.461115    0.788752
  H     -3.796019   -2.224416    2.018026

 Total Charge           Charge          ....    0
 Multiplicity           Mult            ....    1
 Number of Electrons    NEL             ....  202
 Basis Dimension        Dim             ....  334

ORBITAL ENERGIES
----------------

  NO   OCC          E(Eh)            E(eV)
   0   2.0000     -88.047358     -2395.8904
   1   2.0000     -88.042318     -2395.7533
   2   2.0000     -87.992325     -2394.3929
   3   2.0000     -87.989120     -2394.3057
   4   2.0000     -76.429898     -2079.7632
   5   2.0000     -76.428040     -2079.7127
   6   2.0000     -18.799988      -511.5737
   7   2.0000     -18.795000      -511.4379
   8   2.0000     -18.790828      -511.3244
   9   2.0000     -18.789502      -511.2883
  10   2.0000      -9.966903      -271.2132
  11   2.0000      -9.955001      -270.8893
  12   2.0000      -9.951980      -270.8071
  13   2.0000      -9.951660      -270.7984
  14   2.0000      -9.951606      -270.7970
  15   2.0000      -9.898216      -269.3441
  16   2.0000      -9.886964      -269.0380
  17   2.0000      -9.883627      -268.9472
  18   2.0000      -9.880138      -268.8522
  19   2.0000      -7.692278      -209.3175
  20   2.0000      -7.687406      -209.1849
  21   2.0000      -7.637157      -207.8176
  22   2.0000      -7.634329      -207.7406
  23   2.0000      -6.427743      -174.9078
  24   2.0000      -6.425601      -174.8495
  25   2.0000      -5.720011      -155.6494
  26   2.0000      -5.716897      -155.5647
  27   2.0000      -5.715288      -155.5209
  28   2.0000      -5.712056      -155.4330
  29   2.0000      -5.709301      -155.3580
  30   2.0000      -5.704220      -155.2197
  31   2.0000      -5.665959      -154.1786
  32   2.0000      -5.663388      -154.1086
  33   2.0000      -5.658024      -153.9626
  34   2.0000      -5.657207      -153.9404
  35   2.0000      -5.655139      -153.8842
  36   2.0000      -5.654103      -153.8560
  37   2.0000      -4.650559      -126.5481
  38   2.0000      -4.649297      -126.5138
  39   2.0000      -4.648154      -126.4827
  40   2.0000      -4.647932      -126.4767
  41   2.0000      -4.647432      -126.4630
  42   2.0000      -4.646240      -126.4306
  43   2.0000      -0.989310       -26.9205
  44   2.0000      -0.986163       -26.8349
  45   2.0000      -0.951161       -25.8824
  46   2.0000      -0.944030       -25.6884
  47   2.0000      -0.766706       -20.8631
  48   2.0000      -0.725537       -19.7429
  49   2.0000      -0.713240       -19.4082
  50   2.0000      -0.696005       -18.9393
  51   2.0000      -0.685919       -18.6648
  52   2.0000      -0.675712       -18.3871
  53   2.0000      -0.654775       -17.8173
  54   2.0000      -0.643200       -17.5024
  55   2.0000      -0.602967       -16.4076
  56   2.0000      -0.597703       -16.2643
  57   2.0000      -0.582088       -15.8394
  58   2.0000      -0.572043       -15.5661
  59   2.0000      -0.563449       -15.3322
  60   2.0000      -0.504653       -13.7323
  61   2.0000      -0.492353       -13.3976
  62   2.0000      -0.482486       -13.1291
  63   2.0000      -0.471764       -12.8373
  64   2.0000      -0.463052       -12.6003
  65   2.0000      -0.451495       -12.2858
  66   2.0000      -0.440112       -11.9761
  67   2.0000      -0.437269       -11.8987
  68   2.0000      -0.430972       -11.7274
  69   2.0000      -0.417141       -11.3510
  70   2.0000      -0.410402       -11.1676
  71   2.0000      -0.400532       -10.8990
  72   2.0000      -0.392357       -10.6766
  73   2.0000      -0.391758       -10.6603
  74   2.0000      -0.386414       -10.5149
  75   2.0000      -0.378728       -10.3057
  76   2.0000      -0.373413       -10.1611
  77   2.0000      -0.361529        -9.8377
  78   2.0000      -0.360238        -9.8026
  79   2.0000      -0.353839        -9.6284
  80   2.0000      -0.351288        -9.5590
  81   2.0000      -0.348384        -9.4800
  82   2.0000      -0.344505        -9.3745
  83   2.0000      -0.339315        -9.2332
  84   2.0000      -0.334898        -9.1131
  85   2.0000      -0.321316        -8.7435
  86   2.0000      -0.314630        -8.5615
  87   2.0000      -0.312154        -8.4941
  88   2.0000      -0.296377        -8.0648
  89   2.0000      -0.288178        -7.8417
  90   2.0000      -0.283526        -7.7151
  91   2.0000      -0.279745        -7.6122
  92   2.0000      -0.274960        -7.4820
  93   2.0000      -0.269121        -7.3231
  94   2.0000      -0.260863        -7.0984
  95   2.0000      -0.234966        -6.3938
  96   2.0000      -0.219201        -5.9648
  97   2.0000      -0.215477        -5.8634
  98   2.0000      -0.206879        -5.6295
  99   2.0000      -0.204550        -5.5661
 100   2.0000      -0.202827        -5.5192
 101   0.0000      -0.048843        -1.3291
 102   0.0000      -0.029926        -0.8143
 103   0.0000      -0.007109        -0.1934
 104   0.0000       0.004092         0.1114
 105   0.0000       0.009100         0.2476

MULLIKEN ATOMIC CHARGES
-----------------------
   0 C :   -0.305425
   1 C :   -0.006569
   2 O :   -0.369351
   3 P :    0.626914
   4 S :   -0.336318
   5 O :   -0.370014
   6 C :   -0.054846
   7 C :   -0.314311
   8 S :   -0.079781
   9 C :   -0.354393
  10 S :   -0.109849
  11 P :    0.618966
  12 S :   -0.310162
  13 O :   -0.367929
  14 C :   -0.025458
  15 C :   -0.331677
  16 O :   -0.376459
  17 C :   -0.006343
  18 C :   -0.311039
  19 H :    0.116939
  20 H :    0.111487
  21 H :    0.124221
  22 H :    0.106974
  23 H :    0.114220
  24 H :    0.153065
  25 H :    0.100827
  26 H :    0.114636
  27 H :    0.136583
  28 H :    0.106634
  29 H :    0.196471
  30 H :    0.197228
  31 H :    0.126637
  32 H :    0.118567
  33 H :    0.125385
  34 H :    0.142510
  35 H :    0.117354
  36 H :    0.116640
  37 H :    0.102731
  38 H :    0.127759
  39 H :    0.114183
  40 H :    0.112991
Sum of atomic charges:   -0.0000000

LOEWDIN ATOMIC CHARGES
----------------------
   0 C :   -0.364113
   1 C :   -0.116037
   2 O :   -0.242957
   3 P :    0.573330
   4 S :   -0.310458
   5 O :   -0.242284
   6 C :   -0.124417
   7 C :   -0.370705
   8 S :    0.091011
   9 C :   -0.482602
  10 S :    0.088392
  11 P :    0.571458
  12 S :   -0.303364
  13 O :   -0.241088
  14 C :   -0.114288
  15 C :   -0.367002
  16 O :   -0.248319
  17 C :   -0.123524
  18 C :   -0.363856
  19 H :    0.126622
  20 H :    0.130168
  21 H :    0.122967
  22 H :    0.119778
  23 H :    0.110723
  24 H :    0.107410
  25 H :    0.117579
  26 H :    0.125856
  27 H :    0.116837
  28 H :    0.125076
  29 H :    0.131579
  30 H :    0.129431
  31 H :    0.110455
  32 H :    0.126122
  33 H :    0.128467
  34 H :    0.123811
  35 H :    0.133152
  36 H :    0.109795
  37 H :    0.116472
  38 H :    0.125517
  39 H :    0.131666
  40 H :    0.121343

  Mayer bond orders larger than 0.100000
B(  0-C ,  1-C ) :   1.1635 B(  0-C , 19-H ) :   0.9464 B(  0-C , 20-H ) :   0.9387
B(  0-C , 21-H ) :   0.9364 B(  1-C ,  2-O ) :   0.9074 B(  1-C , 22-H ) :   0.9345
B(  1-C , 23-H ) :   0.9151 B(  2-O ,  3-P ) :   1.1382 B(  3-P ,  4-S ) :   1.5989
B(  3-P ,  5-O ) :   1.1093 B(  3-P ,  8-S ) :   0.9442 B(  4-S ,  8-S ) :   0.1137
B(  5-O ,  6-C ) :   0.9114 B(  6-C ,  7-C ) :   1.1642 B(  6-C , 24-H ) :   0.8935
B(  6-C , 25-H ) :   0.9348 B(  7-C , 26-H ) :   0.9440 B(  7-C , 27-H ) :   0.9294
B(  7-C , 28-H ) :   0.9341 B(  8-S ,  9-C ) :   1.0162 B(  9-C , 10-S ) :   1.0025
B(  9-C , 29-H ) :   0.8735 B(  9-C , 30-H ) :   0.8695 B( 10-S , 11-P ) :   0.9557
B( 11-P , 12-S ) :   1.6315 B( 11-P , 13-O ) :   1.1265 B( 11-P , 16-O ) :   1.0657
B( 13-O , 14-C ) :   0.9060 B( 14-C , 15-C ) :   1.1619 B( 14-C , 31-H ) :   0.9164
B( 14-C , 32-H ) :   0.9341 B( 15-C , 33-H ) :   0.9409 B( 15-C , 34-H ) :   0.9308
B( 15-C , 35-H ) :   0.9354 B( 16-O , 17-C ) :   0.9002 B( 17-C , 18-C ) :   1.1620
B( 17-C , 36-H ) :   0.9097 B( 17-C , 37-H ) :   0.9326 B( 18-C , 38-H ) :   0.9366
B( 18-C , 39-H ) :   0.9401 B( 18-C , 40-H ) :   0.9445

Dispersion correction           -0.066574503
FINAL SINGLE POINT ENERGY     -2929.522259944862

DIPOLE MOMENT
-------------

Method             : SCF
Type of density    : Electron Density
Multiplicity       :   1
Irrep              :   0
Energy             : -2929.6420284832147445 Eh
Relativity type    :
Basis              : AO
                                X                 Y                 Z
Electronic contribution:     -1.692152319       5.869463121     -21.779577781
Nuclear contribution   :      1.796800656      -6.385451306      23.479586489
                        -----------------------------------------
Total Dipole Moment    :      0.104648337      -0.515988185       1.700008708
                        -----------------------------------------
Magnitude (a.u.)       :      1.779669826
Magnitude (Debye)      :      4.523561203

Rotational constants in cm-1:             0.013465             0.004769             0.004558
Rotational constants in MHz :           403.671638           142.968469           136.650193

                             ****ORCA TERMINATED NORMALLY****
TOTAL RUN TIME: 0 days 0 hours 0 minutes 21 seconds 492 msec
