                         Program Version 6.0.0  -   RELEASE  -
|  1> ! pbe def2-sv(p) def2/J RI DEFGRID1 loosescf d4 GCP(DFT/SV(P)) printgap
|  2> %output
|  3>     printlevel normal
|  4> end
|  5> * xyz 0 1
|  6> C 2.9901108897 -2.3959029188 2.3077982599
|  7> C 1.6834749404 -2.2302371812 1.5614523694
|  8> O 1.4458248532 -0.8471177204 1.2358275836
|  9> P 2.2692079146 -0.0893867846 0.1102885306
| 10> S 2.9384365602 -1.2620600866 -1.3189080777
| 11> O 3.3369949523 0.6792686939 0.998174753
| 12> C 4.045089867 1.8722698452 0.616286054
| 13> C 4.7215173528 1.7505839501 -0.7335600715
| 14> S 0.9115511498 1.4278370542 -0.4671297346
| 15> C 0.0286592867 0.4343303124 -1.6983685831
| 16> S -0.953985329 -0.8935562467 -0.9689629601
| 17> P -2.6625089519 0.2503134371 -0.3627843721
| 18> S -2.8185858877 1.99617436 -1.2352280466
| 19> O -2.6689395484 0.189739964 1.2298816909
| 20> C -1.6369717611 0.6758537639 2.1032694828
| 21> C -1.5870426145 2.1894555934 2.155691585
| 22> O -3.9293224579 -0.6201085032 -0.6976878241
| 23> C -4.3728906208 -1.7991864756 0.017526584
| 24> C -3.3802942036 -2.9387284896 -0.0702958781
| 25> H 2.9969474668 -1.7718574039 3.1972871351
| 26> H 3.118216102 -3.4359423251 2.5904587118
| 27> H 3.8168857856 -2.0969002677 1.664112273
| 28> H 0.825537536 -2.5126364425 2.1725978097
| 29> H 1.6862595066 -2.8124646606 0.63421945
| 30> H 3.3349906151 2.7040339674 0.6192675488
| 31> H 4.7746131733 2.0051226531 1.4172440223
| 32> H 5.3736305702 0.8805127057 -0.7558619042
| 33> H 3.9753202787 1.6422640025 -1.5199462476
| 34> H 5.30765616 2.6436076394 -0.9254004797
| 35> H 0.7513092226 -0.0407232069 -2.3618953736
| 36> H -0.628403116 1.118414572 -2.2365218856
| 37> H -1.9062318606 0.2572160443 3.0752278338
| 38> H -0.6740940137 0.2645329565 1.7849745832
| 39> H -1.2926692838 2.5970000365 1.1903671379
| 40> H -2.5637443578 2.5887749706 2.4166108521
| 41> H -0.8604585486 2.4959795336 2.9012979864
| 42> H -4.5599168248 -1.5186392843 1.0554835823
| 43> H -5.313509965 -2.0476948864 -0.4762764852
| 44> H -2.4540033048 -2.6765926808 0.4383711174
| 45> H -3.8059969186 -3.8181187823 0.4029539519
| 46> H -3.1526812255 -3.165493573 -1.1088135352
| 47> *
| 48>
| 49>                          ****END OF INPUT****

CARTESIAN COORDINATES (ANGSTROEM)
---------------------------------
  C      2.990111   -2.395903    2.307798
  C      1.683475   -2.230237    1.561452
  O      1.445825   -0.847118    1.235828
  P      2.269208   -0.089387    0.110289
  S      2.938437   -1.262060   -1.318908
  O      3.336995    0.679269    0.998175
  C      4.045090    1.872270    0.616286
  C      4.721517    1.750584   -0.733560
  S      0.911551    1.427837   -0.467130
  C      0.028659    0.434330   -1.698369
  S     -0.953985   -0.893556   -0.968963
  P     -2.662509    0.250313   -0.362784
  S     -2.818586    1.996174   -1.235228
  O     -2.668940    0.189740    1.229882
  C     -1.636972    0.675854    2.103269
  C     -1.587043    2.189456    2.155692
  O     -3.929322   -0.620109   -0.697688
  C     -4.372891   -1.799186    0.017527
  C     -3.380294   -2.938728   -0.070296
  H      2.996947   -1.771857    3.197287
  H      3.118216   -3.435942    2.590459
  H      3.816886   -2.096900    1.664112
  H      0.825538   -2.512636    2.172598
  H      1.686260   -2.812465    0.634219
  H      3.334991    2.704034    0.619268
  H      4.774613    2.005123    1.417244
  H      5.373631    0.880513   -0.755862
  H      3.975320    1.642264   -1.519946
  H      5.307656    2.643608   -0.925400
  H      0.751309   -0.040723   -2.361895
  H     -0.628403    1.118415   -2.236522
  H     -1.906232    0.257216    3.075228
  H     -0.674094    0.264533    1.784975
  H     -1.292669    2.597000    1.190367
  H     -2.563744    2.588775    2.416611
  H     -0.860459    2.495980    2.901298
  H     -4.559917   -1.518639    1.055484
  H     -5.313510   -2.047695   -0.476276
  H     -2.454003   -2.676593    0.438371
  H     -3.805997   -3.818119    0.402954
  H     -3.152681   -3.165494   -1.108814

 Total Charge           Charge          ....    0
 Multiplicity           Mult            ....    1
 Number of Electrons    NEL             ....  202
 Basis Dimension        Dim             ....  334

ORBITAL ENERGIES
----------------

  NO   OCC          E(Eh)            E(eV)
   0   2.0000     -88.047982     -2395.9074
   1   2.0000     -88.041710     -2395.7367
   2   2.0000     -87.991995     -2394.3839
   3   2.0000     -87.983388     -2394.1497
   4   2.0000     -76.431959     -2079.8193
   5   2.0000     -76.426301     -2079.6654
   6   2.0000     -18.798226      -511.5257
   7   2.0000     -18.794031      -511.4116
   8   2.0000     -18.792113      -511.3594
   9   2.0000     -18.791517      -511.3432
  10   2.0000      -9.962860      -271.1032
  11   2.0000      -9.958448      -270.9832
  12   2.0000      -9.953525      -270.8492
  13   2.0000      -9.952037      -270.8087
  14   2.0000      -9.948829      -270.7214
  15   2.0000      -9.893081      -269.2044
  16   2.0000      -9.887093      -269.0415
  17   2.0000      -9.886079      -269.0139
  18   2.0000      -9.875275      -268.7199
  19   2.0000      -7.692744      -209.3302
  20   2.0000      -7.686212      -209.1525
  21   2.0000      -7.636865      -207.8097
  22   2.0000      -7.628598      -207.5847
  23   2.0000      -6.429241      -174.9485
  24   2.0000      -6.423444      -174.7908
  25   2.0000      -5.720442      -155.6611
  26   2.0000      -5.717309      -155.5759
  27   2.0000      -5.714140      -155.4897
  28   2.0000      -5.710660      -155.3949
  29   2.0000      -5.709876      -155.3736
  30   2.0000      -5.703323      -155.1953
  31   2.0000      -5.665728      -154.1723
  32   2.0000      -5.657647      -153.9524
  33   2.0000      -5.657580      -153.9506
  34   2.0000      -5.657022      -153.9354
  35   2.0000      -5.648958      -153.7160
  36   2.0000      -5.648834      -153.7126
  37   2.0000      -4.651719      -126.5797
  38   2.0000      -4.651185      -126.5652
  39   2.0000      -4.649648      -126.5234
  40   2.0000      -4.646345      -126.4335
  41   2.0000      -4.645212      -126.4026
  42   2.0000      -4.643679      -126.3609
  43   2.0000      -0.991860       -26.9899
  44   2.0000      -0.987554       -26.8727
  45   2.0000      -0.950580       -25.8666
  46   2.0000      -0.942443       -25.6452
  47   2.0000      -0.765571       -20.8323
  48   2.0000      -0.723690       -19.6926
  49   2.0000      -0.713062       -19.4034
  50   2.0000      -0.691901       -18.8276
  51   2.0000      -0.688850       -18.7446
  52   2.0000      -0.677224       -18.4282
  53   2.0000      -0.654022       -17.7968
  54   2.0000      -0.639867       -17.4117
  55   2.0000      -0.602172       -16.3859
  56   2.0000      -0.592345       -16.1185
  57   2.0000      -0.578936       -15.7537
  58   2.0000      -0.577893       -15.7253
  59   2.0000      -0.563449       -15.3322
  60   2.0000      -0.502476       -13.6731
  61   2.0000      -0.493920       -13.4402
  62   2.0000      -0.474817       -12.9204
  63   2.0000      -0.472224       -12.8499
  64   2.0000      -0.462449       -12.5839
  65   2.0000      -0.448951       -12.2166
  66   2.0000      -0.442690       -12.0462
  67   2.0000      -0.438547       -11.9335
  68   2.0000      -0.425145       -11.5688
  69   2.0000      -0.424233       -11.5440
  70   2.0000      -0.416513       -11.3339
  71   2.0000      -0.400866       -10.9081
  72   2.0000      -0.395790       -10.7700
  73   2.0000      -0.391046       -10.6409
  74   2.0000      -0.384871       -10.4729
  75   2.0000      -0.380138       -10.3441
  76   2.0000      -0.366322        -9.9681
  77   2.0000      -0.357294        -9.7225
  78   2.0000      -0.352413        -9.5896
  79   2.0000      -0.351560        -9.5664
  80   2.0000      -0.350920        -9.5490
  81   2.0000      -0.346160        -9.4195
  82   2.0000      -0.345280        -9.3956
  83   2.0000      -0.339844        -9.2476
  84   2.0000      -0.332336        -9.0433
  85   2.0000      -0.323964        -8.8155
  86   2.0000      -0.312579        -8.5057
  87   2.0000      -0.300635        -8.1807
  88   2.0000      -0.296749        -8.0750
  89   2.0000      -0.293880        -7.9969
  90   2.0000      -0.287235        -7.8161
  91   2.0000      -0.279792        -7.6135
  92   2.0000      -0.275856        -7.5064
  93   2.0000      -0.265932        -7.2364
  94   2.0000      -0.258299        -7.0287
  95   2.0000      -0.237826        -6.4716
  96   2.0000      -0.218863        -5.9556
  97   2.0000      -0.212093        -5.7713
  98   2.0000      -0.206360        -5.6153
  99   2.0000      -0.200155        -5.4465
 100   2.0000      -0.198123        -5.3912
 101   0.0000      -0.047134        -1.2826
 102   0.0000      -0.028806        -0.7839
 103   0.0000      -0.007147        -0.1945
 104   0.0000      -0.002821        -0.0768
 105   0.0000       0.006680         0.1818

MULLIKEN ATOMIC CHARGES
-----------------------
   0 C :   -0.303293
   1 C :   -0.005367
   2 O :   -0.355525
   3 P :    0.613030
   4 S :   -0.328215
   5 O :   -0.373220
   6 C :   -0.011864
   7 C :   -0.312459
   8 S :   -0.093851
   9 C :   -0.346006
  10 S :   -0.114856
  11 P :    0.620494
  12 S :   -0.313309
  13 O :   -0.384126
  14 C :   -0.040126
  15 C :   -0.304606
  16 O :   -0.360724
  17 C :    0.005568
  18 C :   -0.333513
  19 H :    0.114479
  20 H :    0.112140
  21 H :    0.124287
  22 H :    0.101458
  23 H :    0.115229
  24 H :    0.116102
  25 H :    0.110820
  26 H :    0.127088
  27 H :    0.127063
  28 H :    0.113936
  29 H :    0.193501
  30 H :    0.196050
  31 H :    0.097071
  32 H :    0.138939
  33 H :    0.135199
  34 H :    0.113140
  35 H :    0.103546
  36 H :    0.111638
  37 H :    0.112502
  38 H :    0.128564
  39 H :    0.117601
  40 H :    0.131613
Sum of atomic charges:    0.0000000

LOEWDIN ATOMIC CHARGES
----------------------
   0 C :   -0.363549
   1 C :   -0.120412
   2 O :   -0.236593
   3 P :    0.573236
   4 S :   -0.314469
   5 O :   -0.243732
   6 C :   -0.113521
   7 C :   -0.369707
   8 S :    0.093937
   9 C :   -0.487230
  10 S :    0.076939
  11 P :    0.569750
  12 S :   -0.300771
  13 O :   -0.246655
  14 C :   -0.124892
  15 C :   -0.367980
  16 O :   -0.235770
  17 C :   -0.108598
  18 C :   -0.370982
  19 H :    0.125477
  20 H :    0.130456
  21 H :    0.123595
  22 H :    0.115910
  23 H :    0.109767
  24 H :    0.110888
  25 H :    0.122301
  26 H :    0.129917
  27 H :    0.121769
  28 H :    0.131320
  29 H :    0.129903
  30 H :    0.129196
  31 H :    0.115357
  32 H :    0.106247
  33 H :    0.116578
  34 H :    0.125317
  35 H :    0.127532
  36 H :    0.115248
  37 H :    0.123762
  38 H :    0.116316
  39 H :    0.133603
  40 H :    0.130542

  Mayer bond orders larger than 0.100000
B(  0-C ,  1-C ) :   1.1640 B(  0-C , 19-H ) :   0.9465 B(  0-C , 20-H ) :   0.9398
B(  0-C , 21-H ) :   0.9357 B(  1-C ,  2-O ) :   0.9002 B(  1-C , 22-H ) :   0.9328
B(  1-C , 23-H ) :   0.9118 B(  2-O ,  3-P ) :   1.1104 B(  3-P ,  4-S ) :   1.5975
B(  3-P ,  5-O ) :   1.1144 B(  3-P ,  8-S ) :   0.9537 B(  4-S ,  8-S ) :   0.1081
B(  5-O ,  6-C ) :   0.9119 B(  6-C ,  7-C ) :   1.1644 B(  6-C , 24-H ) :   0.9281
B(  6-C , 25-H ) :   0.9340 B(  7-C , 26-H ) :   0.9427 B(  7-C , 27-H ) :   0.9330
B(  7-C , 28-H ) :   0.9348 B(  8-S ,  9-C ) :   0.9993 B(  9-C , 10-S ) :   1.0168
B(  9-C , 29-H ) :   0.8728 B(  9-C , 30-H ) :   0.8627 B( 10-S , 11-P ) :   0.9304
B( 10-S , 12-S ) :   0.1138 B( 11-P , 12-S ) :   1.6500 B( 11-P , 13-O ) :   1.0748
B( 11-P , 16-O ) :   1.1434 B( 13-O , 14-C ) :   0.9070 B( 14-C , 15-C ) :   1.1671
B( 14-C , 31-H ) :   0.9346 B( 14-C , 32-H ) :   0.8972 B( 15-C , 33-H ) :   0.9282
B( 15-C , 34-H ) :   0.9452 B( 15-C , 35-H ) :   0.9383 B( 16-O , 17-C ) :   0.9012
B( 17-C , 18-C ) :   1.1691 B( 17-C , 36-H ) :   0.9266 B( 17-C , 37-H ) :   0.9336
B( 18-C , 38-H ) :   0.9320 B( 18-C , 39-H ) :   0.9357 B( 18-C , 40-H ) :   0.9426

Dispersion correction           -0.066159615
FINAL SINGLE POINT ENERGY     -2929.519861236338

DIPOLE MOMENT
-------------

Method             : SCF
Type of density    : Electron Density
Multiplicity       :   1
Irrep              :   0
Energy             : -2929.6396098090904161 Eh
Relativity type    :
Basis              : AO
                                X                 Y                 Z
Electronic contribution:     -8.007437888       5.785070472     -14.032028715
Nuclear contribution   :      8.530969976      -6.474745006      15.557720496
                        -----------------------------------------
Total Dipole Moment    :      0.523532088      -0.689674535       1.525691781
                        -----------------------------------------
Magnitude (a.u.)       :      1.754272562
Magnitude (Debye)      :      4.459006488

Rotational constants in cm-1:             0.012405             0.005052             0.004596
Rotational constants in MHz :           371.905169           151.466689           137.788156

                             ****ORCA TERMINATED NORMALLY****
TOTAL RUN TIME: 0 days 0 hours 0 minutes 21 seconds 269 msec
