                         Program Version 6.0.0  -   RELEASE  -
|  1> ! pbe def2-sv(p) def2/J RI DEFGRID1 loosescf d4 GCP(DFT/SV(P)) printgap
|  2> %output
|  3>     printlevel normal
|  4> end
|  5> * xyz 0 1
|  6> C 4.6875456992 -1.0559236648 -1.3754640698
|  7> C 4.4499580194 -0.9407684256 0.1160772005
|  8> O 3.5247758335 0.104876493 0.4621914981
|  9> P 2.0643294089 0.3013820601 -0.1373279468
| 10> S 1.938100277 1.0393474595 -1.9535853584
| 11> O 1.4337585198 1.2052496593 1.0061568064
| 12> C 1.4355430679 2.6435600048 0.9190527689
| 13> C 2.834019651 3.2069002316 1.0448830428
| 14> S 1.1757940042 -1.5851684944 0.2035186514
| 15> C 0.0903819403 -1.7061934961 -1.2595311772
| 16> S -1.6241947558 -2.1063861269 -0.8421382855
| 17> P -2.112141812 -0.358527288 0.2209958509
| 18> S -1.4480493972 1.35343286 -0.4849518172
| 19> O -1.6102348129 -0.7892990671 1.659041755
| 20> C -1.3674424303 0.1331427337 2.7392659752
| 21> C -2.6106228733 0.9081021742 3.1208115455
| 22> O -3.6890872582 -0.4331437548 0.391334106
| 23> C -4.602288733 0.134326993 -0.5631828817
| 24> C -4.5826030583 -0.6081130601 -1.8837081301
| 25> H 3.7717551276 -1.3585092157 -1.8811712639
| 26> H 5.0042518879 -0.0999811815 -1.7857280832
| 27> H 5.4567097046 -1.7988928829 -1.5601507662
| 28> H 5.362595287 -0.6574063669 0.6436429231
| 29> H 4.0657840004 -1.8815031464 0.5203452751
| 30> H 0.9758176214 2.9345114433 -0.031800598
| 31> H 0.791763619 2.9615479332 1.7406712416
| 32> H 3.4370251083 2.8810135502 0.1980854089
| 33> H 2.7857875419 4.2912238198 1.050211066
| 34> H 3.2980790961 2.8556585091 1.962657021
| 35> H 0.4401319444 -2.5295187002 -1.8771313967
| 36> H 0.1384610349 -0.7586515211 -1.804489753
| 37> H -1.0233015927 -0.5101564868 3.5506403874
| 38> H -0.5599970009 0.8078236264 2.4387322498
| 39> H -3.4256329305 0.2231768245 3.3403193947
| 40> H -2.4022366037 1.5167026157 3.9952926037
| 41> H -2.9086118094 1.5584985922 2.2986324781
| 42> H -5.5734316325 0.0584471011 -0.0723232587
| 43> H -4.3392631886 1.1869482952 -0.7102350141
| 44> H -4.7266107319 -1.6731071197 -1.7202214463
| 45> H -5.3749015019 -0.228850382 -2.5211526566
| 46> H -3.6261116789 -0.4570596842 -2.3826531842
| 47> *
| 48>
| 49>                          ****END OF INPUT****

CARTESIAN COORDINATES (ANGSTROEM)
---------------------------------
  C      4.687546   -1.055924   -1.375464
  C      4.449958   -0.940768    0.116077
  O      3.524776    0.104876    0.462191
  P      2.064329    0.301382   -0.137328
  S      1.938100    1.039347   -1.953585
  O      1.433759    1.205250    1.006157
  C      1.435543    2.643560    0.919053
  C      2.834020    3.206900    1.044883
  S      1.175794   -1.585168    0.203519
  C      0.090382   -1.706193   -1.259531
  S     -1.624195   -2.106386   -0.842138
  P     -2.112142   -0.358527    0.220996
  S     -1.448049    1.353433   -0.484952
  O     -1.610235   -0.789299    1.659042
  C     -1.367442    0.133143    2.739266
  C     -2.610623    0.908102    3.120812
  O     -3.689087   -0.433144    0.391334
  C     -4.602289    0.134327   -0.563183
  C     -4.582603   -0.608113   -1.883708
  H      3.771755   -1.358509   -1.881171
  H      5.004252   -0.099981   -1.785728
  H      5.456710   -1.798893   -1.560151
  H      5.362595   -0.657406    0.643643
  H      4.065784   -1.881503    0.520345
  H      0.975818    2.934511   -0.031801
  H      0.791764    2.961548    1.740671
  H      3.437025    2.881014    0.198085
  H      2.785788    4.291224    1.050211
  H      3.298079    2.855659    1.962657
  H      0.440132   -2.529519   -1.877131
  H      0.138461   -0.758652   -1.804490
  H     -1.023302   -0.510156    3.550640
  H     -0.559997    0.807824    2.438732
  H     -3.425633    0.223177    3.340319
  H     -2.402237    1.516703    3.995293
  H     -2.908612    1.558499    2.298632
  H     -5.573432    0.058447   -0.072323
  H     -4.339263    1.186948   -0.710235
  H     -4.726611   -1.673107   -1.720221
  H     -5.374902   -0.228850   -2.521153
  H     -3.626112   -0.457060   -2.382653

 Total Charge           Charge          ....    0
 Multiplicity           Mult            ....    1
 Number of Electrons    NEL             ....  202
 Basis Dimension        Dim             ....  334

ORBITAL ENERGIES
----------------

  NO   OCC          E(Eh)            E(eV)
   0   2.0000     -88.043136     -2395.7755
   1   2.0000     -88.042535     -2395.7592
   2   2.0000     -87.984284     -2394.1741
   3   2.0000     -87.983022     -2394.1398
   4   2.0000     -76.424307     -2079.6111
   5   2.0000     -76.424266     -2079.6100
   6   2.0000     -18.792663      -511.3744
   7   2.0000     -18.789819      -511.2970
   8   2.0000     -18.784409      -511.1498
   9   2.0000     -18.783596      -511.1276
  10   2.0000      -9.954732      -270.8820
  11   2.0000      -9.954500      -270.8757
  12   2.0000      -9.951772      -270.8015
  13   2.0000      -9.946220      -270.6504
  14   2.0000      -9.943272      -270.5702
  15   2.0000      -9.883413      -268.9413
  16   2.0000      -9.881837      -268.8985
  17   2.0000      -9.880802      -268.8703
  18   2.0000      -9.877489      -268.7801
  19   2.0000      -7.688142      -209.2050
  20   2.0000      -7.688011      -209.2014
  21   2.0000      -7.628846      -207.5915
  22   2.0000      -7.627975      -207.5678
  23   2.0000      -6.421654      -174.7421
  24   2.0000      -6.421462      -174.7369
  25   2.0000      -5.716103      -155.5431
  26   2.0000      -5.715817      -155.5353
  27   2.0000      -5.712582      -155.4473
  28   2.0000      -5.712534      -155.4460
  29   2.0000      -5.705052      -155.2424
  30   2.0000      -5.704991      -155.2407
  31   2.0000      -5.657629      -153.9519
  32   2.0000      -5.656916      -153.9325
  33   2.0000      -5.649577      -153.7328
  34   2.0000      -5.649084      -153.7194
  35   2.0000      -5.648841      -153.7128
  36   2.0000      -5.647856      -153.6860
  37   2.0000      -4.644062      -126.3714
  38   2.0000      -4.643810      -126.3645
  39   2.0000      -4.643411      -126.3536
  40   2.0000      -4.643329      -126.3514
  41   2.0000      -4.642301      -126.3234
  42   2.0000      -4.642098      -126.3179
  43   2.0000      -0.984332       -26.7850
  44   2.0000      -0.982381       -26.7320
  45   2.0000      -0.942763       -25.6539
  46   2.0000      -0.939652       -25.5692
  47   2.0000      -0.762157       -20.7394
  48   2.0000      -0.719001       -19.5650
  49   2.0000      -0.705619       -19.2009
  50   2.0000      -0.686015       -18.6674
  51   2.0000      -0.683495       -18.5989
  52   2.0000      -0.673197       -18.3186
  53   2.0000      -0.651370       -17.7247
  54   2.0000      -0.634999       -17.2792
  55   2.0000      -0.601362       -16.3639
  56   2.0000      -0.592028       -16.1099
  57   2.0000      -0.571261       -15.5448
  58   2.0000      -0.569943       -15.5089
  59   2.0000      -0.559952       -15.2371
  60   2.0000      -0.494359       -13.4522
  61   2.0000      -0.487067       -13.2538
  62   2.0000      -0.469305       -12.7705
  63   2.0000      -0.464458       -12.6386
  64   2.0000      -0.451934       -12.2978
  65   2.0000      -0.445856       -12.1324
  66   2.0000      -0.438238       -11.9251
  67   2.0000      -0.432604       -11.7717
  68   2.0000      -0.426574       -11.6077
  69   2.0000      -0.414539       -11.2802
  70   2.0000      -0.409920       -11.1545
  71   2.0000      -0.400392       -10.8952
  72   2.0000      -0.394092       -10.7238
  73   2.0000      -0.387420       -10.5422
  74   2.0000      -0.379927       -10.3383
  75   2.0000      -0.373638       -10.1672
  76   2.0000      -0.369844       -10.0640
  77   2.0000      -0.353605        -9.6221
  78   2.0000      -0.347437        -9.4542
  79   2.0000      -0.345857        -9.4112
  80   2.0000      -0.344163        -9.3652
  81   2.0000      -0.341735        -9.2991
  82   2.0000      -0.339750        -9.2451
  83   2.0000      -0.333808        -9.0834
  84   2.0000      -0.332778        -9.0554
  85   2.0000      -0.314019        -8.5449
  86   2.0000      -0.310139        -8.4393
  87   2.0000      -0.294079        -8.0023
  88   2.0000      -0.293503        -7.9866
  89   2.0000      -0.283996        -7.7279
  90   2.0000      -0.279162        -7.5964
  91   2.0000      -0.272278        -7.4091
  92   2.0000      -0.267312        -7.2739
  93   2.0000      -0.262552        -7.1444
  94   2.0000      -0.258231        -7.0268
  95   2.0000      -0.232026        -6.3137
  96   2.0000      -0.221695        -6.0326
  97   2.0000      -0.213143        -5.7999
  98   2.0000      -0.203075        -5.5259
  99   2.0000      -0.196046        -5.3347
 100   2.0000      -0.186926        -5.0865
 101   0.0000      -0.039268        -1.0685
 102   0.0000      -0.032624        -0.8877
 103   0.0000      -0.008680        -0.2362
 104   0.0000       0.014820         0.4033
 105   0.0000       0.021294         0.5795

MULLIKEN ATOMIC CHARGES
-----------------------
   0 C :   -0.307840
   1 C :   -0.005452
   2 O :   -0.376198
   3 P :    0.616943
   4 S :   -0.315454
   5 O :   -0.360404
   6 C :   -0.013376
   7 C :   -0.292775
   8 S :   -0.096591
   9 C :   -0.359139
  10 S :   -0.081122
  11 P :    0.608480
  12 S :   -0.324533
  13 O :   -0.360186
  14 C :   -0.016784
  15 C :   -0.313680
  16 O :   -0.371334
  17 C :   -0.002879
  18 C :   -0.318581
  19 H :    0.120011
  20 H :    0.124909
  21 H :    0.109368
  22 H :    0.106610
  23 H :    0.110016
  24 H :    0.124222
  25 H :    0.099299
  26 H :    0.122138
  27 H :    0.108538
  28 H :    0.111566
  29 H :    0.181023
  30 H :    0.210981
  31 H :    0.103258
  32 H :    0.135457
  33 H :    0.116381
  34 H :    0.109051
  35 H :    0.121014
  36 H :    0.104968
  37 H :    0.110109
  38 H :    0.118535
  39 H :    0.113779
  40 H :    0.129673
Sum of atomic charges:    0.0000000

LOEWDIN ATOMIC CHARGES
----------------------
   0 C :   -0.369226
   1 C :   -0.115949
   2 O :   -0.245927
   3 P :    0.574464
   4 S :   -0.301625
   5 O :   -0.238240
   6 C :   -0.122124
   7 C :   -0.364523
   8 S :    0.082165
   9 C :   -0.479165
  10 S :    0.094331
  11 P :    0.566865
  12 S :   -0.307988
  13 O :   -0.237742
  14 C :   -0.115717
  15 C :   -0.368258
  16 O :   -0.243009
  17 C :   -0.119452
  18 C :   -0.369909
  19 H :    0.119090
  20 H :    0.128883
  21 H :    0.128782
  22 H :    0.120118
  23 H :    0.107716
  24 H :    0.109188
  25 H :    0.113026
  26 H :    0.121907
  27 H :    0.129136
  28 H :    0.124138
  29 H :    0.135563
  30 H :    0.125442
  31 H :    0.119639
  32 H :    0.116476
  33 H :    0.125720
  34 H :    0.128758
  35 H :    0.120403
  36 H :    0.118638
  37 H :    0.110190
  38 H :    0.124317
  39 H :    0.131496
  40 H :    0.122406

  Mayer bond orders larger than 0.100000
B(  0-C ,  1-C ) :   1.1640 B(  0-C , 19-H ) :   0.9348 B(  0-C , 20-H ) :   0.9435
B(  0-C , 21-H ) :   0.9350 B(  1-C ,  2-O ) :   0.9171 B(  1-C , 22-H ) :   0.9342
B(  1-C , 23-H ) :   0.9258 B(  2-O ,  3-P ) :   1.0990 B(  3-P ,  4-S ) :   1.5981
B(  3-P ,  5-O ) :   1.1206 B(  3-P ,  8-S ) :   0.9604 B(  4-S ,  8-S ) :   0.1196
B(  5-O ,  6-C ) :   0.9001 B(  6-C ,  7-C ) :   1.1631 B(  6-C , 24-H ) :   0.9119
B(  6-C , 25-H ) :   0.9304 B(  7-C , 26-H ) :   0.9345 B(  7-C , 27-H ) :   0.9390
B(  7-C , 28-H ) :   0.9453 B(  8-S ,  9-C ) :   0.9915 B(  9-C , 10-S ) :   1.0072
B(  9-C , 29-H ) :   0.9118 B(  9-C , 30-H ) :   0.8474 B( 10-S , 11-P ) :   0.9566
B( 10-S , 12-S ) :   0.1095 B( 11-P , 12-S ) :   1.6059 B( 11-P , 13-O ) :   1.1358
B( 11-P , 16-O ) :   1.1039 B( 13-O , 14-C ) :   0.9015 B( 14-C , 15-C ) :   1.1617
B( 14-C , 31-H ) :   0.9347 B( 14-C , 32-H ) :   0.9109 B( 15-C , 33-H ) :   0.9443
B( 15-C , 34-H ) :   0.9386 B( 15-C , 35-H ) :   0.9335 B( 16-O , 17-C ) :   0.9082
B( 17-C , 18-C ) :   1.1667 B( 17-C , 36-H ) :   0.9337 B( 17-C , 37-H ) :   0.9145
B( 18-C , 38-H ) :   0.9445 B( 18-C , 39-H ) :   0.9379 B( 18-C , 40-H ) :   0.9353

Dispersion correction           -0.068059760
FINAL SINGLE POINT ENERGY     -2929.520455931834

DIPOLE MOMENT
-------------

Method             : SCF
Type of density    : Electron Density
Multiplicity       :   1
Irrep              :   0
Energy             : -2929.6382894544376541 Eh
Relativity type    :
Basis              : AO
                                X                 Y                 Z
Electronic contribution:     -1.505247857      -9.079073930      -4.410639548
Nuclear contribution   :      1.507580577       8.835512448       5.125214787
                        -----------------------------------------
Total Dipole Moment    :      0.002332720      -0.243561482       0.714575239
                        -----------------------------------------
Magnitude (a.u.)       :      0.754947289
Magnitude (Debye)      :      1.918923509

Rotational constants in cm-1:             0.012752             0.005401             0.004864
Rotational constants in MHz :           382.296915           161.929533           145.807738

                             ****ORCA TERMINATED NORMALLY****
TOTAL RUN TIME: 0 days 0 hours 0 minutes 21 seconds 834 msec
