                         Program Version 6.0.0  -   RELEASE  -
|  1> ! pbe def2-sv(p) def2/J RI DEFGRID1 loosescf d4 GCP(DFT/SV(P)) printgap
|  2> %output
|  3>     printlevel normal
|  4> end
|  5> * xyz 0 1
|  6> C 3.8405625661 -0.4384927583 -2.9183483891
|  7> C 4.5583777446 -0.9644688287 -1.6910001872
|  8> O 3.6457426853 -1.5195356512 -0.7290509443
|  9> P 2.668319613 -0.6092706666 0.1150272636
| 10> S 3.3907537393 1.1561998252 0.594999378
| 11> O 2.4439448954 -1.6654597667 1.2722046349
| 12> C 1.3604904402 -1.6306039237 2.217415944
| 13> C 1.4869533441 -0.4888341787 3.2066835862
| 14> S 0.8366790665 -0.5789545083 -0.9926313093
| 15> C 0.2612925098 1.0799366687 -0.5425400541
| 16> S -0.9074939044 1.067547358 0.8338262917
| 17> P -2.6112713639 0.5052946529 -0.3233383579
| 18> S -2.7110062936 1.2865943208 -2.11429864
| 19> O -3.816956512 0.7345116458 0.6862995166
| 20> C -4.0625141123 1.9417047375 1.4328786912
| 21> C -4.1424909985 3.1699209596 0.5511366742
| 22> O -2.6010804577 -1.0653719744 -0.4431600594
| 23> C -2.5728850565 -1.9552875952 0.7015818023
| 24> C -1.8313210488 -3.2137060639 0.2986487008
| 25> H 4.5713742306 -0.1506435191 -3.6672989312
| 26> H 3.184996498 -1.2025289713 -3.3289514077
| 27> H 3.2433842521 0.4344223267 -2.6570974214
| 28> H 5.133306192 -0.166142874 -1.2099965314
| 29> H 5.21794752 -1.7974965162 -1.9377135206
| 30> H 0.4155804617 -1.563991833 1.6698468588
| 31> H 1.4262096198 -2.5987192642 2.7169576453
| 32> H 2.4648682147 -0.5096547112 3.6806290101
| 33> H 1.3640589241 0.4692296291 2.7038757983
| 34> H 0.7172371146 -0.584990176 3.965496845
| 35> H -0.2369561587 1.5021186261 -1.4168043236
| 36> H 1.1198934597 1.6834965318 -0.2383043049
| 37> H -5.0135316628 1.7449539347 1.9307537865
| 38> H -3.2678299054 2.0500014699 2.1761039438
| 39> H -3.1796315003 3.3575726676 0.0778548338
| 40> H -4.8852833445 3.0286798802 -0.2304696137
| 41> H -4.4136387592 4.030565426 1.1539989604
| 42> H -2.0817765199 -1.4434916673 1.5352182922
| 43> H -3.6081774309 -2.1689212302 0.972791986
| 44> H -1.7962124839 -3.8948350538 1.1427122538
| 45> H -2.3410143882 -3.6934076651 -0.5317537566
| 46> H -0.8182677258 -2.9737679818 -0.0162538067
| 47> *
| 48>
| 49>                          ****END OF INPUT****

CARTESIAN COORDINATES (ANGSTROEM)
---------------------------------
  C      3.840563   -0.438493   -2.918348
  C      4.558378   -0.964469   -1.691000
  O      3.645743   -1.519536   -0.729051
  P      2.668320   -0.609271    0.115027
  S      3.390754    1.156200    0.594999
  O      2.443945   -1.665460    1.272205
  C      1.360490   -1.630604    2.217416
  C      1.486953   -0.488834    3.206684
  S      0.836679   -0.578955   -0.992631
  C      0.261293    1.079937   -0.542540
  S     -0.907494    1.067547    0.833826
  P     -2.611271    0.505295   -0.323338
  S     -2.711006    1.286594   -2.114299
  O     -3.816957    0.734512    0.686300
  C     -4.062514    1.941705    1.432879
  C     -4.142491    3.169921    0.551137
  O     -2.601080   -1.065372   -0.443160
  C     -2.572885   -1.955288    0.701582
  C     -1.831321   -3.213706    0.298649
  H      4.571374   -0.150644   -3.667299
  H      3.184996   -1.202529   -3.328951
  H      3.243384    0.434422   -2.657097
  H      5.133306   -0.166143   -1.209997
  H      5.217948   -1.797497   -1.937714
  H      0.415580   -1.563992    1.669847
  H      1.426210   -2.598719    2.716958
  H      2.464868   -0.509655    3.680629
  H      1.364059    0.469230    2.703876
  H      0.717237   -0.584990    3.965497
  H     -0.236956    1.502119   -1.416804
  H      1.119893    1.683497   -0.238304
  H     -5.013532    1.744954    1.930754
  H     -3.267830    2.050001    2.176104
  H     -3.179632    3.357573    0.077855
  H     -4.885283    3.028680   -0.230470
  H     -4.413639    4.030565    1.153999
  H     -2.081777   -1.443492    1.535218
  H     -3.608177   -2.168921    0.972792
  H     -1.796212   -3.894835    1.142712
  H     -2.341014   -3.693408   -0.531754
  H     -0.818268   -2.973768   -0.016254

 Total Charge           Charge          ....    0
 Multiplicity           Mult            ....    1
 Number of Electrons    NEL             ....  202
 Basis Dimension        Dim             ....  334

ORBITAL ENERGIES
----------------

  NO   OCC          E(Eh)            E(eV)
   0   2.0000     -88.050372     -2395.9724
   1   2.0000     -88.047878     -2395.9046
   2   2.0000     -87.994694     -2394.4574
   3   2.0000     -87.986861     -2394.2442
   4   2.0000     -76.431065     -2079.7950
   5   2.0000     -76.430023     -2079.7667
   6   2.0000     -18.800331      -511.5830
   7   2.0000     -18.794422      -511.4222
   8   2.0000     -18.793717      -511.4030
   9   2.0000     -18.793307      -511.3919
  10   2.0000      -9.963652      -271.1248
  11   2.0000      -9.959326      -271.0070
  12   2.0000      -9.958179      -270.9758
  13   2.0000      -9.953351      -270.8445
  14   2.0000      -9.952782      -270.8290
  15   2.0000      -9.889662      -269.1114
  16   2.0000      -9.886712      -269.0311
  17   2.0000      -9.884691      -268.9761
  18   2.0000      -9.883405      -268.9411
  19   2.0000      -7.694878      -209.3883
  20   2.0000      -7.692272      -209.3174
  21   2.0000      -7.639526      -207.8821
  22   2.0000      -7.632153      -207.6814
  23   2.0000      -6.428433      -174.9266
  24   2.0000      -6.427454      -174.8999
  25   2.0000      -5.722388      -155.7141
  26   2.0000      -5.720027      -155.6498
  27   2.0000      -5.719379      -155.6322
  28   2.0000      -5.716769      -155.5612
  29   2.0000      -5.712344      -155.4408
  30   2.0000      -5.709496      -155.3633
  31   2.0000      -5.668317      -154.2427
  32   2.0000      -5.661280      -154.0513
  33   2.0000      -5.660237      -154.0229
  34   2.0000      -5.659751      -154.0097
  35   2.0000      -5.652687      -153.8174
  36   2.0000      -5.652146      -153.8027
  37   2.0000      -4.650695      -126.5518
  38   2.0000      -4.650496      -126.5464
  39   2.0000      -4.650318      -126.5416
  40   2.0000      -4.649468      -126.5185
  41   2.0000      -4.648865      -126.5021
  42   2.0000      -4.647423      -126.4628
  43   2.0000      -0.993376       -27.0311
  44   2.0000      -0.992735       -27.0137
  45   2.0000      -0.949265       -25.8308
  46   2.0000      -0.948290       -25.8043
  47   2.0000      -0.766861       -20.8674
  48   2.0000      -0.725677       -19.7467
  49   2.0000      -0.716593       -19.4995
  50   2.0000      -0.694559       -18.8999
  51   2.0000      -0.684766       -18.6334
  52   2.0000      -0.682683       -18.5768
  53   2.0000      -0.654834       -17.8189
  54   2.0000      -0.642787       -17.4911
  55   2.0000      -0.602760       -16.4019
  56   2.0000      -0.593551       -16.1514
  57   2.0000      -0.576888       -15.6979
  58   2.0000      -0.573819       -15.6144
  59   2.0000      -0.565574       -15.3901
  60   2.0000      -0.512252       -13.9391
  61   2.0000      -0.499420       -13.5899
  62   2.0000      -0.479512       -13.0482
  63   2.0000      -0.472649       -12.8614
  64   2.0000      -0.464433       -12.6379
  65   2.0000      -0.450003       -12.2452
  66   2.0000      -0.441314       -12.0088
  67   2.0000      -0.437462       -11.9039
  68   2.0000      -0.426930       -11.6174
  69   2.0000      -0.424867       -11.5612
  70   2.0000      -0.419371       -11.4117
  71   2.0000      -0.412368       -11.2211
  72   2.0000      -0.399296       -10.8654
  73   2.0000      -0.390745       -10.6327
  74   2.0000      -0.383373       -10.4321
  75   2.0000      -0.374981       -10.2037
  76   2.0000      -0.367355        -9.9962
  77   2.0000      -0.359885        -9.7930
  78   2.0000      -0.353021        -9.6062
  79   2.0000      -0.351721        -9.5708
  80   2.0000      -0.350744        -9.5442
  81   2.0000      -0.346879        -9.4391
  82   2.0000      -0.344471        -9.3735
  83   2.0000      -0.340534        -9.2664
  84   2.0000      -0.337893        -9.1945
  85   2.0000      -0.323683        -8.8079
  86   2.0000      -0.314126        -8.5478
  87   2.0000      -0.302856        -8.2411
  88   2.0000      -0.301693        -8.2095
  89   2.0000      -0.299675        -8.1546
  90   2.0000      -0.291802        -7.9403
  91   2.0000      -0.280753        -7.6397
  92   2.0000      -0.273869        -7.4524
  93   2.0000      -0.268179        -7.2975
  94   2.0000      -0.260515        -7.0890
  95   2.0000      -0.243820        -6.6347
  96   2.0000      -0.224670        -6.1136
  97   2.0000      -0.216302        -5.8859
  98   2.0000      -0.208026        -5.6607
  99   2.0000      -0.204227        -5.5573
 100   2.0000      -0.200978        -5.4689
 101   0.0000      -0.049173        -1.3381
 102   0.0000      -0.035671        -0.9707
 103   0.0000      -0.014999        -0.4081
 104   0.0000      -0.002902        -0.0790
 105   0.0000       0.009350         0.2544

MULLIKEN ATOMIC CHARGES
-----------------------
   0 C :   -0.311709
   1 C :   -0.005493
   2 O :   -0.354935
   3 P :    0.598321
   4 S :   -0.323896
   5 O :   -0.349836
   6 C :   -0.045425
   7 C :   -0.298363
   8 S :   -0.087947
   9 C :   -0.362350
  10 S :   -0.122911
  11 P :    0.595439
  12 S :   -0.298268
  13 O :   -0.383141
  14 C :   -0.011840
  15 C :   -0.309906
  16 O :   -0.351582
  17 C :   -0.016892
  18 C :   -0.292895
  19 H :    0.113453
  20 H :    0.120044
  21 H :    0.122608
  22 H :    0.115187
  23 H :    0.108025
  24 H :    0.130009
  25 H :    0.107934
  26 H :    0.122099
  27 H :    0.125288
  28 H :    0.105548
  29 H :    0.196992
  30 H :    0.194339
  31 H :    0.110403
  32 H :    0.113145
  33 H :    0.127135
  34 H :    0.128675
  35 H :    0.113168
  36 H :    0.103411
  37 H :    0.109899
  38 H :    0.106616
  39 H :    0.122811
  40 H :    0.136839
Sum of atomic charges:    0.0000000

LOEWDIN ATOMIC CHARGES
----------------------
   0 C :   -0.367613
   1 C :   -0.119112
   2 O :   -0.231672
   3 P :    0.572264
   4 S :   -0.304382
   5 O :   -0.231402
   6 C :   -0.121621
   7 C :   -0.365997
   8 S :    0.089907
   9 C :   -0.493941
  10 S :    0.070116
  11 P :    0.566742
  12 S :   -0.298220
  13 O :   -0.246862
  14 C :   -0.114377
  15 C :   -0.368636
  16 O :   -0.234598
  17 C :   -0.115353
  18 C :   -0.355574
  19 H :    0.131124
  20 H :    0.126056
  21 H :    0.120463
  22 H :    0.110994
  23 H :    0.120248
  24 H :    0.101056
  25 H :    0.120709
  26 H :    0.129575
  27 H :    0.114742
  28 H :    0.128026
  29 H :    0.128000
  30 H :    0.124499
  31 H :    0.121867
  32 H :    0.108170
  33 H :    0.122393
  34 H :    0.131495
  35 H :    0.131080
  36 H :    0.098485
  37 H :    0.117593
  38 H :    0.128406
  39 H :    0.131456
  40 H :    0.123894

  Mayer bond orders larger than 0.100000
B(  0-C ,  1-C ) :   1.1632 B(  0-C , 19-H ) :   0.9386 B(  0-C , 20-H ) :   0.9449
B(  0-C , 21-H ) :   0.9384 B(  1-C ,  2-O ) :   0.9085 B(  1-C , 22-H ) :   0.9151
B(  1-C , 23-H ) :   0.9336 B(  2-O ,  3-P ) :   1.1394 B(  3-P ,  4-S ) :   1.5934
B(  3-P ,  5-O ) :   1.1311 B(  3-P ,  8-S ) :   0.9358 B(  4-S ,  8-S ) :   0.1235
B(  4-S , 30-H ) :   0.1145 B(  5-O ,  6-C ) :   0.9200 B(  6-C ,  7-C ) :   1.1635
B(  6-C , 24-H ) :   0.8973 B(  6-C , 25-H ) :   0.9344 B(  7-C , 26-H ) :   0.9441
B(  7-C , 27-H ) :   0.9305 B(  7-C , 28-H ) :   0.9376 B(  8-S ,  9-C ) :   1.0059
B(  9-C , 10-S ) :   1.0050 B(  9-C , 29-H ) :   0.8577 B(  9-C , 30-H ) :   0.8515
B( 10-S , 11-P ) :   0.9354 B( 10-S , 12-S ) :   0.1095 B( 11-P , 12-S ) :   1.6519
B( 11-P , 13-O ) :   1.0874 B( 11-P , 16-O ) :   1.1411 B( 12-S , 29-H ) :   0.1035
B( 13-O , 14-C ) :   0.9117 B( 14-C , 15-C ) :   1.1672 B( 14-C , 31-H ) :   0.9331
B( 14-C , 32-H ) :   0.9265 B( 15-C , 33-H ) :   0.9324 B( 15-C , 34-H ) :   0.9432
B( 15-C , 35-H ) :   0.9348 B( 16-O , 17-C ) :   0.8883 B( 17-C , 18-C ) :   1.1647
B( 17-C , 36-H ) :   0.9067 B( 17-C , 37-H ) :   0.9306 B( 18-C , 38-H ) :   0.9410
B( 18-C , 39-H ) :   0.9468 B( 18-C , 40-H ) :   0.9362

Dispersion correction           -0.064820344
FINAL SINGLE POINT ENERGY     -2929.521143843572

DIPOLE MOMENT
-------------

Method             : SCF
Type of density    : Electron Density
Multiplicity       :   1
Irrep              :   0
Energy             : -2929.6409301467397199 Eh
Relativity type    :
Basis              : AO
                                X                 Y                 Z
Electronic contribution:      2.256100503       3.595789361      -7.033304817
Nuclear contribution   :     -2.684829660      -4.216589828       8.212925259
                        -----------------------------------------
Total Dipole Moment    :     -0.428729157      -0.620800467       1.179620443
                        -----------------------------------------
Magnitude (a.u.)       :      1.400252227
Magnitude (Debye)      :      3.559158309

Rotational constants in cm-1:             0.012402             0.004548             0.004386
Rotational constants in MHz :           371.789783           136.360230           131.494096

                             ****ORCA TERMINATED NORMALLY****
TOTAL RUN TIME: 0 days 0 hours 0 minutes 20 seconds 856 msec
