                         Program Version 6.0.0  -   RELEASE  -
|  1> ! pbe def2-sv(p) def2/J RI DEFGRID1 loosescf d4 GCP(DFT/SV(P)) printgap
|  2> %output
|  3>     printlevel normal
|  4> end
|  5> * xyz 0 1
|  6> C 5.259126205 -0.5394262228 -1.3962224809
|  7> C 4.4026776828 -0.8965710418 -0.1974267628
|  8> O 3.5133028223 0.1816065018 0.1535908395
|  9> P 2.0516635541 0.3447875472 -0.4575121248
| 10> S 1.9097945714 0.5277329834 -2.3972644272
| 11> O 1.5384531438 1.6106534172 0.3214564144
| 12> C 1.5906888243 1.7337419757 1.763591716
| 13> C 2.7597859004 2.601020006 2.1806555016
| 14> S 1.0924718767 -1.370331541 0.3649749992
| 15> C -0.1066728739 -1.7677215123 -0.9480520746
| 16> S -1.7852237003 -1.9283295833 -0.3146516758
| 17> P -2.0815081918 0.1143307605 0.205565527
| 18> S -1.3530499714 1.4323826178 -1.0535093451
| 19> O -1.4398523217 0.3583303052 1.6244519847
| 20> C -1.4450813618 -0.5451872483 2.762791449
| 21> C -2.8171127545 -1.0770397541 3.1142131143
| 22> O -3.6348805758 0.2042617418 0.5092094562
| 23> C -4.6819419213 -0.3147986629 -0.3309293862
| 24> C -4.6168573867 0.2136811558 -1.7484265469
| 25> H 4.6345907453 -0.3819227613 -2.2729053114
| 26> H 5.817523881 0.3717068466 -1.2000442596
| 27> H 5.9521253393 -1.3506636897 -1.5943113996
| 28> H 5.0126468079 -1.0434269565 0.6961085313
| 29> H 3.8150656607 -1.7985683053 -0.3894981665
| 30> H 0.634065982 2.1875184693 2.0326409337
| 31> H 1.6597963836 0.7339442615 2.2025829763
| 32> H 2.7404680083 2.7275712362 3.2585416715
| 33> H 3.6961859708 2.134080127 1.887282422
| 34> H 2.688256605 3.5738786383 1.7019685351
| 35> H 0.155316477 -2.7343927291 -1.3706350503
| 36> H -0.0597791214 -0.9784643476 -1.7044168187
| 37> H -0.7533808202 -1.3633864706 2.5411235899
| 38> H -1.0391968419 0.0723916132 3.5656261995
| 39> H -3.5208235659 -0.2576546579 3.2345715279
| 40> H -3.1794922928 -1.7463929763 2.3370570646
| 41> H -2.7459026316 -1.6287398252 4.0466962789
| 42> H -4.6157024948 -1.4063102027 -0.3233805257
| 43> H -5.5960674952 0.0062409531 0.171408292
| 44> H -4.6210079878 1.3012652949 -1.7491410229
| 45> H -3.7022419803 -0.1225561834 -2.2352470417
| 46> H -5.4710369231 -0.1504078248 -2.3101186609
| 47> *
| 48>
| 49>                          ****END OF INPUT****

CARTESIAN COORDINATES (ANGSTROEM)
---------------------------------
  C      5.259126   -0.539426   -1.396222
  C      4.402678   -0.896571   -0.197427
  O      3.513303    0.181607    0.153591
  P      2.051664    0.344788   -0.457512
  S      1.909795    0.527733   -2.397264
  O      1.538453    1.610653    0.321456
  C      1.590689    1.733742    1.763592
  C      2.759786    2.601020    2.180656
  S      1.092472   -1.370332    0.364975
  C     -0.106673   -1.767722   -0.948052
  S     -1.785224   -1.928330   -0.314652
  P     -2.081508    0.114331    0.205566
  S     -1.353050    1.432383   -1.053509
  O     -1.439852    0.358330    1.624452
  C     -1.445081   -0.545187    2.762791
  C     -2.817113   -1.077040    3.114213
  O     -3.634881    0.204262    0.509209
  C     -4.681942   -0.314799   -0.330929
  C     -4.616857    0.213681   -1.748427
  H      4.634591   -0.381923   -2.272905
  H      5.817524    0.371707   -1.200044
  H      5.952125   -1.350664   -1.594311
  H      5.012647   -1.043427    0.696109
  H      3.815066   -1.798568   -0.389498
  H      0.634066    2.187518    2.032641
  H      1.659796    0.733944    2.202583
  H      2.740468    2.727571    3.258542
  H      3.696186    2.134080    1.887282
  H      2.688257    3.573879    1.701969
  H      0.155316   -2.734393   -1.370635
  H     -0.059779   -0.978464   -1.704417
  H     -0.753381   -1.363386    2.541124
  H     -1.039197    0.072392    3.565626
  H     -3.520824   -0.257655    3.234572
  H     -3.179492   -1.746393    2.337057
  H     -2.745903   -1.628740    4.046696
  H     -4.615702   -1.406310   -0.323381
  H     -5.596067    0.006241    0.171408
  H     -4.621008    1.301265   -1.749141
  H     -3.702242   -0.122556   -2.235247
  H     -5.471037   -0.150408   -2.310119

 Total Charge           Charge          ....    0
 Multiplicity           Mult            ....    1
 Number of Electrons    NEL             ....  202
 Basis Dimension        Dim             ....  334

ORBITAL ENERGIES
----------------

  NO   OCC          E(Eh)            E(eV)
   0   2.0000     -88.047963     -2395.9069
   1   2.0000     -88.042032     -2395.7455
   2   2.0000     -87.979015     -2394.0307
   3   2.0000     -87.973344     -2393.8764
   4   2.0000     -76.423364     -2079.5855
   5   2.0000     -76.421649     -2079.5388
   6   2.0000     -18.792104      -511.3591
   7   2.0000     -18.791114      -511.3322
   8   2.0000     -18.789134      -511.2783
   9   2.0000     -18.782921      -511.1093
  10   2.0000      -9.959193      -271.0034
  11   2.0000      -9.956467      -270.9292
  12   2.0000      -9.955124      -270.8927
  13   2.0000      -9.952772      -270.8287
  14   2.0000      -9.948801      -270.7206
  15   2.0000      -9.890532      -269.1351
  16   2.0000      -9.881274      -268.8831
  17   2.0000      -9.881199      -268.8811
  18   2.0000      -9.878132      -268.7976
  19   2.0000      -7.692835      -209.3327
  20   2.0000      -7.686525      -209.1610
  21   2.0000      -7.624252      -207.4665
  22   2.0000      -7.618267      -207.3036
  23   2.0000      -6.420329      -174.7060
  24   2.0000      -6.418961      -174.6688
  25   2.0000      -5.720561      -155.6644
  26   2.0000      -5.717111      -155.5705
  27   2.0000      -5.714336      -155.4950
  28   2.0000      -5.710879      -155.4009
  29   2.0000      -5.710249      -155.3838
  30   2.0000      -5.703775      -155.2076
  31   2.0000      -5.653351      -153.8355
  32   2.0000      -5.647501      -153.6763
  33   2.0000      -5.644722      -153.6007
  34   2.0000      -5.644319      -153.5897
  35   2.0000      -5.638793      -153.4394
  36   2.0000      -5.638242      -153.4244
  37   2.0000      -4.643071      -126.3444
  38   2.0000      -4.642628      -126.3323
  39   2.0000      -4.641692      -126.3069
  40   2.0000      -4.640832      -126.2835
  41   2.0000      -4.640160      -126.2652
  42   2.0000      -4.639226      -126.2398
  43   2.0000      -0.985926       -26.8284
  44   2.0000      -0.984120       -26.7793
  45   2.0000      -0.944013       -25.6879
  46   2.0000      -0.939129       -25.5550
  47   2.0000      -0.763208       -20.7680
  48   2.0000      -0.718991       -19.5647
  49   2.0000      -0.710577       -19.3358
  50   2.0000      -0.691808       -18.8250
  51   2.0000      -0.686191       -18.6722
  52   2.0000      -0.676609       -18.4115
  53   2.0000      -0.647415       -17.6170
  54   2.0000      -0.632859       -17.2210
  55   2.0000      -0.589161       -16.0319
  56   2.0000      -0.583934       -15.8897
  57   2.0000      -0.579261       -15.7625
  58   2.0000      -0.570850       -15.5336
  59   2.0000      -0.567315       -15.4374
  60   2.0000      -0.504949       -13.7404
  61   2.0000      -0.491544       -13.3756
  62   2.0000      -0.475643       -12.9429
  63   2.0000      -0.472276       -12.8513
  64   2.0000      -0.452213       -12.3053
  65   2.0000      -0.446016       -12.1367
  66   2.0000      -0.440151       -11.9771
  67   2.0000      -0.437657       -11.9093
  68   2.0000      -0.426195       -11.5974
  69   2.0000      -0.420313       -11.4373
  70   2.0000      -0.410294       -11.1647
  71   2.0000      -0.403123       -10.9695
  72   2.0000      -0.395437       -10.7604
  73   2.0000      -0.391069       -10.6415
  74   2.0000      -0.380680       -10.3588
  75   2.0000      -0.363617        -9.8945
  76   2.0000      -0.358145        -9.7456
  77   2.0000      -0.354245        -9.6395
  78   2.0000      -0.353107        -9.6085
  79   2.0000      -0.348699        -9.4886
  80   2.0000      -0.346778        -9.4363
  81   2.0000      -0.343002        -9.3336
  82   2.0000      -0.338939        -9.2230
  83   2.0000      -0.337703        -9.1894
  84   2.0000      -0.331740        -9.0271
  85   2.0000      -0.320025        -8.7083
  86   2.0000      -0.314153        -8.5485
  87   2.0000      -0.294422        -8.0116
  88   2.0000      -0.293060        -7.9746
  89   2.0000      -0.287698        -7.8287
  90   2.0000      -0.285331        -7.7642
  91   2.0000      -0.276315        -7.5189
  92   2.0000      -0.269184        -7.3249
  93   2.0000      -0.263209        -7.1623
  94   2.0000      -0.257159        -6.9976
  95   2.0000      -0.238771        -6.4973
  96   2.0000      -0.222970        -6.0673
  97   2.0000      -0.207104        -5.6356
  98   2.0000      -0.196063        -5.3351
  99   2.0000      -0.186512        -5.0752
 100   2.0000      -0.179122        -4.8741
 101   0.0000      -0.041762        -1.1364
 102   0.0000      -0.031220        -0.8495
 103   0.0000      -0.010102        -0.2749
 104   0.0000       0.008638         0.2350
 105   0.0000       0.017568         0.4780

MULLIKEN ATOMIC CHARGES
-----------------------
   0 C :   -0.291850
   1 C :   -0.008049
   2 O :   -0.381966
   3 P :    0.606269
   4 S :   -0.288417
   5 O :   -0.337499
   6 C :   -0.018647
   7 C :   -0.282755
   8 S :   -0.133128
   9 C :   -0.332531
  10 S :   -0.130826
  11 P :    0.579485
  12 S :   -0.276154
  13 O :   -0.356241
  14 C :   -0.005310
  15 C :   -0.304128
  16 O :   -0.372271
  17 C :   -0.013873
  18 C :   -0.305582
  19 H :    0.129965
  20 H :    0.112915
  21 H :    0.105110
  22 H :    0.102418
  23 H :    0.098171
  24 H :    0.120567
  25 H :    0.095608
  26 H :    0.104380
  27 H :    0.117076
  28 H :    0.122207
  29 H :    0.179441
  30 H :    0.211028
  31 H :    0.112894
  32 H :    0.103934
  33 H :    0.124436
  34 H :    0.115743
  35 H :    0.112841
  36 H :    0.110030
  37 H :    0.109212
  38 H :    0.128096
  39 H :    0.127866
  40 H :    0.109535
Sum of atomic charges:    0.0000000

LOEWDIN ATOMIC CHARGES
----------------------
   0 C :   -0.364690
   1 C :   -0.118599
   2 O :   -0.248397
   3 P :    0.568242
   4 S :   -0.289736
   5 O :   -0.220666
   6 C :   -0.113112
   7 C :   -0.358549
   8 S :    0.060579
   9 C :   -0.477715
  10 S :    0.060541
  11 P :    0.558455
  12 S :   -0.285950
  13 O :   -0.235263
  14 C :   -0.115654
  15 C :   -0.366942
  16 O :   -0.241872
  17 C :   -0.114704
  18 C :   -0.368859
  19 H :    0.124405
  20 H :    0.125868
  21 H :    0.127707
  22 H :    0.116284
  23 H :    0.102863
  24 H :    0.122665
  25 H :    0.100158
  26 H :    0.126952
  27 H :    0.124766
  28 H :    0.130138
  29 H :    0.135834
  30 H :    0.126396
  31 H :    0.102738
  32 H :    0.118702
  33 H :    0.128969
  34 H :    0.116745
  35 H :    0.131271
  36 H :    0.106023
  37 H :    0.121265
  38 H :    0.131520
  39 H :    0.122395
  40 H :    0.129226

  Mayer bond orders larger than 0.100000
B(  0-C ,  1-C ) :   1.1668 B(  0-C , 19-H ) :   0.9290 B(  0-C , 20-H ) :   0.9475
B(  0-C , 21-H ) :   0.9389 B(  1-C ,  2-O ) :   0.9085 B(  1-C , 22-H ) :   0.9367
B(  1-C , 23-H ) :   0.9120 B(  2-O ,  3-P ) :   1.0669 B(  3-P ,  4-S ) :   1.6526
B(  3-P ,  5-O ) :   1.1497 B(  3-P ,  8-S ) :   0.9383 B(  4-S ,  8-S ) :   0.1145
B(  5-O ,  6-C ) :   0.8947 B(  6-C ,  7-C ) :   1.1590 B(  6-C , 24-H ) :   0.9282
B(  6-C , 25-H ) :   0.9160 B(  7-C , 26-H ) :   0.9407 B(  7-C , 27-H ) :   0.9422
B(  7-C , 28-H ) :   0.9467 B(  8-S ,  9-C ) :   0.9931 B(  9-C , 10-S ) :   1.0062
B(  9-C , 29-H ) :   0.9103 B(  9-C , 30-H ) :   0.8421 B( 10-S , 11-P ) :   0.9178
B( 10-S , 12-S ) :   0.1083 B( 11-P , 12-S ) :   1.6752 B( 11-P , 13-O ) :   1.1244
B( 11-P , 16-O ) :   1.0904 B( 13-O , 14-C ) :   0.9009 B( 14-C , 15-C ) :   1.1706
B( 14-C , 31-H ) :   0.9122 B( 14-C , 32-H ) :   0.9340 B( 15-C , 33-H ) :   0.9419
B( 15-C , 34-H ) :   0.9398 B( 15-C , 35-H ) :   0.9353 B( 16-O , 17-C ) :   0.9135
B( 17-C , 18-C ) :   1.1669 B( 17-C , 36-H ) :   0.9257 B( 17-C , 37-H ) :   0.9337
B( 18-C , 38-H ) :   0.9425 B( 18-C , 39-H ) :   0.9322 B( 18-C , 40-H ) :   0.9347

Dispersion correction           -0.067753805
FINAL SINGLE POINT ENERGY     -2929.512347715843

DIPOLE MOMENT
-------------

Method             : SCF
Type of density    : Electron Density
Multiplicity       :   1
Irrep              :   0
Energy             : -2929.6308953172019756 Eh
Relativity type    :
Basis              : AO
                                X                 Y                 Z
Electronic contribution:     -1.717704274       0.762960214     -10.401598289
Nuclear contribution   :      1.438843235      -2.076243812      12.113640113
                        -----------------------------------------
Total Dipole Moment    :     -0.278861039      -1.313283598       1.712041824
                        -----------------------------------------
Magnitude (a.u.)       :      2.175675641
Magnitude (Debye)      :      5.530127993

Rotational constants in cm-1:             0.013208             0.005170             0.004831
Rotational constants in MHz :           395.974648           154.991695           144.816940

                             ****ORCA TERMINATED NORMALLY****
TOTAL RUN TIME: 0 days 0 hours 0 minutes 22 seconds 55 msec
