                         Program Version 6.0.0  -   RELEASE  -
|  1> ! r2scan-3c def2/J RI DEFGRID2 scfconv6 printgap
|  2> %output
|  3>     printlevel normal
|  4> end
|  5> * xyz 0 1
|  6> C 5.0126157048 -1.2700849939 -1.5695787435
|  7> C 3.608531338 -1.8190197212 -1.7345900967
|  8> O 2.8426905108 -1.6944116606 -0.5202553184
|  9> P 2.0590343464 -0.3804857996 -0.0987290527
| 10> S 3.0974264357 1.2468828737 0.263481079
| 11> O 1.2407784032 -0.9604073266 1.1232025188
| 12> C 1.4295321569 -0.5138555728 2.4770961545
| 13> C 2.6225534961 -1.2033391778 3.1052583986
| 14> S 0.6114379455 -0.2073848165 -1.6387699498
| 15> C 0.1069850454 1.4914184084 -1.2722797085
| 16> S -0.6030479007 1.6842164492 0.3887504818
| 17> P -2.248916393 0.3955175054 0.1165569039
| 18> S -3.0626287819 0.2910894475 -1.6670616905
| 19> O -3.2705261014 0.796276616 1.269715456
| 20> C -4.3053576465 1.777121175 1.07893364
| 21> C -3.7426731167 3.1753691312 0.9256326086
| 22> O -1.6421836066 -0.9383227648 0.7161553037
| 23> C -2.2293852417 -2.2391567457 0.4849134028
| 24> C -1.3811686062 -3.0250053915 -0.4954413553
| 25> H 5.5157422008 -1.769816786 -0.7463389354
| 26> H 5.5706681975 -1.4370906584 -2.485226375
| 27> H 4.982248923 -0.202718781 -1.3626594298
| 28> H 3.6238368278 -2.8933829769 -1.9279494399
| 29> H 3.0786106345 -1.3108453091 -2.5456225818
| 30> H 1.5620403881 0.5735741865 2.4795787795
| 31> H 0.4944344939 -0.7684977919 2.9784385741
| 32> H 2.7126227567 -0.8978613092 4.1427881324
| 33> H 2.5047422862 -2.2820745589 3.0513585719
| 34> H 3.5285985699 -0.9211031017 2.5705253912
| 35> H -0.6347456445 1.7595831226 -2.0234833223
| 36> H 0.9737480514 2.1507592316 -1.3105826567
| 37> H -4.8865763746 1.4971128295 0.1944596759
| 38> H -4.9215380674 1.6850962451 1.9742233181
| 39> H -3.1819695418 3.251164384 -0.0051940692
| 40> H -4.5584983833 3.8907162207 0.9040155235
| 41> H -3.0780293226 3.4087483233 1.7536985881
| 42> H -2.2552207197 -2.7175004288 1.4653392499
| 43> H -3.2491861651 -2.114390688 0.1092363222
| 44> H -1.4082456607 -2.5559754921 -1.4770232836
| 45> H -0.3494907344 -3.0529200893 -0.1521407641
| 46> H -1.7652522301 -4.0370079739 -0.5725013961
| 47> *
| 48>
| 49>                          ****END OF INPUT****

CARTESIAN COORDINATES (ANGSTROEM)
---------------------------------
  C      5.012616   -1.270085   -1.569579
  C      3.608531   -1.819020   -1.734590
  O      2.842691   -1.694412   -0.520255
  P      2.059034   -0.380486   -0.098729
  S      3.097426    1.246883    0.263481
  O      1.240778   -0.960407    1.123203
  C      1.429532   -0.513856    2.477096
  C      2.622553   -1.203339    3.105258
  S      0.611438   -0.207385   -1.638770
  C      0.106985    1.491418   -1.272280
  S     -0.603048    1.684216    0.388750
  P     -2.248916    0.395518    0.116557
  S     -3.062629    0.291089   -1.667062
  O     -3.270526    0.796277    1.269715
  C     -4.305358    1.777121    1.078934
  C     -3.742673    3.175369    0.925633
  O     -1.642184   -0.938323    0.716155
  C     -2.229385   -2.239157    0.484913
  C     -1.381169   -3.025005   -0.495441
  H      5.515742   -1.769817   -0.746339
  H      5.570668   -1.437091   -2.485226
  H      4.982249   -0.202719   -1.362659
  H      3.623837   -2.893383   -1.927949
  H      3.078611   -1.310845   -2.545623
  H      1.562040    0.573574    2.479579
  H      0.494434   -0.768498    2.978439
  H      2.712623   -0.897861    4.142788
  H      2.504742   -2.282075    3.051359
  H      3.528599   -0.921103    2.570525
  H     -0.634746    1.759583   -2.023483
  H      0.973748    2.150759   -1.310583
  H     -4.886576    1.497113    0.194460
  H     -4.921538    1.685096    1.974223
  H     -3.181970    3.251164   -0.005194
  H     -4.558498    3.890716    0.904016
  H     -3.078029    3.408748    1.753699
  H     -2.255221   -2.717500    1.465339
  H     -3.249186   -2.114391    0.109236
  H     -1.408246   -2.555975   -1.477023
  H     -0.349491   -3.052920   -0.152141
  H     -1.765252   -4.037008   -0.572501

 Total Charge           Charge          ....    0
 Multiplicity           Mult            ....    1
 Number of Electrons    NEL             ....  202
 Basis Dimension        Dim             ....  539

ORBITAL ENERGIES
----------------

  NO   OCC          E(Eh)            E(eV)
   0   2.0000     -88.576188     -2410.2806
   1   2.0000     -88.573882     -2410.2179
   2   2.0000     -88.521251     -2408.7857
   3   2.0000     -88.520529     -2408.7661
   4   2.0000     -76.913587     -2092.9251
   5   2.0000     -76.913039     -2092.9102
   6   2.0000     -18.993342      -516.8351
   7   2.0000     -18.991204      -516.7769
   8   2.0000     -18.985497      -516.6216
   9   2.0000     -18.984364      -516.5908
  10   2.0000     -10.106272      -275.0056
  11   2.0000     -10.101864      -274.8857
  12   2.0000     -10.097235      -274.7597
  13   2.0000     -10.095757      -274.7195
  14   2.0000     -10.091797      -274.6118
  15   2.0000     -10.028222      -272.8818
  16   2.0000     -10.026017      -272.8218
  17   2.0000     -10.024552      -272.7819
  18   2.0000     -10.021357      -272.6950
  19   2.0000      -7.870573      -214.1692
  20   2.0000      -7.868256      -214.1061
  21   2.0000      -7.816036      -212.6851
  22   2.0000      -7.815413      -212.6682
  23   2.0000      -6.591935      -179.3757
  24   2.0000      -6.591545      -179.3651
  25   2.0000      -5.817472      -158.3015
  26   2.0000      -5.815121      -158.2375
  27   2.0000      -5.814505      -158.2207
  28   2.0000      -5.812072      -158.1545
  29   2.0000      -5.807577      -158.0322
  30   2.0000      -5.805403      -157.9730
  31   2.0000      -5.763640      -156.8366
  32   2.0000      -5.763042      -156.8203
  33   2.0000      -5.756456      -156.6411
  34   2.0000      -5.755948      -156.6273
  35   2.0000      -5.755614      -156.6182
  36   2.0000      -5.755501      -156.6151
  37   2.0000      -4.737312      -128.9088
  38   2.0000      -4.736965      -128.8994
  39   2.0000      -4.736946      -128.8989
  40   2.0000      -4.736402      -128.8840
  41   2.0000      -4.735726      -128.8657
  42   2.0000      -4.735433      -128.8577
  43   2.0000      -1.049654       -28.5625
  44   2.0000      -1.046852       -28.4863
  45   2.0000      -1.009358       -27.4660
  46   2.0000      -1.006623       -27.3916
  47   2.0000      -0.802853       -21.8467
  48   2.0000      -0.757256       -20.6060
  49   2.0000      -0.747397       -20.3377
  50   2.0000      -0.728358       -19.8196
  51   2.0000      -0.727380       -19.7930
  52   2.0000      -0.709145       -19.2968
  53   2.0000      -0.685901       -18.6643
  54   2.0000      -0.670246       -18.2383
  55   2.0000      -0.630738       -17.1633
  56   2.0000      -0.624358       -16.9896
  57   2.0000      -0.605367       -16.4729
  58   2.0000      -0.600667       -16.3450
  59   2.0000      -0.589955       -16.0535
  60   2.0000      -0.526221       -14.3192
  61   2.0000      -0.520566       -14.1653
  62   2.0000      -0.493723       -13.4349
  63   2.0000      -0.488084       -13.2814
  64   2.0000      -0.473973       -12.8975
  65   2.0000      -0.457967       -12.4619
  66   2.0000      -0.456137       -12.4121
  67   2.0000      -0.454162       -12.3584
  68   2.0000      -0.443663       -12.0727
  69   2.0000      -0.429686       -11.6923
  70   2.0000      -0.423786       -11.5318
  71   2.0000      -0.412527       -11.2254
  72   2.0000      -0.409278       -11.1370
  73   2.0000      -0.403386       -10.9767
  74   2.0000      -0.395507       -10.7623
  75   2.0000      -0.390753       -10.6329
  76   2.0000      -0.383911       -10.4468
  77   2.0000      -0.369185       -10.0460
  78   2.0000      -0.365652        -9.9499
  79   2.0000      -0.363387        -9.8883
  80   2.0000      -0.360524        -9.8103
  81   2.0000      -0.359717        -9.7884
  82   2.0000      -0.353207        -9.6112
  83   2.0000      -0.350985        -9.5508
  84   2.0000      -0.347768        -9.4632
  85   2.0000      -0.334691        -9.1074
  86   2.0000      -0.316719        -8.6184
  87   2.0000      -0.310848        -8.4586
  88   2.0000      -0.309819        -8.4306
  89   2.0000      -0.302936        -8.2433
  90   2.0000      -0.296255        -8.0615
  91   2.0000      -0.292707        -7.9650
  92   2.0000      -0.285475        -7.7682
  93   2.0000      -0.278163        -7.5692
  94   2.0000      -0.271436        -7.3862
  95   2.0000      -0.244822        -6.6620
  96   2.0000      -0.230212        -6.2644
  97   2.0000      -0.227452        -6.1893
  98   2.0000      -0.220510        -6.0004
  99   2.0000      -0.214182        -5.8282
 100   2.0000      -0.211019        -5.7421
 101   0.0000      -0.048026        -1.3069
 102   0.0000      -0.025566        -0.6957
 103   0.0000      -0.001188        -0.0323
 104   0.0000      -0.000545        -0.0148
 105   0.0000       0.010737         0.2922

MULLIKEN ATOMIC CHARGES
-----------------------
   0 C :   -0.442770
   1 C :   -0.145787
   2 O :   -0.309853
   3 P :    0.703263
   4 S :   -0.483781
   5 O :   -0.252095
   6 C :   -0.151656
   7 C :   -0.445866
   8 S :   -0.139214
   9 C :   -0.238252
  10 S :   -0.122281
  11 P :    0.677696
  12 S :   -0.478301
  13 O :   -0.297428
  14 C :   -0.155184
  15 C :   -0.445542
  16 O :   -0.257010
  17 C :   -0.119618
  18 C :   -0.477581
  19 H :    0.152725
  20 H :    0.145082
  21 H :    0.178450
  22 H :    0.150402
  23 H :    0.154238
  24 H :    0.174433
  25 H :    0.159987
  26 H :    0.145982
  27 H :    0.151865
  28 H :    0.165911
  29 H :    0.208881
  30 H :    0.208887
  31 H :    0.173059
  32 H :    0.147482
  33 H :    0.173327
  34 H :    0.147847
  35 H :    0.155440
  36 H :    0.146951
  37 H :    0.156258
  38 H :    0.176482
  39 H :    0.166678
  40 H :    0.140890
Sum of atomic charges:   -0.0000000

LOEWDIN ATOMIC CHARGES
----------------------
   0 C :   -0.402308
   1 C :    0.022912
   2 O :   -0.655136
   3 P :    0.382582
   4 S :   -0.131240
   5 O :   -0.662554
   6 C :    0.011768
   7 C :   -0.397756
   8 S :    0.161930
   9 C :   -0.418886
  10 S :    0.182771
  11 P :    0.379752
  12 S :   -0.130030
  13 O :   -0.660819
  14 C :    0.018422
  15 C :   -0.406745
  16 O :   -0.668842
  17 C :    0.027733
  18 C :   -0.401863
  19 H :    0.159515
  20 H :    0.157681
  21 H :    0.168896
  22 H :    0.179793
  23 H :    0.174883
  24 H :    0.182203
  25 H :    0.181250
  26 H :    0.159115
  27 H :    0.158281
  28 H :    0.164404
  29 H :    0.189218
  30 H :    0.190497
  31 H :    0.179719
  32 H :    0.179114
  33 H :    0.164457
  34 H :    0.159103
  35 H :    0.160309
  36 H :    0.176226
  37 H :    0.176943
  38 H :    0.166249
  39 H :    0.164808
  40 H :    0.155643

  Mayer bond orders larger than 0.100000
B(  0-C ,  1-C ) :   0.9561 B(  0-C , 19-H ) :   0.9733 B(  0-C , 20-H ) :   0.9650
B(  0-C , 21-H ) :   0.9545 B(  1-C ,  2-O ) :   0.7938 B(  1-C , 22-H ) :   0.9617
B(  1-C , 23-H ) :   0.9610 B(  2-O ,  3-P ) :   1.0878 B(  3-P ,  4-S ) :   1.7467
B(  3-P ,  5-O ) :   1.1377 B(  3-P ,  8-S ) :   1.0582 B(  5-O ,  6-C ) :   0.7669
B(  6-C ,  7-C ) :   0.9295 B(  6-C , 24-H ) :   0.9585 B(  6-C , 25-H ) :   0.9635
B(  7-C , 26-H ) :   0.9656 B(  7-C , 27-H ) :   0.9750 B(  7-C , 28-H ) :   0.9627
B(  8-S ,  9-C ) :   0.9010 B(  9-C , 10-S ) :   0.8950 B(  9-C , 29-H ) :   0.9122
B(  9-C , 30-H ) :   0.9084 B( 10-S , 11-P ) :   1.0934 B( 11-P , 12-S ) :   1.7470
B( 11-P , 13-O ) :   1.0647 B( 11-P , 16-O ) :   1.1624 B( 13-O , 14-C ) :   0.8180
B( 14-C , 15-C ) :   0.9225 B( 14-C , 31-H ) :   0.9676 B( 14-C , 32-H ) :   0.9587
B( 15-C , 33-H ) :   0.9633 B( 15-C , 34-H ) :   0.9594 B( 15-C , 35-H ) :   0.9682
B( 16-O , 17-C ) :   0.7595 B( 17-C , 18-C ) :   0.9465 B( 17-C , 36-H ) :   0.9604
B( 17-C , 37-H ) :   0.9638 B( 18-C , 38-H ) :   0.9640 B( 18-C , 39-H ) :   0.9685
B( 18-C , 40-H ) :   0.9637

Dispersion correction           -0.022097793
FINAL SINGLE POINT ENERGY     -2932.463541707919

DIPOLE MOMENT
-------------

Method             : SCF
Type of density    : Electron Density
Multiplicity       :   1
Irrep              :   0
Energy             : -2932.4878890285863235 Eh
Relativity type    :
Basis              : AO
                                X                 Y                 Z
Electronic contribution:     -4.326321985       7.712105992      -6.152729381
Nuclear contribution   :      4.151371744      -8.345902200       6.680444766
                        -----------------------------------------
Total Dipole Moment    :     -0.174950241      -0.633796208       0.527715385
                        -----------------------------------------
Magnitude (a.u.)       :      0.843082883
Magnitude (Debye)      :      2.142946385

Rotational constants in cm-1:             0.013124             0.005101             0.004936
Rotational constants in MHz :           393.441675           152.910858           147.974136

                             ****ORCA TERMINATED NORMALLY****
TOTAL RUN TIME: 0 days 0 hours 1 minutes 26 seconds 176 msec
