                         Program Version 6.0.0  -   RELEASE  -
|  1> ! r2scan-3c def2/J RI DEFGRID2 scfconv6 printgap
|  2> %output
|  3>     printlevel normal
|  4> end
|  5> %cpcm
|  6>     smd true
|  7>     smdsolvent "water"
|  8> end
|  9> * xyz 0 1
| 10> C 5.0126157048 -1.2700849939 -1.5695787435
| 11> C 3.608531338 -1.8190197212 -1.7345900967
| 12> O 2.8426905108 -1.6944116606 -0.5202553184
| 13> P 2.0590343464 -0.3804857996 -0.0987290527
| 14> S 3.0974264357 1.2468828737 0.263481079
| 15> O 1.2407784032 -0.9604073266 1.1232025188
| 16> C 1.4295321569 -0.5138555728 2.4770961545
| 17> C 2.6225534961 -1.2033391778 3.1052583986
| 18> S 0.6114379455 -0.2073848165 -1.6387699498
| 19> C 0.1069850454 1.4914184084 -1.2722797085
| 20> S -0.6030479007 1.6842164492 0.3887504818
| 21> P -2.248916393 0.3955175054 0.1165569039
| 22> S -3.0626287819 0.2910894475 -1.6670616905
| 23> O -3.2705261014 0.796276616 1.269715456
| 24> C -4.3053576465 1.777121175 1.07893364
| 25> C -3.7426731167 3.1753691312 0.9256326086
| 26> O -1.6421836066 -0.9383227648 0.7161553037
| 27> C -2.2293852417 -2.2391567457 0.4849134028
| 28> C -1.3811686062 -3.0250053915 -0.4954413553
| 29> H 5.5157422008 -1.769816786 -0.7463389354
| 30> H 5.5706681975 -1.4370906584 -2.485226375
| 31> H 4.982248923 -0.202718781 -1.3626594298
| 32> H 3.6238368278 -2.8933829769 -1.9279494399
| 33> H 3.0786106345 -1.3108453091 -2.5456225818
| 34> H 1.5620403881 0.5735741865 2.4795787795
| 35> H 0.4944344939 -0.7684977919 2.9784385741
| 36> H 2.7126227567 -0.8978613092 4.1427881324
| 37> H 2.5047422862 -2.2820745589 3.0513585719
| 38> H 3.5285985699 -0.9211031017 2.5705253912
| 39> H -0.6347456445 1.7595831226 -2.0234833223
| 40> H 0.9737480514 2.1507592316 -1.3105826567
| 41> H -4.8865763746 1.4971128295 0.1944596759
| 42> H -4.9215380674 1.6850962451 1.9742233181
| 43> H -3.1819695418 3.251164384 -0.0051940692
| 44> H -4.5584983833 3.8907162207 0.9040155235
| 45> H -3.0780293226 3.4087483233 1.7536985881
| 46> H -2.2552207197 -2.7175004288 1.4653392499
| 47> H -3.2491861651 -2.114390688 0.1092363222
| 48> H -1.4082456607 -2.5559754921 -1.4770232836
| 49> H -0.3494907344 -3.0529200893 -0.1521407641
| 50> H -1.7652522301 -4.0370079739 -0.5725013961
| 51> *
| 52>
| 53>                          ****END OF INPUT****

CARTESIAN COORDINATES (ANGSTROEM)
---------------------------------
  C      5.012616   -1.270085   -1.569579
  C      3.608531   -1.819020   -1.734590
  O      2.842691   -1.694412   -0.520255
  P      2.059034   -0.380486   -0.098729
  S      3.097426    1.246883    0.263481
  O      1.240778   -0.960407    1.123203
  C      1.429532   -0.513856    2.477096
  C      2.622553   -1.203339    3.105258
  S      0.611438   -0.207385   -1.638770
  C      0.106985    1.491418   -1.272280
  S     -0.603048    1.684216    0.388750
  P     -2.248916    0.395518    0.116557
  S     -3.062629    0.291089   -1.667062
  O     -3.270526    0.796277    1.269715
  C     -4.305358    1.777121    1.078934
  C     -3.742673    3.175369    0.925633
  O     -1.642184   -0.938323    0.716155
  C     -2.229385   -2.239157    0.484913
  C     -1.381169   -3.025005   -0.495441
  H      5.515742   -1.769817   -0.746339
  H      5.570668   -1.437091   -2.485226
  H      4.982249   -0.202719   -1.362659
  H      3.623837   -2.893383   -1.927949
  H      3.078611   -1.310845   -2.545623
  H      1.562040    0.573574    2.479579
  H      0.494434   -0.768498    2.978439
  H      2.712623   -0.897861    4.142788
  H      2.504742   -2.282075    3.051359
  H      3.528599   -0.921103    2.570525
  H     -0.634746    1.759583   -2.023483
  H      0.973748    2.150759   -1.310583
  H     -4.886576    1.497113    0.194460
  H     -4.921538    1.685096    1.974223
  H     -3.181970    3.251164   -0.005194
  H     -4.558498    3.890716    0.904016
  H     -3.078029    3.408748    1.753699
  H     -2.255221   -2.717500    1.465339
  H     -3.249186   -2.114391    0.109236
  H     -1.408246   -2.555975   -1.477023
  H     -0.349491   -3.052920   -0.152141
  H     -1.765252   -4.037008   -0.572501

 Total Charge           Charge          ....    0
 Multiplicity           Mult            ....    1
 Number of Electrons    NEL             ....  202
 Basis Dimension        Dim             ....  539

ORBITAL ENERGIES
----------------

  NO   OCC          E(Eh)            E(eV)
   0   2.0000     -88.579315     -2410.3657
   1   2.0000     -88.577288     -2410.3106
   2   2.0000     -88.527735     -2408.9621
   3   2.0000     -88.527578     -2408.9579
   4   2.0000     -76.919051     -2093.0738
   5   2.0000     -76.918035     -2093.0461
   6   2.0000     -18.996103      -516.9102
   7   2.0000     -18.993944      -516.8515
   8   2.0000     -18.990968      -516.7705
   9   2.0000     -18.988488      -516.7030
  10   2.0000     -10.105159      -274.9753
  11   2.0000     -10.091791      -274.6116
  12   2.0000     -10.088930      -274.5337
  13   2.0000     -10.088514      -274.5224
  14   2.0000     -10.087765      -274.5020
  15   2.0000     -10.018166      -272.6082
  16   2.0000     -10.017370      -272.5865
  17   2.0000     -10.016656      -272.5671
  18   2.0000     -10.015681      -272.5405
  19   2.0000      -7.873730      -214.2551
  20   2.0000      -7.871671      -214.1991
  21   2.0000      -7.822789      -212.8689
  22   2.0000      -7.822727      -212.8672
  23   2.0000      -6.597454      -179.5259
  24   2.0000      -6.596574      -179.5019
  25   2.0000      -5.820630      -158.3874
  26   2.0000      -5.818526      -158.3302
  27   2.0000      -5.817653      -158.3064
  28   2.0000      -5.815482      -158.2473
  29   2.0000      -5.810748      -158.1185
  30   2.0000      -5.808837      -158.0665
  31   2.0000      -5.770347      -157.0191
  32   2.0000      -5.770307      -157.0180
  33   2.0000      -5.763193      -156.8245
  34   2.0000      -5.762929      -156.8173
  35   2.0000      -5.762812      -156.8141
  36   2.0000      -5.762713      -156.8114
  37   2.0000      -4.742804      -129.0582
  38   2.0000      -4.742478      -129.0494
  39   2.0000      -4.741957      -129.0352
  40   2.0000      -4.741444      -129.0212
  41   2.0000      -4.741281      -129.0168
  42   2.0000      -4.740507      -128.9957
  43   2.0000      -1.053416       -28.6649
  44   2.0000      -1.049902       -28.5693
  45   2.0000      -1.012635       -27.5552
  46   2.0000      -1.009258       -27.4633
  47   2.0000      -0.804604       -21.8944
  48   2.0000      -0.755578       -20.5603
  49   2.0000      -0.743047       -20.2193
  50   2.0000      -0.721669       -19.6376
  51   2.0000      -0.721055       -19.6209
  52   2.0000      -0.709292       -19.3008
  53   2.0000      -0.689547       -18.7635
  54   2.0000      -0.675511       -18.3816
  55   2.0000      -0.630562       -17.1585
  56   2.0000      -0.621963       -16.9245
  57   2.0000      -0.600767       -16.3477
  58   2.0000      -0.595860       -16.2142
  59   2.0000      -0.588454       -16.0126
  60   2.0000      -0.523506       -14.2453
  61   2.0000      -0.517979       -14.0949
  62   2.0000      -0.492620       -13.4049
  63   2.0000      -0.485718       -13.2171
  64   2.0000      -0.474460       -12.9107
  65   2.0000      -0.456210       -12.4141
  66   2.0000      -0.452963       -12.3258
  67   2.0000      -0.452453       -12.3119
  68   2.0000      -0.440253       -11.9799
  69   2.0000      -0.426728       -11.6119
  70   2.0000      -0.421648       -11.4736
  71   2.0000      -0.411703       -11.2030
  72   2.0000      -0.407825       -11.0975
  73   2.0000      -0.401961       -10.9379
  74   2.0000      -0.393550       -10.7090
  75   2.0000      -0.388712       -10.5774
  76   2.0000      -0.382033       -10.3956
  77   2.0000      -0.366923        -9.9845
  78   2.0000      -0.362172        -9.8552
  79   2.0000      -0.358539        -9.7563
  80   2.0000      -0.353778        -9.6268
  81   2.0000      -0.353099        -9.6083
  82   2.0000      -0.347616        -9.4591
  83   2.0000      -0.346920        -9.4402
  84   2.0000      -0.345824        -9.4103
  85   2.0000      -0.333947        -9.0871
  86   2.0000      -0.315723        -8.5913
  87   2.0000      -0.306297        -8.3348
  88   2.0000      -0.305248        -8.3062
  89   2.0000      -0.302709        -8.2371
  90   2.0000      -0.296605        -8.0710
  91   2.0000      -0.293018        -7.9734
  92   2.0000      -0.286311        -7.7909
  93   2.0000      -0.279175        -7.5967
  94   2.0000      -0.273828        -7.4512
  95   2.0000      -0.248312        -6.7569
  96   2.0000      -0.235522        -6.4089
  97   2.0000      -0.234364        -6.3774
  98   2.0000      -0.226831        -6.1724
  99   2.0000      -0.221015        -6.0141
 100   2.0000      -0.217415        -5.9162
 101   0.0000      -0.052330        -1.4240
 102   0.0000      -0.031244        -0.8502
 103   0.0000      -0.005685        -0.1547
 104   0.0000      -0.004197        -0.1142
 105   0.0000       0.009944         0.2706

MULLIKEN ATOMIC CHARGES
-----------------------
   0 C :   -0.486614
   1 C :   -0.132039
   2 O :   -0.341952
   3 P :    0.731063
   4 S :   -0.523050
   5 O :   -0.283804
   6 C :   -0.139617
   7 C :   -0.488394
   8 S :   -0.148440
   9 C :   -0.250366
  10 S :   -0.132130
  11 P :    0.713447
  12 S :   -0.521896
  13 O :   -0.326069
  14 C :   -0.154879
  15 C :   -0.482458
  16 O :   -0.284980
  17 C :   -0.126780
  18 C :   -0.499972
  19 H :    0.168050
  20 H :    0.169871
  21 H :    0.169357
  22 H :    0.176558
  23 H :    0.164157
  24 H :    0.175576
  25 H :    0.179885
  26 H :    0.170868
  27 H :    0.167473
  28 H :    0.164510
  29 H :    0.232272
  30 H :    0.229863
  31 H :    0.177495
  32 H :    0.174118
  33 H :    0.171270
  34 H :    0.172351
  35 H :    0.168582
  36 H :    0.174135
  37 H :    0.169124
  38 H :    0.170491
  39 H :    0.166170
  40 H :    0.166751
Sum of atomic charges:   -0.0000000

LOEWDIN ATOMIC CHARGES
----------------------
   0 C :   -0.406833
   1 C :    0.029571
   2 O :   -0.669278
   3 P :    0.386458
   4 S :   -0.156504
   5 O :   -0.680089
   6 C :    0.014985
   7 C :   -0.401171
   8 S :    0.159037
   9 C :   -0.412133
  10 S :    0.178091
  11 P :    0.385121
  12 S :   -0.156421
  13 O :   -0.673402
  14 C :    0.023648
  15 C :   -0.409982
  16 O :   -0.684551
  17 C :    0.031527
  18 C :   -0.404103
  19 H :    0.162718
  20 H :    0.167242
  21 H :    0.162912
  22 H :    0.191158
  23 H :    0.179631
  24 H :    0.182635
  25 H :    0.189254
  26 H :    0.168279
  27 H :    0.162944
  28 H :    0.161780
  29 H :    0.196780
  30 H :    0.196952
  31 H :    0.181152
  32 H :    0.190338
  33 H :    0.161222
  34 H :    0.168045
  35 H :    0.163453
  36 H :    0.187386
  37 H :    0.181341
  38 H :    0.162251
  39 H :    0.163499
  40 H :    0.165055

  Mayer bond orders larger than 0.100000
B(  0-C ,  1-C ) :   0.9413 B(  0-C , 19-H ) :   0.9721 B(  0-C , 20-H ) :   0.9593
B(  0-C , 21-H ) :   0.9591 B(  1-C ,  2-O ) :   0.7846 B(  1-C , 22-H ) :   0.9523
B(  1-C , 23-H ) :   0.9544 B(  2-O ,  3-P ) :   1.0909 B(  3-P ,  4-S ) :   1.7186
B(  3-P ,  5-O ) :   1.1374 B(  3-P ,  8-S ) :   1.0725 B(  5-O ,  6-C ) :   0.7552
B(  6-C ,  7-C ) :   0.9245 B(  6-C , 24-H ) :   0.9541 B(  6-C , 25-H ) :   0.9533
B(  7-C , 26-H ) :   0.9596 B(  7-C , 27-H ) :   0.9724 B(  7-C , 28-H ) :   0.9634
B(  8-S ,  9-C ) :   0.8923 B(  9-C , 10-S ) :   0.8864 B(  9-C , 29-H ) :   0.9058
B(  9-C , 30-H ) :   0.9030 B( 10-S , 11-P ) :   1.1045 B( 11-P , 12-S ) :   1.7091
B( 11-P , 13-O ) :   1.0718 B( 11-P , 16-O ) :   1.1664 B( 13-O , 14-C ) :   0.8063
B( 14-C , 15-C ) :   0.9109 B( 14-C , 31-H ) :   0.9656 B( 14-C , 32-H ) :   0.9490
B( 15-C , 33-H ) :   0.9638 B( 15-C , 34-H ) :   0.9540 B( 15-C , 35-H ) :   0.9657
B( 16-O , 17-C ) :   0.7467 B( 17-C , 18-C ) :   0.9370 B( 17-C , 36-H ) :   0.9501
B( 17-C , 37-H ) :   0.9604 B( 18-C , 38-H ) :   0.9661 B( 18-C , 39-H ) :   0.9670
B( 18-C , 40-H ) :   0.9595

Dispersion correction           -0.022097793
FINAL SINGLE POINT ENERGY     -2932.470321570040

DIPOLE MOMENT
-------------

Method             : SCF
Type of density    : Electron Density
Multiplicity       :   1
Irrep              :   0
Energy             : -2932.4946688907070893 Eh
Relativity type    :
Basis              : AO
                                X                 Y                 Z
Electronic contribution:     -4.484238208       7.581133464      -6.082881011
Nuclear contribution   :      4.151371744      -8.345902200       6.680444766
                        -----------------------------------------
Total Dipole Moment    :     -0.332866464      -0.764768735       0.597563755
                        -----------------------------------------
Magnitude (a.u.)       :      1.026037886
Magnitude (Debye)      :      2.607981046

Rotational constants in cm-1:             0.013124             0.005101             0.004936
Rotational constants in MHz :           393.441675           152.910858           147.974136

                             ****ORCA TERMINATED NORMALLY****
TOTAL RUN TIME: 0 days 0 hours 1 minutes 50 seconds 838 msec
