                         Program Version 6.0.1  -  RELEASE   -
|  1> ! pbe def2-sv(p) def2/J RI DEFGRID1 loosescf d4 GCP(DFT/SV(P)) printgap
|  2> %output
|  3>     printlevel normal
|  4> end
|  5> * xyz 0 1
|  6> C 4.197061048 -2.4622714277 0.905388337
|  7> C 2.7221073485 -2.2658501015 0.6165436785
|  8> O 2.5941326301 -1.2198497578 -0.3668315203
|  9> C 1.4858450717 -1.137515872 -1.0662808382
| 10> O 0.5307296877 -1.8800063789 -0.933052856
| 11> C 1.5276241242 0.0023303348 -2.0619465453
| 12> C 0.4012669114 1.0006448227 -1.7787178598
| 13> H 0.3952245125 1.7715046414 -2.5542321616
| 14> C 0.5426621045 1.6705709738 -0.4255299699
| 15> O -0.3944186184 1.754446392 0.3491690058
| 16> O 1.7460624164 2.1059656441 -0.1991730204
| 17> C 2.0232124076 2.745500204 1.0679575726
| 18> C 1.6264605317 4.21146134 1.0342925488
| 19> S -1.2639854432 0.2507248209 -1.8469234747
| 20> P -1.6121828857 -0.3783077133 0.146266412
| 21> S -0.4464395479 -0.7686631562 1.6929505228
| 22> O -2.9074347587 0.4547211295 0.6028706187
| 23> C -2.9312529155 1.5070819314 1.5638376129
| 24> O -2.3632647735 -1.6916573155 -0.3804724361
| 25> C -2.9414505413 -2.64478223 0.5116564081
| 26> H 4.3111597725 -3.2348306733 1.6582333333
| 27> H 4.7189597635 -2.7614036872 0.0011587247
| 28> H 4.6282767418 -1.5367272882 1.2734669679
| 29> H 2.1673251586 -1.9584432125 1.5090076491
| 30> H 2.2535111476 -3.171476917 0.2186434749
| 31> H 1.3766594984 -0.4112271269 -3.0594234429
| 32> H 2.4927818626 0.5031323363 -1.9936046749
| 33> H 1.4853119329 2.2073061209 1.8535671741
| 34> H 3.0988802946 2.624603551 1.19237119
| 35> H 2.1321080248 4.7176224784 0.2169061959
| 36> H 0.5512296581 4.3086510558 0.9037521242
| 37> H 1.9082616302 4.6767524799 1.9728680286
| 38> H -3.9274515004 1.4888876688 1.9999030886
| 39> H -2.7402642599 2.4576389352 1.0698345143
| 40> H -2.1732624122 1.3318774964 2.3292079112
| 41> H -3.875047267 -2.2555084498 0.9185304049
| 42> H -2.2474785187 -2.8682009741 1.3253301762
| 43> H -3.1217310847 -3.5349887503 -0.0856562216
| 44> *
| 45>
| 46>                          ****END OF INPUT****

CARTESIAN COORDINATES (ANGSTROEM)
---------------------------------
  C      4.197061   -2.462271    0.905388
  C      2.722107   -2.265850    0.616544
  O      2.594133   -1.219850   -0.366832
  C      1.485845   -1.137516   -1.066281
  O      0.530730   -1.880006   -0.933053
  C      1.527624    0.002330   -2.061947
  C      0.401267    1.000645   -1.778718
  H      0.395225    1.771505   -2.554232
  C      0.542662    1.670571   -0.425530
  O     -0.394419    1.754446    0.349169
  O      1.746062    2.105966   -0.199173
  C      2.023212    2.745500    1.067958
  C      1.626461    4.211461    1.034293
  S     -1.263985    0.250725   -1.846923
  P     -1.612183   -0.378308    0.146266
  S     -0.446440   -0.768663    1.692951
  O     -2.907435    0.454721    0.602871
  C     -2.931253    1.507082    1.563838
  O     -2.363265   -1.691657   -0.380472
  C     -2.941451   -2.644782    0.511656
  H      4.311160   -3.234831    1.658233
  H      4.718960   -2.761404    0.001159
  H      4.628277   -1.536727    1.273467
  H      2.167325   -1.958443    1.509008
  H      2.253511   -3.171477    0.218643
  H      1.376659   -0.411227   -3.059423
  H      2.492782    0.503132   -1.993605
  H      1.485312    2.207306    1.853567
  H      3.098880    2.624604    1.192371
  H      2.132108    4.717622    0.216906
  H      0.551230    4.308651    0.903752
  H      1.908262    4.676752    1.972868
  H     -3.927452    1.488888    1.999903
  H     -2.740264    2.457639    1.069835
  H     -2.173262    1.331877    2.329208
  H     -3.875047   -2.255508    0.918530
  H     -2.247479   -2.868201    1.325330
  H     -3.121731   -3.534989   -0.085656

 Total Charge           Charge          ....    0
 Multiplicity           Mult            ....    1
 Number of Electrons    NEL             ....  174
 Basis Dimension        Dim             ....  316

ORBITAL ENERGIES
----------------

  NO   OCC          E(Eh)            E(eV)
   0   2.0000     -88.024100     -2395.2575
   1   2.0000     -87.963404     -2393.6059
   2   2.0000     -76.411022     -2079.2496
   3   2.0000     -18.826969      -512.3079
   4   2.0000     -18.799460      -511.5593
   5   2.0000     -18.765520      -510.6357
   6   2.0000     -18.765088      -510.6240
   7   2.0000     -18.759739      -510.4784
   8   2.0000     -18.728954      -509.6407
   9   2.0000     -10.032455      -272.9970
  10   2.0000     -10.004690      -272.2414
  11   2.0000      -9.961600      -271.0689
  12   2.0000      -9.954626      -270.8791
  13   2.0000      -9.938105      -270.4296
  14   2.0000      -9.922053      -269.9928
  15   2.0000      -9.920435      -269.9487
  16   2.0000      -9.912461      -269.7318
  17   2.0000      -9.898658      -269.3562
  18   2.0000      -9.885137      -268.9882
  19   2.0000      -7.669492      -208.6975
  20   2.0000      -7.608358      -207.0340
  21   2.0000      -6.405816      -174.3111
  22   2.0000      -5.697998      -155.0504
  23   2.0000      -5.694469      -154.9544
  24   2.0000      -5.685226      -154.7029
  25   2.0000      -5.637594      -153.4067
  26   2.0000      -5.629087      -153.1752
  27   2.0000      -5.628024      -153.1463
  28   2.0000      -4.628491      -125.9476
  29   2.0000      -4.628041      -125.9354
  30   2.0000      -4.626372      -125.8900
  31   2.0000      -1.037933       -28.2436
  32   2.0000      -1.005606       -27.3639
  33   2.0000      -0.957582       -26.0571
  34   2.0000      -0.942363       -25.6430
  35   2.0000      -0.912953       -24.8427
  36   2.0000      -0.907325       -24.6896
  37   2.0000      -0.766089       -20.8463
  38   2.0000      -0.717113       -19.5136
  39   2.0000      -0.707772       -19.2595
  40   2.0000      -0.682373       -18.5683
  41   2.0000      -0.646949       -17.6044
  42   2.0000      -0.627244       -17.0682
  43   2.0000      -0.610381       -16.6093
  44   2.0000      -0.608619       -16.5614
  45   2.0000      -0.587977       -15.9997
  46   2.0000      -0.563837       -15.3428
  47   2.0000      -0.515202       -14.0194
  48   2.0000      -0.504204       -13.7201
  49   2.0000      -0.497434       -13.5359
  50   2.0000      -0.484614       -13.1870
  51   2.0000      -0.460879       -12.5411
  52   2.0000      -0.452896       -12.3239
  53   2.0000      -0.449187       -12.2230
  54   2.0000      -0.437916       -11.9163
  55   2.0000      -0.428503       -11.6602
  56   2.0000      -0.424440       -11.5496
  57   2.0000      -0.411655       -11.2017
  58   2.0000      -0.402874       -10.9628
  59   2.0000      -0.400414       -10.8958
  60   2.0000      -0.397223       -10.8090
  61   2.0000      -0.389716       -10.6047
  62   2.0000      -0.381339       -10.3768
  63   2.0000      -0.378579       -10.3017
  64   2.0000      -0.374007       -10.1772
  65   2.0000      -0.366707        -9.9786
  66   2.0000      -0.360225        -9.8022
  67   2.0000      -0.354056        -9.6343
  68   2.0000      -0.349595        -9.5130
  69   2.0000      -0.345710        -9.4072
  70   2.0000      -0.336995        -9.1701
  71   2.0000      -0.334406        -9.0997
  72   2.0000      -0.313054        -8.5186
  73   2.0000      -0.311635        -8.4800
  74   2.0000      -0.296940        -8.0801
  75   2.0000      -0.292800        -7.9675
  76   2.0000      -0.283933        -7.7262
  77   2.0000      -0.281626        -7.6634
  78   2.0000      -0.266336        -7.2474
  79   2.0000      -0.256488        -6.9794
  80   2.0000      -0.252811        -6.8793
  81   2.0000      -0.246983        -6.7208
  82   2.0000      -0.238485        -6.4895
  83   2.0000      -0.221040        -6.0148
  84   2.0000      -0.191766        -5.2182
  85   2.0000      -0.180034        -4.8990
  86   2.0000      -0.172084        -4.6826
  87   0.0000      -0.051031        -1.3886
  88   0.0000      -0.042658        -1.1608
  89   0.0000      -0.024260        -0.6601
  90   0.0000       0.012035         0.3275
  91   0.0000       0.033630         0.9151

MULLIKEN ATOMIC CHARGES
-----------------------
   0 C :   -0.273531
   1 C :   -0.036713
   2 O :   -0.226743
   3 C :    0.080780
   4 O :   -0.189678
   5 C :   -0.010671
   6 C :   -0.336975
   7 H :    0.154228
   8 C :    0.223187
   9 O :   -0.196296
  10 O :   -0.212758
  11 C :   -0.013270
  12 C :   -0.312036
  13 S :   -0.050915
  14 P :    0.658595
  15 S :   -0.364321
  16 O :   -0.392027
  17 C :   -0.083688
  18 O :   -0.384157
  19 C :   -0.090397
  20 H :    0.111597
  21 H :    0.110000
  22 H :    0.109034
  23 H :    0.123806
  24 H :    0.108673
  25 H :    0.122590
  26 H :    0.111059
  27 H :    0.127618
  28 H :    0.109871
  29 H :    0.116562
  30 H :    0.130777
  31 H :    0.120841
  32 H :    0.109763
  33 H :    0.104891
  34 H :    0.108411
  35 H :    0.102912
  36 H :    0.112168
  37 H :    0.116816
Sum of atomic charges:   -0.0000000

LOEWDIN ATOMIC CHARGES
----------------------
   0 C :   -0.351256
   1 C :   -0.111712
   2 O :   -0.053319
   3 C :    0.015516
   4 O :   -0.163295
   5 C :   -0.248911
   6 C :   -0.263450
   7 H :    0.151922
   8 C :    0.020856
   9 O :   -0.151083
  10 O :   -0.030160
  11 C :   -0.105369
  12 C :   -0.356241
  13 S :    0.130050
  14 P :    0.603204
  15 S :   -0.333117
  16 O :   -0.261547
  17 C :   -0.215032
  18 O :   -0.257664
  19 C :   -0.214222
  20 H :    0.130575
  21 H :    0.123822
  22 H :    0.123797
  23 H :    0.116303
  24 H :    0.118747
  25 H :    0.147005
  26 H :    0.136373
  27 H :    0.128160
  28 H :    0.122139
  29 H :    0.126178
  30 H :    0.131354
  31 H :    0.135084
  32 H :    0.112867
  33 H :    0.107064
  34 H :    0.103522
  35 H :    0.107078
  36 H :    0.106573
  37 H :    0.118186

  Mayer bond orders larger than 0.100000
B(  0-C ,  1-C ) :   1.1504 B(  0-C , 20-H ) :   0.9450 B(  0-C , 21-H ) :   0.9514
B(  0-C , 22-H ) :   0.9490 B(  1-C ,  2-O ) :   0.8970 B(  1-C , 23-H ) :   0.9226
B(  1-C , 24-H ) :   0.9226 B(  2-O ,  3-C ) :   1.2471 B(  3-C ,  4-O ) :   2.0026
B(  3-C ,  5-C ) :   1.0003 B(  5-C ,  6-C ) :   1.0131 B(  5-C , 25-H ) :   0.8875
B(  5-C , 26-H ) :   0.8859 B(  6-C ,  7-H ) :   0.8733 B(  6-C ,  8-C ) :   0.9014
B(  6-C , 13-S ) :   1.0671 B(  8-C ,  9-O ) :   1.9041 B(  8-C , 10-O ) :   1.2872
B(  9-O , 14-P ) :   0.1245 B( 10-O , 11-C ) :   0.8943 B( 11-C , 12-C ) :   1.1727
B( 11-C , 27-H ) :   0.9133 B( 11-C , 28-H ) :   0.9361 B( 12-C , 29-H ) :   0.9474
B( 12-C , 30-H ) :   0.9449 B( 12-C , 31-H ) :   0.9432 B( 13-S , 14-P ) :   0.9150
B( 13-S , 15-S ) :   0.1161 B( 14-P , 15-S ) :   1.4984 B( 14-P , 16-O ) :   1.0822
B( 14-P , 18-O ) :   1.0882 B( 16-O , 17-C ) :   0.9430 B( 17-C , 32-H ) :   0.9564
B( 17-C , 33-H ) :   0.9526 B( 17-C , 34-H ) :   0.9300 B( 18-O , 19-C ) :   0.9435
B( 19-C , 35-H ) :   0.9515 B( 19-C , 36-H ) :   0.9313 B( 19-C , 37-H ) :   0.9603

Dispersion correction           -0.054811674
FINAL SINGLE POINT ENERGY     -1978.995535829508

DIPOLE MOMENT
-------------

Method             : SCF
Type of density    : Electron Density
Multiplicity       :   1
Irrep              :   0
Energy             : -1979.1243444765036656 Eh
Relativity type    :
Basis              : AO
                                X                 Y                 Z
Electronic contribution:    -12.750885024      -3.311488104      -9.818333252
Nuclear contribution   :     14.082068864       4.431854224       9.945245596
                        -----------------------------------------
Total Dipole Moment    :      1.331183841       1.120366120       0.126912344
                        -----------------------------------------
Magnitude (a.u.)       :      1.744527846
Magnitude (Debye)      :      4.434237389

Rotational constants in cm-1:             0.011331             0.009418             0.007101
Rotational constants in MHz :           339.705800           282.339859           212.878752

                             ****ORCA TERMINATED NORMALLY****
TOTAL RUN TIME: 0 days 0 hours 0 minutes 44 seconds 177 msec
