                         Program Version 6.0.0  -   RELEASE  -
|  1> ! pbe def2-sv(p) def2/J RI DEFGRID1 loosescf d4 GCP(DFT/SV(P)) printgap
|  2> %output
|  3>     printlevel normal
|  4> end
|  5> * xyz 0 1
|  6> C 4.6111197845 0.1240350964 -2.2850357301
|  7> C 4.7613436243 -0.7477358801 -1.0552168145
|  8> O 3.5020038483 -1.2944876439 -0.6276984123
|  9> P 2.3576415111 -0.3934886533 0.0133237644
| 10> S 3.0373853499 1.0147024044 1.2032259923
| 11> O 1.4182975497 -1.5034229909 0.6433623084
| 12> C 1.7869146988 -2.2252832435 1.8438447661
| 13> C 1.1973459244 -1.5654774082 3.0744601111
| 14> S 1.1415380832 0.2069589092 -1.5981510452
| 15> C 0.2835150986 1.5417516989 -0.7087267282
| 16> S -0.6790663908 0.9626552628 0.7066256116
| 17> P -2.4163699548 0.3483754723 -0.3864826995
| 18> S -2.1711835431 -0.6074139634 -2.0742972421
| 19> O -3.2037648989 1.683907886 -0.6769185093
| 20> C -3.6542430129 2.6000100639 0.3514740919
| 21> C -5.1080658381 2.3453268461 0.69371627
| 22> O -3.2998998549 -0.3409038076 0.739446404
| 23> C -2.8524944933 -1.3762709979 1.6335487065
| 24> C -2.1144735043 -2.4939698281 0.9268388604
| 25> H 4.0880858983 -0.4170072957 -3.0698064101
| 26> H 4.0410084014 1.0190403116 -2.0387450031
| 27> H 5.593276175 0.4180933375 -2.6408460761
| 28> H 5.1882808874 -0.1735354228 -0.2262878821
| 29> H 5.3751526009 -1.6268832269 -1.2555335171
| 30> H 1.3808909747 -3.226838836 1.6917961222
| 31> H 2.8769349991 -2.2787908232 1.9079555772
| 32> H 1.4436190871 -2.1584300359 3.9493470109
| 33> H 1.6027373087 -0.5634895662 3.1969209614
| 34> H 0.118034782 -1.4931805531 2.9784873517
| 35> H -0.3717867249 2.0208152504 -1.4335021772
| 36> H 1.0207755888 2.2391619201 -0.3121209119
| 37> H -3.0129019073 2.4918836075 1.2307001731
| 38> H -3.5182830542 3.5910561975 -0.0853036506
| 39> H -5.7194177132 2.4257440292 -0.200852477
| 40> H -5.2287680767 1.3488823651 1.109784051
| 41> H -5.4363976116 3.0815201564 1.4207426541
| 42> H -2.2192140506 -0.909341036 2.3937031242
| 43> H -3.7741462001 -1.738629619 2.0927897294
| 44> H -1.1813469424 -2.1248166232 0.5009010417
| 45> H -1.8914340645 -3.2847838541 1.6364431222
| 46> H -2.7214997592 -2.8962529923 0.1188968704
| 47> *
| 48>
| 49>                          ****END OF INPUT****

CARTESIAN COORDINATES (ANGSTROEM)
---------------------------------
  C      4.611120    0.124035   -2.285036
  C      4.761344   -0.747736   -1.055217
  O      3.502004   -1.294488   -0.627698
  P      2.357642   -0.393489    0.013324
  S      3.037385    1.014702    1.203226
  O      1.418298   -1.503423    0.643362
  C      1.786915   -2.225283    1.843845
  C      1.197346   -1.565477    3.074460
  S      1.141538    0.206959   -1.598151
  C      0.283515    1.541752   -0.708727
  S     -0.679066    0.962655    0.706626
  P     -2.416370    0.348375   -0.386483
  S     -2.171184   -0.607414   -2.074297
  O     -3.203765    1.683908   -0.676919
  C     -3.654243    2.600010    0.351474
  C     -5.108066    2.345327    0.693716
  O     -3.299900   -0.340904    0.739446
  C     -2.852494   -1.376271    1.633549
  C     -2.114474   -2.493970    0.926839
  H      4.088086   -0.417007   -3.069806
  H      4.041008    1.019040   -2.038745
  H      5.593276    0.418093   -2.640846
  H      5.188281   -0.173535   -0.226288
  H      5.375153   -1.626883   -1.255534
  H      1.380891   -3.226839    1.691796
  H      2.876935   -2.278791    1.907956
  H      1.443619   -2.158430    3.949347
  H      1.602737   -0.563490    3.196921
  H      0.118035   -1.493181    2.978487
  H     -0.371787    2.020815   -1.433502
  H      1.020776    2.239162   -0.312121
  H     -3.012902    2.491884    1.230700
  H     -3.518283    3.591056   -0.085304
  H     -5.719418    2.425744   -0.200852
  H     -5.228768    1.348882    1.109784
  H     -5.436398    3.081520    1.420743
  H     -2.219214   -0.909341    2.393703
  H     -3.774146   -1.738630    2.092790
  H     -1.181347   -2.124817    0.500901
  H     -1.891434   -3.284784    1.636443
  H     -2.721500   -2.896253    0.118897

 Total Charge           Charge          ....    0
 Multiplicity           Mult            ....    1
 Number of Electrons    NEL             ....  202
 Basis Dimension        Dim             ....  334

ORBITAL ENERGIES
----------------

  NO   OCC          E(Eh)            E(eV)
   0   2.0000     -88.042593     -2395.7608
   1   2.0000     -88.040185     -2395.6952
   2   2.0000     -87.988881     -2394.2992
   3   2.0000     -87.978421     -2394.0145
   4   2.0000     -76.425924     -2079.6551
   5   2.0000     -76.424416     -2079.6141
   6   2.0000     -18.796547      -511.4800
   7   2.0000     -18.793090      -511.3860
   8   2.0000     -18.789893      -511.2990
   9   2.0000     -18.789636      -511.2920
  10   2.0000      -9.961498      -271.0661
  11   2.0000      -9.957481      -270.9568
  12   2.0000      -9.955501      -270.9030
  13   2.0000      -9.954662      -270.8801
  14   2.0000      -9.951688      -270.7992
  15   2.0000      -9.885718      -269.0041
  16   2.0000      -9.883422      -268.9416
  17   2.0000      -9.883265      -268.9373
  18   2.0000      -9.882699      -268.9219
  19   2.0000      -7.687102      -209.1767
  20   2.0000      -7.685302      -209.1277
  21   2.0000      -7.633820      -207.7268
  22   2.0000      -7.623682      -207.4509
  23   2.0000      -6.423604      -174.7951
  24   2.0000      -6.421537      -174.7389
  25   2.0000      -5.714756      -155.5064
  26   2.0000      -5.713197      -155.4640
  27   2.0000      -5.711683      -155.4228
  28   2.0000      -5.710011      -155.3773
  29   2.0000      -5.704290      -155.2216
  30   2.0000      -5.702018      -155.1598
  31   2.0000      -5.662525      -154.0851
  32   2.0000      -5.654558      -153.8683
  33   2.0000      -5.654097      -153.8558
  34   2.0000      -5.652869      -153.8224
  35   2.0000      -5.644212      -153.5868
  36   2.0000      -5.643666      -153.5719
  37   2.0000      -4.646224      -126.4302
  38   2.0000      -4.645220      -126.4029
  39   2.0000      -4.644558      -126.3848
  40   2.0000      -4.644138      -126.3734
  41   2.0000      -4.643584      -126.3584
  42   2.0000      -4.641359      -126.2978
  43   2.0000      -0.988907       -26.9095
  44   2.0000      -0.987044       -26.8588
  45   2.0000      -0.946034       -25.7429
  46   2.0000      -0.944525       -25.7018
  47   2.0000      -0.764458       -20.8020
  48   2.0000      -0.720868       -19.6158
  49   2.0000      -0.710365       -19.3300
  50   2.0000      -0.691964       -18.8293
  51   2.0000      -0.686636       -18.6843
  52   2.0000      -0.674440       -18.3525
  53   2.0000      -0.650291       -17.6953
  54   2.0000      -0.639393       -17.3988
  55   2.0000      -0.597572       -16.2608
  56   2.0000      -0.588665       -16.0184
  57   2.0000      -0.576164       -15.6782
  58   2.0000      -0.575264       -15.6537
  59   2.0000      -0.561448       -15.2778
  60   2.0000      -0.505226       -13.7479
  61   2.0000      -0.500503       -13.6194
  62   2.0000      -0.473471       -12.8838
  63   2.0000      -0.469975       -12.7887
  64   2.0000      -0.461791       -12.5660
  65   2.0000      -0.447488       -12.1768
  66   2.0000      -0.439345       -11.9552
  67   2.0000      -0.436909       -11.8889
  68   2.0000      -0.433128       -11.7860
  69   2.0000      -0.416976       -11.3465
  70   2.0000      -0.412655       -11.2289
  71   2.0000      -0.399748       -10.8777
  72   2.0000      -0.397543       -10.8177
  73   2.0000      -0.385507       -10.4902
  74   2.0000      -0.376643       -10.2490
  75   2.0000      -0.373779       -10.1710
  76   2.0000      -0.365617        -9.9489
  77   2.0000      -0.356632        -9.7045
  78   2.0000      -0.355198        -9.6654
  79   2.0000      -0.350900        -9.5485
  80   2.0000      -0.348304        -9.4778
  81   2.0000      -0.346672        -9.4334
  82   2.0000      -0.342234        -9.3127
  83   2.0000      -0.338428        -9.2091
  84   2.0000      -0.335312        -9.1243
  85   2.0000      -0.321294        -8.7429
  86   2.0000      -0.311358        -8.4725
  87   2.0000      -0.297670        -8.1000
  88   2.0000      -0.295518        -8.0414
  89   2.0000      -0.290039        -7.8924
  90   2.0000      -0.288145        -7.8408
  91   2.0000      -0.278273        -7.5722
  92   2.0000      -0.277707        -7.5568
  93   2.0000      -0.263537        -7.1712
  94   2.0000      -0.259522        -7.0620
  95   2.0000      -0.237959        -6.4752
  96   2.0000      -0.216235        -5.8840
  97   2.0000      -0.210021        -5.7149
  98   2.0000      -0.204105        -5.5540
  99   2.0000      -0.195853        -5.3294
 100   2.0000      -0.186910        -5.0861
 101   0.0000      -0.043276        -1.1776
 102   0.0000      -0.027567        -0.7501
 103   0.0000      -0.006920        -0.1883
 104   0.0000       0.005171         0.1407
 105   0.0000       0.011610         0.3159

MULLIKEN ATOMIC CHARGES
-----------------------
   0 C :   -0.314679
   1 C :   -0.006341
   2 O :   -0.373815
   3 P :    0.605611
   4 S :   -0.346481
   5 O :   -0.357233
   6 C :   -0.001474
   7 C :   -0.308149
   8 S :   -0.036511
   9 C :   -0.355881
  10 S :   -0.097431
  11 P :    0.578822
  12 S :   -0.298595
  13 O :   -0.355785
  14 C :   -0.009988
  15 C :   -0.288925
  16 O :   -0.382682
  17 C :   -0.021283
  18 C :   -0.340494
  19 H :    0.120540
  20 H :    0.124586
  21 H :    0.113094
  22 H :    0.111386
  23 H :    0.104929
  24 H :    0.108955
  25 H :    0.104083
  26 H :    0.105885
  27 H :    0.131697
  28 H :    0.121127
  29 H :    0.187329
  30 H :    0.194092
  31 H :    0.096977
  32 H :    0.107115
  33 H :    0.120614
  34 H :    0.121237
  35 H :    0.108442
  36 H :    0.122825
  37 H :    0.108827
  38 H :    0.158320
  39 H :    0.108803
  40 H :    0.130455
Sum of atomic charges:    0.0000000

LOEWDIN ATOMIC CHARGES
----------------------
   0 C :   -0.368789
   1 C :   -0.120975
   2 O :   -0.245283
   3 P :    0.566918
   4 S :   -0.331014
   5 O :   -0.239379
   6 C :   -0.109986
   7 C :   -0.363947
   8 S :    0.113893
   9 C :   -0.477697
  10 S :    0.072969
  11 P :    0.562261
  12 S :   -0.304220
  13 O :   -0.239459
  14 C :   -0.117442
  15 C :   -0.358900
  16 O :   -0.245348
  17 C :   -0.113602
  18 C :   -0.377683
  19 H :    0.126071
  20 H :    0.120467
  21 H :    0.131056
  22 H :    0.109420
  23 H :    0.118502
  24 H :    0.119093
  25 H :    0.111025
  26 H :    0.127935
  27 H :    0.126112
  28 H :    0.120835
  29 H :    0.134680
  30 H :    0.131413
  31 H :    0.101598
  32 H :    0.119817
  33 H :    0.129103
  34 H :    0.126112
  35 H :    0.128664
  36 H :    0.107534
  37 H :    0.121290
  38 H :    0.127293
  39 H :    0.127722
  40 H :    0.131939

  Mayer bond orders larger than 0.100000
B(  0-C ,  1-C ) :   1.1652 B(  0-C , 19-H ) :   0.9452 B(  0-C , 20-H ) :   0.9354
B(  0-C , 21-H ) :   0.9382 B(  1-C ,  2-O ) :   0.9089 B(  1-C , 22-H ) :   0.9137
B(  1-C , 23-H ) :   0.9333 B(  2-O ,  3-P ) :   1.1048 B(  3-P ,  4-S ) :   1.5798
B(  3-P ,  5-O ) :   1.1228 B(  3-P ,  8-S ) :   0.9783 B(  4-S ,  8-S ) :   0.1132
B(  5-O ,  6-C ) :   0.8888 B(  6-C ,  7-C ) :   1.1715 B(  6-C , 24-H ) :   0.9342
B(  6-C , 25-H ) :   0.9175 B(  7-C , 26-H ) :   0.9380 B(  7-C , 27-H ) :   0.9302
B(  7-C , 28-H ) :   0.9381 B(  8-S ,  9-C ) :   1.0051 B(  9-C , 10-S ) :   1.0006
B(  9-C , 29-H ) :   0.8955 B(  9-C , 30-H ) :   0.8830 B( 10-S , 11-P ) :   0.9368
B( 10-S , 12-S ) :   0.1157 B( 11-P , 12-S ) :   1.6742 B( 11-P , 13-O ) :   1.1211
B( 11-P , 16-O ) :   1.0774 B( 13-O , 14-C ) :   0.8959 B( 14-C , 15-C ) :   1.1648
B( 14-C , 31-H ) :   0.9112 B( 14-C , 32-H ) :   0.9362 B( 15-C , 33-H ) :   0.9470
B( 15-C , 34-H ) :   0.9431 B( 15-C , 35-H ) :   0.9403 B( 16-O , 17-C ) :   0.9085
B( 17-C , 18-C ) :   1.1704 B( 17-C , 36-H ) :   0.9242 B( 17-C , 37-H ) :   0.9307
B( 18-C , 38-H ) :   0.9165 B( 18-C , 39-H ) :   0.9318 B( 18-C , 40-H ) :   0.9373

Dispersion correction           -0.066019219
FINAL SINGLE POINT ENERGY     -2929.517937473109

DIPOLE MOMENT
-------------

Method             : SCF
Type of density    : Electron Density
Multiplicity       :   1
Irrep              :   0
Energy             : -2929.6367052336649976 Eh
Relativity type    :
Basis              : AO
                                X                 Y                 Z
Electronic contribution:      2.260413038       3.873673954     -11.382643530
Nuclear contribution   :     -2.210762834      -4.019540953      12.549437898
                        -----------------------------------------
Total Dipole Moment    :      0.049650205      -0.145867000       1.166794368
                        -----------------------------------------
Magnitude (a.u.)       :      1.176924561
Magnitude (Debye)      :      2.991504495

Rotational constants in cm-1:             0.013197             0.004828             0.004484
Rotational constants in MHz :           395.643183           144.730776           134.438809

                             ****ORCA TERMINATED NORMALLY****
TOTAL RUN TIME: 0 days 0 hours 0 minutes 21 seconds 623 msec
