                         Program Version 6.0.0  -   RELEASE  -
|  1> ! pbe def2-sv(p) def2/J RI DEFGRID1 loosescf d4 GCP(DFT/SV(P)) printgap
|  2> %output
|  3>     printlevel normal
|  4> end
|  5> * xyz 0 1
|  6> C 5.1336807089 -0.0818493446 -1.4506940583
|  7> C 4.4833443267 1.0319377133 -0.6543968859
|  8> O 3.5482654483 0.5156277093 0.3117614011
|  9> P 2.0099848197 0.2926759417 -0.0131286418
| 10> S 1.1346578877 1.782359527 -0.9313540616
| 11> O 1.3906709165 0.0201732088 1.4079463674
| 12> C 1.8229966963 -1.0406586521 2.2983915361
| 13> C 2.8553038319 -0.5331063845 3.2828990027
| 14> S 1.9693437846 -1.5632498163 -1.0489156107
| 15> C 0.2188710789 -1.5658935709 -1.4870172606
| 16> S -0.8751414309 -1.8036658931 -0.0442483111
| 17> P -2.0087170305 -0.0329934182 -0.1038452402
| 18> S -2.2460940065 0.7988501787 -1.8675997385
| 19> O -1.3670876867 0.8293493337 1.0546104183
| 20> C -1.5976335911 2.2461412839 1.1839762796
| 21> C -3.0445583807 2.5573784652 1.4980893136
| 22> O -3.363799061 -0.5002679862 0.5845538933
| 23> C -4.3463795539 -1.2710668584 -0.1348763936
| 24> C -5.6578900826 -1.1767754932 0.6182671954
| 25> H 5.5863867318 -0.8056312387 -0.77911511
| 26> H 4.399160618 -0.5913612761 -2.0697910681
| 27> H 5.9010478819 0.3434709112 -2.0895388007
| 28> H 3.9592010821 1.7372419364 -1.3075527196
| 29> H 5.2187218853 1.5713299372 -0.0547839389
| 30> H 0.9065545269 -1.356257906 2.8013272845
| 31> H 2.2168776788 -1.8672264145 1.7002626856
| 32> H 3.754504563 -0.220662001 2.7591626573
| 33> H 2.4594163238 0.3138776576 3.8365487304
| 34> H 3.1020955578 -1.3310191241 3.9763286829
| 35> H 0.0765619304 -2.4092328596 -2.1576918667
| 36> H -0.0474184483 -0.624290712 -1.9758146551
| 37> H -0.9268145647 2.5418695798 1.9921698543
| 38> H -1.2822463565 2.7342383052 0.2554305101
| 39> H -3.1490973426 3.621499601 1.6854000952
| 40> H -3.6719447804 2.2835123565 0.6504607978
| 41> H -3.3670597387 1.9980021772 2.3723820283
| 42> H -4.4327187071 -0.8648193813 -1.1484664267
| 43> H -3.9928958246 -2.3041547951 -0.1929984531
| 44> H -5.5284147424 -1.5432794251 1.6323248627
| 45> H -5.9956433534 -0.1450187593 0.6567215207
| 46> H -6.403447488 -1.7787053784 0.1093926488
| 47> *
| 48>
| 49>                          ****END OF INPUT****

CARTESIAN COORDINATES (ANGSTROEM)
---------------------------------
  C      5.133681   -0.081849   -1.450694
  C      4.483344    1.031938   -0.654397
  O      3.548265    0.515628    0.311761
  P      2.009985    0.292676   -0.013129
  S      1.134658    1.782360   -0.931354
  O      1.390671    0.020173    1.407946
  C      1.822997   -1.040659    2.298392
  C      2.855304   -0.533106    3.282899
  S      1.969344   -1.563250   -1.048916
  C      0.218871   -1.565894   -1.487017
  S     -0.875141   -1.803666   -0.044248
  P     -2.008717   -0.032993   -0.103845
  S     -2.246094    0.798850   -1.867600
  O     -1.367088    0.829349    1.054610
  C     -1.597634    2.246141    1.183976
  C     -3.044558    2.557378    1.498089
  O     -3.363799   -0.500268    0.584554
  C     -4.346380   -1.271067   -0.134876
  C     -5.657890   -1.176775    0.618267
  H      5.586387   -0.805631   -0.779115
  H      4.399161   -0.591361   -2.069791
  H      5.901048    0.343471   -2.089539
  H      3.959201    1.737242   -1.307553
  H      5.218722    1.571330   -0.054784
  H      0.906555   -1.356258    2.801327
  H      2.216878   -1.867226    1.700263
  H      3.754505   -0.220662    2.759163
  H      2.459416    0.313878    3.836549
  H      3.102096   -1.331019    3.976329
  H      0.076562   -2.409233   -2.157692
  H     -0.047418   -0.624291   -1.975815
  H     -0.926815    2.541870    1.992170
  H     -1.282246    2.734238    0.255431
  H     -3.149097    3.621500    1.685400
  H     -3.671945    2.283512    0.650461
  H     -3.367060    1.998002    2.372382
  H     -4.432719   -0.864819   -1.148466
  H     -3.992896   -2.304155   -0.192998
  H     -5.528415   -1.543279    1.632325
  H     -5.995643   -0.145019    0.656722
  H     -6.403447   -1.778705    0.109393

 Total Charge           Charge          ....    0
 Multiplicity           Mult            ....    1
 Number of Electrons    NEL             ....  202
 Basis Dimension        Dim             ....  334

ORBITAL ENERGIES
----------------

  NO   OCC          E(Eh)            E(eV)
   0   2.0000     -88.044560     -2395.8143
   1   2.0000     -88.040183     -2395.6952
   2   2.0000     -87.980230     -2394.0638
   3   2.0000     -87.979917     -2394.0553
   4   2.0000     -76.424013     -2079.6031
   5   2.0000     -76.419568     -2079.4822
   6   2.0000     -18.796254      -511.4721
   7   2.0000     -18.789169      -511.2793
   8   2.0000     -18.787818      -511.2425
   9   2.0000     -18.779934      -511.0280
  10   2.0000      -9.954048      -270.8634
  11   2.0000      -9.954009      -270.8624
  12   2.0000      -9.951696      -270.7994
  13   2.0000      -9.947702      -270.6907
  14   2.0000      -9.938848      -270.4498
  15   2.0000      -9.887117      -269.0421
  16   2.0000      -9.885686      -269.0032
  17   2.0000      -9.884670      -268.9756
  18   2.0000      -9.875411      -268.7236
  19   2.0000      -7.689588      -209.2443
  20   2.0000      -7.685450      -209.1317
  21   2.0000      -7.625249      -207.4936
  22   2.0000      -7.624852      -207.4828
  23   2.0000      -6.421679      -174.7428
  24   2.0000      -6.417235      -174.6219
  25   2.0000      -5.717315      -155.5761
  26   2.0000      -5.713899      -155.4831
  27   2.0000      -5.713301      -155.4668
  28   2.0000      -5.709947      -155.3756
  29   2.0000      -5.706892      -155.2924
  30   2.0000      -5.702394      -155.1700
  31   2.0000      -5.654261      -153.8603
  32   2.0000      -5.653705      -153.8451
  33   2.0000      -5.645695      -153.6272
  34   2.0000      -5.645679      -153.6267
  35   2.0000      -5.645441      -153.6203
  36   2.0000      -5.644880      -153.6050
  37   2.0000      -4.644538      -126.3843
  38   2.0000      -4.643523      -126.3567
  39   2.0000      -4.641761      -126.3087
  40   2.0000      -4.639482      -126.2467
  41   2.0000      -4.638936      -126.2319
  42   2.0000      -4.638019      -126.2069
  43   2.0000      -0.988112       -26.8879
  44   2.0000      -0.980153       -26.6713
  45   2.0000      -0.945227       -25.7209
  46   2.0000      -0.937585       -25.5130
  47   2.0000      -0.761705       -20.7271
  48   2.0000      -0.719517       -19.5790
  49   2.0000      -0.708156       -19.2699
  50   2.0000      -0.690963       -18.8021
  51   2.0000      -0.682907       -18.5828
  52   2.0000      -0.672265       -18.2933
  53   2.0000      -0.647012       -17.6061
  54   2.0000      -0.630539       -17.1578
  55   2.0000      -0.597215       -16.2510
  56   2.0000      -0.589450       -16.0398
  57   2.0000      -0.573645       -15.6097
  58   2.0000      -0.563176       -15.3248
  59   2.0000      -0.557157       -15.1610
  60   2.0000      -0.502798       -13.6818
  61   2.0000      -0.495909       -13.4944
  62   2.0000      -0.478296       -13.0151
  63   2.0000      -0.467621       -12.7246
  64   2.0000      -0.450657       -12.2630
  65   2.0000      -0.444376       -12.0921
  66   2.0000      -0.440716       -11.9925
  67   2.0000      -0.432055       -11.7568
  68   2.0000      -0.425478       -11.5779
  69   2.0000      -0.415678       -11.3112
  70   2.0000      -0.406923       -11.0729
  71   2.0000      -0.393489       -10.7074
  72   2.0000      -0.388059       -10.5596
  73   2.0000      -0.384310       -10.4576
  74   2.0000      -0.379207       -10.3187
  75   2.0000      -0.369402       -10.0519
  76   2.0000      -0.366013        -9.9597
  77   2.0000      -0.357998        -9.7416
  78   2.0000      -0.354127        -9.6363
  79   2.0000      -0.353206        -9.6112
  80   2.0000      -0.347853        -9.4656
  81   2.0000      -0.340786        -9.2733
  82   2.0000      -0.337285        -9.1780
  83   2.0000      -0.334432        -9.1004
  84   2.0000      -0.331139        -9.0107
  85   2.0000      -0.318435        -8.6651
  86   2.0000      -0.308087        -8.3835
  87   2.0000      -0.296330        -8.0636
  88   2.0000      -0.293472        -7.9858
  89   2.0000      -0.290665        -7.9094
  90   2.0000      -0.276225        -7.5165
  91   2.0000      -0.271306        -7.3826
  92   2.0000      -0.264004        -7.1839
  93   2.0000      -0.261204        -7.1077
  94   2.0000      -0.256377        -6.9764
  95   2.0000      -0.237225        -6.4552
  96   2.0000      -0.220995        -6.0136
  97   2.0000      -0.213356        -5.8057
  98   2.0000      -0.201746        -5.4898
  99   2.0000      -0.191604        -5.2138
 100   2.0000      -0.183839        -5.0025
 101   0.0000      -0.037289        -1.0147
 102   0.0000      -0.027654        -0.7525
 103   0.0000      -0.008448        -0.2299
 104   0.0000       0.013394         0.3645
 105   0.0000       0.025262         0.6874

MULLIKEN ATOMIC CHARGES
-----------------------
   0 C :   -0.309613
   1 C :   -0.006423
   2 O :   -0.378631
   3 P :    0.598943
   4 S :   -0.297468
   5 O :   -0.342271
   6 C :   -0.011371
   7 C :   -0.287037
   8 S :   -0.107811
   9 C :   -0.357495
  10 S :   -0.103950
  11 P :    0.612255
  12 S :   -0.319779
  13 O :   -0.351291
  14 C :   -0.001161
  15 C :   -0.304879
  16 O :   -0.379099
  17 C :   -0.009121
  18 C :   -0.280791
  19 H :    0.113156
  20 H :    0.129560
  21 H :    0.114213
  22 H :    0.108287
  23 H :    0.107041
  24 H :    0.109998
  25 H :    0.100614
  26 H :    0.119782
  27 H :    0.117489
  28 H :    0.108248
  29 H :    0.182723
  30 H :    0.211803
  31 H :    0.101125
  32 H :    0.123969
  33 H :    0.109091
  34 H :    0.121124
  35 H :    0.112005
  36 H :    0.103335
  37 H :    0.097996
  38 H :    0.115283
  39 H :    0.119528
  40 H :    0.110624
Sum of atomic charges:    0.0000000

LOEWDIN ATOMIC CHARGES
----------------------
   0 C :   -0.366841
   1 C :   -0.118817
   2 O :   -0.246037
   3 P :    0.561970
   4 S :   -0.289589
   5 O :   -0.225430
   6 C :   -0.117620
   7 C :   -0.360047
   8 S :    0.074574
   9 C :   -0.479690
  10 S :    0.074981
  11 P :    0.568747
  12 S :   -0.313311
  13 O :   -0.228587
  14 C :   -0.117165
  15 C :   -0.366874
  16 O :   -0.249141
  17 C :   -0.123275
  18 C :   -0.350354
  19 H :    0.124764
  20 H :    0.119866
  21 H :    0.132233
  22 H :    0.109686
  23 H :    0.119269
  24 H :    0.119554
  25 H :    0.101652
  26 H :    0.124748
  27 H :    0.127560
  28 H :    0.128944
  29 H :    0.137540
  30 H :    0.127122
  31 H :    0.118200
  32 H :    0.110067
  33 H :    0.129147
  34 H :    0.120452
  35 H :    0.123687
  36 H :    0.106571
  37 H :    0.107288
  38 H :    0.126274
  39 H :    0.127750
  40 H :    0.130128

  Mayer bond orders larger than 0.100000
B(  0-C ,  1-C ) :   1.1672 B(  0-C , 19-H ) :   0.9484 B(  0-C , 20-H ) :   0.9331
B(  0-C , 21-H ) :   0.9393 B(  1-C ,  2-O ) :   0.9035 B(  1-C , 22-H ) :   0.9054
B(  1-C , 23-H ) :   0.9346 B(  2-O ,  3-P ) :   1.0834 B(  3-P ,  4-S ) :   1.6573
B(  3-P ,  5-O ) :   1.1494 B(  3-P ,  8-S ) :   0.9445 B(  4-S ,  8-S ) :   0.1043
B(  5-O ,  6-C ) :   0.8904 B(  6-C ,  7-C ) :   1.1637 B(  6-C , 24-H ) :   0.9325
B(  6-C , 25-H ) :   0.9098 B(  7-C , 26-H ) :   0.9410 B(  7-C , 27-H ) :   0.9475
B(  7-C , 28-H ) :   0.9399 B(  8-S ,  9-C ) :   1.0002 B(  9-C , 10-S ) :   0.9933
B(  9-C , 29-H ) :   0.9116 B(  9-C , 30-H ) :   0.8467 B( 10-S , 11-P ) :   0.9614
B( 10-S , 12-S ) :   0.1167 B( 11-P , 12-S ) :   1.6059 B( 11-P , 13-O ) :   1.1565
B( 11-P , 16-O ) :   1.0923 B( 13-O , 14-C ) :   0.8997 B( 14-C , 15-C ) :   1.1590
B( 14-C , 31-H ) :   0.9360 B( 14-C , 32-H ) :   0.9129 B( 15-C , 33-H ) :   0.9387
B( 15-C , 34-H ) :   0.9349 B( 15-C , 35-H ) :   0.9447 B( 16-O , 17-C ) :   0.9080
B( 17-C , 18-C ) :   1.1599 B( 17-C , 36-H ) :   0.9072 B( 17-C , 37-H ) :   0.9274
B( 18-C , 38-H ) :   0.9504 B( 18-C , 39-H ) :   0.9517 B( 18-C , 40-H ) :   0.9423

Dispersion correction           -0.066506183
FINAL SINGLE POINT ENERGY     -2929.521758699092

DIPOLE MOMENT
-------------

Method             : SCF
Type of density    : Electron Density
Multiplicity       :   1
Irrep              :   0
Energy             : -2929.6405731506724806 Eh
Relativity type    :
Basis              : AO
                                X                 Y                 Z
Electronic contribution:      1.642959667      -1.835737514     -11.218654551
Nuclear contribution   :     -1.139469542       1.026322738      12.136827439
                        -----------------------------------------
Total Dipole Moment    :      0.503490125      -0.809414776       0.918172889
                        -----------------------------------------
Magnitude (a.u.)       :      1.323516543
Magnitude (Debye)      :      3.364111702

Rotational constants in cm-1:             0.013552             0.004894             0.004833
Rotational constants in MHz :           406.283112           146.718265           144.900417

                             ****ORCA TERMINATED NORMALLY****
TOTAL RUN TIME: 0 days 0 hours 0 minutes 20 seconds 936 msec
