                         Program Version 6.0.0  -   RELEASE  -
|  1> ! pbe def2-sv(p) def2/J RI DEFGRID1 loosescf d4 GCP(DFT/SV(P)) printgap
|  2> %output
|  3>     printlevel normal
|  4> end
|  5> * xyz 0 1
|  6> C 3.1636526939 -3.3380543101 -0.0344818729
|  7> C 3.2714077881 -1.9112860694 0.459952776
|  8> O 2.3349852171 -1.1157283089 -0.3084079141
|  9> P 2.3580689606 0.4595513212 -0.2155980335
| 10> S 4.0943651383 1.3294924311 -0.4977652536
| 11> O 1.7759117556 0.7144074934 1.2565793942
| 12> C 1.9566990777 1.9822166171 1.9046310636
| 13> C 1.0941192736 3.0578504287 1.2745539663
| 14> S 0.8128346045 0.9345915335 -1.5793737648
| 15> C 0.0405837432 -0.686036046 -1.9014766879
| 16> S -0.6842102611 -1.4838850249 -0.4573799521
| 17> P -2.1997637236 -0.0320119383 -0.0480893378
| 18> S -2.7560575014 1.1192944386 -1.526316688
| 19> O -1.6294412713 0.776166057 1.1850778253
| 20> C -1.3432484741 0.1260547057 2.4492030051
| 21> C -2.442255398 0.410968525 3.4515566096
| 22> O -3.3611527375 -0.883331407 0.6309143383
| 23> C -4.4107757723 -1.5004070801 -0.1347381291
| 24> C -3.8966648162 -2.5991090855 -1.0421885703
| 25> H 3.4511331242 -3.3962280411 -1.0803219314
| 26> H 3.8236010313 -3.9680525423 0.5527491023
| 27> H 2.1400381791 -3.6870980087 0.0706819723
| 28> H 4.2754574937 -1.4998655131 0.3132343857
| 29> H 3.0003208329 -1.8299906196 1.5148692407
| 30> H 1.6877188902 1.8005779026 2.9462385781
| 31> H 3.0154638538 2.2555776222 1.8391046432
| 32> H 1.1853825861 3.9782416767 1.8419765317
| 33> H 1.4236524776 3.2395362656 0.2504087901
| 34> H 0.0508408593 2.7498609417 1.2487474247
| 35> H 0.7765093107 -1.3730379065 -2.3079081986
| 36> H -0.7417105134 -0.4608040823 -2.6265803558
| 37> H -1.2283812888 -0.9479510855 2.278356779
| 38> H -0.389474261 0.5448075043 2.7727021564
| 39> H -2.1722786178 -0.0256218605 4.4080386796
| 40> H -2.5700654193 1.4835697508 3.5690843147
| 41> H -3.3810161251 -0.0186105812 3.1125770816
| 42> H -5.0903760464 -1.8915522151 0.6237543971
| 43> H -4.912158929 -0.7227708899 -0.7188175415
| 44> H -4.739742047 -3.1154072088 -1.4899762653
| 45> H -3.2859141401 -2.1712336265 -1.8355765353
| 46> H -3.2963889292 -3.3083911706 -0.4781267551
| 47> *
| 48>
| 49>                          ****END OF INPUT****

CARTESIAN COORDINATES (ANGSTROEM)
---------------------------------
  C      3.163653   -3.338054   -0.034482
  C      3.271408   -1.911286    0.459953
  O      2.334985   -1.115728   -0.308408
  P      2.358069    0.459551   -0.215598
  S      4.094365    1.329492   -0.497765
  O      1.775912    0.714407    1.256579
  C      1.956699    1.982217    1.904631
  C      1.094119    3.057850    1.274554
  S      0.812835    0.934592   -1.579374
  C      0.040584   -0.686036   -1.901477
  S     -0.684210   -1.483885   -0.457380
  P     -2.199764   -0.032012   -0.048089
  S     -2.756058    1.119294   -1.526317
  O     -1.629441    0.776166    1.185078
  C     -1.343248    0.126055    2.449203
  C     -2.442255    0.410969    3.451557
  O     -3.361153   -0.883331    0.630914
  C     -4.410776   -1.500407   -0.134738
  C     -3.896665   -2.599109   -1.042189
  H      3.451133   -3.396228   -1.080322
  H      3.823601   -3.968053    0.552749
  H      2.140038   -3.687098    0.070682
  H      4.275457   -1.499866    0.313234
  H      3.000321   -1.829991    1.514869
  H      1.687719    1.800578    2.946239
  H      3.015464    2.255578    1.839105
  H      1.185383    3.978242    1.841977
  H      1.423652    3.239536    0.250409
  H      0.050841    2.749861    1.248747
  H      0.776509   -1.373038   -2.307908
  H     -0.741711   -0.460804   -2.626580
  H     -1.228381   -0.947951    2.278357
  H     -0.389474    0.544808    2.772702
  H     -2.172279   -0.025622    4.408039
  H     -2.570065    1.483570    3.569084
  H     -3.381016   -0.018611    3.112577
  H     -5.090376   -1.891552    0.623754
  H     -4.912159   -0.722771   -0.718818
  H     -4.739742   -3.115407   -1.489976
  H     -3.285914   -2.171234   -1.835577
  H     -3.296389   -3.308391   -0.478127

 Total Charge           Charge          ....    0
 Multiplicity           Mult            ....    1
 Number of Electrons    NEL             ....  202
 Basis Dimension        Dim             ....  334

ORBITAL ENERGIES
----------------

  NO   OCC          E(Eh)            E(eV)
   0   2.0000     -88.044841     -2395.8219
   1   2.0000     -88.038532     -2395.6502
   2   2.0000     -87.991553     -2394.3719
   3   2.0000     -87.981872     -2394.1084
   4   2.0000     -76.430942     -2079.7917
   5   2.0000     -76.423156     -2079.5798
   6   2.0000     -18.800307      -511.5824
   7   2.0000     -18.796515      -511.4792
   8   2.0000     -18.795380      -511.4483
   9   2.0000     -18.787454      -511.2326
  10   2.0000      -9.958611      -270.9876
  11   2.0000      -9.958596      -270.9872
  12   2.0000      -9.958446      -270.9831
  13   2.0000      -9.957422      -270.9552
  14   2.0000      -9.946820      -270.6667
  15   2.0000      -9.892831      -269.1976
  16   2.0000      -9.889373      -269.1035
  17   2.0000      -9.888965      -269.0924
  18   2.0000      -9.876477      -268.7526
  19   2.0000      -7.689546      -209.2432
  20   2.0000      -7.683553      -209.0801
  21   2.0000      -7.636776      -207.8072
  22   2.0000      -7.627070      -207.5431
  23   2.0000      -6.428458      -174.9272
  24   2.0000      -6.421276      -174.7318
  25   2.0000      -5.717388      -155.5780
  26   2.0000      -5.714167      -155.4904
  27   2.0000      -5.712041      -155.4325
  28   2.0000      -5.707800      -155.3171
  29   2.0000      -5.706475      -155.2811
  30   2.0000      -5.700175      -155.1096
  31   2.0000      -5.665834      -154.1752
  32   2.0000      -5.657194      -153.9401
  33   2.0000      -5.656973      -153.9341
  34   2.0000      -5.655968      -153.9067
  35   2.0000      -5.648086      -153.6922
  36   2.0000      -5.646863      -153.6589
  37   2.0000      -4.651290      -126.5680
  38   2.0000      -4.650109      -126.5359
  39   2.0000      -4.648801      -126.5003
  40   2.0000      -4.643989      -126.3694
  41   2.0000      -4.643104      -126.3453
  42   2.0000      -4.641436      -126.2999
  43   2.0000      -0.993954       -27.0469
  44   2.0000      -0.987744       -26.8779
  45   2.0000      -0.949761       -25.8443
  46   2.0000      -0.944861       -25.7110
  47   2.0000      -0.763387       -20.7728
  48   2.0000      -0.722887       -19.6707
  49   2.0000      -0.712491       -19.3879
  50   2.0000      -0.694915       -18.9096
  51   2.0000      -0.684773       -18.6336
  52   2.0000      -0.675678       -18.3861
  53   2.0000      -0.654055       -17.7977
  54   2.0000      -0.637756       -17.3542
  55   2.0000      -0.600053       -16.3283
  56   2.0000      -0.590624       -16.0717
  57   2.0000      -0.578273       -15.7356
  58   2.0000      -0.572811       -15.5870
  59   2.0000      -0.562765       -15.3136
  60   2.0000      -0.507763       -13.8169
  61   2.0000      -0.504640       -13.7320
  62   2.0000      -0.479212       -13.0400
  63   2.0000      -0.472536       -12.8584
  64   2.0000      -0.461280       -12.5521
  65   2.0000      -0.452870       -12.3232
  66   2.0000      -0.446008       -12.1365
  67   2.0000      -0.433148       -11.7866
  68   2.0000      -0.427748       -11.6396
  69   2.0000      -0.422352       -11.4928
  70   2.0000      -0.412354       -11.2207
  71   2.0000      -0.399422       -10.8688
  72   2.0000      -0.396248       -10.7824
  73   2.0000      -0.386851       -10.5267
  74   2.0000      -0.381649       -10.3852
  75   2.0000      -0.372594       -10.1388
  76   2.0000      -0.366907        -9.9841
  77   2.0000      -0.361654        -9.8411
  78   2.0000      -0.359365        -9.7788
  79   2.0000      -0.357012        -9.7148
  80   2.0000      -0.350810        -9.5460
  81   2.0000      -0.347098        -9.4450
  82   2.0000      -0.346254        -9.4220
  83   2.0000      -0.337141        -9.1741
  84   2.0000      -0.329027        -8.9533
  85   2.0000      -0.325466        -8.8564
  86   2.0000      -0.311292        -8.4707
  87   2.0000      -0.304852        -8.2954
  88   2.0000      -0.299111        -8.1392
  89   2.0000      -0.296509        -8.0684
  90   2.0000      -0.292426        -7.9573
  91   2.0000      -0.278202        -7.5703
  92   2.0000      -0.274573        -7.4715
  93   2.0000      -0.265503        -7.2247
  94   2.0000      -0.257779        -7.0145
  95   2.0000      -0.231727        -6.3056
  96   2.0000      -0.218856        -5.9554
  97   2.0000      -0.210158        -5.7187
  98   2.0000      -0.208267        -5.6672
  99   2.0000      -0.204880        -5.5751
 100   2.0000      -0.190060        -5.1718
 101   0.0000      -0.046507        -1.2655
 102   0.0000      -0.028859        -0.7853
 103   0.0000      -0.019066        -0.5188
 104   0.0000      -0.004054        -0.1103
 105   0.0000       0.009222         0.2510

MULLIKEN ATOMIC CHARGES
-----------------------
   0 C :   -0.284045
   1 C :   -0.004927
   2 O :   -0.385337
   3 P :    0.628971
   4 S :   -0.328850
   5 O :   -0.387101
   6 C :   -0.021464
   7 C :   -0.327076
   8 S :   -0.078924
   9 C :   -0.327027
  10 S :   -0.102442
  11 P :    0.602070
  12 S :   -0.301522
  13 O :   -0.353686
  14 C :   -0.024045
  15 C :   -0.282694
  16 O :   -0.383676
  17 C :   -0.001185
  18 C :   -0.312973
  19 H :    0.120119
  20 H :    0.113580
  21 H :    0.118016
  22 H :    0.110370
  23 H :    0.103873
  24 H :    0.103234
  25 H :    0.114762
  26 H :    0.109288
  27 H :    0.120955
  28 H :    0.141540
  29 H :    0.183973
  30 H :    0.190941
  31 H :    0.101140
  32 H :    0.121527
  33 H :    0.108459
  34 H :    0.119051
  35 H :    0.119273
  36 H :    0.105105
  37 H :    0.114601
  38 H :    0.114636
  39 H :    0.124622
  40 H :    0.116870
Sum of atomic charges:   -0.0000000

LOEWDIN ATOMIC CHARGES
----------------------
   0 C :   -0.351308
   1 C :   -0.113628
   2 O :   -0.246041
   3 P :    0.565271
   4 S :   -0.324015
   5 O :   -0.251691
   6 C :   -0.128921
   7 C :   -0.370295
   8 S :    0.096510
   9 C :   -0.475180
  10 S :    0.075551
  11 P :    0.573373
  12 S :   -0.298942
  13 O :   -0.232426
  14 C :   -0.115597
  15 C :   -0.356993
  16 O :   -0.249025
  17 C :   -0.116897
  18 C :   -0.369894
  19 H :    0.128278
  20 H :    0.132002
  21 H :    0.126077
  22 H :    0.112523
  23 H :    0.113137
  24 H :    0.110470
  25 H :    0.107720
  26 H :    0.129287
  27 H :    0.120113
  28 H :    0.129067
  29 H :    0.135884
  30 H :    0.131422
  31 H :    0.104238
  32 H :    0.119080
  33 H :    0.129024
  34 H :    0.128610
  35 H :    0.126047
  36 H :    0.118583
  37 H :    0.113374
  38 H :    0.131682
  39 H :    0.120380
  40 H :    0.123150

  Mayer bond orders larger than 0.100000
B(  0-C ,  1-C ) :   1.1611 B(  0-C , 19-H ) :   0.9507 B(  0-C , 20-H ) :   0.9410
B(  0-C , 21-H ) :   0.9498 B(  1-C ,  2-O ) :   0.8882 B(  1-C , 22-H ) :   0.9146
B(  1-C , 23-H ) :   0.9287 B(  2-O ,  3-P ) :   1.1090 B(  3-P ,  4-S ) :   1.6546
B(  3-P ,  5-O ) :   1.0588 B(  3-P ,  8-S ) :   0.9719 B(  5-O ,  6-C ) :   0.9100
B(  6-C ,  7-C ) :   1.1645 B(  6-C , 24-H ) :   0.9220 B(  6-C , 25-H ) :   0.9075
B(  7-C , 26-H ) :   0.9385 B(  7-C , 27-H ) :   0.9339 B(  7-C , 28-H ) :   0.9329
B(  8-S ,  9-C ) :   1.0007 B(  9-C , 10-S ) :   1.0067 B(  9-C , 29-H ) :   0.9027
B(  9-C , 30-H ) :   0.8831 B( 10-S , 11-P ) :   0.9448 B( 10-S , 12-S ) :   0.1118
B( 11-P , 12-S ) :   1.6396 B( 11-P , 13-O ) :   1.1259 B( 11-P , 16-O ) :   1.0732
B( 13-O , 14-C ) :   0.8850 B( 14-C , 15-C ) :   1.1619 B( 14-C , 31-H ) :   0.9153
B( 14-C , 32-H ) :   0.9210 B( 15-C , 33-H ) :   0.9404 B( 15-C , 34-H ) :   0.9473
B( 15-C , 35-H ) :   0.9426 B( 16-O , 17-C ) :   0.9071 B( 17-C , 18-C ) :   1.1667
B( 17-C , 36-H ) :   0.9339 B( 17-C , 37-H ) :   0.9184 B( 18-C , 38-H ) :   0.9367
B( 18-C , 39-H ) :   0.9359 B( 18-C , 40-H ) :   0.9432

Dispersion correction           -0.065921914
FINAL SINGLE POINT ENERGY     -2929.518237344881

DIPOLE MOMENT
-------------

Method             : SCF
Type of density    : Electron Density
Multiplicity       :   1
Irrep              :   0
Energy             : -2929.6392167508342936 Eh
Relativity type    :
Basis              : AO
                                X                 Y                 Z
Electronic contribution:      5.969459564      10.297820864     -14.765860498
Nuclear contribution   :     -6.742926975     -12.044496880      16.160274064
                        -----------------------------------------
Total Dipole Moment    :     -0.773467411      -1.746676016       1.394413566
                        -----------------------------------------
Magnitude (a.u.)       :      2.365061973
Magnitude (Debye)      :      6.011509793

Rotational constants in cm-1:             0.011627             0.005359             0.004942
Rotational constants in MHz :           348.568385           160.664302           148.167467

                             ****ORCA TERMINATED NORMALLY****
TOTAL RUN TIME: 0 days 0 hours 0 minutes 21 seconds 692 msec
