                         Program Version 6.0.0  -   RELEASE  -
|  1> ! pbe def2-sv(p) def2/J RI DEFGRID1 loosescf d4 GCP(DFT/SV(P)) printgap
|  2> %output
|  3>     printlevel normal
|  4> end
|  5> * xyz 0 1
|  6> C 4.516509131 -1.3479302803 -1.2152797683
|  7> C 4.6745075907 -0.0022703923 -0.537065291
|  8> O 3.6346222582 0.2421244387 0.422521532
|  9> P 2.1131589185 0.4653833607 -0.000687118
| 10> S 1.9344167497 1.4641363412 -1.6864971503
| 11> O 1.5319455998 1.0381747018 1.3546081675
| 12> C 2.0449520906 2.1996905332 2.0406071236
| 13> C 1.6933973391 3.484893288 1.3187832977
| 14> S 1.2207285106 -1.4473505092 0.0650581969
| 15> C 0.2876334511 -1.4298199905 -1.5073542454
| 16> S -1.4015045241 -2.0583288569 -1.3246372008
| 17> P -2.2782157528 -0.4977733232 -0.1973400653
| 18> S -1.3268104804 1.2212280047 -0.1001804541
| 19> O -2.7006589919 -1.1777979565 1.1798105058
| 20> C -1.8027160881 -1.7815055208 2.1263090725
| 21> C -1.1195406627 -0.749244051 3.0019643985
| 22> O -3.6787054942 -0.4248563289 -0.9266712291
| 23> C -4.5172716452 0.7458090213 -0.8714240932
| 24> C -5.1182654493 0.9320294297 0.5059039427
| 25> H 4.4112011077 -2.1355634165 -0.4735562622
| 26> H 3.6309870479 -1.3380490457 -1.8498060448
| 27> H 5.3875824806 -1.5444429162 -1.8319031276
| 28> H 4.6582083744 0.803971812 -1.277544356
| 29> H 5.5918970292 0.0488145549 0.0508258693
| 30> H 1.5604799481 2.1504777 3.017512993
| 31> H 3.1260212444 2.0898799321 2.1547763388
| 32> H 2.2203365948 3.5460289442 0.3681894907
| 33> H 0.6242158256 3.5154063698 1.1177211598
| 34> H 1.9704397355 4.334658603 1.9343161924
| 35> H 0.7696603688 -2.1064893706 -2.2082915412
| 36> H 0.2775958799 -0.4054658635 -1.8898917472
| 37> H -2.4489959574 -2.4344888777 2.7159476947
| 38> H -1.0642723455 -2.3854443466 1.5883380403
| 39> H -1.8594185326 -0.1304582832 3.5026690434
| 40> H -0.5122233828 -1.2580599172 3.7435657362
| 41> H -0.4757336818 -0.1073929743 2.4036715396
| 42> H -3.9185075461 1.618134601 -1.153918055
| 43> H -5.2799132083 0.5584668279 -1.6282633403
| 44> H -4.3248385614 1.1287385306 1.2260327083
| 45> H -5.8031214706 1.7740739923 0.4919051902
| 46> H -5.649894635 0.0335626619 0.807234887
| 47> *
| 48>
| 49>                          ****END OF INPUT****

CARTESIAN COORDINATES (ANGSTROEM)
---------------------------------
  C      4.516509   -1.347930   -1.215280
  C      4.674508   -0.002270   -0.537065
  O      3.634622    0.242124    0.422522
  P      2.113159    0.465383   -0.000687
  S      1.934417    1.464136   -1.686497
  O      1.531946    1.038175    1.354608
  C      2.044952    2.199691    2.040607
  C      1.693397    3.484893    1.318783
  S      1.220729   -1.447351    0.065058
  C      0.287633   -1.429820   -1.507354
  S     -1.401505   -2.058329   -1.324637
  P     -2.278216   -0.497773   -0.197340
  S     -1.326810    1.221228   -0.100180
  O     -2.700659   -1.177798    1.179811
  C     -1.802716   -1.781506    2.126309
  C     -1.119541   -0.749244    3.001964
  O     -3.678705   -0.424856   -0.926671
  C     -4.517272    0.745809   -0.871424
  C     -5.118265    0.932029    0.505904
  H      4.411201   -2.135563   -0.473556
  H      3.630987   -1.338049   -1.849806
  H      5.387582   -1.544443   -1.831903
  H      4.658208    0.803972   -1.277544
  H      5.591897    0.048815    0.050826
  H      1.560480    2.150478    3.017513
  H      3.126021    2.089880    2.154776
  H      2.220337    3.546029    0.368189
  H      0.624216    3.515406    1.117721
  H      1.970440    4.334659    1.934316
  H      0.769660   -2.106489   -2.208292
  H      0.277596   -0.405466   -1.889892
  H     -2.448996   -2.434489    2.715948
  H     -1.064272   -2.385444    1.588338
  H     -1.859419   -0.130458    3.502669
  H     -0.512223   -1.258060    3.743566
  H     -0.475734   -0.107393    2.403672
  H     -3.918508    1.618135   -1.153918
  H     -5.279913    0.558467   -1.628263
  H     -4.324839    1.128739    1.226033
  H     -5.803121    1.774074    0.491905
  H     -5.649895    0.033563    0.807235

 Total Charge           Charge          ....    0
 Multiplicity           Mult            ....    1
 Number of Electrons    NEL             ....  202
 Basis Dimension        Dim             ....  334

ORBITAL ENERGIES
----------------

  NO   OCC          E(Eh)            E(eV)
   0   2.0000     -88.043541     -2395.7865
   1   2.0000     -88.043135     -2395.7755
   2   2.0000     -87.987596     -2394.2642
   3   2.0000     -87.981955     -2394.1107
   4   2.0000     -76.427448     -2079.6966
   5   2.0000     -76.422207     -2079.5540
   6   2.0000     -18.791679      -511.3476
   7   2.0000     -18.790347      -511.3113
   8   2.0000     -18.785327      -511.1747
   9   2.0000     -18.783988      -511.1383
  10   2.0000      -9.954348      -270.8716
  11   2.0000      -9.953066      -270.8367
  12   2.0000      -9.951606      -270.7970
  13   2.0000      -9.947386      -270.6821
  14   2.0000      -9.947245      -270.6783
  15   2.0000      -9.884878      -268.9812
  16   2.0000      -9.879200      -268.8267
  17   2.0000      -9.878200      -268.7995
  18   2.0000      -9.872929      -268.6561
  19   2.0000      -7.688503      -209.2148
  20   2.0000      -7.688288      -209.2090
  21   2.0000      -7.632443      -207.6893
  22   2.0000      -7.626481      -207.5271
  23   2.0000      -6.424532      -174.8204
  24   2.0000      -6.419650      -174.6876
  25   2.0000      -5.716503      -155.5540
  26   2.0000      -5.716150      -155.5444
  27   2.0000      -5.712911      -155.4562
  28   2.0000      -5.712882      -155.4554
  29   2.0000      -5.705434      -155.2528
  30   2.0000      -5.705175      -155.2457
  31   2.0000      -5.661336      -154.0528
  32   2.0000      -5.655377      -153.8906
  33   2.0000      -5.653292      -153.8339
  34   2.0000      -5.652400      -153.8096
  35   2.0000      -5.647323      -153.6715
  36   2.0000      -5.646490      -153.6488
  37   2.0000      -4.647173      -126.4560
  38   2.0000      -4.646082      -126.4263
  39   2.0000      -4.645194      -126.4022
  40   2.0000      -4.642016      -126.3157
  41   2.0000      -4.641584      -126.3039
  42   2.0000      -4.640156      -126.2651
  43   2.0000      -0.987582       -26.8735
  44   2.0000      -0.980700       -26.6862
  45   2.0000      -0.943217       -25.6662
  46   2.0000      -0.938834       -25.5470
  47   2.0000      -0.761085       -20.7102
  48   2.0000      -0.720356       -19.6019
  49   2.0000      -0.705554       -19.1991
  50   2.0000      -0.686587       -18.6830
  51   2.0000      -0.680653       -18.5215
  52   2.0000      -0.672692       -18.3049
  53   2.0000      -0.649788       -17.6816
  54   2.0000      -0.635159       -17.2835
  55   2.0000      -0.598855       -16.2957
  56   2.0000      -0.589761       -16.0482
  57   2.0000      -0.576729       -15.6936
  58   2.0000      -0.566397       -15.4125
  59   2.0000      -0.558277       -15.1915
  60   2.0000      -0.498053       -13.5527
  61   2.0000      -0.490617       -13.3504
  62   2.0000      -0.469078       -12.7643
  63   2.0000      -0.467708       -12.7270
  64   2.0000      -0.453638       -12.3441
  65   2.0000      -0.445750       -12.1295
  66   2.0000      -0.433363       -11.7924
  67   2.0000      -0.431752       -11.7486
  68   2.0000      -0.426646       -11.6096
  69   2.0000      -0.415441       -11.3047
  70   2.0000      -0.406861       -11.0712
  71   2.0000      -0.398328       -10.8391
  72   2.0000      -0.390054       -10.6139
  73   2.0000      -0.387292       -10.5388
  74   2.0000      -0.385971       -10.5028
  75   2.0000      -0.370418       -10.0796
  76   2.0000      -0.365909        -9.9569
  77   2.0000      -0.353070        -9.6075
  78   2.0000      -0.349720        -9.5164
  79   2.0000      -0.345985        -9.4147
  80   2.0000      -0.343403        -9.3445
  81   2.0000      -0.339670        -9.2429
  82   2.0000      -0.335468        -9.1286
  83   2.0000      -0.333706        -9.0806
  84   2.0000      -0.327701        -8.9172
  85   2.0000      -0.313489        -8.5305
  86   2.0000      -0.310013        -8.4359
  87   2.0000      -0.296795        -8.0762
  88   2.0000      -0.290333        -7.9004
  89   2.0000      -0.287616        -7.8264
  90   2.0000      -0.282459        -7.6861
  91   2.0000      -0.275356        -7.4928
  92   2.0000      -0.268188        -7.2978
  93   2.0000      -0.263183        -7.1616
  94   2.0000      -0.255772        -6.9599
  95   2.0000      -0.237937        -6.4746
  96   2.0000      -0.218902        -5.9566
  97   2.0000      -0.214512        -5.8372
  98   2.0000      -0.201397        -5.4803
  99   2.0000      -0.194758        -5.2996
 100   2.0000      -0.187825        -5.1110
 101   0.0000      -0.045372        -1.2346
 102   0.0000      -0.037231        -1.0131
 103   0.0000      -0.007963        -0.2167
 104   0.0000       0.011070         0.3012
 105   0.0000       0.016227         0.4416

MULLIKEN ATOMIC CHARGES
-----------------------
   0 C :   -0.312015
   1 C :   -0.001464
   2 O :   -0.379642
   3 P :    0.639913
   4 S :   -0.311340
   5 O :   -0.357957
   6 C :    0.001230
   7 C :   -0.316644
   8 S :   -0.107313
   9 C :   -0.349420
  10 S :   -0.098249
  11 P :    0.622277
  12 S :   -0.321484
  13 O :   -0.370627
  14 C :   -0.009116
  15 C :   -0.329569
  16 O :   -0.371471
  17 C :   -0.004357
  18 C :   -0.305059
  19 H :    0.118738
  20 H :    0.117745
  21 H :    0.112552
  22 H :    0.109834
  23 H :    0.102464
  24 H :    0.106772
  25 H :    0.105590
  26 H :    0.127326
  27 H :    0.131973
  28 H :    0.107247
  29 H :    0.182245
  30 H :    0.213697
  31 H :    0.102006
  32 H :    0.105712
  33 H :    0.108100
  34 H :    0.101492
  35 H :    0.161999
  36 H :    0.113132
  37 H :    0.104635
  38 H :    0.123853
  39 H :    0.109453
  40 H :    0.115743
Sum of atomic charges:   -0.0000000

LOEWDIN ATOMIC CHARGES
----------------------
   0 C :   -0.368351
   1 C :   -0.121459
   2 O :   -0.248841
   3 P :    0.574401
   4 S :   -0.294865
   5 O :   -0.230699
   6 C :   -0.108996
   7 C :   -0.367197
   8 S :    0.084063
   9 C :   -0.477433
  10 S :    0.087462
  11 P :    0.565129
  12 S :   -0.300565
  13 O :   -0.244215
  14 C :   -0.117396
  15 C :   -0.372188
  16 O :   -0.245349
  17 C :   -0.116116
  18 C :   -0.364480
  19 H :    0.124798
  20 H :    0.118470
  21 H :    0.130452
  22 H :    0.108869
  23 H :    0.117220
  24 H :    0.119593
  25 H :    0.110752
  26 H :    0.121900
  27 H :    0.131116
  28 H :    0.127877
  29 H :    0.134155
  30 H :    0.125506
  31 H :    0.116866
  32 H :    0.097697
  33 H :    0.123002
  34 H :    0.126557
  35 H :    0.124935
  36 H :    0.110462
  37 H :    0.118663
  38 H :    0.123038
  39 H :    0.129080
  40 H :    0.126085

  Mayer bond orders larger than 0.100000
B(  0-C ,  1-C ) :   1.1649 B(  0-C , 19-H ) :   0.9439 B(  0-C , 20-H ) :   0.9371
B(  0-C , 21-H ) :   0.9382 B(  1-C ,  2-O ) :   0.9156 B(  1-C , 22-H ) :   0.9131
B(  1-C , 23-H ) :   0.9331 B(  2-O ,  3-P ) :   1.0833 B(  3-P ,  4-S ) :   1.6013
B(  3-P ,  5-O ) :   1.1276 B(  3-P ,  8-S ) :   0.9530 B(  4-S ,  8-S ) :   0.1216
B(  5-O ,  6-C ) :   0.9026 B(  6-C ,  7-C ) :   1.1653 B(  6-C , 24-H ) :   0.9344
B(  6-C , 25-H ) :   0.9269 B(  7-C , 26-H ) :   0.9357 B(  7-C , 27-H ) :   0.9433
B(  7-C , 28-H ) :   0.9377 B(  8-S ,  9-C ) :   0.9877 B(  9-C , 10-S ) :   1.0136
B(  9-C , 29-H ) :   0.9077 B(  9-C , 30-H ) :   0.8489 B( 10-S , 11-P ) :   0.9365
B( 10-S , 12-S ) :   0.1134 B( 11-P , 12-S ) :   1.6312 B( 11-P , 13-O ) :   1.1030
B( 11-P , 16-O ) :   1.1329 B( 13-O , 14-C ) :   0.9165 B( 14-C , 15-C ) :   1.1642
B( 14-C , 31-H ) :   0.9356 B( 14-C , 32-H ) :   0.9090 B( 15-C , 33-H ) :   0.9456
B( 15-C , 34-H ) :   0.9387 B( 15-C , 35-H ) :   0.9194 B( 16-O , 17-C ) :   0.9081
B( 17-C , 18-C ) :   1.1635 B( 17-C , 36-H ) :   0.9137 B( 17-C , 37-H ) :   0.9347
B( 18-C , 38-H ) :   0.9361 B( 18-C , 39-H ) :   0.9389 B( 18-C , 40-H ) :   0.9465

Dispersion correction           -0.067142066
FINAL SINGLE POINT ENERGY     -2929.520387138441

DIPOLE MOMENT
-------------

Method             : SCF
Type of density    : Electron Density
Multiplicity       :   1
Irrep              :   0
Energy             : -2929.6383584186633016 Eh
Relativity type    :
Basis              : AO
                                X                 Y                 Z
Electronic contribution:     -2.329342997      -7.556810701     -11.487244654
Nuclear contribution   :      2.830079185       7.324710074      12.312729823
                        -----------------------------------------
Total Dipole Moment    :      0.500736187      -0.232100627       0.825485169
                        -----------------------------------------
Magnitude (a.u.)       :      0.992992042
Magnitude (Debye)      :      2.523985186

Rotational constants in cm-1:             0.012582             0.005246             0.004816
Rotational constants in MHz :           377.209178           157.266258           144.386038

                             ****ORCA TERMINATED NORMALLY****
TOTAL RUN TIME: 0 days 0 hours 0 minutes 21 seconds 330 msec
