                         Program Version 6.0.0  -   RELEASE  -
|  1> ! pbe def2-sv(p) def2/J RI DEFGRID1 loosescf d4 GCP(DFT/SV(P)) printgap
|  2> %output
|  3>     printlevel normal
|  4> end
|  5> * xyz 0 1
|  6> C 4.604571172 -2.2255107213 0.126088817
|  7> C 4.5255751341 -0.7163780962 0.2396733293
|  8> O 3.8008070913 -0.1730844342 -0.8964140396
|  9> P 2.3812885661 0.4970306378 -0.7774323833
| 10> S 1.7112545328 1.0277746224 -2.5339561619
| 11> O 2.6884003826 1.6688927758 0.2551723287
| 12> C 1.7599000139 2.7137458099 0.597705949
| 13> C 1.1100220616 2.4408593217 1.9398837613
| 14> S 1.2000966643 -0.8975056169 0.3195866154
| 15> C 0.131033089 -1.4884103335 -1.0348931603
| 16> S -1.4932138424 -1.9704465783 -0.4319449045
| 17> P -2.0930724069 -0.0660117754 0.3317666696
| 18> S -1.4988614464 1.5114588569 -0.6652295465
| 19> O -1.5556871949 0.0193797039 1.8098561488
| 20> C -1.8343610946 -0.9767256755 2.8259873102
| 21> C -2.9366381484 -0.496473559 3.7473000055
| 22> O -3.6521367437 -0.269406243 0.5585769731
| 23> C -4.5790343997 -0.7789216234 -0.4177498915
| 24> C -4.5280303846 -0.0212427621 -1.7277340515
| 25> H 5.0228086875 -2.5025361666 -0.8375037168
| 26> H 5.2419652784 -2.6072055366 0.9172383971
| 27> H 3.6156661818 -2.6666322867 0.2226202498
| 28> H 5.5146582966 -0.2593037027 0.187366226
| 29> H 4.0283576269 -0.410585277 1.1626974391
| 30> H 2.3652702696 3.6217241976 0.6292875752
| 31> H 1.0097391739 2.8082303612 -0.1942369103
| 32> H 1.8711063134 2.264636976 2.6946542361
| 33> H 0.5127758346 3.3023906591 2.2208655946
| 34> H 0.456649462 1.5730387757 1.8801883851
| 35> H 0.5671242106 -2.3769975308 -1.4849112113
| 36> H 0.0353806046 -0.680842011 -1.7670212086
| 37> H -2.1038562282 -1.9175776584 2.338440662
| 38> H -0.8894425794 -1.097896478 3.3588315927
| 39> H -2.6589096225 0.4524704618 4.197314946
| 40> H -3.8600101715 -0.3615205225 3.1903956965
| 41> H -3.0923055113 -1.2331543586 4.5290881584
| 42> H -4.3595442926 -1.838488799 -0.5752109539
| 43> H -5.5505196671 -0.6679504125 0.0671939335
| 44> H -4.6809529905 1.0422221317 -1.5582874766
| 45> H -3.5572611972 -0.1548532465 -2.2039968327
| 46> H -5.3005105976 -0.3943217088 -2.3924039632
| 47> *
| 48>
| 49>                          ****END OF INPUT****

CARTESIAN COORDINATES (ANGSTROEM)
---------------------------------
  C      4.604571   -2.225511    0.126089
  C      4.525575   -0.716378    0.239673
  O      3.800807   -0.173084   -0.896414
  P      2.381289    0.497031   -0.777432
  S      1.711255    1.027775   -2.533956
  O      2.688400    1.668893    0.255172
  C      1.759900    2.713746    0.597706
  C      1.110022    2.440859    1.939884
  S      1.200097   -0.897506    0.319587
  C      0.131033   -1.488410   -1.034893
  S     -1.493214   -1.970447   -0.431945
  P     -2.093072   -0.066012    0.331767
  S     -1.498861    1.511459   -0.665230
  O     -1.555687    0.019380    1.809856
  C     -1.834361   -0.976726    2.825987
  C     -2.936638   -0.496474    3.747300
  O     -3.652137   -0.269406    0.558577
  C     -4.579034   -0.778922   -0.417750
  C     -4.528030   -0.021243   -1.727734
  H      5.022809   -2.502536   -0.837504
  H      5.241965   -2.607206    0.917238
  H      3.615666   -2.666632    0.222620
  H      5.514658   -0.259304    0.187366
  H      4.028358   -0.410585    1.162697
  H      2.365270    3.621724    0.629288
  H      1.009739    2.808230   -0.194237
  H      1.871106    2.264637    2.694654
  H      0.512776    3.302391    2.220866
  H      0.456649    1.573039    1.880188
  H      0.567124   -2.376998   -1.484911
  H      0.035381   -0.680842   -1.767021
  H     -2.103856   -1.917578    2.338441
  H     -0.889443   -1.097896    3.358832
  H     -2.658910    0.452470    4.197315
  H     -3.860010   -0.361521    3.190396
  H     -3.092306   -1.233154    4.529088
  H     -4.359544   -1.838489   -0.575211
  H     -5.550520   -0.667950    0.067194
  H     -4.680953    1.042222   -1.558287
  H     -3.557261   -0.154853   -2.203997
  H     -5.300511   -0.394322   -2.392404

 Total Charge           Charge          ....    0
 Multiplicity           Mult            ....    1
 Number of Electrons    NEL             ....  202
 Basis Dimension        Dim             ....  334

ORBITAL ENERGIES
----------------

  NO   OCC          E(Eh)            E(eV)
   0   2.0000     -88.050293     -2395.9703
   1   2.0000     -88.039541     -2395.6777
   2   2.0000     -87.982490     -2394.1253
   3   2.0000     -87.978151     -2394.0072
   4   2.0000     -76.428944     -2079.7373
   5   2.0000     -76.419401     -2079.4776
   6   2.0000     -18.799029      -511.5476
   7   2.0000     -18.793632      -511.4007
   8   2.0000     -18.784489      -511.1519
   9   2.0000     -18.784274      -511.1461
  10   2.0000      -9.962912      -271.1046
  11   2.0000      -9.958081      -270.9732
  12   2.0000      -9.954342      -270.8714
  13   2.0000      -9.953396      -270.8457
  14   2.0000      -9.939525      -270.4682
  15   2.0000      -9.889401      -269.1043
  16   2.0000      -9.885240      -268.9910
  17   2.0000      -9.884867      -268.9809
  18   2.0000      -9.869896      -268.5735
  19   2.0000      -7.695084      -209.3939
  20   2.0000      -7.684007      -209.0925
  21   2.0000      -7.627358      -207.5510
  22   2.0000      -7.623490      -207.4457
  23   2.0000      -6.425919      -174.8581
  24   2.0000      -6.417010      -174.6157
  25   2.0000      -5.722866      -155.7271
  26   2.0000      -5.719398      -155.6327
  27   2.0000      -5.712438      -155.4433
  28   2.0000      -5.711811      -155.4263
  29   2.0000      -5.708629      -155.3397
  30   2.0000      -5.701005      -155.1322
  31   2.0000      -5.656513      -153.9216
  32   2.0000      -5.652558      -153.8139
  33   2.0000      -5.647774      -153.6837
  34   2.0000      -5.647490      -153.6760
  35   2.0000      -5.643924      -153.5790
  36   2.0000      -5.643612      -153.5705
  37   2.0000      -4.648772      -126.4995
  38   2.0000      -4.648048      -126.4798
  39   2.0000      -4.645845      -126.4199
  40   2.0000      -4.639697      -126.2526
  41   2.0000      -4.638779      -126.2276
  42   2.0000      -4.637366      -126.1891
  43   2.0000      -0.992859       -27.0171
  44   2.0000      -0.980678       -26.6856
  45   2.0000      -0.949310       -25.8320
  46   2.0000      -0.936149       -25.4739
  47   2.0000      -0.763552       -20.7773
  48   2.0000      -0.720908       -19.6169
  49   2.0000      -0.711157       -19.3516
  50   2.0000      -0.694468       -18.8974
  51   2.0000      -0.682326       -18.5670
  52   2.0000      -0.674564       -18.3558
  53   2.0000      -0.650166       -17.6919
  54   2.0000      -0.631894       -17.1947
  55   2.0000      -0.592052       -16.1106
  56   2.0000      -0.584462       -15.9040
  57   2.0000      -0.578172       -15.7329
  58   2.0000      -0.570199       -15.5159
  59   2.0000      -0.562833       -15.3155
  60   2.0000      -0.506408       -13.7801
  61   2.0000      -0.497251       -13.5309
  62   2.0000      -0.478327       -13.0159
  63   2.0000      -0.470610       -12.8060
  64   2.0000      -0.455234       -12.3875
  65   2.0000      -0.448628       -12.2078
  66   2.0000      -0.441868       -12.0238
  67   2.0000      -0.434647       -11.8273
  68   2.0000      -0.430738       -11.7210
  69   2.0000      -0.415368       -11.3027
  70   2.0000      -0.413469       -11.2511
  71   2.0000      -0.401097       -10.9144
  72   2.0000      -0.392343       -10.6762
  73   2.0000      -0.387462       -10.5434
  74   2.0000      -0.374836       -10.1998
  75   2.0000      -0.363685        -9.8964
  76   2.0000      -0.360246        -9.8028
  77   2.0000      -0.357863        -9.7379
  78   2.0000      -0.354318        -9.6415
  79   2.0000      -0.349451        -9.5090
  80   2.0000      -0.347608        -9.4589
  81   2.0000      -0.343267        -9.3408
  82   2.0000      -0.342996        -9.3334
  83   2.0000      -0.338353        -9.2070
  84   2.0000      -0.324701        -8.8356
  85   2.0000      -0.322654        -8.7799
  86   2.0000      -0.308533        -8.3956
  87   2.0000      -0.300311        -8.1719
  88   2.0000      -0.295038        -8.0284
  89   2.0000      -0.293827        -7.9954
  90   2.0000      -0.282889        -7.6978
  91   2.0000      -0.281007        -7.6466
  92   2.0000      -0.269811        -7.3419
  93   2.0000      -0.264776        -7.2049
  94   2.0000      -0.254898        -6.9361
  95   2.0000      -0.235155        -6.3989
  96   2.0000      -0.221035        -6.0147
  97   2.0000      -0.207467        -5.6455
  98   2.0000      -0.197482        -5.3738
  99   2.0000      -0.194682        -5.2976
 100   2.0000      -0.186205        -5.0669
 101   0.0000      -0.045400        -1.2354
 102   0.0000      -0.031932        -0.8689
 103   0.0000      -0.014278        -0.3885
 104   0.0000       0.009973         0.2714
 105   0.0000       0.015172         0.4129

MULLIKEN ATOMIC CHARGES
-----------------------
   0 C :   -0.284050
   1 C :   -0.012070
   2 O :   -0.358717
   3 P :    0.608680
   4 S :   -0.293502
   5 O :   -0.380797
   6 C :   -0.009165
   7 C :   -0.317894
   8 S :   -0.138104
   9 C :   -0.338399
  10 S :   -0.121334
  11 P :    0.590962
  12 S :   -0.291302
  13 O :   -0.343524
  14 C :   -0.007411
  15 C :   -0.287096
  16 O :   -0.377404
  17 C :   -0.012560
  18 C :   -0.310653
  19 H :    0.119870
  20 H :    0.107163
  21 H :    0.115235
  22 H :    0.112240
  23 H :    0.104376
  24 H :    0.100334
  25 H :    0.123612
  26 H :    0.099164
  27 H :    0.106196
  28 H :    0.149821
  29 H :    0.179110
  30 H :    0.213994
  31 H :    0.097730
  32 H :    0.109398
  33 H :    0.120468
  34 H :    0.120308
  35 H :    0.109627
  36 H :    0.113570
  37 H :    0.109790
  38 H :    0.128978
  39 H :    0.130777
  40 H :    0.112581
Sum of atomic charges:    0.0000000

LOEWDIN ATOMIC CHARGES
----------------------
   0 C :   -0.359444
   1 C :   -0.112692
   2 O :   -0.241877
   3 P :    0.565889
   4 S :   -0.287812
   5 O :   -0.247327
   6 C :   -0.116490
   7 C :   -0.369004
   8 S :    0.055410
   9 C :   -0.479391
  10 S :    0.066268
  11 P :    0.564050
  12 S :   -0.286049
  13 O :   -0.227542
  14 C :   -0.116255
  15 C :   -0.358070
  16 O :   -0.245134
  17 C :   -0.115444
  18 C :   -0.368895
  19 H :    0.129155
  20 H :    0.128346
  21 H :    0.119343
  22 H :    0.122177
  23 H :    0.106395
  24 H :    0.115986
  25 H :    0.108603
  26 H :    0.117837
  27 H :    0.129783
  28 H :    0.122560
  29 H :    0.133747
  30 H :    0.123896
  31 H :    0.102191
  32 H :    0.119723
  33 H :    0.129119
  34 H :    0.126484
  35 H :    0.129245
  36 H :    0.108138
  37 H :    0.121385
  38 H :    0.131546
  39 H :    0.123349
  40 H :    0.130802

  Mayer bond orders larger than 0.100000
B(  0-C ,  1-C ) :   1.1626 B(  0-C , 19-H ) :   0.9462 B(  0-C , 20-H ) :   0.9404
B(  0-C , 21-H ) :   0.9399 B(  1-C ,  2-O ) :   0.8910 B(  1-C , 22-H ) :   0.9344
B(  1-C , 23-H ) :   0.9181 B(  2-O ,  3-P ) :   1.1352 B(  3-P ,  4-S ) :   1.6653
B(  3-P ,  5-O ) :   1.1052 B(  3-P ,  8-S ) :   0.9255 B(  4-S ,  8-S ) :   0.1177
B(  5-O ,  6-C ) :   0.8968 B(  6-C ,  7-C ) :   1.1718 B(  6-C , 24-H ) :   0.9347
B(  6-C , 25-H ) :   0.9028 B(  7-C , 26-H ) :   0.9465 B(  7-C , 27-H ) :   0.9401
B(  7-C , 28-H ) :   0.9231 B(  8-S ,  9-C ) :   0.9922 B(  9-C , 10-S ) :   1.0072
B(  9-C , 29-H ) :   0.9092 B(  9-C , 30-H ) :   0.8421 B( 10-S , 11-P ) :   0.9311
B( 10-S , 12-S ) :   0.1101 B( 11-P , 12-S ) :   1.6630 B( 11-P , 13-O ) :   1.1185
B( 11-P , 16-O ) :   1.0814 B( 13-O , 14-C ) :   0.8886 B( 14-C , 15-C ) :   1.1655
B( 14-C , 31-H ) :   0.9124 B( 14-C , 32-H ) :   0.9340 B( 15-C , 33-H ) :   0.9474
B( 15-C , 34-H ) :   0.9432 B( 15-C , 35-H ) :   0.9404 B( 16-O , 17-C ) :   0.9108
B( 17-C , 18-C ) :   1.1672 B( 17-C , 36-H ) :   0.9265 B( 17-C , 37-H ) :   0.9328
B( 18-C , 38-H ) :   0.9426 B( 18-C , 39-H ) :   0.9323 B( 18-C , 40-H ) :   0.9346

Dispersion correction           -0.065748597
FINAL SINGLE POINT ENERGY     -2929.517230514109

DIPOLE MOMENT
-------------

Method             : SCF
Type of density    : Electron Density
Multiplicity       :   1
Irrep              :   0
Energy             : -2929.6364332543439559 Eh
Relativity type    :
Basis              : AO
                                X                 Y                 Z
Electronic contribution:      5.033868990       2.922209712     -14.458600540
Nuclear contribution   :     -5.688685551      -4.208489844      16.076982612
                        -----------------------------------------
Total Dipole Moment    :     -0.654816561      -1.286280132       1.618382072
                        -----------------------------------------
Magnitude (a.u.)       :      2.168516045
Magnitude (Debye)      :      5.511929746

Rotational constants in cm-1:             0.012075             0.005010             0.004847
Rotational constants in MHz :           362.007548           150.197579           145.296896

                             ****ORCA TERMINATED NORMALLY****
TOTAL RUN TIME: 0 days 0 hours 0 minutes 21 seconds 184 msec
