                         Program Version 6.0.0  -   RELEASE  -
|  1> ! pbe def2-sv(p) def2/J RI DEFGRID1 loosescf d4 GCP(DFT/SV(P)) printgap
|  2> %output
|  3>     printlevel normal
|  4> end
|  5> * xyz 0 1
|  6> C 4.2297772391 -0.8058281981 -2.5958950255
|  7> C 4.4715692243 -1.3660964608 -1.2092886914
|  8> O 3.240967071 -1.6085254976 -0.5058207224
|  9> P 2.3091919737 -0.4267441958 0.0102181204
| 10> S 3.2975470022 1.123137722 0.702261366
| 11> O 1.3701865973 -1.2038579756 1.0228015333
| 12> C 1.7982603219 -1.5174457114 2.3712048812
| 13> C 1.3082608122 -0.4684106575 3.3496120044
| 14> S 0.9285049232 -0.0753413271 -1.54579657
| 15> C 0.3085859994 1.5002633505 -0.890497052
| 16> S -0.6820853977 1.3010399229 0.6031462275
| 17> P -2.3307582078 0.3296472636 -0.3510463552
| 18> S -2.7450550771 0.9490251169 -2.1584857975
| 19> O -3.4618254713 0.4005444547 0.7624992834
| 20> C -3.8685684996 1.594187944 1.459117014
| 21> C -4.2645322737 2.7154783435 0.5222521643
| 22> O -2.0091469892 -1.2129606362 -0.3899598633
| 23> C -1.759813548 -2.0164268738 0.7870117349
| 24> C -2.9958361484 -2.809845904 1.1569202084
| 25> H 3.5445054096 -1.4442376738 -3.1480767135
| 26> H 3.7964661462 0.1912150444 -2.5244542909
| 27> H 5.1731000033 -0.7422116008 -3.1286147783
| 28> H 5.0788987133 -0.6748304112 -0.6158514999
| 29> H 4.950487267 -2.3453687747 -1.2467099751
| 30> H 1.3586324066 -2.4946446795 2.5772455251
| 31> H 2.8885295161 -1.5940585872 2.3928691605
| 32> H 0.2281107254 -0.3693812881 3.2900521975
| 33> H 1.588331533 -0.7613656053 4.3563017126
| 34> H 1.7550066176 0.4971353303 3.1229455291
| 35> H -0.3069282956 1.9395029492 -1.6762774973
| 36> H 1.1492357395 2.1432371668 -0.6294715075
| 37> H -4.7150088026 1.2624254716 2.0629972202
| 38> H -3.0463775206 1.9065282604 2.1089435564
| 39> H -3.4018559468 3.0467321482 -0.0538904947
| 40> H -5.029871036 2.3777022942 -0.172464969
| 41> H -4.6459305676 3.5508747059 1.1005159563
| 42> H -0.9305871619 -2.6689952792 0.5059056806
| 43> H -1.4465829125 -1.3619436873 1.6048558583
| 44> H -3.3065574834 -3.4242468989 0.3163869572
| 45> H -2.7701801197 -3.448268348 2.0053419737
| 46> H -3.8089053505 -2.1370015989 1.4166607803
| 47> *
| 48>
| 49>                          ****END OF INPUT****

CARTESIAN COORDINATES (ANGSTROEM)
---------------------------------
  C      4.229777   -0.805828   -2.595895
  C      4.471569   -1.366096   -1.209289
  O      3.240967   -1.608525   -0.505821
  P      2.309192   -0.426744    0.010218
  S      3.297547    1.123138    0.702261
  O      1.370187   -1.203858    1.022802
  C      1.798260   -1.517446    2.371205
  C      1.308261   -0.468411    3.349612
  S      0.928505   -0.075341   -1.545797
  C      0.308586    1.500263   -0.890497
  S     -0.682085    1.301040    0.603146
  P     -2.330758    0.329647   -0.351046
  S     -2.745055    0.949025   -2.158486
  O     -3.461825    0.400544    0.762499
  C     -3.868568    1.594188    1.459117
  C     -4.264532    2.715478    0.522252
  O     -2.009147   -1.212961   -0.389960
  C     -1.759814   -2.016427    0.787012
  C     -2.995836   -2.809846    1.156920
  H      3.544505   -1.444238   -3.148077
  H      3.796466    0.191215   -2.524454
  H      5.173100   -0.742212   -3.128615
  H      5.078899   -0.674830   -0.615851
  H      4.950487   -2.345369   -1.246710
  H      1.358632   -2.494645    2.577246
  H      2.888530   -1.594059    2.392869
  H      0.228111   -0.369381    3.290052
  H      1.588332   -0.761366    4.356302
  H      1.755007    0.497135    3.122946
  H     -0.306928    1.939503   -1.676277
  H      1.149236    2.143237   -0.629472
  H     -4.715009    1.262425    2.062997
  H     -3.046378    1.906528    2.108944
  H     -3.401856    3.046732   -0.053890
  H     -5.029871    2.377702   -0.172465
  H     -4.645931    3.550875    1.100516
  H     -0.930587   -2.668995    0.505906
  H     -1.446583   -1.361944    1.604856
  H     -3.306557   -3.424247    0.316387
  H     -2.770180   -3.448268    2.005342
  H     -3.808905   -2.137002    1.416661

 Total Charge           Charge          ....    0
 Multiplicity           Mult            ....    1
 Number of Electrons    NEL             ....  202
 Basis Dimension        Dim             ....  334

ORBITAL ENERGIES
----------------

  NO   OCC          E(Eh)            E(eV)
   0   2.0000     -88.043101     -2395.7746
   1   2.0000     -88.042564     -2395.7600
   2   2.0000     -87.991765     -2394.3776
   3   2.0000     -87.981881     -2394.1087
   4   2.0000     -76.428837     -2079.7344
   5   2.0000     -76.425803     -2079.6518
   6   2.0000     -18.798246      -511.5263
   7   2.0000     -18.795945      -511.4637
   8   2.0000     -18.793092      -511.3860
   9   2.0000     -18.787614      -511.2370
  10   2.0000      -9.961131      -271.0562
  11   2.0000      -9.958467      -270.9837
  12   2.0000      -9.953633      -270.8521
  13   2.0000      -9.952806      -270.8296
  14   2.0000      -9.951223      -270.7866
  15   2.0000      -9.884726      -268.9771
  16   2.0000      -9.884602      -268.9737
  17   2.0000      -9.884481      -268.9704
  18   2.0000      -9.884218      -268.9633
  19   2.0000      -7.688291      -209.2090
  20   2.0000      -7.687358      -209.1836
  21   2.0000      -7.636669      -207.8043
  22   2.0000      -7.627245      -207.5479
  23   2.0000      -6.426608      -174.8769
  24   2.0000      -6.422958      -174.7776
  25   2.0000      -5.716111      -155.5433
  26   2.0000      -5.715010      -155.5133
  27   2.0000      -5.713019      -155.4591
  28   2.0000      -5.711904      -155.4288
  29   2.0000      -5.705055      -155.2424
  30   2.0000      -5.704560      -155.2290
  31   2.0000      -5.665404      -154.1635
  32   2.0000      -5.657435      -153.9466
  33   2.0000      -5.656886      -153.9317
  34   2.0000      -5.656321      -153.9163
  35   2.0000      -5.647779      -153.6839
  36   2.0000      -5.647280      -153.6703
  37   2.0000      -4.649177      -126.5105
  38   2.0000      -4.648255      -126.4855
  39   2.0000      -4.647141      -126.4551
  40   2.0000      -4.645877      -126.4207
  41   2.0000      -4.644940      -126.3952
  42   2.0000      -4.642957      -126.3413
  43   2.0000      -0.989931       -26.9374
  44   2.0000      -0.989078       -26.9142
  45   2.0000      -0.947821       -25.7915
  46   2.0000      -0.944667       -25.7057
  47   2.0000      -0.765944       -20.8424
  48   2.0000      -0.722351       -19.6562
  49   2.0000      -0.710977       -19.3467
  50   2.0000      -0.691653       -18.8208
  51   2.0000      -0.688360       -18.7312
  52   2.0000      -0.676723       -18.4146
  53   2.0000      -0.651870       -17.7383
  54   2.0000      -0.639526       -17.4024
  55   2.0000      -0.600052       -16.3282
  56   2.0000      -0.590148       -16.0587
  57   2.0000      -0.577545       -15.7158
  58   2.0000      -0.573317       -15.6007
  59   2.0000      -0.562476       -15.3057
  60   2.0000      -0.507363       -13.8061
  61   2.0000      -0.499074       -13.5805
  62   2.0000      -0.474896       -12.9226
  63   2.0000      -0.471959       -12.8426
  64   2.0000      -0.462825       -12.5941
  65   2.0000      -0.448067       -12.1925
  66   2.0000      -0.441003       -12.0003
  67   2.0000      -0.434894       -11.8341
  68   2.0000      -0.433295       -11.7906
  69   2.0000      -0.416170       -11.3246
  70   2.0000      -0.410978       -11.1833
  71   2.0000      -0.401130       -10.9153
  72   2.0000      -0.397514       -10.8169
  73   2.0000      -0.386256       -10.5106
  74   2.0000      -0.379890       -10.3373
  75   2.0000      -0.375775       -10.2253
  76   2.0000      -0.366487        -9.9726
  77   2.0000      -0.356619        -9.7041
  78   2.0000      -0.355298        -9.6681
  79   2.0000      -0.352200        -9.5839
  80   2.0000      -0.348087        -9.4719
  81   2.0000      -0.346672        -9.4334
  82   2.0000      -0.344598        -9.3770
  83   2.0000      -0.338887        -9.2216
  84   2.0000      -0.337081        -9.1724
  85   2.0000      -0.321997        -8.7620
  86   2.0000      -0.312830        -8.5125
  87   2.0000      -0.298620        -8.1259
  88   2.0000      -0.297999        -8.1090
  89   2.0000      -0.290611        -7.9079
  90   2.0000      -0.287565        -7.8250
  91   2.0000      -0.282241        -7.6802
  92   2.0000      -0.276473        -7.5232
  93   2.0000      -0.266431        -7.2499
  94   2.0000      -0.258660        -7.0385
  95   2.0000      -0.234564        -6.3828
  96   2.0000      -0.219459        -5.9718
  97   2.0000      -0.213604        -5.8125
  98   2.0000      -0.204953        -5.5771
  99   2.0000      -0.199532        -5.4295
 100   2.0000      -0.196975        -5.3600
 101   0.0000      -0.045218        -1.2304
 102   0.0000      -0.024899        -0.6775
 103   0.0000      -0.007387        -0.2010
 104   0.0000      -0.002349        -0.0639
 105   0.0000       0.009928         0.2702

MULLIKEN ATOMIC CHARGES
-----------------------
   0 C :   -0.316289
   1 C :   -0.006133
   2 O :   -0.373572
   3 P :    0.608622
   4 S :   -0.340599
   5 O :   -0.362289
   6 C :   -0.001067
   7 C :   -0.301209
   8 S :   -0.050863
   9 C :   -0.373683
  10 S :   -0.102247
  11 P :    0.596813
  12 S :   -0.309578
  13 O :   -0.381859
  14 C :   -0.012360
  15 C :   -0.307282
  16 O :   -0.345159
  17 C :   -0.026430
  18 C :   -0.281400
  19 H :    0.120357
  20 H :    0.127042
  21 H :    0.114085
  22 H :    0.111877
  23 H :    0.105514
  24 H :    0.104062
  25 H :    0.104718
  26 H :    0.121759
  27 H :    0.106993
  28 H :    0.130106
  29 H :    0.195711
  30 H :    0.192873
  31 H :    0.108659
  32 H :    0.113327
  33 H :    0.126224
  34 H :    0.127479
  35 H :    0.111701
  36 H :    0.115161
  37 H :    0.106931
  38 H :    0.120410
  39 H :    0.104443
  40 H :    0.117150
Sum of atomic charges:   -0.0000000

LOEWDIN ATOMIC CHARGES
----------------------
   0 C :   -0.368595
   1 C :   -0.120605
   2 O :   -0.245944
   3 P :    0.571556
   4 S :   -0.324650
   5 O :   -0.241078
   6 C :   -0.111187
   7 C :   -0.363300
   8 S :    0.107990
   9 C :   -0.486883
  10 S :    0.070191
  11 P :    0.568318
  12 S :   -0.306230
  13 O :   -0.246026
  14 C :   -0.115268
  15 C :   -0.368642
  16 O :   -0.228526
  17 C :   -0.116080
  18 C :   -0.358114
  19 H :    0.126008
  20 H :    0.121469
  21 H :    0.131680
  22 H :    0.109901
  23 H :    0.118754
  24 H :    0.116754
  25 H :    0.111372
  26 H :    0.120176
  27 H :    0.128086
  28 H :    0.125758
  29 H :    0.129367
  30 H :    0.128800
  31 H :    0.120702
  32 H :    0.107940
  33 H :    0.121868
  34 H :    0.130944
  35 H :    0.130370
  36 H :    0.120274
  37 H :    0.101814
  38 H :    0.129180
  39 H :    0.126775
  40 H :    0.125080

  Mayer bond orders larger than 0.100000
B(  0-C ,  1-C ) :   1.1647 B(  0-C , 19-H ) :   0.9453 B(  0-C , 20-H ) :   0.9354
B(  0-C , 21-H ) :   0.9382 B(  1-C ,  2-O ) :   0.9076 B(  1-C , 22-H ) :   0.9143
B(  1-C , 23-H ) :   0.9333 B(  2-O ,  3-P ) :   1.1106 B(  3-P ,  4-S ) :   1.5848
B(  3-P ,  5-O ) :   1.1213 B(  3-P ,  8-S ) :   0.9709 B(  4-S ,  8-S ) :   0.1116
B(  5-O ,  6-C ) :   0.8913 B(  6-C ,  7-C ) :   1.1704 B(  6-C , 24-H ) :   0.9336
B(  6-C , 25-H ) :   0.9165 B(  7-C , 26-H ) :   0.9427 B(  7-C , 27-H ) :   0.9385
B(  7-C , 28-H ) :   0.9314 B(  8-S ,  9-C ) :   1.0047 B(  9-C , 10-S ) :   1.0104
B(  9-C , 29-H ) :   0.8713 B(  9-C , 30-H ) :   0.8752 B( 10-S , 11-P ) :   0.9391
B( 10-S , 12-S ) :   0.1100 B( 11-P , 12-S ) :   1.6462 B( 11-P , 13-O ) :   1.0774
B( 11-P , 16-O ) :   1.1422 B( 13-O , 14-C ) :   0.9116 B( 14-C , 15-C ) :   1.1681
B( 14-C , 31-H ) :   0.9329 B( 14-C , 32-H ) :   0.9257 B( 15-C , 33-H ) :   0.9319
B( 15-C , 34-H ) :   0.9432 B( 15-C , 35-H ) :   0.9347 B( 16-O , 17-C ) :   0.8925
B( 17-C , 18-C ) :   1.1554 B( 17-C , 36-H ) :   0.9308 B( 17-C , 37-H ) :   0.9097
B( 18-C , 38-H ) :   0.9465 B( 18-C , 39-H ) :   0.9413 B( 18-C , 40-H ) :   0.9430

Dispersion correction           -0.066312188
FINAL SINGLE POINT ENERGY     -2929.521673527392

DIPOLE MOMENT
-------------

Method             : SCF
Type of density    : Electron Density
Multiplicity       :   1
Irrep              :   0
Energy             : -2929.6407601092014374 Eh
Relativity type    :
Basis              : AO
                                X                 Y                 Z
Electronic contribution:      2.005425980       5.475224879     -11.784692630
Nuclear contribution   :     -1.796754039      -6.208543444      13.207461662
                        -----------------------------------------
Total Dipole Moment    :      0.208671942      -0.733318564       1.422769033
                        -----------------------------------------
Magnitude (a.u.)       :      1.614178372
Magnitude (Debye)      :      4.102915357

Rotational constants in cm-1:             0.012542             0.005010             0.004681
Rotational constants in MHz :           376.011552           150.182495           140.331274

                             ****ORCA TERMINATED NORMALLY****
TOTAL RUN TIME: 0 days 0 hours 0 minutes 21 seconds 714 msec
