                         Program Version 6.0.0  -   RELEASE  -
|  1> ! pbe def2-sv(p) def2/J RI DEFGRID1 loosescf d4 GCP(DFT/SV(P)) printgap
|  2> %output
|  3>     printlevel normal
|  4> end
|  5> * xyz 0 1
|  6> C 4.2575092441 -0.7046083947 -1.9561569688
|  7> C 4.3993627608 -0.410636942 -0.4766088012
|  8> O 3.2506366572 -0.8304422699 0.276730975
|  9> P 1.8334782231 -0.1035754439 0.1656047807
| 10> S 2.0017752455 1.8418933283 -0.0770604498
| 11> O 1.1220936587 -0.6896069671 1.4537255755
| 12> C 1.7329136852 -0.7724067615 2.7570963629
| 13> C 1.9944222748 0.5940000763 3.3572896562
| 14> S 0.8386543451 -1.1487538461 -1.3736918977
| 15> C -0.0483744801 0.2130801609 -2.1782701173
| 16> S -1.8619887709 0.1529651736 -2.0177469438
| 17> P -2.0940641405 0.0867547951 0.088841692
| 18> S -3.9002589819 0.4331463959 0.7561968401
| 19> O -0.9402214467 1.0337435813 0.6431360805
| 20> C -1.2386071981 2.3913103128 1.0237298362
| 21> C -1.5062735609 3.2775003719 -0.175927093
| 22> O -1.4642512746 -1.2911698717 0.5651375398
| 23> C -2.2442820708 -2.4981778328 0.6288749639
| 24> C -2.5738318782 -3.0407338831 -0.7481149325
| 25> H 3.9837847798 -1.7451264473 -2.1105411234
| 26> H 3.4873917019 -0.0696744256 -2.3910478284
| 27> H 5.2013014694 -0.501555463 -2.4519517815
| 28> H 4.5487904444 0.6614416544 -0.3115376298
| 29> H 5.2226037346 -0.9720540869 -0.0325081193
| 30> H 1.0016363734 -1.3303840252 3.3447689285
| 31> H 2.6579238925 -1.3475183645 2.671410114
| 32> H 1.0707893866 1.1669196664 3.4018809959
| 33> H 2.3926677314 0.4779020386 4.3604824148
| 34> H 2.714380153 1.1418102895 2.7504589583
| 35> H 0.1275874533 0.1415520489 -3.2486837242
| 36> H 0.3335425733 1.1558516301 -1.7780529918
| 37> H -2.1024841236 2.3779908606 1.6952308673
| 38> H -0.3484803432 2.718385669 1.563943856
| 39> H -0.6386524814 3.3008805231 -0.8313492643
| 40> H -2.3691114876 2.9068342387 -0.7289454948
| 41> H -1.714283913 4.2853474757 0.1686978916
| 42> H -1.6112219588 -3.1873276859 1.1899522821
| 43> H -3.159335794 -2.2892727327 1.19329895
| 44> H -1.6657128843 -3.1533316939 -1.3362631634
| 45> H -3.057422361 -4.0067361138 -0.6436307868
| 46> H -3.2497107854 -2.361676015 -1.266934717
| 47> *
| 48>
| 49>                          ****END OF INPUT****

CARTESIAN COORDINATES (ANGSTROEM)
---------------------------------
  C      4.257509   -0.704608   -1.956157
  C      4.399363   -0.410637   -0.476609
  O      3.250637   -0.830442    0.276731
  P      1.833478   -0.103575    0.165605
  S      2.001775    1.841893   -0.077060
  O      1.122094   -0.689607    1.453726
  C      1.732914   -0.772407    2.757096
  C      1.994422    0.594000    3.357290
  S      0.838654   -1.148754   -1.373692
  C     -0.048374    0.213080   -2.178270
  S     -1.861989    0.152965   -2.017747
  P     -2.094064    0.086755    0.088842
  S     -3.900259    0.433146    0.756197
  O     -0.940221    1.033744    0.643136
  C     -1.238607    2.391310    1.023730
  C     -1.506274    3.277500   -0.175927
  O     -1.464251   -1.291170    0.565138
  C     -2.244282   -2.498178    0.628875
  C     -2.573832   -3.040734   -0.748115
  H      3.983785   -1.745126   -2.110541
  H      3.487392   -0.069674   -2.391048
  H      5.201301   -0.501555   -2.451952
  H      4.548790    0.661442   -0.311538
  H      5.222604   -0.972054   -0.032508
  H      1.001636   -1.330384    3.344769
  H      2.657924   -1.347518    2.671410
  H      1.070789    1.166920    3.401881
  H      2.392668    0.477902    4.360482
  H      2.714380    1.141810    2.750459
  H      0.127587    0.141552   -3.248684
  H      0.333543    1.155852   -1.778053
  H     -2.102484    2.377991    1.695231
  H     -0.348480    2.718386    1.563944
  H     -0.638652    3.300881   -0.831349
  H     -2.369111    2.906834   -0.728945
  H     -1.714284    4.285347    0.168698
  H     -1.611222   -3.187328    1.189952
  H     -3.159336   -2.289273    1.193299
  H     -1.665713   -3.153332   -1.336263
  H     -3.057422   -4.006736   -0.643631
  H     -3.249711   -2.361676   -1.266935

 Total Charge           Charge          ....    0
 Multiplicity           Mult            ....    1
 Number of Electrons    NEL             ....  202
 Basis Dimension        Dim             ....  334

ORBITAL ENERGIES
----------------

  NO   OCC          E(Eh)            E(eV)
   0   2.0000     -88.047012     -2395.8810
   1   2.0000     -88.040111     -2395.6932
   2   2.0000     -87.993089     -2394.4137
   3   2.0000     -87.984030     -2394.1672
   4   2.0000     -76.431543     -2079.8080
   5   2.0000     -76.421508     -2079.5350
   6   2.0000     -18.798092      -511.5221
   7   2.0000     -18.788423      -511.2590
   8   2.0000     -18.785739      -511.1859
   9   2.0000     -18.781281      -511.0646
  10   2.0000      -9.957145      -270.9477
  11   2.0000      -9.955467      -270.9020
  12   2.0000      -9.954806      -270.8841
  13   2.0000      -9.946401      -270.6553
  14   2.0000      -9.942187      -270.5407
  15   2.0000      -9.886575      -269.0274
  16   2.0000      -9.885310      -268.9929
  17   2.0000      -9.878421      -268.8055
  18   2.0000      -9.874035      -268.6862
  19   2.0000      -7.691872      -209.3065
  20   2.0000      -7.685195      -209.1248
  21   2.0000      -7.637764      -207.8341
  22   2.0000      -7.629236      -207.6021
  23   2.0000      -6.428473      -174.9276
  24   2.0000      -6.419079      -174.6720
  25   2.0000      -5.719784      -155.6432
  26   2.0000      -5.716516      -155.5543
  27   2.0000      -5.713398      -155.4695
  28   2.0000      -5.709376      -155.3600
  29   2.0000      -5.708599      -155.3389
  30   2.0000      -5.702184      -155.1643
  31   2.0000      -5.666550      -154.1947
  32   2.0000      -5.658703      -153.9811
  33   2.0000      -5.658161      -153.9664
  34   2.0000      -5.657711      -153.9541
  35   2.0000      -5.649845      -153.7401
  36   2.0000      -5.649388      -153.7277
  37   2.0000      -4.651306      -126.5685
  38   2.0000      -4.649887      -126.5299
  39   2.0000      -4.649132      -126.5093
  40   2.0000      -4.641416      -126.2993
  41   2.0000      -4.641180      -126.2929
  42   2.0000      -4.639417      -126.2450
  43   2.0000      -0.990263       -26.9464
  44   2.0000      -0.980675       -26.6855
  45   2.0000      -0.944511       -25.7014
  46   2.0000      -0.938559       -25.5395
  47   2.0000      -0.762397       -20.7459
  48   2.0000      -0.720284       -19.5999
  49   2.0000      -0.705310       -19.1925
  50   2.0000      -0.690426       -18.7874
  51   2.0000      -0.678467       -18.4620
  52   2.0000      -0.675103       -18.3705
  53   2.0000      -0.655049       -17.8248
  54   2.0000      -0.638528       -17.3752
  55   2.0000      -0.601329       -16.3630
  56   2.0000      -0.592362       -16.1190
  57   2.0000      -0.579952       -15.7813
  58   2.0000      -0.562314       -15.3014
  59   2.0000      -0.561008       -15.2658
  60   2.0000      -0.499454       -13.5908
  61   2.0000      -0.487769       -13.2729
  62   2.0000      -0.472768       -12.8647
  63   2.0000      -0.460492       -12.5306
  64   2.0000      -0.458670       -12.4810
  65   2.0000      -0.446345       -12.1457
  66   2.0000      -0.438030       -11.9194
  67   2.0000      -0.433619       -11.7994
  68   2.0000      -0.421726       -11.4757
  69   2.0000      -0.416825       -11.3424
  70   2.0000      -0.411577       -11.1996
  71   2.0000      -0.408782       -11.1235
  72   2.0000      -0.391492       -10.6530
  73   2.0000      -0.388392       -10.5687
  74   2.0000      -0.382754       -10.4153
  75   2.0000      -0.375024       -10.2049
  76   2.0000      -0.366586        -9.9753
  77   2.0000      -0.355822        -9.6824
  78   2.0000      -0.351144        -9.5551
  79   2.0000      -0.347501        -9.4560
  80   2.0000      -0.344801        -9.3825
  81   2.0000      -0.341955        -9.3051
  82   2.0000      -0.337334        -9.1793
  83   2.0000      -0.332880        -9.0581
  84   2.0000      -0.326963        -8.8971
  85   2.0000      -0.318728        -8.6730
  86   2.0000      -0.317096        -8.6286
  87   2.0000      -0.299479        -8.1492
  88   2.0000      -0.296521        -8.0687
  89   2.0000      -0.291531        -7.9330
  90   2.0000      -0.276836        -7.5331
  91   2.0000      -0.275478        -7.4961
  92   2.0000      -0.264172        -7.1885
  93   2.0000      -0.263579        -7.1723
  94   2.0000      -0.255940        -6.9645
  95   2.0000      -0.226129        -6.1533
  96   2.0000      -0.220817        -6.0087
  97   2.0000      -0.212395        -5.7796
  98   2.0000      -0.206693        -5.6244
  99   2.0000      -0.200671        -5.4605
 100   2.0000      -0.198980        -5.4145
 101   0.0000      -0.042074        -1.1449
 102   0.0000      -0.030789        -0.8378
 103   0.0000      -0.020017        -0.5447
 104   0.0000       0.003002         0.0817
 105   0.0000       0.008690         0.2365

MULLIKEN ATOMIC CHARGES
-----------------------
   0 C :   -0.307625
   1 C :   -0.003779
   2 O :   -0.385119
   3 P :    0.652540
   4 S :   -0.335071
   5 O :   -0.354018
   6 C :   -0.002409
   7 C :   -0.322238
   8 S :   -0.081926
   9 C :   -0.361596
  10 S :   -0.090622
  11 P :    0.592814
  12 S :   -0.323784
  13 O :   -0.369369
  14 C :   -0.004878
  15 C :   -0.321778
  16 O :   -0.345811
  17 C :   -0.000655
  18 C :   -0.314054
  19 H :    0.117659
  20 H :    0.118124
  21 H :    0.112669
  22 H :    0.110624
  23 H :    0.102742
  24 H :    0.107941
  25 H :    0.108377
  26 H :    0.130829
  27 H :    0.110025
  28 H :    0.126092
  29 H :    0.179898
  30 H :    0.210843
  31 H :    0.111849
  32 H :    0.111539
  33 H :    0.126650
  34 H :    0.124346
  35 H :    0.108023
  36 H :    0.100967
  37 H :    0.109462
  38 H :    0.117453
  39 H :    0.108892
  40 H :    0.124373
Sum of atomic charges:   -0.0000000

LOEWDIN ATOMIC CHARGES
----------------------
   0 C :   -0.368477
   1 C :   -0.121643
   2 O :   -0.249578
   3 P :    0.584475
   4 S :   -0.298073
   5 O :   -0.227393
   6 C :   -0.110525
   7 C :   -0.366636
   8 S :    0.107687
   9 C :   -0.482882
  10 S :    0.077441
  11 P :    0.567167
  12 S :   -0.319481
  13 O :   -0.238752
  14 C :   -0.126078
  15 C :   -0.369359
  16 O :   -0.232049
  17 C :   -0.118492
  18 C :   -0.369438
  19 H :    0.124504
  20 H :    0.118812
  21 H :    0.130633
  22 H :    0.108670
  23 H :    0.117216
  24 H :    0.121037
  25 H :    0.111671
  26 H :    0.129761
  27 H :    0.129379
  28 H :    0.121185
  29 H :    0.138322
  30 H :    0.121764
  31 H :    0.108673
  32 H :    0.113743
  33 H :    0.121754
  34 H :    0.119857
  35 H :    0.130122
  36 H :    0.117069
  37 H :    0.108574
  38 H :    0.120960
  39 H :    0.128532
  40 H :    0.119848

  Mayer bond orders larger than 0.100000
B(  0-C ,  1-C ) :   1.1677 B(  0-C , 19-H ) :   0.9443 B(  0-C , 20-H ) :   0.9385
B(  0-C , 21-H ) :   0.9378 B(  1-C ,  2-O ) :   0.9136 B(  1-C , 22-H ) :   0.9127
B(  1-C , 23-H ) :   0.9330 B(  2-O ,  3-P ) :   1.0756 B(  3-P ,  4-S ) :   1.5672
B(  3-P ,  5-O ) :   1.1392 B(  3-P ,  8-S ) :   0.9733 B(  4-S ,  8-S ) :   0.1215
B(  4-S , 30-H ) :   0.1002 B(  5-O ,  6-C ) :   0.9133 B(  6-C ,  7-C ) :   1.1649
B(  6-C , 24-H ) :   0.9332 B(  6-C , 25-H ) :   0.9269 B(  7-C , 26-H ) :   0.9431
B(  7-C , 27-H ) :   0.9366 B(  7-C , 28-H ) :   0.9358 B(  8-S ,  9-C ) :   1.0150
B(  9-C , 10-S ) :   0.9805 B(  9-C , 29-H ) :   0.9099 B(  9-C , 30-H ) :   0.8465
B( 10-S , 11-P ) :   0.9679 B( 11-P , 12-S ) :   1.6341 B( 11-P , 13-O ) :   1.0907
B( 11-P , 16-O ) :   1.1079 B( 13-O , 14-C ) :   0.8992 B( 14-C , 15-C ) :   1.1714
B( 14-C , 31-H ) :   0.9151 B( 14-C , 32-H ) :   0.9141 B( 15-C , 33-H ) :   0.9361
B( 15-C , 34-H ) :   0.9340 B( 15-C , 35-H ) :   0.9383 B( 16-O , 17-C ) :   0.9168
B( 17-C , 18-C ) :   1.1631 B( 17-C , 36-H ) :   0.9333 B( 17-C , 37-H ) :   0.9150
B( 18-C , 38-H ) :   0.9430 B( 18-C , 39-H ) :   0.9384 B( 18-C , 40-H ) :   0.9379

Dispersion correction           -0.070421985
FINAL SINGLE POINT ENERGY     -2929.516187837315

DIPOLE MOMENT
-------------

Method             : SCF
Type of density    : Electron Density
Multiplicity       :   1
Irrep              :   0
Energy             : -2929.6341820868824470 Eh
Relativity type    :
Basis              : AO
                                X                 Y                 Z
Electronic contribution:    -10.806347783      -0.060570301      -4.583420464
Nuclear contribution   :     12.379539686      -0.639131445       4.781323029
                        -----------------------------------------
Total Dipole Moment    :      1.573191902      -0.699701746       0.197902565
                        -----------------------------------------
Magnitude (a.u.)       :      1.733113014
Magnitude (Debye)      :      4.405223193

Rotational constants in cm-1:             0.011626             0.006090             0.005757
Rotational constants in MHz :           348.546683           182.572154           172.584072

                             ****ORCA TERMINATED NORMALLY****
TOTAL RUN TIME: 0 days 0 hours 0 minutes 22 seconds 361 msec
