                         Program Version 6.0.0  -   RELEASE  -
|  1> ! pbe def2-sv(p) def2/J RI DEFGRID1 loosescf d4 GCP(DFT/SV(P)) printgap
|  2> %output
|  3>     printlevel normal
|  4> end
|  5> * xyz 0 1
|  6> C 2.3416776379 0.0022775197 0.2483087724
|  7> N 0.8964686437 0.0018226106 0.2794665774
|  8> C 0.3402198288 1.1879176091 -0.3516181058
|  9> C -1.1965359194 1.1927403432 -0.1611028699
| 10> N -1.6722462289 -0.0013301975 0.5126575393
| 11> C -1.197162679 -1.1834584553 -0.1816011744
| 12> C 0.344384389 -1.1993074628 -0.3267546486
| 13> H 2.7073905098 0.8919980549 0.7579856697
| 14> H 2.7433536687 -0.0061075194 -0.7780267676
| 15> H 2.7078295936 -0.8790696121 0.7721140687
| 16> H 0.7873423464 2.0613353713 0.1272040028
| 17> H 0.5975379367 1.2217357608 -1.4268679115
| 18> H -1.5082126626 2.0577346375 0.4246258995
| 19> H -1.6955819662 1.2409432299 -1.1332704852
| 20> H -1.2895256525 -0.0103264766 1.4540000648
| 21> H -1.5394437315 -2.0602778575 0.3685870513
| 22> H -1.6689305246 -1.1941214842 -1.1683141028
| 23> H 0.7693440757 -2.0592463472 0.1952814846
| 24> H 0.6314069736 -1.2734613309 -1.3924340678
| 25> *
| 26>
| 27>                          ****END OF INPUT****

CARTESIAN COORDINATES (ANGSTROEM)
---------------------------------
  C      2.341678    0.002278    0.248309
  N      0.896469    0.001823    0.279467
  C      0.340220    1.187918   -0.351618
  C     -1.196536    1.192740   -0.161103
  N     -1.672246   -0.001330    0.512658
  C     -1.197163   -1.183458   -0.181601
  C      0.344384   -1.199307   -0.326755
  H      2.707391    0.891998    0.757986
  H      2.743354   -0.006108   -0.778027
  H      2.707830   -0.879070    0.772114
  H      0.787342    2.061335    0.127204
  H      0.597538    1.221736   -1.426868
  H     -1.508213    2.057735    0.424626
  H     -1.695582    1.240943   -1.133270
  H     -1.289526   -0.010326    1.454000
  H     -1.539444   -2.060278    0.368587
  H     -1.668931   -1.194121   -1.168314
  H      0.769344   -2.059246    0.195281
  H      0.631407   -1.273461   -1.392434

 Total Charge           Charge          ....    0
 Multiplicity           Mult            ....    1
 Number of Electrons    NEL             ....   56
 Basis Dimension        Dim             ....  122

ORBITAL ENERGIES
----------------

  NO   OCC          E(Eh)            E(eV)
   0   2.0000     -13.985185      -380.5562
   1   2.0000     -13.964044      -379.9809
   2   2.0000      -9.904723      -269.5212
   3   2.0000      -9.904635      -269.5188
   4   2.0000      -9.903877      -269.4982
   5   2.0000      -9.903644      -269.4919
   6   2.0000      -9.901002      -269.4200
   7   2.0000      -0.857185       -23.3252
   8   2.0000      -0.800545       -21.7839
   9   2.0000      -0.678254       -18.4562
  10   2.0000      -0.637546       -17.3485
  11   2.0000      -0.571587       -15.5537
  12   2.0000      -0.567605       -15.4453
  13   2.0000      -0.490846       -13.3566
  14   2.0000      -0.454084       -12.3562
  15   2.0000      -0.428844       -11.6694
  16   2.0000      -0.427812       -11.6413
  17   2.0000      -0.395324       -10.7573
  18   2.0000      -0.373660       -10.1678
  19   2.0000      -0.358324        -9.7505
  20   2.0000      -0.350822        -9.5463
  21   2.0000      -0.337877        -9.1941
  22   2.0000      -0.325938        -8.8692
  23   2.0000      -0.311674        -8.4811
  24   2.0000      -0.301746        -8.2109
  25   2.0000      -0.280732        -7.6391
  26   2.0000      -0.174819        -4.7571
  27   2.0000      -0.172914        -4.7052
  28   0.0000       0.026094         0.7100
  29   0.0000       0.055146         1.5006
  30   0.0000       0.060848         1.6558
  31   0.0000       0.065686         1.7874
  32   0.0000       0.085550         2.3279

MULLIKEN ATOMIC CHARGES
-----------------------
   0 C :   -0.146750
   1 N :   -0.324949
   2 C :   -0.068816
   3 C :   -0.058036
   4 N :   -0.326178
   5 C :   -0.062334
   6 C :   -0.067330
   7 H :    0.100912
   8 H :    0.068975
   9 H :    0.100623
  10 H :    0.079102
  11 H :    0.048526
  12 H :    0.087577
  13 H :    0.076643
  14 H :    0.198861
  15 H :    0.088434
  16 H :    0.077086
  17 H :    0.078891
  18 H :    0.048764
Sum of atomic charges:   -0.0000000

LOEWDIN ATOMIC CHARGES
----------------------
   0 C :   -0.255650
   1 N :   -0.149256
   2 C :   -0.177712
   3 C :   -0.177804
   4 N :   -0.247533
   5 C :   -0.178053
   6 C :   -0.177841
   7 H :    0.112694
   8 H :    0.088553
   9 H :    0.112747
  10 H :    0.110706
  11 H :    0.085512
  12 H :    0.114796
  13 H :    0.111238
  14 H :    0.205303
  15 H :    0.114989
  16 H :    0.111517
  17 H :    0.110123
  18 H :    0.085671

  Mayer bond orders larger than 0.100000
B(  0-C ,  1-N ) :   1.0531 B(  0-C ,  7-H ) :   0.9545 B(  0-C ,  8-H ) :   0.9273
B(  0-C ,  9-H ) :   0.9544 B(  1-N ,  2-C ) :   1.0587 B(  1-N ,  6-C ) :   1.0603
B(  2-C ,  3-C ) :   1.0694 B(  2-C , 10-H ) :   0.9247 B(  2-C , 11-H ) :   0.8929
B(  3-C ,  4-N ) :   1.1417 B(  3-C , 12-H ) :   0.9352 B(  3-C , 13-H ) :   0.9228
B(  4-N ,  5-C ) :   1.1422 B(  4-N , 14-H ) :   0.8728 B(  5-C ,  6-C ) :   1.0708
B(  5-C , 15-H ) :   0.9356 B(  5-C , 16-H ) :   0.9220 B(  6-C , 17-H ) :   0.9245
B(  6-C , 18-H ) :   0.8933

Dispersion correction           -0.016604215
FINAL SINGLE POINT ENERGY      -306.493817505925

DIPOLE MOMENT
-------------

Method             : SCF
Type of density    : Electron Density
Multiplicity       :   1
Irrep              :   0
Energy             :  -306.5681793808684574 Eh
Relativity type    :
Basis              : AO
                                X                 Y                 Z
Electronic contribution:     -2.578162962       0.007098263       1.664976234
Nuclear contribution   :      3.037764709      -0.008312801      -1.683531892
                        -----------------------------------------
Total Dipole Moment    :      0.459601747      -0.001214538      -0.018555658
                        -----------------------------------------
Magnitude (a.u.)       :      0.459977775
Magnitude (Debye)      :      1.169170589

Rotational constants in cm-1:             0.149329             0.080317             0.059589
Rotational constants in MHz :          4476.768192          2407.846465          1786.443089

                             ****ORCA TERMINATED NORMALLY****
TOTAL RUN TIME: 0 days 0 hours 0 minutes 8 seconds 325 msec
