                         Program Version 6.0.0  -   RELEASE  -
|  1> ! r2scan-3c def2/J RI DEFGRID2 scfconv6 printgap
|  2> %output
|  3>     printlevel normal
|  4> end
|  5> * xyz 0 1
|  6> C 5.1122115909 -2.2656222943 -1.426648383
|  7> C 4.1344873559 -1.1114547094 -1.5154723367
|  8> O 3.1155479456 -1.3164231491 -0.5149518258
|  9> P 2.1477746929 -0.1414207886 -0.0657702378
| 10> S 3.0389563444 1.5432304043 0.4040612868
| 11> O 1.3098559075 -0.8533791064 1.0681640904
| 12> C 1.5642005954 -0.6293688907 2.4695390344
| 13> C 2.8355452218 -1.322218676 2.9115020399
| 14> S 0.7529910931 -0.0454931821 -1.6520413386
| 15> C 0.0822624603 1.5900078742 -1.2414524317
| 16> S -0.6987682566 1.6543086528 0.3936735948
| 17> P -2.2316914207 0.2576020013 -0.0158053195
| 18> S -3.0025531896 0.2739397474 -1.8209972396
| 19> O -3.2722273133 0.4621966553 1.1668564205
| 20> C -4.3780364416 1.3778943251 1.0742701811
| 21> C -3.9235906693 2.822998908 1.0511014474
| 22> O -1.507297381 -1.0756107043 0.4358391206
| 23> C -1.8742106538 -2.3691964088 -0.0818289825
| 24> C -3.2197390776 -2.8191009699 0.4472382782
| 25> H 5.5867792091 -2.2810059921 -0.4497234695
| 26> H 4.589350526 -3.2052134415 -1.5793507143
| 27> H 5.8719255236 -2.1474414418 -2.1922071871
| 28> H 3.6494143472 -1.0722473385 -2.4947665278
| 29> H 4.6247517074 -0.151607175 -1.3207580823
| 30> H 1.6257476333 0.4497974281 2.6456855458
| 31> H 0.6800920132 -1.0328191797 2.965140552
| 32> H 2.9623927716 -1.1975403574 3.982246531
| 33> H 2.7903513021 -2.3807598091 2.6700324095
| 34> H 3.6890420957 -0.8800211651 2.3985564524
| 35> H -0.6536351631 1.8209331671 -2.0108733693
| 36> H 0.8887873042 2.322285401 -1.2261230439
| 37> H -4.9475297649 1.140426002 0.1700074606
| 38> H -4.97523672 1.1567015012 1.9598416053
| 39> H -3.3833192735 3.0294521633 0.1280483374
| 40> H -4.7907600646 3.4734287504 1.1040891344
| 41> H -3.2660507609 3.0267018892 1.892617998
| 42> H -1.883281943 -2.3156591262 -1.1757222342
| 43> H -1.0639202534 -3.0217235761 0.2468886375
| 44> H -4.0015589385 -2.1593372604 0.07237659
| 45> H -3.4199123044 -3.831257681 0.1100351304
| 46> H -3.2258359596 -2.7890897205 1.5336139611
| 47> *
| 48>
| 49>                          ****END OF INPUT****

CARTESIAN COORDINATES (ANGSTROEM)
---------------------------------
  C      5.112212   -2.265622   -1.426648
  C      4.134487   -1.111455   -1.515472
  O      3.115548   -1.316423   -0.514952
  P      2.147775   -0.141421   -0.065770
  S      3.038956    1.543230    0.404061
  O      1.309856   -0.853379    1.068164
  C      1.564201   -0.629369    2.469539
  C      2.835545   -1.322219    2.911502
  S      0.752991   -0.045493   -1.652041
  C      0.082262    1.590008   -1.241452
  S     -0.698768    1.654309    0.393674
  P     -2.231691    0.257602   -0.015805
  S     -3.002553    0.273940   -1.820997
  O     -3.272227    0.462197    1.166856
  C     -4.378036    1.377894    1.074270
  C     -3.923591    2.822999    1.051101
  O     -1.507297   -1.075611    0.435839
  C     -1.874211   -2.369196   -0.081829
  C     -3.219739   -2.819101    0.447238
  H      5.586779   -2.281006   -0.449723
  H      4.589351   -3.205213   -1.579351
  H      5.871926   -2.147441   -2.192207
  H      3.649414   -1.072247   -2.494767
  H      4.624752   -0.151607   -1.320758
  H      1.625748    0.449797    2.645686
  H      0.680092   -1.032819    2.965141
  H      2.962393   -1.197540    3.982247
  H      2.790351   -2.380760    2.670032
  H      3.689042   -0.880021    2.398556
  H     -0.653635    1.820933   -2.010873
  H      0.888787    2.322285   -1.226123
  H     -4.947530    1.140426    0.170007
  H     -4.975237    1.156702    1.959842
  H     -3.383319    3.029452    0.128048
  H     -4.790760    3.473429    1.104089
  H     -3.266051    3.026702    1.892618
  H     -1.883282   -2.315659   -1.175722
  H     -1.063920   -3.021724    0.246889
  H     -4.001559   -2.159337    0.072377
  H     -3.419912   -3.831258    0.110035
  H     -3.225836   -2.789090    1.533614

 Total Charge           Charge          ....    0
 Multiplicity           Mult            ....    1
 Number of Electrons    NEL             ....  202
 Basis Dimension        Dim             ....  539

ORBITAL ENERGIES
----------------

  NO   OCC          E(Eh)            E(eV)
   0   2.0000     -88.573253     -2410.2008
   1   2.0000     -88.572724     -2410.1863
   2   2.0000     -88.521063     -2408.7806
   3   2.0000     -88.519305     -2408.7328
   4   2.0000     -76.912124     -2092.8853
   5   2.0000     -76.911429     -2092.8664
   6   2.0000     -18.992615      -516.8153
   7   2.0000     -18.991781      -516.7926
   8   2.0000     -18.986045      -516.6366
   9   2.0000     -18.984179      -516.5858
  10   2.0000     -10.104071      -274.9457
  11   2.0000     -10.098908      -274.8053
  12   2.0000     -10.098413      -274.7918
  13   2.0000     -10.093799      -274.6662
  14   2.0000     -10.093210      -274.6502
  15   2.0000     -10.033517      -273.0259
  16   2.0000     -10.028543      -272.8905
  17   2.0000     -10.026596      -272.8375
  18   2.0000     -10.026322      -272.8301
  19   2.0000      -7.867615      -214.0887
  20   2.0000      -7.866997      -214.0719
  21   2.0000      -7.815847      -212.6800
  22   2.0000      -7.814138      -212.6335
  23   2.0000      -6.590747      -179.3434
  24   2.0000      -6.590107      -179.3259
  25   2.0000      -5.814498      -158.2205
  26   2.0000      -5.813871      -158.2035
  27   2.0000      -5.811553      -158.1404
  28   2.0000      -5.810883      -158.1222
  29   2.0000      -5.804637      -157.9522
  30   2.0000      -5.804103      -157.9377
  31   2.0000      -5.763404      -156.8302
  32   2.0000      -5.761696      -156.7837
  33   2.0000      -5.756165      -156.6332
  34   2.0000      -5.755902      -156.6261
  35   2.0000      -5.754425      -156.5859
  36   2.0000      -5.754211      -156.5800
  37   2.0000      -4.736077      -128.8752
  38   2.0000      -4.735615      -128.8626
  39   2.0000      -4.735416      -128.8572
  40   2.0000      -4.735056      -128.8474
  41   2.0000      -4.734689      -128.8374
  42   2.0000      -4.733977      -128.8181
  43   2.0000      -1.048850       -28.5407
  44   2.0000      -1.047651       -28.5080
  45   2.0000      -1.009707       -27.4755
  46   2.0000      -1.008138       -27.4328
  47   2.0000      -0.800959       -21.7952
  48   2.0000      -0.757714       -20.6184
  49   2.0000      -0.747632       -20.3441
  50   2.0000      -0.730893       -19.8886
  51   2.0000      -0.729559       -19.8523
  52   2.0000      -0.708541       -19.2804
  53   2.0000      -0.684538       -18.6272
  54   2.0000      -0.668053       -18.1786
  55   2.0000      -0.632898       -17.2220
  56   2.0000      -0.625510       -17.0210
  57   2.0000      -0.603553       -16.4235
  58   2.0000      -0.598601       -16.2888
  59   2.0000      -0.591047       -16.0832
  60   2.0000      -0.527723       -14.3601
  61   2.0000      -0.516096       -14.0437
  62   2.0000      -0.495085       -13.4720
  63   2.0000      -0.490642       -13.3511
  64   2.0000      -0.472219       -12.8497
  65   2.0000      -0.461357       -12.5542
  66   2.0000      -0.457172       -12.4403
  67   2.0000      -0.452865       -12.3231
  68   2.0000      -0.444550       -12.0968
  69   2.0000      -0.430616       -11.7177
  70   2.0000      -0.423154       -11.5146
  71   2.0000      -0.411237       -11.1903
  72   2.0000      -0.406256       -11.0548
  73   2.0000      -0.403027       -10.9669
  74   2.0000      -0.396292       -10.7836
  75   2.0000      -0.387157       -10.5351
  76   2.0000      -0.385919       -10.5014
  77   2.0000      -0.373199       -10.1553
  78   2.0000      -0.371715       -10.1149
  79   2.0000      -0.366377        -9.9696
  80   2.0000      -0.361646        -9.8409
  81   2.0000      -0.360856        -9.8194
  82   2.0000      -0.356303        -9.6955
  83   2.0000      -0.354116        -9.6360
  84   2.0000      -0.345081        -9.3901
  85   2.0000      -0.333167        -9.0659
  86   2.0000      -0.320679        -8.7261
  87   2.0000      -0.315518        -8.5857
  88   2.0000      -0.309541        -8.4230
  89   2.0000      -0.301256        -8.1976
  90   2.0000      -0.295393        -8.0380
  91   2.0000      -0.290439        -7.9033
  92   2.0000      -0.279450        -7.6042
  93   2.0000      -0.278544        -7.5796
  94   2.0000      -0.272579        -7.4172
  95   2.0000      -0.244079        -6.6417
  96   2.0000      -0.228989        -6.2311
  97   2.0000      -0.227243        -6.1836
  98   2.0000      -0.221030        -6.0145
  99   2.0000      -0.213231        -5.8023
 100   2.0000      -0.211499        -5.7552
 101   0.0000      -0.045720        -1.2441
 102   0.0000      -0.023061        -0.6275
 103   0.0000       0.002024         0.0551
 104   0.0000       0.005084         0.1384
 105   0.0000       0.014306         0.3893

MULLIKEN ATOMIC CHARGES
-----------------------
   0 C :   -0.439588
   1 C :   -0.158390
   2 O :   -0.287519
   3 P :    0.715899
   4 S :   -0.491461
   5 O :   -0.263566
   6 C :   -0.156494
   7 C :   -0.444169
   8 S :   -0.146503
   9 C :   -0.237839
  10 S :   -0.122481
  11 P :    0.698907
  12 S :   -0.487759
  13 O :   -0.304561
  14 C :   -0.152972
  15 C :   -0.449823
  16 O :   -0.262462
  17 C :   -0.161065
  18 C :   -0.441972
  19 H :    0.155016
  20 H :    0.153647
  21 H :    0.147115
  22 H :    0.152916
  23 H :    0.170789
  24 H :    0.174576
  25 H :    0.156736
  26 H :    0.146434
  27 H :    0.153328
  28 H :    0.167852
  29 H :    0.207654
  30 H :    0.209559
  31 H :    0.171846
  32 H :    0.148281
  33 H :    0.176741
  34 H :    0.148065
  35 H :    0.155948
  36 H :    0.173913
  37 H :    0.157022
  38 H :    0.166122
  39 H :    0.146323
  40 H :    0.153935
Sum of atomic charges:   -0.0000000

LOEWDIN ATOMIC CHARGES
----------------------
   0 C :   -0.385724
   1 C :    0.019215
   2 O :   -0.663125
   3 P :    0.376091
   4 S :   -0.134652
   5 O :   -0.661899
   6 C :    0.018536
   7 C :   -0.399399
   8 S :    0.171337
   9 C :   -0.418578
  10 S :    0.179177
  11 P :    0.380978
  12 S :   -0.132120
  13 O :   -0.660059
  14 C :    0.019622
  15 C :   -0.407001
  16 O :   -0.670487
  17 C :    0.018725
  18 C :   -0.399389
  19 H :    0.160203
  20 H :    0.159949
  21 H :    0.160048
  22 H :    0.172196
  23 H :    0.180370
  24 H :    0.181901
  25 H :    0.181293
  26 H :    0.159193
  27 H :    0.159313
  28 H :    0.164847
  29 H :    0.189297
  30 H :    0.190198
  31 H :    0.179418
  32 H :    0.179448
  33 H :    0.165549
  34 H :    0.159258
  35 H :    0.160553
  36 H :    0.181338
  37 H :    0.181690
  38 H :    0.163984
  39 H :    0.158930
  40 H :    0.159776

  Mayer bond orders larger than 0.100000
B(  0-C ,  1-C ) :   0.9559 B(  0-C , 19-H ) :   0.9715 B(  0-C , 20-H ) :   0.9718
B(  0-C , 21-H ) :   0.9644 B(  1-C ,  2-O ) :   0.7799 B(  1-C , 22-H ) :   0.9457
B(  1-C , 23-H ) :   0.9515 B(  2-O ,  3-P ) :   1.0958 B(  3-P ,  4-S ) :   1.7296
B(  3-P ,  5-O ) :   1.1709 B(  3-P ,  8-S ) :   1.0551 B(  5-O ,  6-C ) :   0.7812
B(  6-C ,  7-C ) :   0.9252 B(  6-C , 24-H ) :   0.9632 B(  6-C , 25-H ) :   0.9631
B(  7-C , 26-H ) :   0.9639 B(  7-C , 27-H ) :   0.9728 B(  7-C , 28-H ) :   0.9609
B(  8-S ,  9-C ) :   0.9082 B(  9-C , 10-S ) :   0.9057 B(  9-C , 29-H ) :   0.9106
B(  9-C , 30-H ) :   0.9085 B( 10-S , 11-P ) :   1.0852 B( 11-P , 12-S ) :   1.7376
B( 11-P , 13-O ) :   1.0671 B( 11-P , 16-O ) :   1.1523 B( 13-O , 14-C ) :   0.8131
B( 14-C , 15-C ) :   0.9229 B( 14-C , 31-H ) :   0.9677 B( 14-C , 32-H ) :   0.9583
B( 15-C , 33-H ) :   0.9627 B( 15-C , 34-H ) :   0.9588 B( 15-C , 35-H ) :   0.9682
B( 16-O , 17-C ) :   0.7900 B( 17-C , 18-C ) :   0.9217 B( 17-C , 36-H ) :   0.9644
B( 17-C , 37-H ) :   0.9634 B( 18-C , 38-H ) :   0.9612 B( 18-C , 39-H ) :   0.9633
B( 18-C , 40-H ) :   0.9728

Dispersion correction           -0.021490204
FINAL SINGLE POINT ENERGY     -2932.465996378911

DIPOLE MOMENT
-------------

Method             : SCF
Type of density    : Electron Density
Multiplicity       :   1
Irrep              :   0
Energy             : -2932.4908164331545777 Eh
Relativity type    :
Basis              : AO
                                X                 Y                 Z
Electronic contribution:     -1.419743659      10.711876718      -8.404126449
Nuclear contribution   :      1.331386039     -11.545415937       9.028897319
                        -----------------------------------------
Total Dipole Moment    :     -0.088357621      -0.833539218       0.624770870
                        -----------------------------------------
Magnitude (a.u.)       :      1.045434521
Magnitude (Debye)      :      2.657283375

Rotational constants in cm-1:             0.013042             0.004820             0.004687
Rotational constants in MHz :           391.000103           144.487276           140.504928

                             ****ORCA TERMINATED NORMALLY****
TOTAL RUN TIME: 0 days 0 hours 1 minutes 18 seconds 156 msec
