                         Program Version 6.0.0  -   RELEASE  -
|  1> ! r2scan-3c def2/J RI DEFGRID2 scfconv6 printgap
|  2> %output
|  3>     printlevel normal
|  4> end
|  5> %cpcm
|  6>     smd true
|  7>     smdsolvent "water"
|  8> end
|  9> * xyz 0 1
| 10> C 5.1122115909 -2.2656222943 -1.426648383
| 11> C 4.1344873559 -1.1114547094 -1.5154723367
| 12> O 3.1155479456 -1.3164231491 -0.5149518258
| 13> P 2.1477746929 -0.1414207886 -0.0657702378
| 14> S 3.0389563444 1.5432304043 0.4040612868
| 15> O 1.3098559075 -0.8533791064 1.0681640904
| 16> C 1.5642005954 -0.6293688907 2.4695390344
| 17> C 2.8355452218 -1.322218676 2.9115020399
| 18> S 0.7529910931 -0.0454931821 -1.6520413386
| 19> C 0.0822624603 1.5900078742 -1.2414524317
| 20> S -0.6987682566 1.6543086528 0.3936735948
| 21> P -2.2316914207 0.2576020013 -0.0158053195
| 22> S -3.0025531896 0.2739397474 -1.8209972396
| 23> O -3.2722273133 0.4621966553 1.1668564205
| 24> C -4.3780364416 1.3778943251 1.0742701811
| 25> C -3.9235906693 2.822998908 1.0511014474
| 26> O -1.507297381 -1.0756107043 0.4358391206
| 27> C -1.8742106538 -2.3691964088 -0.0818289825
| 28> C -3.2197390776 -2.8191009699 0.4472382782
| 29> H 5.5867792091 -2.2810059921 -0.4497234695
| 30> H 4.589350526 -3.2052134415 -1.5793507143
| 31> H 5.8719255236 -2.1474414418 -2.1922071871
| 32> H 3.6494143472 -1.0722473385 -2.4947665278
| 33> H 4.6247517074 -0.151607175 -1.3207580823
| 34> H 1.6257476333 0.4497974281 2.6456855458
| 35> H 0.6800920132 -1.0328191797 2.965140552
| 36> H 2.9623927716 -1.1975403574 3.982246531
| 37> H 2.7903513021 -2.3807598091 2.6700324095
| 38> H 3.6890420957 -0.8800211651 2.3985564524
| 39> H -0.6536351631 1.8209331671 -2.0108733693
| 40> H 0.8887873042 2.322285401 -1.2261230439
| 41> H -4.9475297649 1.140426002 0.1700074606
| 42> H -4.97523672 1.1567015012 1.9598416053
| 43> H -3.3833192735 3.0294521633 0.1280483374
| 44> H -4.7907600646 3.4734287504 1.1040891344
| 45> H -3.2660507609 3.0267018892 1.892617998
| 46> H -1.883281943 -2.3156591262 -1.1757222342
| 47> H -1.0639202534 -3.0217235761 0.2468886375
| 48> H -4.0015589385 -2.1593372604 0.07237659
| 49> H -3.4199123044 -3.831257681 0.1100351304
| 50> H -3.2258359596 -2.7890897205 1.5336139611
| 51> *
| 52>
| 53>                          ****END OF INPUT****

CARTESIAN COORDINATES (ANGSTROEM)
---------------------------------
  C      5.112212   -2.265622   -1.426648
  C      4.134487   -1.111455   -1.515472
  O      3.115548   -1.316423   -0.514952
  P      2.147775   -0.141421   -0.065770
  S      3.038956    1.543230    0.404061
  O      1.309856   -0.853379    1.068164
  C      1.564201   -0.629369    2.469539
  C      2.835545   -1.322219    2.911502
  S      0.752991   -0.045493   -1.652041
  C      0.082262    1.590008   -1.241452
  S     -0.698768    1.654309    0.393674
  P     -2.231691    0.257602   -0.015805
  S     -3.002553    0.273940   -1.820997
  O     -3.272227    0.462197    1.166856
  C     -4.378036    1.377894    1.074270
  C     -3.923591    2.822999    1.051101
  O     -1.507297   -1.075611    0.435839
  C     -1.874211   -2.369196   -0.081829
  C     -3.219739   -2.819101    0.447238
  H      5.586779   -2.281006   -0.449723
  H      4.589351   -3.205213   -1.579351
  H      5.871926   -2.147441   -2.192207
  H      3.649414   -1.072247   -2.494767
  H      4.624752   -0.151607   -1.320758
  H      1.625748    0.449797    2.645686
  H      0.680092   -1.032819    2.965141
  H      2.962393   -1.197540    3.982247
  H      2.790351   -2.380760    2.670032
  H      3.689042   -0.880021    2.398556
  H     -0.653635    1.820933   -2.010873
  H      0.888787    2.322285   -1.226123
  H     -4.947530    1.140426    0.170007
  H     -4.975237    1.156702    1.959842
  H     -3.383319    3.029452    0.128048
  H     -4.790760    3.473429    1.104089
  H     -3.266051    3.026702    1.892618
  H     -1.883282   -2.315659   -1.175722
  H     -1.063920   -3.021724    0.246889
  H     -4.001559   -2.159337    0.072377
  H     -3.419912   -3.831258    0.110035
  H     -3.225836   -2.789090    1.533614

 Total Charge           Charge          ....    0
 Multiplicity           Mult            ....    1
 Number of Electrons    NEL             ....  202
 Basis Dimension        Dim             ....  539

ORBITAL ENERGIES
----------------

  NO   OCC          E(Eh)            E(eV)
   0   2.0000     -88.578334     -2410.3390
   1   2.0000     -88.578037     -2410.3309
   2   2.0000     -88.528468     -2408.9821
   3   2.0000     -88.527921     -2408.9672
   4   2.0000     -76.918342     -2093.0545
   5   2.0000     -76.918081     -2093.0474
   6   2.0000     -18.995629      -516.8973
   7   2.0000     -18.995543      -516.8950
   8   2.0000     -18.992135      -516.8023
   9   2.0000     -18.989667      -516.7351
  10   2.0000     -10.104933      -274.9692
  11   2.0000     -10.090282      -274.5705
  12   2.0000     -10.089786      -274.5570
  13   2.0000     -10.089104      -274.5385
  14   2.0000     -10.088254      -274.5153
  15   2.0000     -10.019744      -272.6511
  16   2.0000     -10.018583      -272.6195
  17   2.0000     -10.018326      -272.6125
  18   2.0000     -10.018198      -272.6090
  19   2.0000      -7.872643      -214.2255
  20   2.0000      -7.872435      -214.2198
  21   2.0000      -7.823512      -212.8886
  22   2.0000      -7.823020      -212.8752
  23   2.0000      -6.597062      -179.5152
  24   2.0000      -6.596745      -179.5066
  25   2.0000      -5.819488      -158.3563
  26   2.0000      -5.819305      -158.3513
  27   2.0000      -5.816514      -158.2754
  28   2.0000      -5.816366      -158.2714
  29   2.0000      -5.809798      -158.0926
  30   2.0000      -5.809479      -158.0840
  31   2.0000      -5.771027      -157.0376
  32   2.0000      -5.770530      -157.0241
  33   2.0000      -5.763811      -156.8413
  34   2.0000      -5.763578      -156.8349
  35   2.0000      -5.763291      -156.8271
  36   2.0000      -5.763107      -156.8221
  37   2.0000      -4.742336      -129.0455
  38   2.0000      -4.742037      -129.0374
  39   2.0000      -4.742020      -129.0369
  40   2.0000      -4.741627      -129.0262
  41   2.0000      -4.740981      -129.0086
  42   2.0000      -4.740733      -129.0019
  43   2.0000      -1.053375       -28.6638
  44   2.0000      -1.051559       -28.6144
  45   2.0000      -1.013631       -27.5823
  46   2.0000      -1.011755       -27.5312
  47   2.0000      -0.804507       -21.8918
  48   2.0000      -0.756094       -20.5744
  49   2.0000      -0.743066       -20.2199
  50   2.0000      -0.723855       -19.6971
  51   2.0000      -0.722838       -19.6694
  52   2.0000      -0.709230       -19.2991
  53   2.0000      -0.689088       -18.7510
  54   2.0000      -0.674989       -18.3674
  55   2.0000      -0.632719       -17.2172
  56   2.0000      -0.623022       -16.9533
  57   2.0000      -0.598560       -16.2876
  58   2.0000      -0.593771       -16.1573
  59   2.0000      -0.589905       -16.0521
  60   2.0000      -0.526408       -14.3243
  61   2.0000      -0.513945       -13.9852
  62   2.0000      -0.495044       -13.4708
  63   2.0000      -0.489272       -13.3138
  64   2.0000      -0.473487       -12.8842
  65   2.0000      -0.460361       -12.5271
  66   2.0000      -0.453975       -12.3533
  67   2.0000      -0.448524       -12.2050
  68   2.0000      -0.443007       -12.0548
  69   2.0000      -0.429882       -11.6977
  70   2.0000      -0.422201       -11.4887
  71   2.0000      -0.409467       -11.1422
  72   2.0000      -0.404012       -10.9937
  73   2.0000      -0.403311       -10.9747
  74   2.0000      -0.396567       -10.7911
  75   2.0000      -0.385704       -10.4955
  76   2.0000      -0.383974       -10.4485
  77   2.0000      -0.369712       -10.0604
  78   2.0000      -0.364188        -9.9101
  79   2.0000      -0.362293        -9.8585
  80   2.0000      -0.353761        -9.6263
  81   2.0000      -0.353194        -9.6109
  82   2.0000      -0.349228        -9.5030
  83   2.0000      -0.348048        -9.4709
  84   2.0000      -0.343456        -9.3459
  85   2.0000      -0.330606        -8.9962
  86   2.0000      -0.319865        -8.7040
  87   2.0000      -0.313609        -8.5337
  88   2.0000      -0.304890        -8.2965
  89   2.0000      -0.302187        -8.2229
  90   2.0000      -0.296967        -8.0809
  91   2.0000      -0.291531        -7.9330
  92   2.0000      -0.280578        -7.6349
  93   2.0000      -0.279234        -7.5984
  94   2.0000      -0.275295        -7.4912
  95   2.0000      -0.249699        -6.7946
  96   2.0000      -0.236238        -6.4284
  97   2.0000      -0.235567        -6.4101
  98   2.0000      -0.228961        -6.2304
  99   2.0000      -0.221553        -6.0288
 100   2.0000      -0.219235        -5.9657
 101   0.0000      -0.051844        -1.4107
 102   0.0000      -0.030347        -0.8258
 103   0.0000      -0.003245        -0.0883
 104   0.0000      -0.000858        -0.0234
 105   0.0000       0.011946         0.3251

MULLIKEN ATOMIC CHARGES
-----------------------
   0 C :   -0.482670
   1 C :   -0.149209
   2 O :   -0.315346
   3 P :    0.742891
   4 S :   -0.532831
   5 O :   -0.293911
   6 C :   -0.146672
   7 C :   -0.486045
   8 S :   -0.158664
   9 C :   -0.250256
  10 S :   -0.133935
  11 P :    0.734213
  12 S :   -0.529472
  13 O :   -0.330799
  14 C :   -0.153297
  15 C :   -0.485816
  16 O :   -0.293800
  17 C :   -0.153572
  18 C :   -0.484350
  19 H :    0.166178
  20 H :    0.166024
  21 H :    0.169898
  22 H :    0.171215
  23 H :    0.172797
  24 H :    0.176741
  25 H :    0.179076
  26 H :    0.172022
  27 H :    0.169244
  28 H :    0.166998
  29 H :    0.230239
  30 H :    0.231342
  31 H :    0.178280
  32 H :    0.175458
  33 H :    0.172662
  34 H :    0.173057
  35 H :    0.169145
  36 H :    0.176679
  37 H :    0.178372
  38 H :    0.167408
  39 H :    0.171514
  40 H :    0.169193
Sum of atomic charges:    0.0000000

LOEWDIN ATOMIC CHARGES
----------------------
   0 C :   -0.389141
   1 C :    0.024081
   2 O :   -0.676506
   3 P :    0.379505
   4 S :   -0.160643
   5 O :   -0.679094
   6 C :    0.022302
   7 C :   -0.402139
   8 S :    0.164681
   9 C :   -0.412065
  10 S :    0.173427
  11 P :    0.385721
  12 S :   -0.156857
  13 O :   -0.671640
  14 C :    0.025519
  15 C :   -0.410050
  16 O :   -0.687936
  17 C :    0.022179
  18 C :   -0.402318
  19 H :    0.162741
  20 H :    0.163351
  21 H :    0.169082
  22 H :    0.179603
  23 H :    0.181558
  24 H :    0.182661
  25 H :    0.190456
  26 H :    0.168830
  27 H :    0.163779
  28 H :    0.162340
  29 H :    0.196448
  30 H :    0.196862
  31 H :    0.181573
  32 H :    0.191018
  33 H :    0.161501
  34 H :    0.168436
  35 H :    0.163607
  36 H :    0.182164
  37 H :    0.190394
  38 H :    0.162283
  39 H :    0.168422
  40 H :    0.163866

  Mayer bond orders larger than 0.100000
B(  0-C ,  1-C ) :   0.9522 B(  0-C , 19-H ) :   0.9692 B(  0-C , 20-H ) :   0.9691
B(  0-C , 21-H ) :   0.9582 B(  1-C ,  2-O ) :   0.7727 B(  1-C , 22-H ) :   0.9369
B(  1-C , 23-H ) :   0.9478 B(  2-O ,  3-P ) :   1.1020 B(  3-P ,  4-S ) :   1.6968
B(  3-P ,  5-O ) :   1.1727 B(  3-P ,  8-S ) :   1.0714 B(  5-O ,  6-C ) :   0.7688
B(  6-C ,  7-C ) :   0.9181 B(  6-C , 24-H ) :   0.9580 B(  6-C , 25-H ) :   0.9525
B(  7-C , 26-H ) :   0.9576 B(  7-C , 27-H ) :   0.9711 B(  7-C , 28-H ) :   0.9605
B(  8-S ,  9-C ) :   0.8986 B(  9-C , 10-S ) :   0.8969 B(  9-C , 29-H ) :   0.9048
B(  9-C , 30-H ) :   0.9032 B( 10-S , 11-P ) :   1.0955 B( 11-P , 12-S ) :   1.7005
B( 11-P , 13-O ) :   1.0762 B( 11-P , 16-O ) :   1.1558 B( 13-O , 14-C ) :   0.8009
B( 14-C , 15-C ) :   0.9096 B( 14-C , 31-H ) :   0.9660 B( 14-C , 32-H ) :   0.9484
B( 15-C , 33-H ) :   0.9638 B( 15-C , 34-H ) :   0.9533 B( 15-C , 35-H ) :   0.9655
B( 16-O , 17-C ) :   0.7778 B( 17-C , 18-C ) :   0.9145 B( 17-C , 36-H ) :   0.9594
B( 17-C , 37-H ) :   0.9532 B( 18-C , 38-H ) :   0.9602 B( 18-C , 39-H ) :   0.9570
B( 18-C , 40-H ) :   0.9713

Dispersion correction           -0.021490204
FINAL SINGLE POINT ENERGY     -2932.473557166671

DIPOLE MOMENT
-------------

Method             : SCF
Type of density    : Electron Density
Multiplicity       :   1
Irrep              :   0
Energy             : -2932.4983772209138806 Eh
Relativity type    :
Basis              : AO
                                X                 Y                 Z
Electronic contribution:     -1.506580100      10.574979847      -8.288850255
Nuclear contribution   :      1.331386039     -11.545415937       9.028897319
                        -----------------------------------------
Total Dipole Moment    :     -0.175194061      -0.970436089       0.740047064
                        -----------------------------------------
Magnitude (a.u.)       :      1.232926932
Magnitude (Debye)      :      3.133851210

Rotational constants in cm-1:             0.013042             0.004820             0.004687
Rotational constants in MHz :           391.000103           144.487276           140.504928

                             ****ORCA TERMINATED NORMALLY****
TOTAL RUN TIME: 0 days 0 hours 1 minutes 49 seconds 444 msec
