                         Program Version 6.0.1  -  RELEASE   -
|  1> ! pbe def2-sv(p) def2/J RI DEFGRID1 loosescf d4 GCP(DFT/SV(P)) printgap
|  2> %output
|  3>     printlevel normal
|  4> end
|  5> * xyz 0 1
|  6> C 5.4247587238 -2.2277208377 -1.7600223004
|  7> C 4.929976285 -1.0993138826 -0.8691033888
|  8> O 3.6809024729 -1.4469938663 -0.2405901236
|  9> C 2.5636704816 -1.2252738638 -0.902148852
| 10> O 2.4980898615 -0.7196816304 -2.0004205721
| 11> C 1.3542372393 -1.6935234833 -0.1116370556
| 12> C 0.2572419862 -0.6424040352 -0.203141754
| 13> H 0.0897904047 -0.3730016667 -1.2550109721
| 14> C 0.5939019815 0.6403187541 0.5308929938
| 15> O -0.2531897102 1.2971974336 1.1023131875
| 16> O 1.8604990892 0.9487741871 0.4499921363
| 17> C 2.3136848634 2.1618982935 1.0931219722
| 18> C 2.6509848901 1.9009201651 2.5515230202
| 19> S -1.3176210903 -1.2622170693 0.4714626325
| 20> P -2.5338034949 0.4296078913 0.045700772
| 21> S -1.9837303198 1.5788228649 -1.442188092
| 22> O -3.9373289569 -0.3045841674 -0.2403422137
| 23> C -4.1404063917 -1.0966712658 -1.4128760427
| 24> O -2.9287958664 1.1879599351 1.3719626481
| 25> C -3.4514112323 0.4992933597 2.5254595801
| 26> H 5.5067841992 -3.1478483338 -1.1881982815
| 27> H 4.7334799011 -2.3825334162 -2.5852646342
| 28> H 6.3984525863 -1.9673475455 -2.161700765
| 29> H 4.7841051625 -0.1836676106 -1.4490638975
| 30> H 5.6129860451 -0.9213611113 -0.0385704679
| 31> H 1.6430119876 -1.8840861044 0.920621054
| 32> H 0.9911708639 -2.6213115532 -0.5578845687
| 33> H 3.1943098636 2.4552313827 0.5217768292
| 34> H 1.5295236383 2.9180220857 0.9979521034
| 35> H 1.7544600408 1.6184682454 3.09863206
| 36> H 3.3834749066 1.1022429457 2.6292419045
| 37> H 3.0588848442 2.8061594478 2.9887326525
| 38> H -5.2117592515 -1.2717419449 -1.467052348
| 39> H -3.6001054989 -2.0389464205 -1.3216914978
| 40> H -3.7981648639 -0.5537233499 -2.2956817216
| 41> H -3.5114776144 1.257760476 3.301581511
| 42> H -2.7731275004 -0.3014780699 2.8207711392
| 43> H -4.4353279788 0.0929948758 2.2981542927
| 44> *
| 45>
| 46>                          ****END OF INPUT****

CARTESIAN COORDINATES (ANGSTROEM)
---------------------------------
  C      5.424759   -2.227721   -1.760022
  C      4.929976   -1.099314   -0.869103
  O      3.680902   -1.446994   -0.240590
  C      2.563670   -1.225274   -0.902149
  O      2.498090   -0.719682   -2.000421
  C      1.354237   -1.693523   -0.111637
  C      0.257242   -0.642404   -0.203142
  H      0.089790   -0.373002   -1.255011
  C      0.593902    0.640319    0.530893
  O     -0.253190    1.297197    1.102313
  O      1.860499    0.948774    0.449992
  C      2.313685    2.161898    1.093122
  C      2.650985    1.900920    2.551523
  S     -1.317621   -1.262217    0.471463
  P     -2.533803    0.429608    0.045701
  S     -1.983730    1.578823   -1.442188
  O     -3.937329   -0.304584   -0.240342
  C     -4.140406   -1.096671   -1.412876
  O     -2.928796    1.187960    1.371963
  C     -3.451411    0.499293    2.525460
  H      5.506784   -3.147848   -1.188198
  H      4.733480   -2.382533   -2.585265
  H      6.398453   -1.967348   -2.161701
  H      4.784105   -0.183668   -1.449064
  H      5.612986   -0.921361   -0.038570
  H      1.643012   -1.884086    0.920621
  H      0.991171   -2.621312   -0.557885
  H      3.194310    2.455231    0.521777
  H      1.529524    2.918022    0.997952
  H      1.754460    1.618468    3.098632
  H      3.383475    1.102243    2.629242
  H      3.058885    2.806159    2.988733
  H     -5.211759   -1.271742   -1.467052
  H     -3.600105   -2.038946   -1.321691
  H     -3.798165   -0.553723   -2.295682
  H     -3.511478    1.257760    3.301582
  H     -2.773128   -0.301478    2.820771
  H     -4.435328    0.092995    2.298154

 Total Charge           Charge          ....    0
 Multiplicity           Mult            ....    1
 Number of Electrons    NEL             ....  174
 Basis Dimension        Dim             ....  316

ORBITAL ENERGIES
----------------

  NO   OCC          E(Eh)            E(eV)
   0   2.0000     -88.036032     -2395.5822
   1   2.0000     -87.969625     -2393.7752
   2   2.0000     -76.416176     -2079.3899
   3   2.0000     -18.819598      -512.1073
   4   2.0000     -18.806692      -511.7561
   5   2.0000     -18.780281      -511.0374
   6   2.0000     -18.778180      -510.9803
   7   2.0000     -18.746322      -510.1134
   8   2.0000     -18.742182      -510.0007
   9   2.0000     -10.020339      -272.6673
  10   2.0000     -10.015404      -272.5330
  11   2.0000      -9.956873      -270.9403
  12   2.0000      -9.953261      -270.8420
  13   2.0000      -9.945068      -270.6191
  14   2.0000      -9.941735      -270.5284
  15   2.0000      -9.933712      -270.3100
  16   2.0000      -9.917367      -269.8653
  17   2.0000      -9.894543      -269.2442
  18   2.0000      -9.891727      -269.1676
  19   2.0000      -7.680886      -209.0075
  20   2.0000      -7.614876      -207.2113
  21   2.0000      -6.412419      -174.4908
  22   2.0000      -5.708623      -155.3395
  23   2.0000      -5.705514      -155.2549
  24   2.0000      -5.697938      -155.0488
  25   2.0000      -5.644162      -153.5855
  26   2.0000      -5.635478      -153.3492
  27   2.0000      -5.634653      -153.3267
  28   2.0000      -4.635180      -126.1297
  29   2.0000      -4.634482      -126.1107
  30   2.0000      -4.632693      -126.0620
  31   2.0000      -1.027409       -27.9572
  32   2.0000      -1.014323       -27.6011
  33   2.0000      -0.974851       -26.5270
  34   2.0000      -0.930354       -25.3162
  35   2.0000      -0.926772       -25.2187
  36   2.0000      -0.919670       -25.0255
  37   2.0000      -0.766152       -20.8480
  38   2.0000      -0.714840       -19.4518
  39   2.0000      -0.712727       -19.3943
  40   2.0000      -0.688655       -18.7393
  41   2.0000      -0.658442       -17.9171
  42   2.0000      -0.626931       -17.0597
  43   2.0000      -0.624207       -16.9855
  44   2.0000      -0.610127       -16.6024
  45   2.0000      -0.600305       -16.3351
  46   2.0000      -0.567750       -15.4493
  47   2.0000      -0.512356       -13.9419
  48   2.0000      -0.505760       -13.7624
  49   2.0000      -0.500663       -13.6237
  50   2.0000      -0.475271       -12.9328
  51   2.0000      -0.471701       -12.8356
  52   2.0000      -0.464002       -12.6261
  53   2.0000      -0.445949       -12.1349
  54   2.0000      -0.439936       -11.9713
  55   2.0000      -0.432642       -11.7728
  56   2.0000      -0.425336       -11.5740
  57   2.0000      -0.422041       -11.4843
  58   2.0000      -0.410717       -11.1762
  59   2.0000      -0.406397       -11.0586
  60   2.0000      -0.404418       -11.0048
  61   2.0000      -0.399414       -10.8686
  62   2.0000      -0.391607       -10.6562
  63   2.0000      -0.386651       -10.5213
  64   2.0000      -0.380351       -10.3499
  65   2.0000      -0.367766       -10.0074
  66   2.0000      -0.364769        -9.9259
  67   2.0000      -0.355356        -9.6697
  68   2.0000      -0.352317        -9.5870
  69   2.0000      -0.341961        -9.3052
  70   2.0000      -0.335425        -9.1274
  71   2.0000      -0.332966        -9.0605
  72   2.0000      -0.326890        -8.8951
  73   2.0000      -0.312743        -8.5102
  74   2.0000      -0.304385        -8.2827
  75   2.0000      -0.299267        -8.1435
  76   2.0000      -0.290578        -7.9070
  77   2.0000      -0.286848        -7.8055
  78   2.0000      -0.274460        -7.4684
  79   2.0000      -0.263023        -7.1572
  80   2.0000      -0.261674        -7.1205
  81   2.0000      -0.249850        -6.7988
  82   2.0000      -0.235372        -6.4048
  83   2.0000      -0.228274        -6.2117
  84   2.0000      -0.219060        -5.9609
  85   2.0000      -0.191159        -5.2017
  86   2.0000      -0.183668        -4.9979
  87   0.0000      -0.043522        -1.1843
  88   0.0000      -0.027919        -0.7597
  89   0.0000      -0.020277        -0.5518
  90   0.0000       0.013476         0.3667
  91   0.0000       0.027963         0.7609

MULLIKEN ATOMIC CHARGES
-----------------------
   0 C :   -0.306372
   1 C :   -0.014206
   2 O :   -0.230802
   3 C :    0.119803
   4 O :   -0.201581
   5 C :   -0.062389
   6 C :   -0.333670
   7 H :    0.175576
   8 C :    0.224991
   9 O :   -0.182792
  10 O :   -0.221939
  11 C :   -0.008480
  12 C :   -0.308514
  13 S :   -0.109818
  14 P :    0.625556
  15 S :   -0.323860
  16 O :   -0.397341
  17 C :   -0.098192
  18 O :   -0.353251
  19 C :   -0.101290
  20 H :    0.114680
  21 H :    0.129405
  22 H :    0.114773
  23 H :    0.111148
  24 H :    0.101651
  25 H :    0.104951
  26 H :    0.126543
  27 H :    0.109212
  28 H :    0.124134
  29 H :    0.129255
  30 H :    0.115420
  31 H :    0.118116
  32 H :    0.119864
  33 H :    0.108395
  34 H :    0.115485
  35 H :    0.129317
  36 H :    0.114039
  37 H :    0.122180
Sum of atomic charges:   -0.0000000

LOEWDIN ATOMIC CHARGES
----------------------
   0 C :   -0.356056
   1 C :   -0.110929
   2 O :   -0.057119
   3 C :    0.029178
   4 O :   -0.166079
   5 C :   -0.247638
   6 C :   -0.273374
   7 H :    0.151579
   8 C :    0.022494
   9 O :   -0.154367
  10 O :   -0.033656
  11 C :   -0.104499
  12 C :   -0.355729
  13 S :    0.087089
  14 P :    0.586228
  15 S :   -0.320334
  16 O :   -0.268401
  17 C :   -0.220069
  18 O :   -0.231387
  19 C :   -0.207953
  20 H :    0.125085
  21 H :    0.131618
  22 H :    0.131576
  23 H :    0.120972
  24 H :    0.117174
  25 H :    0.133817
  26 H :    0.148987
  27 H :    0.121077
  28 H :    0.128456
  29 H :    0.131598
  30 H :    0.125280
  31 H :    0.133483
  32 H :    0.119597
  33 H :    0.104584
  34 H :    0.109615
  35 H :    0.125313
  36 H :    0.107971
  37 H :    0.114821

  Mayer bond orders larger than 0.100000
B(  0-C ,  1-C ) :   1.1744 B(  0-C , 20-H ) :   0.9488 B(  0-C , 21-H ) :   0.9458
B(  0-C , 22-H ) :   0.9440 B(  1-C ,  2-O ) :   0.9166 B(  1-C , 23-H ) :   0.9137
B(  1-C , 24-H ) :   0.9369 B(  2-O ,  3-C ) :   1.2363 B(  3-C ,  4-O ) :   2.0410
B(  3-C ,  5-C ) :   1.0032 B(  5-C ,  6-C ) :   1.0501 B(  5-C , 25-H ) :   0.9058
B(  5-C , 26-H ) :   0.8798 B(  6-C ,  7-H ) :   0.8284 B(  6-C ,  8-C ) :   0.8981
B(  6-C , 13-S ) :   1.0328 B(  8-C ,  9-O ) :   2.0019 B(  8-C , 10-O ) :   1.2643
B( 10-O , 11-C ) :   0.8994 B( 11-C , 12-C ) :   1.1741 B( 11-C , 27-H ) :   0.9361
B( 11-C , 28-H ) :   0.9145 B( 12-C , 29-H ) :   0.9454 B( 12-C , 30-H ) :   0.9478
B( 12-C , 31-H ) :   0.9435 B( 13-S , 14-P ) :   0.9327 B( 13-S , 15-S ) :   0.1125
B( 14-P , 15-S ) :   1.6290 B( 14-P , 16-O ) :   1.0464 B( 14-P , 18-O ) :   1.1312
B( 16-O , 17-C ) :   0.9402 B( 17-C , 32-H ) :   0.9590 B( 17-C , 33-H ) :   0.9462
B( 17-C , 34-H ) :   0.9330 B( 18-O , 19-C ) :   0.9234 B( 19-C , 35-H ) :   0.9600
B( 19-C , 36-H ) :   0.9392 B( 19-C , 37-H ) :   0.9475

Dispersion correction           -0.050330088
FINAL SINGLE POINT ENERGY     -1979.015028522218

DIPOLE MOMENT
-------------

Method             : SCF
Type of density    : Electron Density
Multiplicity       :   1
Irrep              :   0
Energy             : -1979.1467253446353425 Eh
Relativity type    :
Basis              : AO
                                X                 Y                 Z
Electronic contribution:    -19.197476267       4.415251346      -3.705112074
Nuclear contribution   :     20.527225313      -5.441295333       4.926116891
                        -----------------------------------------
Total Dipole Moment    :      1.329749045      -1.026043987       1.221004817
                        -----------------------------------------
Magnitude (a.u.)       :      2.076499832
Magnitude (Debye)      :      5.278043119

Rotational constants in cm-1:             0.016727             0.005524             0.004873
Rotational constants in MHz :           501.469371           165.592569           146.095497

                             ****ORCA TERMINATED NORMALLY****
TOTAL RUN TIME: 0 days 0 hours 0 minutes 28 seconds 205 msec
