                         Program Version 6.0.0  -   RELEASE  -
|  1> ! r2scan-3c def2/J RI DEFGRID2 scfconv6 printgap
|  2> %output
|  3>     printlevel normal
|  4> end
|  5> * xyz 0 1
|  6> C 5.4249764566 -1.2687038287 -0.6906683944
|  7> C 4.15750123 -2.1000298146 -0.7073024114
|  8> O 3.0398019317 -1.3686642043 -1.2553052606
|  9> P 2.2500460906 -0.2506433061 -0.4586748778
| 10> S 3.0738152398 1.5098392826 -0.1793919141
| 11> O 1.8340649684 -0.9971428389 0.8901886778
| 12> C 1.8623508049 -0.3995614201 2.1984519367
| 13> C 3.060556539 -0.9106680587 2.9735236281
| 14> S 0.5560966871 -0.2903045598 -1.7164347709
| 15> C -0.1604570958 1.2737473296 -1.1345104259
| 16> S -0.7274869813 1.187349416 0.5827403913
| 17> P -2.6217734507 0.2467638609 0.2561323484
| 18> S -3.3316815243 0.4007386776 -1.5703478862
| 19> O -3.5594275944 0.8294154888 1.3853727225
| 20> C -4.384485557 1.9868651265 1.1664455334
| 21> C -3.5662267744 3.2600206704 1.0801322299
| 22> O -2.5017664283 -1.189177097 0.9128727738
| 23> C -1.5774198931 -2.2225793728 0.5379173501
| 24> C -1.9247192133 -2.8541228071 -0.7958868438
| 25> H 5.3066712083 -0.4058707846 -0.0374550552
| 26> H 6.2492723895 -1.8765454822 -0.3310689326
| 27> H 5.6520697243 -0.9106173866 -1.6915044774
| 28> H 3.8953114109 -2.4409881502 0.2975339829
| 29> H 4.254740335 -2.9586739695 -1.3739781538
| 30> H 1.9012362888 0.6893823053 2.0944742944
| 31> H 0.9217712515 -0.6839094128 2.6736022262
| 32> H 3.9809648657 -0.58986501 2.489832841
| 33> H 3.031819766 -0.5039970083 3.9790985427
| 34> H 3.0428632657 -1.9959067132 3.0252430744
| 35> H -1.0068898381 1.4908779426 -1.7874480057
| 36> H 0.5949580289 2.0577882531 -1.1781195352
| 37> H -4.9625177671 1.8369777252 0.2486214097
| 38> H -5.0540106491 1.9971438486 2.0275296879
| 39> H -2.9593640632 3.2536047334 0.1757675866
| 40> H -4.2341689507 4.1148021575 1.0479982219
| 41> H -2.9101733834 3.3459153459 1.942577707
| 42> H -0.5620009045 -1.8142688195 0.5193118272
| 43> H -1.6613526721 -2.9468066565 1.3507909825
| 44> H -1.26673383 -3.6987225914 -0.9735439826
| 45> H -2.9569694849 -3.1944371884 -0.7911671562
| 46> H -1.7966866788 -2.1364476223 -1.6043562368
| 47> *
| 48>
| 49>                          ****END OF INPUT****

CARTESIAN COORDINATES (ANGSTROEM)
---------------------------------
  C      5.424976   -1.268704   -0.690668
  C      4.157501   -2.100030   -0.707302
  O      3.039802   -1.368664   -1.255305
  P      2.250046   -0.250643   -0.458675
  S      3.073815    1.509839   -0.179392
  O      1.834065   -0.997143    0.890189
  C      1.862351   -0.399561    2.198452
  C      3.060557   -0.910668    2.973524
  S      0.556097   -0.290305   -1.716435
  C     -0.160457    1.273747   -1.134510
  S     -0.727487    1.187349    0.582740
  P     -2.621773    0.246764    0.256132
  S     -3.331682    0.400739   -1.570348
  O     -3.559428    0.829415    1.385373
  C     -4.384486    1.986865    1.166446
  C     -3.566227    3.260021    1.080132
  O     -2.501766   -1.189177    0.912873
  C     -1.577420   -2.222579    0.537917
  C     -1.924719   -2.854123   -0.795887
  H      5.306671   -0.405871   -0.037455
  H      6.249272   -1.876545   -0.331069
  H      5.652070   -0.910617   -1.691504
  H      3.895311   -2.440988    0.297534
  H      4.254740   -2.958674   -1.373978
  H      1.901236    0.689382    2.094474
  H      0.921771   -0.683909    2.673602
  H      3.980965   -0.589865    2.489833
  H      3.031820   -0.503997    3.979099
  H      3.042863   -1.995907    3.025243
  H     -1.006890    1.490878   -1.787448
  H      0.594958    2.057788   -1.178120
  H     -4.962518    1.836978    0.248621
  H     -5.054011    1.997144    2.027530
  H     -2.959364    3.253605    0.175768
  H     -4.234169    4.114802    1.047998
  H     -2.910173    3.345915    1.942578
  H     -0.562001   -1.814269    0.519312
  H     -1.661353   -2.946807    1.350791
  H     -1.266734   -3.698723   -0.973544
  H     -2.956969   -3.194437   -0.791167
  H     -1.796687   -2.136448   -1.604356

 Total Charge           Charge          ....    0
 Multiplicity           Mult            ....    1
 Number of Electrons    NEL             ....  202
 Basis Dimension        Dim             ....  539

ORBITAL ENERGIES
----------------

  NO   OCC          E(Eh)            E(eV)
   0   2.0000     -88.576981     -2410.3022
   1   2.0000     -88.576429     -2410.2872
   2   2.0000     -88.526250     -2408.9217
   3   2.0000     -88.524064     -2408.8622
   4   2.0000     -76.919634     -2093.0896
   5   2.0000     -76.915527     -2092.9779
   6   2.0000     -18.997793      -516.9562
   7   2.0000     -18.997758      -516.9553
   8   2.0000     -18.991538      -516.7860
   9   2.0000     -18.989250      -516.7238
  10   2.0000     -10.108119      -275.0559
  11   2.0000     -10.103449      -274.9288
  12   2.0000     -10.100448      -274.8472
  13   2.0000     -10.097518      -274.7674
  14   2.0000     -10.095266      -274.7062
  15   2.0000     -10.036735      -273.1134
  16   2.0000     -10.032872      -273.0083
  17   2.0000     -10.027780      -272.8698
  18   2.0000     -10.020593      -272.6742
  19   2.0000      -7.871209      -214.1865
  20   2.0000      -7.870632      -214.1708
  21   2.0000      -7.821016      -212.8207
  22   2.0000      -7.818816      -212.7608
  23   2.0000      -6.597837      -179.5363
  24   2.0000      -6.593932      -179.4300
  25   2.0000      -5.818068      -158.3177
  26   2.0000      -5.817507      -158.3024
  27   2.0000      -5.815000      -158.2342
  28   2.0000      -5.814562      -158.2223
  29   2.0000      -5.808449      -158.0559
  30   2.0000      -5.807694      -158.0354
  31   2.0000      -5.768671      -156.9735
  32   2.0000      -5.766455      -156.9132
  33   2.0000      -5.761465      -156.7774
  34   2.0000      -5.760854      -156.7608
  35   2.0000      -5.759041      -156.7115
  36   2.0000      -5.758897      -156.7076
  37   2.0000      -4.743634      -129.0808
  38   2.0000      -4.742497      -129.0499
  39   2.0000      -4.741580      -129.0249
  40   2.0000      -4.739221      -128.9607
  41   2.0000      -4.739146      -128.9587
  42   2.0000      -4.737604      -128.9167
  43   2.0000      -1.055227       -28.7142
  44   2.0000      -1.052784       -28.6477
  45   2.0000      -1.015424       -27.6311
  46   2.0000      -1.009346       -27.4657
  47   2.0000      -0.802388       -21.8341
  48   2.0000      -0.763032       -20.7632
  49   2.0000      -0.751759       -20.4564
  50   2.0000      -0.738093       -20.0845
  51   2.0000      -0.725428       -19.7399
  52   2.0000      -0.712981       -19.4012
  53   2.0000      -0.689682       -18.7672
  54   2.0000      -0.671689       -18.2776
  55   2.0000      -0.634006       -17.2522
  56   2.0000      -0.627455       -17.0739
  57   2.0000      -0.615597       -16.7512
  58   2.0000      -0.601342       -16.3633
  59   2.0000      -0.592326       -16.1180
  60   2.0000      -0.531876       -14.4731
  61   2.0000      -0.518692       -14.1143
  62   2.0000      -0.501718       -13.6524
  63   2.0000      -0.488029       -13.2799
  64   2.0000      -0.480505       -13.0752
  65   2.0000      -0.465742       -12.6735
  66   2.0000      -0.458985       -12.4896
  67   2.0000      -0.454530       -12.3684
  68   2.0000      -0.437316       -11.9000
  69   2.0000      -0.436770       -11.8851
  70   2.0000      -0.429964       -11.6999
  71   2.0000      -0.425434       -11.5766
  72   2.0000      -0.413798       -11.2600
  73   2.0000      -0.401628       -10.9289
  74   2.0000      -0.397439       -10.8149
  75   2.0000      -0.392488       -10.6801
  76   2.0000      -0.387571       -10.5464
  77   2.0000      -0.376431       -10.2432
  78   2.0000      -0.372096       -10.1252
  79   2.0000      -0.370686       -10.0869
  80   2.0000      -0.362508        -9.8643
  81   2.0000      -0.359468        -9.7816
  82   2.0000      -0.356332        -9.6963
  83   2.0000      -0.353100        -9.6083
  84   2.0000      -0.349231        -9.5031
  85   2.0000      -0.338722        -9.2171
  86   2.0000      -0.323401        -8.8002
  87   2.0000      -0.313617        -8.5340
  88   2.0000      -0.313103        -8.5200
  89   2.0000      -0.310823        -8.4579
  90   2.0000      -0.302592        -8.2339
  91   2.0000      -0.298460        -8.1215
  92   2.0000      -0.286586        -7.7984
  93   2.0000      -0.281378        -7.6567
  94   2.0000      -0.275207        -7.4888
  95   2.0000      -0.249675        -6.7940
  96   2.0000      -0.232456        -6.3254
  97   2.0000      -0.229636        -6.2487
  98   2.0000      -0.220652        -6.0043
  99   2.0000      -0.218503        -5.9458
 100   2.0000      -0.215895        -5.8748
 101   0.0000      -0.052023        -1.4156
 102   0.0000      -0.030327        -0.8253
 103   0.0000      -0.009386        -0.2554
 104   0.0000      -0.003649        -0.0993
 105   0.0000       0.010268         0.2794

MULLIKEN ATOMIC CHARGES
-----------------------
   0 C :   -0.423378
   1 C :   -0.165954
   2 O :   -0.299843
   3 P :    0.669364
   4 S :   -0.465672
   5 O :   -0.291124
   6 C :   -0.102590
   7 C :   -0.493309
   8 S :   -0.118831
   9 C :   -0.241126
  10 S :   -0.140632
  11 P :    0.682769
  12 S :   -0.462397
  13 O :   -0.313345
  14 C :   -0.150522
  15 C :   -0.437599
  16 O :   -0.276263
  17 C :   -0.162207
  18 C :   -0.419920
  19 H :    0.165603
  20 H :    0.146723
  21 H :    0.159745
  22 H :    0.159749
  23 H :    0.152071
  24 H :    0.179721
  25 H :    0.158839
  26 H :    0.163973
  27 H :    0.150702
  28 H :    0.155821
  29 H :    0.216888
  30 H :    0.217961
  31 H :    0.173244
  32 H :    0.149489
  33 H :    0.169069
  34 H :    0.147442
  35 H :    0.154727
  36 H :    0.174798
  37 H :    0.147480
  38 H :    0.144669
  39 H :    0.152605
  40 H :    0.171259
Sum of atomic charges:   -0.0000000

LOEWDIN ATOMIC CHARGES
----------------------
   0 C :   -0.401553
   1 C :    0.031034
   2 O :   -0.664829
   3 P :    0.381996
   4 S :   -0.126614
   5 O :   -0.691757
   6 C :    0.000075
   7 C :   -0.396968
   8 S :    0.174802
   9 C :   -0.426213
  10 S :    0.153655
  11 P :    0.395065
  12 S :   -0.125340
  13 O :   -0.651043
  14 C :    0.021943
  15 C :   -0.405300
  16 O :   -0.647913
  17 C :    0.020427
  18 C :   -0.408868
  19 H :    0.165224
  20 H :    0.158407
  21 H :    0.163932
  22 H :    0.175060
  23 H :    0.182016
  24 H :    0.184397
  25 H :    0.177867
  26 H :    0.160584
  27 H :    0.162000
  28 H :    0.157324
  29 H :    0.194274
  30 H :    0.190930
  31 H :    0.180128
  32 H :    0.180226
  33 H :    0.162945
  34 H :    0.158903
  35 H :    0.160749
  36 H :    0.186694
  37 H :    0.179417
  38 H :    0.159011
  39 H :    0.160892
  40 H :    0.166419

  Mayer bond orders larger than 0.100000
B(  0-C ,  1-C ) :   0.9447 B(  0-C , 19-H ) :   0.9531 B(  0-C , 20-H ) :   0.9660
B(  0-C , 21-H ) :   0.9685 B(  1-C ,  2-O ) :   0.7909 B(  1-C , 22-H ) :   0.9675
B(  1-C , 23-H ) :   0.9599 B(  2-O ,  3-P ) :   1.1560 B(  3-P ,  4-S ) :   1.7770
B(  3-P ,  5-O ) :   1.0396 B(  3-P ,  8-S ) :   1.0950 B(  5-O ,  6-C ) :   0.7406
B(  6-C ,  7-C ) :   0.9282 B(  6-C , 24-H ) :   0.9483 B(  6-C , 25-H ) :   0.9579
B(  7-C , 26-H ) :   0.9717 B(  7-C , 27-H ) :   0.9622 B(  7-C , 28-H ) :   0.9790
B(  8-S ,  9-C ) :   0.9060 B(  9-C , 10-S ) :   0.8924 B(  9-C , 29-H ) :   0.8981
B(  9-C , 30-H ) :   0.9079 B( 10-S , 11-P ) :   1.0466 B( 11-P , 12-S ) :   1.7496
B( 11-P , 13-O ) :   1.1296 B( 11-P , 16-O ) :   1.1447 B( 13-O , 14-C ) :   0.8165
B( 14-C , 15-C ) :   0.9225 B( 14-C , 31-H ) :   0.9676 B( 14-C , 32-H ) :   0.9589
B( 15-C , 33-H ) :   0.9658 B( 15-C , 34-H ) :   0.9605 B( 15-C , 35-H ) :   0.9677
B( 16-O , 17-C ) :   0.8055 B( 17-C , 18-C ) :   0.9334 B( 17-C , 36-H ) :   0.9528
B( 17-C , 37-H ) :   0.9635 B( 18-C , 38-H ) :   0.9662 B( 18-C , 39-H ) :   0.9692
B( 18-C , 40-H ) :   0.9515

Dispersion correction           -0.021808269
FINAL SINGLE POINT ENERGY     -2932.463538807826

DIPOLE MOMENT
-------------

Method             : SCF
Type of density    : Electron Density
Multiplicity       :   1
Irrep              :   0
Energy             : -2932.4885070300128973 Eh
Relativity type    :
Basis              : AO
                                X                 Y                 Z
Electronic contribution:     -8.564557702       6.270526487     -10.428885320
Nuclear contribution   :      9.202847043      -7.033028595      11.648458642
                        -----------------------------------------
Total Dipole Moment    :      0.638289342      -0.762502108       1.219573322
                        -----------------------------------------
Magnitude (a.u.)       :      1.573588839
Magnitude (Debye)      :      3.999744964

Rotational constants in cm-1:             0.013781             0.004603             0.004417
Rotational constants in MHz :           413.145076           137.993758           132.411527

                             ****ORCA TERMINATED NORMALLY****
TOTAL RUN TIME: 0 days 0 hours 1 minutes 24 seconds 29 msec
