                         Program Version 6.0.0  -   RELEASE  -
|  1> ! r2scan-3c def2/J RI DEFGRID2 scfconv6 printgap
|  2> %output
|  3>     printlevel normal
|  4> end
|  5> %cpcm
|  6>     smd true
|  7>     smdsolvent "water"
|  8> end
|  9> * xyz 0 1
| 10> C 5.4249764566 -1.2687038287 -0.6906683944
| 11> C 4.15750123 -2.1000298146 -0.7073024114
| 12> O 3.0398019317 -1.3686642043 -1.2553052606
| 13> P 2.2500460906 -0.2506433061 -0.4586748778
| 14> S 3.0738152398 1.5098392826 -0.1793919141
| 15> O 1.8340649684 -0.9971428389 0.8901886778
| 16> C 1.8623508049 -0.3995614201 2.1984519367
| 17> C 3.060556539 -0.9106680587 2.9735236281
| 18> S 0.5560966871 -0.2903045598 -1.7164347709
| 19> C -0.1604570958 1.2737473296 -1.1345104259
| 20> S -0.7274869813 1.187349416 0.5827403913
| 21> P -2.6217734507 0.2467638609 0.2561323484
| 22> S -3.3316815243 0.4007386776 -1.5703478862
| 23> O -3.5594275944 0.8294154888 1.3853727225
| 24> C -4.384485557 1.9868651265 1.1664455334
| 25> C -3.5662267744 3.2600206704 1.0801322299
| 26> O -2.5017664283 -1.189177097 0.9128727738
| 27> C -1.5774198931 -2.2225793728 0.5379173501
| 28> C -1.9247192133 -2.8541228071 -0.7958868438
| 29> H 5.3066712083 -0.4058707846 -0.0374550552
| 30> H 6.2492723895 -1.8765454822 -0.3310689326
| 31> H 5.6520697243 -0.9106173866 -1.6915044774
| 32> H 3.8953114109 -2.4409881502 0.2975339829
| 33> H 4.254740335 -2.9586739695 -1.3739781538
| 34> H 1.9012362888 0.6893823053 2.0944742944
| 35> H 0.9217712515 -0.6839094128 2.6736022262
| 36> H 3.9809648657 -0.58986501 2.489832841
| 37> H 3.031819766 -0.5039970083 3.9790985427
| 38> H 3.0428632657 -1.9959067132 3.0252430744
| 39> H -1.0068898381 1.4908779426 -1.7874480057
| 40> H 0.5949580289 2.0577882531 -1.1781195352
| 41> H -4.9625177671 1.8369777252 0.2486214097
| 42> H -5.0540106491 1.9971438486 2.0275296879
| 43> H -2.9593640632 3.2536047334 0.1757675866
| 44> H -4.2341689507 4.1148021575 1.0479982219
| 45> H -2.9101733834 3.3459153459 1.942577707
| 46> H -0.5620009045 -1.8142688195 0.5193118272
| 47> H -1.6613526721 -2.9468066565 1.3507909825
| 48> H -1.26673383 -3.6987225914 -0.9735439826
| 49> H -2.9569694849 -3.1944371884 -0.7911671562
| 50> H -1.7966866788 -2.1364476223 -1.6043562368
| 51> *
| 52>
| 53>                          ****END OF INPUT****

CARTESIAN COORDINATES (ANGSTROEM)
---------------------------------
  C      5.424976   -1.268704   -0.690668
  C      4.157501   -2.100030   -0.707302
  O      3.039802   -1.368664   -1.255305
  P      2.250046   -0.250643   -0.458675
  S      3.073815    1.509839   -0.179392
  O      1.834065   -0.997143    0.890189
  C      1.862351   -0.399561    2.198452
  C      3.060557   -0.910668    2.973524
  S      0.556097   -0.290305   -1.716435
  C     -0.160457    1.273747   -1.134510
  S     -0.727487    1.187349    0.582740
  P     -2.621773    0.246764    0.256132
  S     -3.331682    0.400739   -1.570348
  O     -3.559428    0.829415    1.385373
  C     -4.384486    1.986865    1.166446
  C     -3.566227    3.260021    1.080132
  O     -2.501766   -1.189177    0.912873
  C     -1.577420   -2.222579    0.537917
  C     -1.924719   -2.854123   -0.795887
  H      5.306671   -0.405871   -0.037455
  H      6.249272   -1.876545   -0.331069
  H      5.652070   -0.910617   -1.691504
  H      3.895311   -2.440988    0.297534
  H      4.254740   -2.958674   -1.373978
  H      1.901236    0.689382    2.094474
  H      0.921771   -0.683909    2.673602
  H      3.980965   -0.589865    2.489833
  H      3.031820   -0.503997    3.979099
  H      3.042863   -1.995907    3.025243
  H     -1.006890    1.490878   -1.787448
  H      0.594958    2.057788   -1.178120
  H     -4.962518    1.836978    0.248621
  H     -5.054011    1.997144    2.027530
  H     -2.959364    3.253605    0.175768
  H     -4.234169    4.114802    1.047998
  H     -2.910173    3.345915    1.942578
  H     -0.562001   -1.814269    0.519312
  H     -1.661353   -2.946807    1.350791
  H     -1.266734   -3.698723   -0.973544
  H     -2.956969   -3.194437   -0.791167
  H     -1.796687   -2.136448   -1.604356

 Total Charge           Charge          ....    0
 Multiplicity           Mult            ....    1
 Number of Electrons    NEL             ....  202
 Basis Dimension        Dim             ....  539

ORBITAL ENERGIES
----------------

  NO   OCC          E(Eh)            E(eV)
   0   2.0000     -88.579883     -2410.3812
   1   2.0000     -88.579832     -2410.3798
   2   2.0000     -88.531906     -2409.0756
   3   2.0000     -88.530413     -2409.0350
   4   2.0000     -76.921440     -2093.1388
   5   2.0000     -76.921260     -2093.1339
   6   2.0000     -18.996288      -516.9153
   7   2.0000     -18.996281      -516.9151
   8   2.0000     -18.995136      -516.8839
   9   2.0000     -18.994421      -516.8645
  10   2.0000     -10.103636      -274.9339
  11   2.0000     -10.091788      -274.6115
  12   2.0000     -10.090030      -274.5637
  13   2.0000     -10.090006      -274.5630
  14   2.0000     -10.087561      -274.4965
  15   2.0000     -10.018229      -272.6099
  16   2.0000     -10.017821      -272.5988
  17   2.0000     -10.017809      -272.5984
  18   2.0000     -10.016213      -272.5550
  19   2.0000      -7.874147      -214.2664
  20   2.0000      -7.874076      -214.2645
  21   2.0000      -7.826911      -212.9811
  22   2.0000      -7.825474      -212.9420
  23   2.0000      -6.599962      -179.5941
  24   2.0000      -6.599461      -179.5805
  25   2.0000      -5.820981      -158.3969
  26   2.0000      -5.820949      -158.3961
  27   2.0000      -5.818035      -158.3168
  28   2.0000      -5.817885      -158.3127
  29   2.0000      -5.811319      -158.1340
  30   2.0000      -5.811257      -158.1323
  31   2.0000      -5.774488      -157.1318
  32   2.0000      -5.773062      -157.0930
  33   2.0000      -5.767142      -156.9319
  34   2.0000      -5.766998      -156.9280
  35   2.0000      -5.765845      -156.8966
  36   2.0000      -5.765401      -156.8845
  37   2.0000      -4.745250      -129.1248
  38   2.0000      -4.745175      -129.1228
  39   2.0000      -4.745148      -129.1220
  40   2.0000      -4.744130      -129.0943
  41   2.0000      -4.743668      -129.0818
  42   2.0000      -4.743319      -129.0723
  43   2.0000      -1.057919       -28.7875
  44   2.0000      -1.052295       -28.6344
  45   2.0000      -1.013659       -27.5831
  46   2.0000      -1.011673       -27.5290
  47   2.0000      -0.804018       -21.8784
  48   2.0000      -0.758338       -20.6354
  49   2.0000      -0.746190       -20.3049
  50   2.0000      -0.723688       -19.6926
  51   2.0000      -0.719695       -19.5839
  52   2.0000      -0.711022       -19.3479
  53   2.0000      -0.691785       -18.8244
  54   2.0000      -0.676421       -18.4063
  55   2.0000      -0.632514       -17.2116
  56   2.0000      -0.622199       -16.9309
  57   2.0000      -0.603647       -16.4261
  58   2.0000      -0.597966       -16.2715
  59   2.0000      -0.589477       -16.0405
  60   2.0000      -0.525245       -14.2926
  61   2.0000      -0.515103       -14.0167
  62   2.0000      -0.492331       -13.3970
  63   2.0000      -0.487591       -13.2680
  64   2.0000      -0.478953       -13.0330
  65   2.0000      -0.461786       -12.5658
  66   2.0000      -0.451230       -12.2786
  67   2.0000      -0.448908       -12.2154
  68   2.0000      -0.434692       -11.8286
  69   2.0000      -0.433279       -11.7901
  70   2.0000      -0.426715       -11.6115
  71   2.0000      -0.424847       -11.5607
  72   2.0000      -0.402300       -10.9471
  73   2.0000      -0.397442       -10.8149
  74   2.0000      -0.392697       -10.6858
  75   2.0000      -0.390534       -10.6270
  76   2.0000      -0.386108       -10.5065
  77   2.0000      -0.373100       -10.1526
  78   2.0000      -0.359726        -9.7887
  79   2.0000      -0.357734        -9.7345
  80   2.0000      -0.355527        -9.6744
  81   2.0000      -0.351682        -9.5698
  82   2.0000      -0.350564        -9.5393
  83   2.0000      -0.346469        -9.4279
  84   2.0000      -0.344741        -9.3809
  85   2.0000      -0.335827        -9.1383
  86   2.0000      -0.320178        -8.7125
  87   2.0000      -0.309230        -8.4146
  88   2.0000      -0.306358        -8.3364
  89   2.0000      -0.302970        -8.2442
  90   2.0000      -0.300457        -8.1759
  91   2.0000      -0.292324        -7.9545
  92   2.0000      -0.286844        -7.8054
  93   2.0000      -0.279805        -7.6139
  94   2.0000      -0.279052        -7.5934
  95   2.0000      -0.251619        -6.8469
  96   2.0000      -0.237869        -6.4727
  97   2.0000      -0.235588        -6.4107
  98   2.0000      -0.226900        -6.1743
  99   2.0000      -0.225589        -6.1386
 100   2.0000      -0.220481        -5.9996
 101   0.0000      -0.056550        -1.5388
 102   0.0000      -0.035269        -0.9597
 103   0.0000      -0.013750        -0.3741
 104   0.0000      -0.005563        -0.1514
 105   0.0000       0.009794         0.2665

MULLIKEN ATOMIC CHARGES
-----------------------
   0 C :   -0.477571
   1 C :   -0.144986
   2 O :   -0.334213
   3 P :    0.696803
   4 S :   -0.511856
   5 O :   -0.300709
   6 C :   -0.096425
   7 C :   -0.521373
   8 S :   -0.142189
   9 C :   -0.249945
  10 S :   -0.136399
  11 P :    0.708509
  12 S :   -0.502038
  13 O :   -0.344001
  14 C :   -0.148256
  15 C :   -0.476354
  16 O :   -0.307650
  17 C :   -0.149653
  18 C :   -0.467368
  19 H :    0.165600
  20 H :    0.171195
  21 H :    0.168820
  22 H :    0.177998
  23 H :    0.175320
  24 H :    0.173960
  25 H :    0.179279
  26 H :    0.168816
  27 H :    0.169756
  28 H :    0.169934
  29 H :    0.230380
  30 H :    0.238339
  31 H :    0.177459
  32 H :    0.175572
  33 H :    0.170061
  34 H :    0.171847
  35 H :    0.167398
  36 H :    0.175305
  37 H :    0.176803
  38 H :    0.172082
  39 H :    0.165153
  40 H :    0.164598
Sum of atomic charges:   -0.0000000

LOEWDIN ATOMIC CHARGES
----------------------
   0 C :   -0.405981
   1 C :    0.038641
   2 O :   -0.680962
   3 P :    0.384758
   4 S :   -0.157376
   5 O :   -0.691566
   6 C :    0.005866
   7 C :   -0.398511
   8 S :    0.158773
   9 C :   -0.420600
  10 S :    0.160093
  11 P :    0.397049
  12 S :   -0.152739
  13 O :   -0.667770
  14 C :    0.026607
  15 C :   -0.408236
  16 O :   -0.664911
  17 C :    0.026353
  18 C :   -0.414157
  19 H :    0.162365
  20 H :    0.168318
  21 H :    0.163255
  22 H :    0.184098
  23 H :    0.191717
  24 H :    0.182500
  25 H :    0.185654
  26 H :    0.162024
  27 H :    0.168257
  28 H :    0.163374
  29 H :    0.198772
  30 H :    0.196630
  31 H :    0.181719
  32 H :    0.191216
  33 H :    0.160881
  34 H :    0.167953
  35 H :    0.163747
  36 H :    0.187851
  37 H :    0.191739
  38 H :    0.168764
  39 H :    0.162757
  40 H :    0.161079

  Mayer bond orders larger than 0.100000
B(  0-C ,  1-C ) :   0.9257 B(  0-C , 19-H ) :   0.9574 B(  0-C , 20-H ) :   0.9592
B(  0-C , 21-H ) :   0.9707 B(  1-C ,  2-O ) :   0.7849 B(  1-C , 22-H ) :   0.9581
B(  1-C , 23-H ) :   0.9524 B(  2-O ,  3-P ) :   1.1652 B(  3-P ,  4-S ) :   1.7444
B(  3-P ,  5-O ) :   1.0542 B(  3-P ,  8-S ) :   1.0991 B(  5-O ,  6-C ) :   0.7274
B(  6-C ,  7-C ) :   0.9352 B(  6-C , 24-H ) :   0.9469 B(  6-C , 25-H ) :   0.9493
B(  7-C , 26-H ) :   0.9687 B(  7-C , 27-H ) :   0.9586 B(  7-C , 28-H ) :   0.9729
B(  8-S ,  9-C ) :   0.8989 B(  9-C , 10-S ) :   0.8879 B(  9-C , 29-H ) :   0.8949
B(  9-C , 30-H ) :   0.9029 B( 10-S , 11-P ) :   1.0611 B( 11-P , 12-S ) :   1.7260
B( 11-P , 13-O ) :   1.1311 B( 11-P , 16-O ) :   1.1439 B( 13-O , 14-C ) :   0.8057
B( 14-C , 15-C ) :   0.9125 B( 14-C , 31-H ) :   0.9639 B( 14-C , 32-H ) :   0.9490
B( 15-C , 33-H ) :   0.9654 B( 15-C , 34-H ) :   0.9549 B( 15-C , 35-H ) :   0.9658
B( 16-O , 17-C ) :   0.7973 B( 17-C , 18-C ) :   0.9147 B( 17-C , 36-H ) :   0.9510
B( 17-C , 37-H ) :   0.9543 B( 18-C , 38-H ) :   0.9607 B( 18-C , 39-H ) :   0.9694
B( 18-C , 40-H ) :   0.9545

Dispersion correction           -0.021808269
FINAL SINGLE POINT ENERGY     -2932.470675970704

DIPOLE MOMENT
-------------

Method             : SCF
Type of density    : Electron Density
Multiplicity       :   1
Irrep              :   0
Energy             : -2932.4956441928902677 Eh
Relativity type    :
Basis              : AO
                                X                 Y                 Z
Electronic contribution:     -8.362416064       6.019811354      -9.897192184
Nuclear contribution   :      9.202847043      -7.033028595      11.648458642
                        -----------------------------------------
Total Dipole Moment    :      0.840430980      -1.013217241       1.751266458
                        -----------------------------------------
Magnitude (a.u.)       :      2.190860017
Magnitude (Debye)      :      5.568723610

Rotational constants in cm-1:             0.013781             0.004603             0.004417
Rotational constants in MHz :           413.145076           137.993758           132.411527

                             ****ORCA TERMINATED NORMALLY****
TOTAL RUN TIME: 0 days 0 hours 1 minutes 48 seconds 856 msec
