                         Program Version 6.0.0  -   RELEASE  -
|  1> ! pbe def2-sv(p) def2/J RI DEFGRID1 loosescf d4 GCP(DFT/SV(P)) printgap
|  2> %output
|  3>     printlevel normal
|  4> end
|  5> * xyz 0 1
|  6> C 5.5949950612 -0.1340775123 -0.0569614863
|  7> C 4.4114857707 -1.0745548262 -0.1535241224
|  8> O 3.4954920522 -0.6459787777 -1.1926923931
|  9> P 2.2120871503 0.22416243 -0.9142987145
| 10> S 1.2869370226 0.6033224419 -2.59583661
| 11> O 2.8035411437 1.4611167343 -0.1170537022
| 12> C 1.9859106484 2.4707569996 0.5103880801
| 13> C 2.0486236869 2.3116203244 2.0171633134
| 14> S 1.1014701407 -0.8574987552 0.5514296188
| 15> C -0.0453559382 -1.6911280886 -0.5928768564
| 16> S -1.5995198869 -2.1407894885 0.2063417742
| 17> P -2.4753812298 -0.2143404447 0.5035334484
| 18> S -1.5395922933 1.3208063137 -0.2964845955
| 19> O -2.7627386852 -0.1764849857 2.0571072404
| 20> C -1.7091631425 -0.1430215967 3.0421434417
| 21> C -1.3692612396 1.2864328879 3.4171990518
| 22> O -3.9881663805 -0.3727063465 0.0744243952
| 23> C -4.440501048 -0.0664414584 -1.25458652
| 24> C -3.884289322 -1.0308788313 -2.2839207813
| 25> H 6.0979047602 -0.0698796036 -1.0179818867
| 26> H 5.2647714507 0.8604891819 0.2300055198
| 27> H 6.2890782145 -0.5121915173 0.687095308
| 28> H 3.8691873791 -1.1313520098 0.7947480021
| 29> H 4.7227526013 -2.0740066544 -0.4623504203
| 30> H 2.4083821867 3.4253073946 0.1910358435
| 31> H 0.95962568 2.3953714139 0.1387910192
| 32> H 1.6469782636 1.3441630799 2.310003861
| 33> H 3.078109271 2.3842551152 2.3557114864
| 34> H 1.4618380814 3.0977338986 2.4811136768
| 35> H 0.3968652915 -2.6249417054 -0.9313418132
| 36> H -0.2259253976 -1.0123537395 -1.4313068126
| 37> H -2.115323726 -0.692817875 3.893132714
| 38> H -0.8283103877 -0.6689476472 2.6569152981
| 39> H -0.5976811482 1.2843288218 4.1801082531
| 40> H -1.0096725856 1.8263776236 2.5443105272
| 41> H -2.2529065347 1.7912363329 3.797133679
| 42> H -5.5266865458 -0.1372520665 -1.1835651879
| 43> H -4.1514375847 0.9618416736 -1.4963202683
| 44> H -4.0671936971 -2.0577676142 -1.9771762972
| 45> H -4.3605028832 -0.8495655177 -3.2422429537
| 46> H -2.8103848323 -0.8800103511 -2.3964270752
| 47> *
| 48>
| 49>                          ****END OF INPUT****

CARTESIAN COORDINATES (ANGSTROEM)
---------------------------------
  C      5.594995   -0.134078   -0.056961
  C      4.411486   -1.074555   -0.153524
  O      3.495492   -0.645979   -1.192692
  P      2.212087    0.224162   -0.914299
  S      1.286937    0.603322   -2.595837
  O      2.803541    1.461117   -0.117054
  C      1.985911    2.470757    0.510388
  C      2.048624    2.311620    2.017163
  S      1.101470   -0.857499    0.551430
  C     -0.045356   -1.691128   -0.592877
  S     -1.599520   -2.140789    0.206342
  P     -2.475381   -0.214340    0.503533
  S     -1.539592    1.320806   -0.296485
  O     -2.762739   -0.176485    2.057107
  C     -1.709163   -0.143022    3.042143
  C     -1.369261    1.286433    3.417199
  O     -3.988166   -0.372706    0.074424
  C     -4.440501   -0.066441   -1.254587
  C     -3.884289   -1.030879   -2.283921
  H      6.097905   -0.069880   -1.017982
  H      5.264771    0.860489    0.230006
  H      6.289078   -0.512192    0.687095
  H      3.869187   -1.131352    0.794748
  H      4.722753   -2.074007   -0.462350
  H      2.408382    3.425307    0.191036
  H      0.959626    2.395371    0.138791
  H      1.646978    1.344163    2.310004
  H      3.078109    2.384255    2.355711
  H      1.461838    3.097734    2.481114
  H      0.396865   -2.624942   -0.931342
  H     -0.225925   -1.012354   -1.431307
  H     -2.115324   -0.692818    3.893133
  H     -0.828310   -0.668948    2.656915
  H     -0.597681    1.284329    4.180108
  H     -1.009673    1.826378    2.544311
  H     -2.252907    1.791236    3.797134
  H     -5.526687   -0.137252   -1.183565
  H     -4.151438    0.961842   -1.496320
  H     -4.067194   -2.057768   -1.977176
  H     -4.360503   -0.849566   -3.242243
  H     -2.810385   -0.880010   -2.396427

 Total Charge           Charge          ....    0
 Multiplicity           Mult            ....    1
 Number of Electrons    NEL             ....  202
 Basis Dimension        Dim             ....  334

ORBITAL ENERGIES
----------------

  NO   OCC          E(Eh)            E(eV)
   0   2.0000     -88.048468     -2395.9206
   1   2.0000     -88.043010     -2395.7721
   2   2.0000     -87.988918     -2394.3002
   3   2.0000     -87.980225     -2394.0636
   4   2.0000     -76.427800     -2079.7062
   5   2.0000     -76.424133     -2079.6064
   6   2.0000     -18.795423      -511.4495
   7   2.0000     -18.789982      -511.3014
   8   2.0000     -18.789696      -511.2936
   9   2.0000     -18.789520      -511.2888
  10   2.0000      -9.956177      -270.9214
  11   2.0000      -9.954742      -270.8823
  12   2.0000      -9.954217      -270.8680
  13   2.0000      -9.953295      -270.8429
  14   2.0000      -9.951189      -270.7856
  15   2.0000      -9.889520      -269.1075
  16   2.0000      -9.886444      -269.0238
  17   2.0000      -9.883045      -268.9313
  18   2.0000      -9.882805      -268.9248
  19   2.0000      -7.693249      -209.3440
  20   2.0000      -7.687322      -209.1827
  21   2.0000      -7.633356      -207.7142
  22   2.0000      -7.625517      -207.5009
  23   2.0000      -6.425036      -174.8341
  24   2.0000      -6.421718      -174.7438
  25   2.0000      -5.721168      -155.6809
  26   2.0000      -5.717565      -155.5829
  27   2.0000      -5.715071      -155.5150
  28   2.0000      -5.712009      -155.4317
  29   2.0000      -5.710442      -155.3890
  30   2.0000      -5.704407      -155.2248
  31   2.0000      -5.662260      -154.0779
  32   2.0000      -5.654600      -153.8695
  33   2.0000      -5.653926      -153.8512
  34   2.0000      -5.653659      -153.8439
  35   2.0000      -5.646007      -153.6357
  36   2.0000      -5.645592      -153.6244
  37   2.0000      -4.647267      -126.4586
  38   2.0000      -4.647137      -126.4550
  39   2.0000      -4.645484      -126.4100
  40   2.0000      -4.644576      -126.3853
  41   2.0000      -4.643591      -126.3585
  42   2.0000      -4.641789      -126.3095
  43   2.0000      -0.989636       -26.9294
  44   2.0000      -0.988626       -26.9019
  45   2.0000      -0.945285       -25.7225
  46   2.0000      -0.945123       -25.7181
  47   2.0000      -0.762498       -20.7486
  48   2.0000      -0.721563       -19.6347
  49   2.0000      -0.712720       -19.3941
  50   2.0000      -0.692534       -18.8448
  51   2.0000      -0.682851       -18.5813
  52   2.0000      -0.677658       -18.4400
  53   2.0000      -0.651652       -17.7323
  54   2.0000      -0.634826       -17.2745
  55   2.0000      -0.599412       -16.3108
  56   2.0000      -0.590989       -16.0816
  57   2.0000      -0.573584       -15.6080
  58   2.0000      -0.569846       -15.5063
  59   2.0000      -0.561922       -15.2907
  60   2.0000      -0.508165       -13.8279
  61   2.0000      -0.496825       -13.5193
  62   2.0000      -0.481956       -13.1147
  63   2.0000      -0.469588       -12.7781
  64   2.0000      -0.451688       -12.2910
  65   2.0000      -0.449726       -12.2377
  66   2.0000      -0.442259       -12.0345
  67   2.0000      -0.438713       -11.9380
  68   2.0000      -0.422627       -11.5003
  69   2.0000      -0.419196       -11.4069
  70   2.0000      -0.412940       -11.2367
  71   2.0000      -0.401159       -10.9161
  72   2.0000      -0.394718       -10.7408
  73   2.0000      -0.388488       -10.5713
  74   2.0000      -0.385705       -10.4956
  75   2.0000      -0.371545       -10.1103
  76   2.0000      -0.366807        -9.9813
  77   2.0000      -0.357602        -9.7308
  78   2.0000      -0.356255        -9.6942
  79   2.0000      -0.353297        -9.6137
  80   2.0000      -0.349764        -9.5176
  81   2.0000      -0.347835        -9.4651
  82   2.0000      -0.340180        -9.2568
  83   2.0000      -0.337257        -9.1772
  84   2.0000      -0.333794        -9.0830
  85   2.0000      -0.319712        -8.6998
  86   2.0000      -0.314382        -8.5548
  87   2.0000      -0.299527        -8.1506
  88   2.0000      -0.295896        -8.0517
  89   2.0000      -0.291087        -7.9209
  90   2.0000      -0.289217        -7.8700
  91   2.0000      -0.276884        -7.5344
  92   2.0000      -0.270617        -7.3639
  93   2.0000      -0.263741        -7.1768
  94   2.0000      -0.259712        -7.0671
  95   2.0000      -0.242146        -6.5891
  96   2.0000      -0.222712        -6.0603
  97   2.0000      -0.212366        -5.7788
  98   2.0000      -0.198875        -5.4117
  99   2.0000      -0.196789        -5.3549
 100   2.0000      -0.189154        -5.1471
 101   0.0000      -0.048757        -1.3267
 102   0.0000      -0.034388        -0.9358
 103   0.0000      -0.015733        -0.4281
 104   0.0000       0.006195         0.1686
 105   0.0000       0.010244         0.2788

MULLIKEN ATOMIC CHARGES
-----------------------
   0 C :   -0.290179
   1 C :   -0.011667
   2 O :   -0.355582
   3 P :    0.602425
   4 S :   -0.295970
   5 O :   -0.381133
   6 C :   -0.024298
   7 C :   -0.307941
   8 S :   -0.139848
   9 C :   -0.344892
  10 S :   -0.107426
  11 P :    0.590786
  12 S :   -0.315475
  13 O :   -0.352193
  14 C :   -0.019579
  15 C :   -0.301562
  16 O :   -0.355406
  17 C :   -0.000451
  18 C :   -0.327182
  19 H :    0.121017
  20 H :    0.122792
  21 H :    0.108039
  22 H :    0.097187
  23 H :    0.108835
  24 H :    0.110454
  25 H :    0.139024
  26 H :    0.128321
  27 H :    0.113615
  28 H :    0.118203
  29 H :    0.180916
  30 H :    0.221686
  31 H :    0.107855
  32 H :    0.111040
  33 H :    0.106950
  34 H :    0.133656
  35 H :    0.116022
  36 H :    0.107237
  37 H :    0.115248
  38 H :    0.119165
  39 H :    0.114335
  40 H :    0.135975
Sum of atomic charges:    0.0000000

LOEWDIN ATOMIC CHARGES
----------------------
   0 C :   -0.360098
   1 C :   -0.115806
   2 O :   -0.238480
   3 P :    0.565833
   4 S :   -0.293470
   5 O :   -0.243386
   6 C :   -0.117237
   7 C :   -0.359598
   8 S :    0.053950
   9 C :   -0.481320
  10 S :    0.080177
  11 P :    0.566219
  12 S :   -0.295698
  13 O :   -0.234644
  14 C :   -0.117033
  15 C :   -0.363344
  16 O :   -0.233149
  17 C :   -0.117557
  18 C :   -0.369389
  19 H :    0.129484
  20 H :    0.125600
  21 H :    0.128504
  22 H :    0.100805
  23 H :    0.120830
  24 H :    0.121485
  25 H :    0.109968
  26 H :    0.118513
  27 H :    0.124151
  28 H :    0.131938
  29 H :    0.135668
  30 H :    0.121245
  31 H :    0.119471
  32 H :    0.097206
  33 H :    0.126776
  34 H :    0.122917
  35 H :    0.127315
  36 H :    0.120059
  37 H :    0.112087
  38 H :    0.124725
  39 H :    0.131796
  40 H :    0.123488

  Mayer bond orders larger than 0.100000
B(  0-C ,  1-C ) :   1.1636 B(  0-C , 19-H ) :   0.9466 B(  0-C , 20-H ) :   0.9408
B(  0-C , 21-H ) :   0.9399 B(  1-C ,  2-O ) :   0.8977 B(  1-C , 22-H ) :   0.9116
B(  1-C , 23-H ) :   0.9365 B(  2-O ,  3-P ) :   1.1344 B(  3-P ,  4-S ) :   1.6708
B(  3-P ,  5-O ) :   1.0927 B(  3-P ,  8-S ) :   0.9330 B(  4-S ,  8-S ) :   0.1174
B(  4-S , 30-H ) :   0.1008 B(  5-O ,  6-C ) :   0.8874 B(  6-C ,  7-C ) :   1.1676
B(  6-C , 24-H ) :   0.9326 B(  6-C , 25-H ) :   0.9002 B(  7-C , 26-H ) :   0.9356
B(  7-C , 27-H ) :   0.9455 B(  7-C , 28-H ) :   0.9371 B(  8-S ,  9-C ) :   0.9802
B(  9-C , 10-S ) :   1.0124 B(  9-C , 29-H ) :   0.9071 B(  9-C , 30-H ) :   0.8416
B( 10-S , 11-P ) :   0.9281 B( 10-S , 12-S ) :   0.1245 B( 11-P , 12-S ) :   1.6182
B( 11-P , 13-O ) :   1.1344 B( 11-P , 16-O ) :   1.1329 B( 13-O , 14-C ) :   0.9091
B( 14-C , 15-C ) :   1.1683 B( 14-C , 31-H ) :   0.9353 B( 14-C , 32-H ) :   0.9039
B( 15-C , 33-H ) :   0.9378 B( 15-C , 34-H ) :   0.9270 B( 15-C , 35-H ) :   0.9446
B( 16-O , 17-C ) :   0.9115 B( 17-C , 18-C ) :   1.1621 B( 17-C , 36-H ) :   0.9339
B( 17-C , 37-H ) :   0.9167 B( 18-C , 38-H ) :   0.9435 B( 18-C , 39-H ) :   0.9374
B( 18-C , 40-H ) :   0.9343

Dispersion correction           -0.065789113
FINAL SINGLE POINT ENERGY     -2929.518066659754

DIPOLE MOMENT
-------------

Method             : SCF
Type of density    : Electron Density
Multiplicity       :   1
Irrep              :   0
Energy             : -2929.6366309388445188 Eh
Relativity type    :
Basis              : AO
                                X                 Y                 Z
Electronic contribution:     -7.551297399      -6.606650359     -10.532777314
Nuclear contribution   :      7.989711244       6.274497971      11.812929699
                        -----------------------------------------
Total Dipole Moment    :      0.438413845      -0.332152387       1.280152385
                        -----------------------------------------
Magnitude (a.u.)       :      1.393313330
Magnitude (Debye)      :      3.541521036

Rotational constants in cm-1:             0.012264             0.005136             0.004600
Rotational constants in MHz :           367.660700           153.968414           137.899001

                             ****ORCA TERMINATED NORMALLY****
TOTAL RUN TIME: 0 days 0 hours 0 minutes 21 seconds 202 msec
