                         Program Version 6.0.0  -   RELEASE  -
|  1> ! pbe def2-sv(p) def2/J RI DEFGRID1 loosescf d4 GCP(DFT/SV(P)) printgap
|  2> %output
|  3>     printlevel normal
|  4> end
|  5> * xyz 0 1
|  6> C 4.1573967357 0.4904669957 -2.3000527407
|  7> C 4.5011934794 -0.2572160125 -1.0291861884
|  8> O 3.689808323 0.1431508925 0.0912340595
|  9> P 2.1018896056 0.1608700297 0.1152597252
| 10> S 1.1778532552 1.6597497675 -0.7418705502
| 11> O 1.7986451386 0.1771688414 1.6623397497
| 12> C 2.3468822864 -0.7861354757 2.5962431843
| 13> C 3.5217319317 -0.1889615063 3.3429584903
| 14> S 1.6058851068 -1.7896757038 -0.589753584
| 15> C -0.137563606 -1.4992684677 -0.9184456052
| 16> S -1.0603744556 -1.0973896686 0.6113564035
| 17> P -2.5213078803 0.2356180613 -0.1708173845
| 18> S -2.2602474264 0.8272310166 -2.0252913859
| 19> O -2.7001096696 1.3568935639 0.9301683808
| 20> C -1.8354236223 2.4935498646 1.1010876529
| 21> C -0.9411411163 2.3091176979 2.3112136085
| 22> O -3.9090697767 -0.4637561305 0.1338189945
| 23> C -4.5908442082 -1.2880518185 -0.8264206288
| 24> C -3.8331864575 -2.5664678672 -1.1258266324
| 25> H 3.1441334659 0.247690839 -2.6180662096
| 26> H 4.2159374373 1.5643591178 -2.1375881984
| 27> H 4.8506825411 0.2072984405 -3.0854702618
| 28> H 5.5185527986 -0.0362876547 -0.7015420569
| 29> H 4.3795922131 -1.3347273195 -1.169363226
| 30> H 1.5194353045 -1.0194155398 3.26909199
| 31> H 2.638607508 -1.686733497 2.0490092558
| 32> H 4.3218384575 0.0569388039 2.6498845206
| 33> H 3.2147095435 0.7173502309 3.8573601283
| 34> H 3.8835968162 -0.9094216401 4.0696907559
| 35> H -0.5173532452 -2.4277172477 -1.3381519384
| 36> H -0.2549147063 -0.6658143266 -1.6173447984
| 37> H -1.2454396622 2.6500275445 0.1915958583
| 38> H -2.5120138791 3.3397611761 1.2381370775
| 39> H -0.4009075795 3.2325755933 2.4937656747
| 40> H -1.5421569689 2.0591081538 3.1808241934
| 41> H -0.2197691625 1.5139764309 2.1356798329
| 42> H -5.5536824184 -1.4904053284 -0.355294708
| 43> H -4.7388807321 -0.7064162178 -1.74174204
| 44> H -2.9236200027 -2.3312377622 -1.6774725931
| 45> H -3.5717395084 -3.0760027159 -0.2016158836
| 46> H -4.4528971609 -3.217517423 -1.7341242513
| 47> *
| 48>
| 49>                          ****END OF INPUT****

CARTESIAN COORDINATES (ANGSTROEM)
---------------------------------
  C      4.157397    0.490467   -2.300053
  C      4.501193   -0.257216   -1.029186
  O      3.689808    0.143151    0.091234
  P      2.101890    0.160870    0.115260
  S      1.177853    1.659750   -0.741871
  O      1.798645    0.177169    1.662340
  C      2.346882   -0.786135    2.596243
  C      3.521732   -0.188962    3.342958
  S      1.605885   -1.789676   -0.589754
  C     -0.137564   -1.499268   -0.918446
  S     -1.060374   -1.097390    0.611356
  P     -2.521308    0.235618   -0.170817
  S     -2.260247    0.827231   -2.025291
  O     -2.700110    1.356894    0.930168
  C     -1.835424    2.493550    1.101088
  C     -0.941141    2.309118    2.311214
  O     -3.909070   -0.463756    0.133819
  C     -4.590844   -1.288052   -0.826421
  C     -3.833186   -2.566468   -1.125827
  H      3.144133    0.247691   -2.618066
  H      4.215937    1.564359   -2.137588
  H      4.850683    0.207298   -3.085470
  H      5.518553   -0.036288   -0.701542
  H      4.379592   -1.334727   -1.169363
  H      1.519435   -1.019416    3.269092
  H      2.638608   -1.686733    2.049009
  H      4.321838    0.056939    2.649885
  H      3.214710    0.717350    3.857360
  H      3.883597   -0.909422    4.069691
  H     -0.517353   -2.427717   -1.338152
  H     -0.254915   -0.665814   -1.617345
  H     -1.245440    2.650028    0.191596
  H     -2.512014    3.339761    1.238137
  H     -0.400908    3.232576    2.493766
  H     -1.542157    2.059108    3.180824
  H     -0.219769    1.513976    2.135680
  H     -5.553682   -1.490405   -0.355295
  H     -4.738881   -0.706416   -1.741742
  H     -2.923620   -2.331238   -1.677473
  H     -3.571740   -3.076003   -0.201616
  H     -4.452897   -3.217517   -1.734124

 Total Charge           Charge          ....    0
 Multiplicity           Mult            ....    1
 Number of Electrons    NEL             ....  202
 Basis Dimension        Dim             ....  334

ORBITAL ENERGIES
----------------

  NO   OCC          E(Eh)            E(eV)
   0   2.0000     -88.051292     -2395.9975
   1   2.0000     -88.038959     -2395.6619
   2   2.0000     -87.983839     -2394.1620
   3   2.0000     -87.983595     -2394.1553
   4   2.0000     -76.429804     -2079.7607
   5   2.0000     -76.420987     -2079.5208
   6   2.0000     -18.800764      -511.5948
   7   2.0000     -18.794553      -511.4258
   8   2.0000     -18.781000      -511.0570
   9   2.0000     -18.780889      -511.0540
  10   2.0000      -9.963866      -271.1306
  11   2.0000      -9.957606      -270.9602
  12   2.0000      -9.955191      -270.8945
  13   2.0000      -9.948695      -270.7178
  14   2.0000      -9.937551      -270.4145
  15   2.0000      -9.888945      -269.0919
  16   2.0000      -9.886339      -269.0210
  17   2.0000      -9.884182      -268.9623
  18   2.0000      -9.866718      -268.4870
  19   2.0000      -7.696167      -209.4234
  20   2.0000      -7.683610      -209.0817
  21   2.0000      -7.628698      -207.5874
  22   2.0000      -7.628537      -207.5830
  23   2.0000      -6.426889      -174.8845
  24   2.0000      -6.418248      -174.6494
  25   2.0000      -5.723952      -155.7566
  26   2.0000      -5.720454      -155.6615
  27   2.0000      -5.713519      -155.4728
  28   2.0000      -5.711494      -155.4176
  29   2.0000      -5.708230      -155.3288
  30   2.0000      -5.700533      -155.1194
  31   2.0000      -5.657888      -153.9590
  32   2.0000      -5.657321      -153.9435
  33   2.0000      -5.649103      -153.7199
  34   2.0000      -5.649086      -153.7195
  35   2.0000      -5.648898      -153.7143
  36   2.0000      -5.648813      -153.7120
  37   2.0000      -4.649711      -126.5251
  38   2.0000      -4.648991      -126.5055
  39   2.0000      -4.646852      -126.4473
  40   2.0000      -4.640426      -126.2724
  41   2.0000      -4.640154      -126.2650
  42   2.0000      -4.638933      -126.2318
  43   2.0000      -0.993768       -27.0418
  44   2.0000      -0.980446       -26.6793
  45   2.0000      -0.950115       -25.8540
  46   2.0000      -0.935118       -25.4459
  47   2.0000      -0.763726       -20.7821
  48   2.0000      -0.721004       -19.6195
  49   2.0000      -0.709733       -19.3128
  50   2.0000      -0.694996       -18.9118
  51   2.0000      -0.680099       -18.5064
  52   2.0000      -0.672237       -18.2925
  53   2.0000      -0.651568       -17.7301
  54   2.0000      -0.632814       -17.2198
  55   2.0000      -0.596636       -16.2353
  56   2.0000      -0.591913       -16.1068
  57   2.0000      -0.578167       -15.7327
  58   2.0000      -0.568130       -15.4596
  59   2.0000      -0.557051       -15.1581
  60   2.0000      -0.506193       -13.7742
  61   2.0000      -0.489629       -13.3235
  62   2.0000      -0.478922       -13.0321
  63   2.0000      -0.462016       -12.5721
  64   2.0000      -0.456025       -12.4091
  65   2.0000      -0.446299       -12.1444
  66   2.0000      -0.441988       -12.0271
  67   2.0000      -0.434838       -11.8325
  68   2.0000      -0.430191       -11.7061
  69   2.0000      -0.416070       -11.3219
  70   2.0000      -0.410677       -11.1751
  71   2.0000      -0.401757       -10.9324
  72   2.0000      -0.390632       -10.6296
  73   2.0000      -0.387955       -10.5568
  74   2.0000      -0.385140       -10.4802
  75   2.0000      -0.369150       -10.0451
  76   2.0000      -0.360942        -9.8217
  77   2.0000      -0.358906        -9.7663
  78   2.0000      -0.351333        -9.5603
  79   2.0000      -0.350411        -9.5352
  80   2.0000      -0.344835        -9.3834
  81   2.0000      -0.343568        -9.3490
  82   2.0000      -0.341148        -9.2831
  83   2.0000      -0.335237        -9.1223
  84   2.0000      -0.324428        -8.8281
  85   2.0000      -0.322405        -8.7731
  86   2.0000      -0.307953        -8.3798
  87   2.0000      -0.301396        -8.2014
  88   2.0000      -0.294055        -8.0016
  89   2.0000      -0.290399        -7.9022
  90   2.0000      -0.283084        -7.7031
  91   2.0000      -0.278016        -7.5652
  92   2.0000      -0.267403        -7.2764
  93   2.0000      -0.261198        -7.1076
  94   2.0000      -0.254675        -6.9300
  95   2.0000      -0.235993        -6.4217
  96   2.0000      -0.221332        -6.0228
  97   2.0000      -0.209827        -5.7097
  98   2.0000      -0.199704        -5.4342
  99   2.0000      -0.197939        -5.3862
 100   2.0000      -0.189700        -5.1620
 101   0.0000      -0.044905        -1.2219
 102   0.0000      -0.033538        -0.9126
 103   0.0000      -0.016292        -0.4433
 104   0.0000       0.010040         0.2732
 105   0.0000       0.014332         0.3900

MULLIKEN ATOMIC CHARGES
-----------------------
   0 C :   -0.310783
   1 C :   -0.012722
   2 O :   -0.377322
   3 P :    0.594022
   4 S :   -0.293716
   5 O :   -0.344209
   6 C :   -0.007094
   7 C :   -0.287538
   8 S :   -0.117003
   9 C :   -0.361336
  10 S :   -0.116102
  11 P :    0.610561
  12 S :   -0.318866
  13 O :   -0.358638
  14 C :   -0.010252
  15 C :   -0.315920
  16 O :   -0.360630
  17 C :    0.007243
  18 C :   -0.328200
  19 H :    0.130220
  20 H :    0.129287
  21 H :    0.112790
  22 H :    0.110444
  23 H :    0.113808
  24 H :    0.112193
  25 H :    0.097307
  26 H :    0.119647
  27 H :    0.121027
  28 H :    0.109939
  29 H :    0.186669
  30 H :    0.216270
  31 H :    0.123668
  32 H :    0.100201
  33 H :    0.103570
  34 H :    0.103075
  35 H :    0.147636
  36 H :    0.105844
  37 H :    0.110356
  38 H :    0.121055
  39 H :    0.121519
  40 H :    0.111981
Sum of atomic charges:    0.0000000

LOEWDIN ATOMIC CHARGES
----------------------
   0 C :   -0.368855
   1 C :   -0.115234
   2 O :   -0.244665
   3 P :    0.565165
   4 S :   -0.284946
   5 O :   -0.226611
   6 C :   -0.116186
   7 C :   -0.358031
   8 S :    0.069343
   9 C :   -0.481403
  10 S :    0.061231
  11 P :    0.570297
  12 S :   -0.302833
  13 O :   -0.233170
  14 C :   -0.116065
  15 C :   -0.368168
  16 O :   -0.239724
  17 C :   -0.115489
  18 C :   -0.370283
  19 H :    0.122952
  20 H :    0.131739
  21 H :    0.130929
  22 H :    0.121678
  23 H :    0.108223
  24 H :    0.120962
  25 H :    0.101970
  26 H :    0.126109
  27 H :    0.129340
  28 H :    0.129447
  29 H :    0.130919
  30 H :    0.124134
  31 H :    0.105982
  32 H :    0.115742
  33 H :    0.128418
  34 H :    0.120301
  35 H :    0.122720
  36 H :    0.119480
  37 H :    0.110709
  38 H :    0.118066
  39 H :    0.125543
  40 H :    0.130265

  Mayer bond orders larger than 0.100000
B(  0-C ,  1-C ) :   1.1670 B(  0-C , 19-H ) :   0.9323 B(  0-C , 20-H ) :   0.9426
B(  0-C , 21-H ) :   0.9346 B(  1-C ,  2-O ) :   0.9101 B(  1-C , 22-H ) :   0.9328
B(  1-C , 23-H ) :   0.9265 B(  2-O ,  3-P ) :   1.0826 B(  3-P ,  4-S ) :   1.6599
B(  3-P ,  5-O ) :   1.1183 B(  3-P ,  8-S ) :   0.9347 B(  4-S ,  8-S ) :   0.1088
B(  5-O ,  6-C ) :   0.8867 B(  6-C ,  7-C ) :   1.1652 B(  6-C , 24-H ) :   0.9337
B(  6-C , 25-H ) :   0.9126 B(  7-C , 26-H ) :   0.9432 B(  7-C , 27-H ) :   0.9475
B(  7-C , 28-H ) :   0.9405 B(  8-S ,  9-C ) :   1.0066 B(  9-C , 10-S ) :   0.9945
B(  9-C , 29-H ) :   0.8974 B(  9-C , 30-H ) :   0.8435 B( 10-S , 11-P ) :   0.9385
B( 10-S , 12-S ) :   0.1258 B( 11-P , 12-S ) :   1.6091 B( 11-P , 13-O ) :   1.1492
B( 11-P , 16-O ) :   1.1129 B( 13-O , 14-C ) :   0.8998 B( 14-C , 15-C ) :   1.1717
B( 14-C , 31-H ) :   0.9023 B( 14-C , 32-H ) :   0.9345 B( 15-C , 33-H ) :   0.9402
B( 15-C , 34-H ) :   0.9462 B( 15-C , 35-H ) :   0.9235 B( 16-O , 17-C ) :   0.9238
B( 17-C , 18-C ) :   1.1605 B( 17-C , 36-H ) :   0.9348 B( 17-C , 37-H ) :   0.9180
B( 18-C , 38-H ) :   0.9320 B( 18-C , 39-H ) :   0.9432 B( 18-C , 40-H ) :   0.9375

Dispersion correction           -0.066680128
FINAL SINGLE POINT ENERGY     -2929.519220922231

DIPOLE MOMENT
-------------

Method             : SCF
Type of density    : Electron Density
Multiplicity       :   1
Irrep              :   0
Energy             : -2929.6376658378076172 Eh
Relativity type    :
Basis              : AO
                                X                 Y                 Z
Electronic contribution:     -8.422309225       2.161116053      -5.939423874
Nuclear contribution   :      9.524352290      -3.432508966       6.510319710
                        -----------------------------------------
Total Dipole Moment    :      1.102043065      -1.271392913       0.570895836
                        -----------------------------------------
Magnitude (a.u.)       :      1.776755726
Magnitude (Debye)      :      4.516154152

Rotational constants in cm-1:             0.012313             0.005088             0.004813
Rotational constants in MHz :           369.134037           152.532592           144.289601

                             ****ORCA TERMINATED NORMALLY****
TOTAL RUN TIME: 0 days 0 hours 0 minutes 21 seconds 655 msec
