                         Program Version 6.0.0  -   RELEASE  -
|  1> ! pbe def2-sv(p) def2/J RI DEFGRID1 loosescf d4 GCP(DFT/SV(P)) printgap
|  2> %output
|  3>     printlevel normal
|  4> end
|  5> * xyz 0 1
|  6> C 4.3774343483 -0.4875016633 -2.4658934118
|  7> C 4.7143690876 -0.8253773067 -1.0282685868
|  8> O 3.5702128248 -1.3194481045 -0.3106466638
|  9> P 2.359040905 -0.3774298913 0.1047031813
| 10> S 2.8866705069 1.4375145604 0.6478399125
| 11> O 1.5959174827 -1.293120808 1.1512041385
| 12> C 2.2256792216 -1.9778804283 2.2555875616
| 13> C 2.9014472821 -1.0259522217 3.220343836
| 14> S 0.9777081598 -0.4691688846 -1.4912526307
| 15> C 0.020310764 1.0011531144 -1.0285232546
| 16> S -0.7792674849 0.8581866543 0.5934260309
| 17> P -2.7649665535 0.3329116602 0.0040081898
| 18> S -3.1435946611 0.3291232487 -1.9225218698
| 19> O -3.6828459394 1.2749694744 0.8879299313
| 20> C -4.1112747017 2.5728428558 0.4392967721
| 21> C -2.9640498337 3.5569315497 0.3227367674
| 22> O -3.0980152767 -0.9939963216 0.8025324305
| 23> C -2.9887938001 -2.3101385498 0.2331808559
| 24> C -1.5578106994 -2.6792373932 -0.1018618104
| 25> H 3.7031403518 0.3669732626 -2.4993295312
| 26> H 5.2887264661 -0.2375889561 -2.999584171
| 27> H 3.8941040579 -1.3324410356 -2.9496174241
| 28> H 5.0966948423 0.0571947066 -0.5050456441
| 29> H 5.4371120353 -1.6398503857 -0.9637173355
| 30> H 1.3980074796 -2.5050233378 2.7337539468
| 31> H 2.9396474 -2.6976598928 1.8491667815
| 32> H 3.736621835 -0.5243526906 2.7334673187
| 33> H 2.1970250221 -0.2692967472 3.5590105726
| 34> H 3.2719246826 -1.5817281852 4.0760316402
| 35> H -0.7387864991 1.1301425126 -1.802234109
| 36> H 0.6924412665 1.8560864916 -0.9739315822
| 37> H -4.6167301597 2.4565833356 -0.5248653692
| 38> H -4.8303912766 2.8844528497 1.1981762692
| 39> H -2.3917266397 3.5830442006 1.2468205823
| 40> H -2.3024039281 3.2669901672 -0.4926307972
| 41> H -3.3607992087 4.5460578035 0.1170884096
| 42> H -3.4014322786 -2.9592275644 1.0071851945
| 43> H -3.6153110267 -2.3563604383 -0.6629855048
| 44> H -1.207305302 -2.0907087378 -0.9492095838
| 45> H -0.9064329578 -2.4902770298 0.7488813429
| 46> H -1.5072443245 -3.7307356762 -0.3655913291
| 47> *
| 48>
| 49>                          ****END OF INPUT****

CARTESIAN COORDINATES (ANGSTROEM)
---------------------------------
  C      4.377434   -0.487502   -2.465893
  C      4.714369   -0.825377   -1.028269
  O      3.570213   -1.319448   -0.310647
  P      2.359041   -0.377430    0.104703
  S      2.886671    1.437515    0.647840
  O      1.595917   -1.293121    1.151204
  C      2.225679   -1.977880    2.255588
  C      2.901447   -1.025952    3.220344
  S      0.977708   -0.469169   -1.491253
  C      0.020311    1.001153   -1.028523
  S     -0.779267    0.858187    0.593426
  P     -2.764967    0.332912    0.004008
  S     -3.143595    0.329123   -1.922522
  O     -3.682846    1.274969    0.887930
  C     -4.111275    2.572843    0.439297
  C     -2.964050    3.556932    0.322737
  O     -3.098015   -0.993996    0.802532
  C     -2.988794   -2.310139    0.233181
  C     -1.557811   -2.679237   -0.101862
  H      3.703140    0.366973   -2.499330
  H      5.288726   -0.237589   -2.999584
  H      3.894104   -1.332441   -2.949617
  H      5.096695    0.057195   -0.505046
  H      5.437112   -1.639850   -0.963717
  H      1.398007   -2.505023    2.733754
  H      2.939647   -2.697660    1.849167
  H      3.736622   -0.524353    2.733467
  H      2.197025   -0.269297    3.559011
  H      3.271925   -1.581728    4.076032
  H     -0.738786    1.130143   -1.802234
  H      0.692441    1.856086   -0.973932
  H     -4.616730    2.456583   -0.524865
  H     -4.830391    2.884453    1.198176
  H     -2.391727    3.583044    1.246821
  H     -2.302404    3.266990   -0.492631
  H     -3.360799    4.546058    0.117088
  H     -3.401432   -2.959228    1.007185
  H     -3.615311   -2.356360   -0.662986
  H     -1.207305   -2.090709   -0.949210
  H     -0.906433   -2.490277    0.748881
  H     -1.507244   -3.730736   -0.365591

 Total Charge           Charge          ....    0
 Multiplicity           Mult            ....    1
 Number of Electrons    NEL             ....  202
 Basis Dimension        Dim             ....  334

ORBITAL ENERGIES
----------------

  NO   OCC          E(Eh)            E(eV)
   0   2.0000     -88.042187     -2395.7497
   1   2.0000     -88.038705     -2395.6550
   2   2.0000     -87.992364     -2394.3939
   3   2.0000     -87.991056     -2394.3584
   4   2.0000     -76.430273     -2079.7735
   5   2.0000     -76.425326     -2079.6389
   6   2.0000     -18.800866      -511.5976
   7   2.0000     -18.791406      -511.3402
   8   2.0000     -18.786685      -511.2117
   9   2.0000     -18.785463      -511.1784
  10   2.0000      -9.956834      -270.9392
  11   2.0000      -9.956726      -270.9363
  12   2.0000      -9.950904      -270.7779
  13   2.0000      -9.950555      -270.7684
  14   2.0000      -9.948518      -270.7129
  15   2.0000      -9.886927      -269.0370
  16   2.0000      -9.884183      -268.9623
  17   2.0000      -9.881953      -268.9016
  18   2.0000      -9.874308      -268.6936
  19   2.0000      -7.687171      -209.1785
  20   2.0000      -7.683423      -209.0766
  21   2.0000      -7.637201      -207.8188
  22   2.0000      -7.635980      -207.7856
  23   2.0000      -6.427627      -174.9046
  24   2.0000      -6.422748      -174.7719
  25   2.0000      -5.715006      -155.5132
  26   2.0000      -5.711814      -155.4264
  27   2.0000      -5.711328      -155.4131
  28   2.0000      -5.707984      -155.3221
  29   2.0000      -5.704020      -155.2143
  30   2.0000      -5.700352      -155.1145
  31   2.0000      -5.665888      -154.1767
  32   2.0000      -5.664796      -154.1469
  33   2.0000      -5.657808      -153.9568
  34   2.0000      -5.657634      -153.9520
  35   2.0000      -5.656645      -153.9251
  36   2.0000      -5.656252      -153.9144
  37   2.0000      -4.650574      -126.5486
  38   2.0000      -4.649145      -126.5097
  39   2.0000      -4.648010      -126.4788
  40   2.0000      -4.644882      -126.3937
  41   2.0000      -4.644697      -126.3886
  42   2.0000      -4.643397      -126.3533
  43   2.0000      -0.992044       -26.9949
  44   2.0000      -0.984954       -26.8020
  45   2.0000      -0.947991       -25.7962
  46   2.0000      -0.940728       -25.5985
  47   2.0000      -0.761813       -20.7300
  48   2.0000      -0.720704       -19.6114
  49   2.0000      -0.708593       -19.2818
  50   2.0000      -0.691256       -18.8100
  51   2.0000      -0.679619       -18.4934
  52   2.0000      -0.675847       -18.3907
  53   2.0000      -0.653976       -17.7956
  54   2.0000      -0.639284       -17.3958
  55   2.0000      -0.603495       -16.4219
  56   2.0000      -0.595614       -16.2075
  57   2.0000      -0.580861       -15.8060
  58   2.0000      -0.566500       -15.4153
  59   2.0000      -0.556367       -15.1395
  60   2.0000      -0.499713       -13.5979
  61   2.0000      -0.491478       -13.3738
  62   2.0000      -0.474371       -12.9083
  63   2.0000      -0.461827       -12.5670
  64   2.0000      -0.460657       -12.5351
  65   2.0000      -0.445187       -12.1141
  66   2.0000      -0.438862       -11.9420
  67   2.0000      -0.433442       -11.7946
  68   2.0000      -0.423492       -11.5238
  69   2.0000      -0.417390       -11.3578
  70   2.0000      -0.414181       -11.2704
  71   2.0000      -0.409564       -11.1448
  72   2.0000      -0.395430       -10.7602
  73   2.0000      -0.384343       -10.4585
  74   2.0000      -0.380376       -10.3506
  75   2.0000      -0.376333       -10.2405
  76   2.0000      -0.368304       -10.0221
  77   2.0000      -0.357451        -9.7267
  78   2.0000      -0.351340        -9.5605
  79   2.0000      -0.347976        -9.4689
  80   2.0000      -0.346286        -9.4229
  81   2.0000      -0.342035        -9.3072
  82   2.0000      -0.338955        -9.2234
  83   2.0000      -0.337455        -9.1826
  84   2.0000      -0.333786        -9.0828
  85   2.0000      -0.324266        -8.8237
  86   2.0000      -0.306376        -8.3369
  87   2.0000      -0.299637        -8.1535
  88   2.0000      -0.297062        -8.0835
  89   2.0000      -0.290717        -7.9108
  90   2.0000      -0.285208        -7.7609
  91   2.0000      -0.278580        -7.5806
  92   2.0000      -0.265059        -7.2126
  93   2.0000      -0.264038        -7.1848
  94   2.0000      -0.259081        -7.0499
  95   2.0000      -0.228845        -6.2272
  96   2.0000      -0.217042        -5.9060
  97   2.0000      -0.216686        -5.8963
  98   2.0000      -0.206910        -5.6303
  99   2.0000      -0.206013        -5.6059
 100   2.0000      -0.200603        -5.4587
 101   0.0000      -0.046708        -1.2710
 102   0.0000      -0.028589        -0.7780
 103   0.0000      -0.008833        -0.2404
 104   0.0000      -0.001628        -0.0443
 105   0.0000       0.012526         0.3409

MULLIKEN ATOMIC CHARGES
-----------------------
   0 C :   -0.314259
   1 C :   -0.007017
   2 O :   -0.379844
   3 P :    0.621763
   4 S :   -0.328636
   5 O :   -0.360744
   6 C :   -0.002514
   7 C :   -0.314703
   8 S :   -0.073539
   9 C :   -0.370016
  10 S :   -0.072701
  11 P :    0.601136
  12 S :   -0.335464
  13 O :   -0.360010
  14 C :    0.001680
  15 C :   -0.314508
  16 O :   -0.360318
  17 C :    0.005995
  18 C :   -0.338387
  19 H :    0.128002
  20 H :    0.114726
  21 H :    0.118724
  22 H :    0.112770
  23 H :    0.105063
  24 H :    0.108794
  25 H :    0.108554
  26 H :    0.126468
  27 H :    0.127893
  28 H :    0.110019
  29 H :    0.190989
  30 H :    0.194623
  31 H :    0.110270
  32 H :    0.107144
  33 H :    0.123676
  34 H :    0.120491
  35 H :    0.111846
  36 H :    0.103188
  37 H :    0.109066
  38 H :    0.134552
  39 H :    0.129395
  40 H :    0.105834
Sum of atomic charges:   -0.0000000

LOEWDIN ATOMIC CHARGES
----------------------
   0 C :   -0.368324
   1 C :   -0.120348
   2 O :   -0.244681
   3 P :    0.571018
   4 S :   -0.314935
   5 O :   -0.240225
   6 C :   -0.109714
   7 C :   -0.367594
   8 S :    0.105703
   9 C :   -0.487074
  10 S :    0.091989
  11 P :    0.574007
  12 S :   -0.316006
  13 O :   -0.238851
  14 C :   -0.115716
  15 C :   -0.368749
  16 O :   -0.238227
  17 C :   -0.113814
  18 C :   -0.376135
  19 H :    0.121927
  20 H :    0.132077
  21 H :    0.125654
  22 H :    0.110441
  23 H :    0.118329
  24 H :    0.119774
  25 H :    0.112719
  26 H :    0.120914
  27 H :    0.131496
  28 H :    0.129149
  29 H :    0.124953
  30 H :    0.128939
  31 H :    0.110469
  32 H :    0.120019
  33 H :    0.126720
  34 H :    0.118941
  35 H :    0.130028
  36 H :    0.118162
  37 H :    0.110759
  38 H :    0.112582
  39 H :    0.125333
  40 H :    0.128286

  Mayer bond orders larger than 0.100000
B(  0-C ,  1-C ) :   1.1667 B(  0-C , 19-H ) :   0.9351 B(  0-C , 20-H ) :   0.9379
B(  0-C , 21-H ) :   0.9455 B(  1-C ,  2-O ) :   0.9057 B(  1-C , 22-H ) :   0.9132
B(  1-C , 23-H ) :   0.9329 B(  2-O ,  3-P ) :   1.0923 B(  3-P ,  4-S ) :   1.6045
B(  3-P ,  5-O ) :   1.1188 B(  3-P ,  8-S ) :   0.9616 B(  4-S ,  8-S ) :   0.1160
B(  5-O ,  6-C ) :   0.9099 B(  6-C ,  7-C ) :   1.1665 B(  6-C , 24-H ) :   0.9326
B(  6-C , 25-H ) :   0.9306 B(  7-C , 26-H ) :   0.9364 B(  7-C , 27-H ) :   0.9448
B(  7-C , 28-H ) :   0.9357 B(  8-S ,  9-C ) :   1.0010 B(  9-C , 10-S ) :   1.0174
B(  9-C , 29-H ) :   0.8581 B(  9-C , 30-H ) :   0.8810 B( 10-S , 11-P ) :   0.9485
B( 10-S , 12-S ) :   0.1200 B( 11-P , 12-S ) :   1.5753 B( 11-P , 13-O ) :   1.1260
B( 11-P , 16-O ) :   1.1312 B( 12-S , 29-H ) :   0.1018 B( 13-O , 14-C ) :   0.9171
B( 14-C , 15-C ) :   1.1630 B( 14-C , 31-H ) :   0.9189 B( 14-C , 32-H ) :   0.9347
B( 15-C , 33-H ) :   0.9422 B( 15-C , 34-H ) :   0.9403 B( 15-C , 35-H ) :   0.9374
B( 16-O , 17-C ) :   0.9128 B( 17-C , 18-C ) :   1.1584 B( 17-C , 36-H ) :   0.9344
B( 17-C , 37-H ) :   0.9218 B( 18-C , 38-H ) :   0.9252 B( 18-C , 39-H ) :   0.9381
B( 18-C , 40-H ) :   0.9369

Dispersion correction           -0.065126054
FINAL SINGLE POINT ENERGY     -2929.521476429136

DIPOLE MOMENT
-------------

Method             : SCF
Type of density    : Electron Density
Multiplicity       :   1
Irrep              :   0
Energy             : -2929.6406477912464652 Eh
Relativity type    :
Basis              : AO
                                X                 Y                 Z
Electronic contribution:     -7.867292535       3.356131090      -3.012266358
Nuclear contribution   :      8.574698215      -4.061014022       3.362681638
                        -----------------------------------------
Total Dipole Moment    :      0.707405680      -0.704882932       0.350415279
                        -----------------------------------------
Magnitude (a.u.)       :      1.058335302
Magnitude (Debye)      :      2.690074554

Rotational constants in cm-1:             0.012674             0.004515             0.004419
Rotational constants in MHz :           379.951770           135.369552           132.465932

                             ****ORCA TERMINATED NORMALLY****
TOTAL RUN TIME: 0 days 0 hours 0 minutes 20 seconds 814 msec
