                         Program Version 6.0.1  -  RELEASE   -
|  1> ! pbe def2-sv(p) def2/J RI DEFGRID1 loosescf d4 GCP(DFT/SV(P)) printgap
|  2> %output
|  3>     printlevel normal
|  4> end
|  5> * xyz 0 1
|  6> C 4.4377180895 -2.8103173725 -2.4599420181
|  7> C 3.8423746482 -1.4590080316 -2.096977306
|  8> O 2.6291034033 -1.6095762618 -1.3377379554
|  9> C 2.731713967 -1.7900389068 -0.0321769928
| 10> O 3.775208745 -1.8874684342 0.5711122527
| 11> C 1.365871008 -1.9227741143 0.6209712248
| 12> C 0.4521220766 -0.7844626464 0.1835189725
| 13> H 0.2836709091 -0.8284590539 -0.9005365082
| 14> C 1.0917179019 0.5634646401 0.4627147059
| 15> O 2.2775853746 0.7603522864 0.324272423
| 16> O 0.2111371459 1.470895789 0.8236532532
| 17> C 0.664918711 2.8143170519 1.0882517769
| 18> C 1.0609600075 2.9657870463 2.5469745009
| 19> S -1.1748252286 -0.9282529666 0.9927308576
| 20> P -2.2204668464 0.5336019725 -0.1510380995
| 21> S -1.466844017 0.9842727815 -1.901857929
| 22> O -3.6913208609 -0.0988652231 -0.2149118418
| 23> C -3.9623053008 -1.2738700579 -0.9863892273
| 24> O -2.5064304426 1.7950065466 0.7536236735
| 25> C -3.1216117676 1.6801643816 2.052543026
| 26> H 5.3100709514 -2.6587140227 -3.0868636497
| 27> H 4.737526346 -3.3390919421 -1.5582616294
| 28> H 3.7075573292 -3.4079647587 -2.9986641632
| 29> H 3.5379484721 -0.9040824531 -2.9848610792
| 30> H 4.546047786 -0.8673235968 -1.5042934286
| 31> H 1.5025215214 -1.9196624424 1.7026021515
| 32> H 0.9286286234 -2.8752686168 0.3182546413
| 33> H 1.5075583544 3.0276879204 0.4250376332
| 34> H -0.1888387405 3.4423467568 0.830541061
| 35> H 1.3371962617 3.998103158 2.7338211679
| 36> H 0.2312728483 2.6934263564 3.1935399809
| 37> H 1.912425921 2.3266364353 2.7706720555
| 38> H -5.0454147821 -1.3581487677 -1.0214739993
| 39> H -3.5243801708 -2.1453740231 -0.5000868147
| 40> H -3.5566130509 -1.1640003982 -1.993360125
| 41> H -4.1478917161 1.3342671112 1.9471952298
| 42> H -3.0932209375 2.6829231262 2.4709406364
| 43> H -2.5555111483 0.9845550463 2.6720747949
| 44> *
| 45>
| 46>                          ****END OF INPUT****

CARTESIAN COORDINATES (ANGSTROEM)
---------------------------------
  C      4.437718   -2.810317   -2.459942
  C      3.842375   -1.459008   -2.096977
  O      2.629103   -1.609576   -1.337738
  C      2.731714   -1.790039   -0.032177
  O      3.775209   -1.887468    0.571112
  C      1.365871   -1.922774    0.620971
  C      0.452122   -0.784463    0.183519
  H      0.283671   -0.828459   -0.900537
  C      1.091718    0.563465    0.462715
  O      2.277585    0.760352    0.324272
  O      0.211137    1.470896    0.823653
  C      0.664919    2.814317    1.088252
  C      1.060960    2.965787    2.546975
  S     -1.174825   -0.928253    0.992731
  P     -2.220467    0.533602   -0.151038
  S     -1.466844    0.984273   -1.901858
  O     -3.691321   -0.098865   -0.214912
  C     -3.962305   -1.273870   -0.986389
  O     -2.506430    1.795007    0.753624
  C     -3.121612    1.680164    2.052543
  H      5.310071   -2.658714   -3.086864
  H      4.737526   -3.339092   -1.558262
  H      3.707557   -3.407965   -2.998664
  H      3.537948   -0.904082   -2.984861
  H      4.546048   -0.867324   -1.504293
  H      1.502522   -1.919662    1.702602
  H      0.928629   -2.875269    0.318255
  H      1.507558    3.027688    0.425038
  H     -0.188839    3.442347    0.830541
  H      1.337196    3.998103    2.733821
  H      0.231273    2.693426    3.193540
  H      1.912426    2.326636    2.770672
  H     -5.045415   -1.358149   -1.021474
  H     -3.524380   -2.145374   -0.500087
  H     -3.556613   -1.164000   -1.993360
  H     -4.147892    1.334267    1.947195
  H     -3.093221    2.682923    2.470941
  H     -2.555511    0.984555    2.672075

 Total Charge           Charge          ....    0
 Multiplicity           Mult            ....    1
 Number of Electrons    NEL             ....  174
 Basis Dimension        Dim             ....  316

ORBITAL ENERGIES
----------------

  NO   OCC          E(Eh)            E(eV)
   0   2.0000     -88.044308     -2395.8074
   1   2.0000     -87.985853     -2394.2168
   2   2.0000     -76.429766     -2079.7597
   3   2.0000     -18.814898      -511.9794
   4   2.0000     -18.799743      -511.5670
   5   2.0000     -18.795484      -511.4511
   6   2.0000     -18.793304      -511.3918
   7   2.0000     -18.745901      -510.1019
   8   2.0000     -18.726946      -509.5861
   9   2.0000     -10.019993      -272.6579
  10   2.0000     -10.004567      -272.2381
  11   2.0000      -9.956222      -270.9226
  12   2.0000      -9.950973      -270.7797
  13   2.0000      -9.947551      -270.6866
  14   2.0000      -9.947278      -270.6792
  15   2.0000      -9.939689      -270.4727
  16   2.0000      -9.912438      -269.7312
  17   2.0000      -9.891570      -269.1633
  18   2.0000      -9.880299      -268.8566
  19   2.0000      -7.688972      -209.2276
  20   2.0000      -7.631091      -207.6525
  21   2.0000      -6.426675      -174.8787
  22   2.0000      -5.716680      -155.5588
  23   2.0000      -5.713624      -155.4756
  24   2.0000      -5.706082      -155.2704
  25   2.0000      -5.660256      -154.0234
  26   2.0000      -5.651567      -153.7870
  27   2.0000      -5.651112      -153.7746
  28   2.0000      -4.649451      -126.5180
  29   2.0000      -4.648577      -126.4942
  30   2.0000      -4.646949      -126.4499
  31   2.0000      -1.022192       -27.8153
  32   2.0000      -1.000747       -27.2317
  33   2.0000      -0.992039       -26.9948
  34   2.0000      -0.947230       -25.7755
  35   2.0000      -0.926865       -25.2213
  36   2.0000      -0.905273       -24.6337
  37   2.0000      -0.769065       -20.9273
  38   2.0000      -0.712878       -19.3984
  39   2.0000      -0.706104       -19.2141
  40   2.0000      -0.691658       -18.8210
  41   2.0000      -0.660150       -17.9636
  42   2.0000      -0.641244       -17.4491
  43   2.0000      -0.625396       -17.0179
  44   2.0000      -0.618573       -16.8322
  45   2.0000      -0.591907       -16.1066
  46   2.0000      -0.569929       -15.5086
  47   2.0000      -0.520365       -14.1599
  48   2.0000      -0.503175       -13.6921
  49   2.0000      -0.494994       -13.4695
  50   2.0000      -0.481777       -13.1098
  51   2.0000      -0.476954       -12.9786
  52   2.0000      -0.465707       -12.6725
  53   2.0000      -0.445265       -12.1163
  54   2.0000      -0.438695       -11.9375
  55   2.0000      -0.435371       -11.8471
  56   2.0000      -0.422597       -11.4995
  57   2.0000      -0.420999       -11.4560
  58   2.0000      -0.416498       -11.3335
  59   2.0000      -0.408426       -11.1138
  60   2.0000      -0.406589       -11.0639
  61   2.0000      -0.400174       -10.8893
  62   2.0000      -0.391955       -10.6656
  63   2.0000      -0.380852       -10.3635
  64   2.0000      -0.379821       -10.3354
  65   2.0000      -0.367107        -9.9895
  66   2.0000      -0.362013        -9.8509
  67   2.0000      -0.351095        -9.5538
  68   2.0000      -0.346329        -9.4241
  69   2.0000      -0.340008        -9.2521
  70   2.0000      -0.335133        -9.1194
  71   2.0000      -0.329633        -8.9698
  72   2.0000      -0.321121        -8.7381
  73   2.0000      -0.317269        -8.6333
  74   2.0000      -0.310802        -8.4574
  75   2.0000      -0.302232        -8.2242
  76   2.0000      -0.298274        -8.1164
  77   2.0000      -0.288039        -7.8380
  78   2.0000      -0.275254        -7.4900
  79   2.0000      -0.272110        -7.4045
  80   2.0000      -0.264351        -7.1934
  81   2.0000      -0.249909        -6.8004
  82   2.0000      -0.248166        -6.7529
  83   2.0000      -0.216352        -5.8872
  84   2.0000      -0.212355        -5.7785
  85   2.0000      -0.205715        -5.5978
  86   2.0000      -0.202291        -5.5046
  87   0.0000      -0.044481        -1.2104
  88   0.0000      -0.032280        -0.8784
  89   0.0000      -0.012130        -0.3301
  90   0.0000       0.006293         0.1712
  91   0.0000       0.014358         0.3907

MULLIKEN ATOMIC CHARGES
-----------------------
   0 C :   -0.306565
   1 C :   -0.004777
   2 O :   -0.245598
   3 C :    0.117928
   4 O :   -0.193503
   5 C :   -0.049987
   6 C :   -0.354194
   7 H :    0.172874
   8 C :    0.237657
   9 O :   -0.187692
  10 O :   -0.226611
  11 C :   -0.007277
  12 C :   -0.307277
  13 S :   -0.104577
  14 P :    0.625082
  15 S :   -0.318039
  16 O :   -0.390554
  17 C :   -0.099981
  18 O :   -0.364318
  19 C :   -0.110932
  20 H :    0.110819
  21 H :    0.127062
  22 H :    0.109655
  23 H :    0.102789
  24 H :    0.113154
  25 H :    0.105906
  26 H :    0.121938
  27 H :    0.115128
  28 H :    0.112659
  29 H :    0.116587
  30 H :    0.111719
  31 H :    0.129334
  32 H :    0.125866
  33 H :    0.114390
  34 H :    0.119218
  35 H :    0.128916
  36 H :    0.130684
  37 H :    0.122516
Sum of atomic charges:   -0.0000000

LOEWDIN ATOMIC CHARGES
----------------------
   0 C :   -0.357934
   1 C :   -0.107142
   2 O :   -0.064471
   3 C :    0.029729
   4 O :   -0.159959
   5 C :   -0.239529
   6 C :   -0.280317
   7 H :    0.146043
   8 C :    0.028312
   9 O :   -0.142551
  10 O :   -0.051179
  11 C :   -0.107260
  12 C :   -0.354290
  13 S :    0.084205
  14 P :    0.578644
  15 S :   -0.312722
  16 O :   -0.261709
  17 C :   -0.216589
  18 O :   -0.236504
  19 C :   -0.211128
  20 H :    0.129660
  21 H :    0.130093
  22 H :    0.122723
  23 H :    0.118141
  24 H :    0.123310
  25 H :    0.137820
  26 H :    0.145397
  27 H :    0.123405
  28 H :    0.121499
  29 H :    0.132556
  30 H :    0.122925
  31 H :    0.131943
  32 H :    0.122766
  33 H :    0.108254
  34 H :    0.112494
  35 H :    0.118342
  36 H :    0.124955
  37 H :    0.110066

  Mayer bond orders larger than 0.100000
B(  0-C ,  1-C ) :   1.1721 B(  0-C , 20-H ) :   0.9447 B(  0-C , 21-H ) :   0.9451
B(  0-C , 22-H ) :   0.9485 B(  1-C ,  2-O ) :   0.9175 B(  1-C , 23-H ) :   0.9378
B(  1-C , 24-H ) :   0.9161 B(  2-O ,  3-C ) :   1.1961 B(  3-C ,  4-O ) :   2.0694
B(  3-C ,  5-C ) :   1.0243 B(  5-C ,  6-C ) :   1.0572 B(  5-C , 25-H ) :   0.9050
B(  5-C , 26-H ) :   0.8882 B(  6-C ,  7-H ) :   0.8269 B(  6-C ,  8-C ) :   0.8856
B(  6-C , 13-S ) :   1.0205 B(  8-C ,  9-O ) :   2.0255 B(  8-C , 10-O ) :   1.2517
B( 10-O , 11-C ) :   0.8952 B( 11-C , 12-C ) :   1.1757 B( 11-C , 27-H ) :   0.9162
B( 11-C , 28-H ) :   0.9295 B( 12-C , 29-H ) :   0.9444 B( 12-C , 30-H ) :   0.9488
B( 12-C , 31-H ) :   0.9458 B( 13-S , 14-P ) :   0.9474 B( 13-S , 15-S ) :   0.1148
B( 14-P , 15-S ) :   1.6427 B( 14-P , 16-O ) :   1.0678 B( 14-P , 18-O ) :   1.1156
B( 16-O , 17-C ) :   0.9319 B( 17-C , 32-H ) :   0.9585 B( 17-C , 33-H ) :   0.9461
B( 17-C , 34-H ) :   0.9358 B( 18-O , 19-C ) :   0.9174 B( 19-C , 35-H ) :   0.9478
B( 19-C , 36-H ) :   0.9587 B( 19-C , 37-H ) :   0.9364

Dispersion correction           -0.051620082
FINAL SINGLE POINT ENERGY     -1979.020517566788

DIPOLE MOMENT
-------------

Method             : SCF
Type of density    : Electron Density
Multiplicity       :   1
Irrep              :   0
Energy             : -1979.1516899559569538 Eh
Relativity type    :
Basis              : AO
                                X                 Y                 Z
Electronic contribution:    -10.261691438       1.371143661      -1.947100511
Nuclear contribution   :      9.071525036      -1.389691823       2.535596973
                        -----------------------------------------
Total Dipole Moment    :     -1.190166402      -0.018548162       0.588496462
                        -----------------------------------------
Magnitude (a.u.)       :      1.327843434
Magnitude (Debye)      :      3.375109784

Rotational constants in cm-1:             0.014636             0.006307             0.005351
Rotational constants in MHz :           438.775503           189.082271           160.411037

                             ****ORCA TERMINATED NORMALLY****
TOTAL RUN TIME: 0 days 0 hours 0 minutes 42 seconds 133 msec
