                         Program Version 6.0.0  -   RELEASE  -
|  1> ! pbe def2-sv(p) def2/J RI DEFGRID1 loosescf d4 GCP(DFT/SV(P)) printgap
|  2> %output
|  3>     printlevel normal
|  4> end
|  5> * xyz 0 1
|  6> C 0.0207176142 -0.6665082456 3.1939068798
|  7> C 1.2535261918 -0.1473902795 2.4849705454
|  8> O 1.5749257898 -1.0768961499 1.4159637296
|  9> P 2.3773962026 -0.6499757267 0.1341883609
| 10> S 2.8320340974 -2.1653073457 -1.0130632954
| 11> O 3.6021404385 0.1439667839 0.7609300838
| 12> C 4.6742656404 0.6448182935 -0.0657571463
| 13> C 5.845154834 0.9667029221 0.8402745973
| 14> S 1.2626492376 0.9085359366 -0.8195426138
| 15> C 0.3133321049 -0.1763866011 -1.9070879849
| 16> S -0.8964985914 -1.1831319581 -1.0136721282
| 17> P -2.2447958801 0.4088380014 -0.6278071078
| 18> S -2.4833066654 1.7407401894 -2.0341848434
| 19> O -1.6379922083 0.9550536785 0.7488610967
| 20> C -1.8003124664 2.3275729956 1.1567848851
| 21> C -3.2249524954 2.6058333962 1.5907219538
| 22> O -3.6018543478 -0.3258018673 -0.274456076
| 23> C -3.6952282041 -1.3470215857 0.7505510238
| 24> C -5.1079597616 -1.8909292008 0.7247482492
| 25> H -0.8244518728 -0.6737095118 2.5108392536
| 26> H 0.1948497365 -1.6793707561 3.5450581374
| 27> H -0.2025253968 -0.0237938492 4.0394510669
| 28> H 2.1172252986 -0.1045157862 3.1505586941
| 29> H 1.0835755647 0.840922325 2.0473063003
| 30> H 4.933735688 -0.1230063907 -0.8018150966
| 31> H 4.3134946951 1.5349792969 -0.5878505201
| 32> H 5.5533957088 1.7116732938 1.5745803207
| 33> H 6.1734318577 0.0696886622 1.35771654
| 34> H 6.6625596939 1.3532889466 0.2406589837
| 35> H 0.9923241413 -0.8719490859 -2.4013360073
| 36> H -0.2022075985 0.4621759112 -2.6250130949
| 37> H -1.0932157494 2.4491641338 1.9783080415
| 38> H -1.5156784194 2.9751420628 0.3219467745
| 39> H -3.3096522526 3.6397053874 1.9099844165
| 40> H -3.9013805712 2.4386326171 0.7523882143
| 41> H -3.5091104694 1.952014651 2.4111486472
| 42> H -2.9606012764 -2.1266681755 0.5294933126
| 43> H -3.4583937898 -0.8902420274 1.7145067988
| 44> H -5.8189978342 -1.0925238724 0.9162056258
| 45> H -5.3225835284 -2.3230321151 -0.2483465835
| 46> H -5.2091567049 -2.6558033809 1.4878650067
| 47> *
| 48>
| 49>                          ****END OF INPUT****

CARTESIAN COORDINATES (ANGSTROEM)
---------------------------------
  C      0.020718   -0.666508    3.193907
  C      1.253526   -0.147390    2.484971
  O      1.574926   -1.076896    1.415964
  P      2.377396   -0.649976    0.134188
  S      2.832034   -2.165307   -1.013063
  O      3.602140    0.143967    0.760930
  C      4.674266    0.644818   -0.065757
  C      5.845155    0.966703    0.840275
  S      1.262649    0.908536   -0.819543
  C      0.313332   -0.176387   -1.907088
  S     -0.896499   -1.183132   -1.013672
  P     -2.244796    0.408838   -0.627807
  S     -2.483307    1.740740   -2.034185
  O     -1.637992    0.955054    0.748861
  C     -1.800312    2.327573    1.156785
  C     -3.224952    2.605833    1.590722
  O     -3.601854   -0.325802   -0.274456
  C     -3.695228   -1.347022    0.750551
  C     -5.107960   -1.890929    0.724748
  H     -0.824452   -0.673710    2.510839
  H      0.194850   -1.679371    3.545058
  H     -0.202525   -0.023794    4.039451
  H      2.117225   -0.104516    3.150559
  H      1.083576    0.840922    2.047306
  H      4.933736   -0.123006   -0.801815
  H      4.313495    1.534979   -0.587851
  H      5.553396    1.711673    1.574580
  H      6.173432    0.069689    1.357717
  H      6.662560    1.353289    0.240659
  H      0.992324   -0.871949   -2.401336
  H     -0.202208    0.462176   -2.625013
  H     -1.093216    2.449164    1.978308
  H     -1.515678    2.975142    0.321947
  H     -3.309652    3.639705    1.909984
  H     -3.901381    2.438633    0.752388
  H     -3.509110    1.952015    2.411149
  H     -2.960601   -2.126668    0.529493
  H     -3.458394   -0.890242    1.714507
  H     -5.818998   -1.092524    0.916206
  H     -5.322584   -2.323032   -0.248347
  H     -5.209157   -2.655803    1.487865

 Total Charge           Charge          ....    0
 Multiplicity           Mult            ....    1
 Number of Electrons    NEL             ....  202
 Basis Dimension        Dim             ....  334

ORBITAL ENERGIES
----------------

  NO   OCC          E(Eh)            E(eV)
   0   2.0000     -88.040247     -2395.6969
   1   2.0000     -88.039948     -2395.6888
   2   2.0000     -87.989583     -2394.3183
   3   2.0000     -87.985135     -2394.1972
   4   2.0000     -76.427380     -2079.6947
   5   2.0000     -76.425097     -2079.6326
   6   2.0000     -18.798759      -511.5402
   7   2.0000     -18.795535      -511.4525
   8   2.0000     -18.795206      -511.4435
   9   2.0000     -18.792024      -511.3570
  10   2.0000      -9.964692      -271.1531
  11   2.0000      -9.956814      -270.9387
  12   2.0000      -9.955539      -270.9040
  13   2.0000      -9.955106      -270.8922
  14   2.0000      -9.950079      -270.7554
  15   2.0000      -9.894955      -269.2554
  16   2.0000      -9.890707      -269.1398
  17   2.0000      -9.890274      -269.1280
  18   2.0000      -9.887917      -269.0639
  19   2.0000      -7.685462      -209.1321
  20   2.0000      -7.684866      -209.1158
  21   2.0000      -7.634837      -207.7545
  22   2.0000      -7.630460      -207.6354
  23   2.0000      -6.425444      -174.8452
  24   2.0000      -6.422818      -174.7738
  25   2.0000      -5.713217      -155.4645
  26   2.0000      -5.712547      -155.4463
  27   2.0000      -5.710220      -155.3830
  28   2.0000      -5.709432      -155.3615
  29   2.0000      -5.702293      -155.1673
  30   2.0000      -5.702037      -155.1603
  31   2.0000      -5.663849      -154.1212
  32   2.0000      -5.659427      -154.0008
  33   2.0000      -5.655518      -153.8945
  34   2.0000      -5.654776      -153.8743
  35   2.0000      -5.650937      -153.7698
  36   2.0000      -5.650667      -153.7625
  37   2.0000      -4.648384      -126.4889
  38   2.0000      -4.646815      -126.4463
  39   2.0000      -4.645897      -126.4213
  40   2.0000      -4.645713      -126.4163
  41   2.0000      -4.644548      -126.3846
  42   2.0000      -4.642980      -126.3419
  43   2.0000      -0.990363       -26.9492
  44   2.0000      -0.989793       -26.9336
  45   2.0000      -0.949555       -25.8387
  46   2.0000      -0.946120       -25.7452
  47   2.0000      -0.763851       -20.7855
  48   2.0000      -0.725858       -19.7516
  49   2.0000      -0.715476       -19.4691
  50   2.0000      -0.696622       -18.9561
  51   2.0000      -0.693676       -18.8759
  52   2.0000      -0.674809       -18.3625
  53   2.0000      -0.650389       -17.6980
  54   2.0000      -0.638903       -17.3854
  55   2.0000      -0.595486       -16.2040
  56   2.0000      -0.584830       -15.9140
  57   2.0000      -0.578549       -15.7431
  58   2.0000      -0.572062       -15.5666
  59   2.0000      -0.564006       -15.3474
  60   2.0000      -0.515482       -14.0270
  61   2.0000      -0.506727       -13.7888
  62   2.0000      -0.485273       -13.2050
  63   2.0000      -0.484679       -13.1888
  64   2.0000      -0.461735       -12.5644
  65   2.0000      -0.449182       -12.2229
  66   2.0000      -0.446931       -12.1616
  67   2.0000      -0.439920       -11.9708
  68   2.0000      -0.432033       -11.7562
  69   2.0000      -0.412187       -11.2162
  70   2.0000      -0.408775       -11.1233
  71   2.0000      -0.397530       -10.8173
  72   2.0000      -0.395288       -10.7563
  73   2.0000      -0.386779       -10.5248
  74   2.0000      -0.378773       -10.3069
  75   2.0000      -0.373215       -10.1557
  76   2.0000      -0.368239       -10.0203
  77   2.0000      -0.361879        -9.8472
  78   2.0000      -0.360480        -9.8092
  79   2.0000      -0.354902        -9.6574
  80   2.0000      -0.351672        -9.5695
  81   2.0000      -0.349072        -9.4987
  82   2.0000      -0.345298        -9.3960
  83   2.0000      -0.340385        -9.2623
  84   2.0000      -0.336879        -9.1669
  85   2.0000      -0.323802        -8.8111
  86   2.0000      -0.319915        -8.7053
  87   2.0000      -0.313984        -8.5439
  88   2.0000      -0.303645        -8.2626
  89   2.0000      -0.301126        -8.1941
  90   2.0000      -0.286119        -7.7857
  91   2.0000      -0.275965        -7.5094
  92   2.0000      -0.275412        -7.4944
  93   2.0000      -0.269089        -7.3223
  94   2.0000      -0.257528        -7.0077
  95   2.0000      -0.232751        -6.3335
  96   2.0000      -0.217520        -5.9190
  97   2.0000      -0.213798        -5.8177
  98   2.0000      -0.204427        -5.5627
  99   2.0000      -0.202303        -5.5049
 100   2.0000      -0.199945        -5.4408
 101   0.0000      -0.044035        -1.1982
 102   0.0000      -0.022945        -0.6244
 103   0.0000      -0.001409        -0.0383
 104   0.0000       0.003579         0.0974
 105   0.0000       0.010280         0.2797

MULLIKEN ATOMIC CHARGES
-----------------------
   0 C :   -0.301353
   1 C :   -0.011467
   2 O :   -0.352329
   3 P :    0.600953
   4 S :   -0.312387
   5 O :   -0.389391
   6 C :   -0.010246
   7 C :   -0.280453
   8 S :   -0.101542
   9 C :   -0.368746
  10 S :   -0.084619
  11 P :    0.621339
  12 S :   -0.309673
  13 O :   -0.384792
  14 C :   -0.010052
  15 C :   -0.313453
  16 O :   -0.370752
  17 C :   -0.055126
  18 C :   -0.267898
  19 H :    0.136081
  20 H :    0.118697
  21 H :    0.102908
  22 H :    0.107865
  23 H :    0.106741
  24 H :    0.107406
  25 H :    0.104588
  26 H :    0.113488
  27 H :    0.121542
  28 H :    0.113795
  29 H :    0.197300
  30 H :    0.193223
  31 H :    0.103575
  32 H :    0.115948
  33 H :    0.114784
  34 H :    0.131511
  35 H :    0.110937
  36 H :    0.124032
  37 H :    0.117482
  38 H :    0.120847
  39 H :    0.125911
  40 H :    0.113327
Sum of atomic charges:   -0.0000000

LOEWDIN ATOMIC CHARGES
----------------------
   0 C :   -0.357481
   1 C :   -0.110383
   2 O :   -0.232147
   3 P :    0.567345
   4 S :   -0.308034
   5 O :   -0.252892
   6 C :   -0.119249
   7 C :   -0.350302
   8 S :    0.061902
   9 C :   -0.487030
  10 S :    0.084104
  11 P :    0.571663
  12 S :   -0.303512
  13 O :   -0.250423
  14 C :   -0.121550
  15 C :   -0.365304
  16 O :   -0.244859
  17 C :   -0.118249
  18 C :   -0.347940
  19 H :    0.124298
  20 H :    0.129078
  21 H :    0.126635
  22 H :    0.115250
  23 H :    0.103981
  24 H :    0.110619
  25 H :    0.109474
  26 H :    0.125414
  27 H :    0.129468
  28 H :    0.131780
  29 H :    0.129055
  30 H :    0.128535
  31 H :    0.113492
  32 H :    0.111453
  33 H :    0.132158
  34 H :    0.126258
  35 H :    0.121176
  36 H :    0.111118
  37 H :    0.110959
  38 H :    0.129799
  39 H :    0.132481
  40 H :    0.131858

  Mayer bond orders larger than 0.100000
B(  0-C ,  1-C ) :   1.1678 B(  0-C , 19-H ) :   0.9305 B(  0-C , 20-H ) :   0.9465
B(  0-C , 21-H ) :   0.9398 B(  1-C ,  2-O ) :   0.8869 B(  1-C , 22-H ) :   0.9322
B(  1-C , 23-H ) :   0.9098 B(  2-O ,  3-P ) :   1.1468 B(  3-P ,  4-S ) :   1.6524
B(  3-P ,  5-O ) :   1.0824 B(  3-P ,  8-S ) :   0.9442 B(  4-S ,  8-S ) :   0.1105
B(  5-O ,  6-C ) :   0.9030 B(  6-C ,  7-C ) :   1.1599 B(  6-C , 24-H ) :   0.9114
B(  6-C , 25-H ) :   0.9283 B(  7-C , 26-H ) :   0.9512 B(  7-C , 27-H ) :   0.9508
B(  7-C , 28-H ) :   0.9418 B(  8-S ,  9-C ) :   1.0067 B(  9-C , 10-S ) :   1.0095
B(  9-C , 29-H ) :   0.8706 B(  9-C , 30-H ) :   0.8715 B( 10-S , 11-P ) :   0.9676
B( 10-S , 12-S ) :   0.1031 B( 11-P , 12-S ) :   1.6355 B( 11-P , 13-O ) :   1.0590
B( 11-P , 16-O ) :   1.1186 B( 13-O , 14-C ) :   0.9045 B( 14-C , 15-C ) :   1.1629
B( 14-C , 31-H ) :   0.9291 B( 14-C , 32-H ) :   0.9120 B( 15-C , 33-H ) :   0.9395
B( 15-C , 34-H ) :   0.9338 B( 15-C , 35-H ) :   0.9458 B( 16-O , 17-C ) :   0.9010
B( 17-C , 18-C ) :   1.1620 B( 17-C , 36-H ) :   0.9196 B( 17-C , 37-H ) :   0.9191
B( 18-C , 38-H ) :   0.9498 B( 18-C , 39-H ) :   0.9488 B( 18-C , 40-H ) :   0.9402

Dispersion correction           -0.063845026
FINAL SINGLE POINT ENERGY     -2929.523004329535

DIPOLE MOMENT
-------------

Method             : SCF
Type of density    : Electron Density
Multiplicity       :   1
Irrep              :   0
Energy             : -2929.6443464255053186 Eh
Relativity type    :
Basis              : AO
                                X                 Y                 Z
Electronic contribution:      5.024892937      -5.939760568     -21.055370819
Nuclear contribution   :     -5.115568268       6.669658653      22.972274255
                        -----------------------------------------
Total Dipole Moment    :     -0.090675331       0.729898085       1.916903436
                        -----------------------------------------
Magnitude (a.u.)       :      2.053166338
Magnitude (Debye)      :      5.218734093

Rotational constants in cm-1:             0.012635             0.004568             0.004539
Rotational constants in MHz :           378.789784           136.930957           136.075061

                             ****ORCA TERMINATED NORMALLY****
TOTAL RUN TIME: 0 days 0 hours 0 minutes 21 seconds 267 msec
