                         Program Version 6.0.0  -   RELEASE  -
|  1> ! pbe def2-sv(p) def2/J RI DEFGRID1 loosescf d4 GCP(DFT/SV(P)) printgap
|  2> %output
|  3>     printlevel normal
|  4> end
|  5> * xyz 0 1
|  6> C 3.4433705782 -0.7980248321 -3.0684980149
|  7> C 2.1838327976 -0.4678280839 -2.2964405307
|  8> O 2.4932982237 0.366345577 -1.1528140542
|  9> P 2.6332048015 -0.196909102 0.3117495483
| 10> S 3.1982608506 1.1918975712 1.5647594646
| 11> O 3.6202920539 -1.4287667486 0.1286871826
| 12> C 4.3323385731 -2.0229134929 1.2311233607
| 13> C 3.4050068464 -2.6856890804 2.228519609
| 14> S 0.7563581149 -1.0958649792 0.7389307979
| 15> C -0.0162565869 0.4458065233 1.346114712
| 16> S -1.786380238 0.2417448982 1.5534324133
| 17> P -2.4055956376 0.7803555156 -0.4321158444
| 18> S -0.9948577549 1.0512970405 -1.758956257
| 19> O -3.2079984919 2.1263619782 -0.268890077
| 20> C -4.3299474401 2.2849845895 0.6349656942
| 21> C -5.642072369 2.1280188964 -0.1059822512
| 22> O -3.561413874 -0.259090605 -0.7547823268
| 23> C -3.4570176837 -1.6915207077 -0.6419748753
| 24> C -2.2885702273 -2.2576996112 -1.4204867456
| 25> H 3.1749081188 -1.3600197247 -3.9573207364
| 26> H 3.9490360516 0.1179015183 -3.3615902708
| 27> H 4.1162608268 -1.3914819373 -2.4550964386
| 28> H 1.6803639337 -1.3738791745 -1.9480338327
| 29> H 1.4856671101 0.1273502473 -2.8890977252
| 30> H 4.9917665651 -2.7474842147 0.7513146664
| 31> H 4.9255739989 -1.2420274841 1.7163122763
| 32> H 2.7319425945 -3.3735508334 1.7227784322
| 33> H 3.9961523986 -3.229450069 2.9583559713
| 34> H 2.8142712177 -1.9318604647 2.7467613523
| 35> H 0.1787123347 1.2378512615 0.6200734715
| 36> H 0.4055683222 0.692517762 2.3183757253
| 37> H -4.2377343598 1.5560121912 1.4451680855
| 38> H -4.2175923126 3.2945797484 1.0342545458
| 39> H -6.4616232101 2.3122262942 0.5815022652
| 40> H -5.6933120942 2.840285918 -0.9249292016
| 41> H -5.7301370452 1.123727301 -0.5108669742
| 42> H -3.3742775818 -1.9449552876 0.418449013
| 43> H -4.4097183854 -2.0481915881 -1.0372470277
| 44> H -2.3222006041 -1.9207567092 -2.4539144409
| 45> H -1.3478887251 -1.9305504549 -0.9788117683
| 46> H -2.3288188947 -3.3417058004 -1.3927575973
| 47> *
| 48>
| 49>                          ****END OF INPUT****

CARTESIAN COORDINATES (ANGSTROEM)
---------------------------------
  C      3.443371   -0.798025   -3.068498
  C      2.183833   -0.467828   -2.296441
  O      2.493298    0.366346   -1.152814
  P      2.633205   -0.196909    0.311750
  S      3.198261    1.191898    1.564759
  O      3.620292   -1.428767    0.128687
  C      4.332339   -2.022913    1.231123
  C      3.405007   -2.685689    2.228520
  S      0.756358   -1.095865    0.738931
  C     -0.016257    0.445807    1.346115
  S     -1.786380    0.241745    1.553432
  P     -2.405596    0.780356   -0.432116
  S     -0.994858    1.051297   -1.758956
  O     -3.207998    2.126362   -0.268890
  C     -4.329947    2.284985    0.634966
  C     -5.642072    2.128019   -0.105982
  O     -3.561414   -0.259091   -0.754782
  C     -3.457018   -1.691521   -0.641975
  C     -2.288570   -2.257700   -1.420487
  H      3.174908   -1.360020   -3.957321
  H      3.949036    0.117902   -3.361590
  H      4.116261   -1.391482   -2.455096
  H      1.680364   -1.373879   -1.948034
  H      1.485667    0.127350   -2.889098
  H      4.991767   -2.747484    0.751315
  H      4.925574   -1.242027    1.716312
  H      2.731943   -3.373551    1.722778
  H      3.996152   -3.229450    2.958356
  H      2.814271   -1.931860    2.746761
  H      0.178712    1.237851    0.620073
  H      0.405568    0.692518    2.318376
  H     -4.237734    1.556012    1.445168
  H     -4.217592    3.294580    1.034255
  H     -6.461623    2.312226    0.581502
  H     -5.693312    2.840286   -0.924929
  H     -5.730137    1.123727   -0.510867
  H     -3.374278   -1.944955    0.418449
  H     -4.409718   -2.048192   -1.037247
  H     -2.322201   -1.920757   -2.453914
  H     -1.347889   -1.930550   -0.978812
  H     -2.328819   -3.341706   -1.392758

 Total Charge           Charge          ....    0
 Multiplicity           Mult            ....    1
 Number of Electrons    NEL             ....  202
 Basis Dimension        Dim             ....  334

ORBITAL ENERGIES
----------------

  NO   OCC          E(Eh)            E(eV)
   0   2.0000     -88.050979     -2395.9890
   1   2.0000     -88.038327     -2395.6447
   2   2.0000     -87.987172     -2394.2527
   3   2.0000     -87.981920     -2394.1097
   4   2.0000     -76.429421     -2079.7503
   5   2.0000     -76.423000     -2079.5756
   6   2.0000     -18.798795      -511.5412
   7   2.0000     -18.794014      -511.4111
   8   2.0000     -18.791774      -511.3502
   9   2.0000     -18.785121      -511.1691
  10   2.0000      -9.961008      -271.0528
  11   2.0000      -9.959951      -271.0240
  12   2.0000      -9.954543      -270.8769
  13   2.0000      -9.952135      -270.8114
  14   2.0000      -9.946889      -270.6686
  15   2.0000      -9.889221      -269.0994
  16   2.0000      -9.884926      -268.9825
  17   2.0000      -9.884527      -268.9716
  18   2.0000      -9.880450      -268.8607
  19   2.0000      -7.695606      -209.4081
  20   2.0000      -7.682886      -209.0620
  21   2.0000      -7.632156      -207.6815
  22   2.0000      -7.627281      -207.5489
  23   2.0000      -6.426798      -174.8821
  24   2.0000      -6.420510      -174.7110
  25   2.0000      -5.723341      -155.7400
  26   2.0000      -5.720061      -155.6508
  27   2.0000      -5.712867      -155.4550
  28   2.0000      -5.710686      -155.3957
  29   2.0000      -5.707633      -155.3126
  30   2.0000      -5.699795      -155.0993
  31   2.0000      -5.661295      -154.0517
  32   2.0000      -5.656318      -153.9162
  33   2.0000      -5.652687      -153.8174
  34   2.0000      -5.652161      -153.8031
  35   2.0000      -5.647796      -153.6843
  36   2.0000      -5.647393      -153.6734
  37   2.0000      -4.649509      -126.5196
  38   2.0000      -4.648799      -126.5003
  39   2.0000      -4.646925      -126.4493
  40   2.0000      -4.643426      -126.3541
  41   2.0000      -4.642227      -126.3214
  42   2.0000      -4.640720      -126.2804
  43   2.0000      -0.992143       -26.9976
  44   2.0000      -0.985923       -26.8283
  45   2.0000      -0.948440       -25.8084
  46   2.0000      -0.942480       -25.6462
  47   2.0000      -0.763089       -20.7647
  48   2.0000      -0.722565       -19.6620
  49   2.0000      -0.711180       -19.3522
  50   2.0000      -0.694144       -18.8886
  51   2.0000      -0.689012       -18.7490
  52   2.0000      -0.676737       -18.4149
  53   2.0000      -0.651486       -17.7278
  54   2.0000      -0.636304       -17.3147
  55   2.0000      -0.596063       -16.2197
  56   2.0000      -0.591507       -16.0957
  57   2.0000      -0.578604       -15.7446
  58   2.0000      -0.569762       -15.5040
  59   2.0000      -0.562034       -15.2937
  60   2.0000      -0.506066       -13.7708
  61   2.0000      -0.497306       -13.5324
  62   2.0000      -0.476831       -12.9752
  63   2.0000      -0.472744       -12.8640
  64   2.0000      -0.455408       -12.3923
  65   2.0000      -0.448755       -12.2112
  66   2.0000      -0.443445       -12.0667
  67   2.0000      -0.437898       -11.9158
  68   2.0000      -0.430387       -11.7114
  69   2.0000      -0.423557       -11.5256
  70   2.0000      -0.413420       -11.2497
  71   2.0000      -0.403378       -10.9765
  72   2.0000      -0.392591       -10.6829
  73   2.0000      -0.388831       -10.5806
  74   2.0000      -0.381950       -10.3934
  75   2.0000      -0.364582        -9.9208
  76   2.0000      -0.362345        -9.8599
  77   2.0000      -0.358915        -9.7666
  78   2.0000      -0.354579        -9.6486
  79   2.0000      -0.352229        -9.5846
  80   2.0000      -0.349016        -9.4972
  81   2.0000      -0.345158        -9.3922
  82   2.0000      -0.341271        -9.2864
  83   2.0000      -0.340573        -9.2675
  84   2.0000      -0.337103        -9.1730
  85   2.0000      -0.323575        -8.8049
  86   2.0000      -0.312629        -8.5071
  87   2.0000      -0.301116        -8.1938
  88   2.0000      -0.295097        -8.0300
  89   2.0000      -0.291041        -7.9196
  90   2.0000      -0.289387        -7.8746
  91   2.0000      -0.281531        -7.6609
  92   2.0000      -0.269358        -7.3296
  93   2.0000      -0.262842        -7.1523
  94   2.0000      -0.260968        -7.1013
  95   2.0000      -0.233065        -6.3420
  96   2.0000      -0.222544        -6.0557
  97   2.0000      -0.205809        -5.6004
  98   2.0000      -0.203521        -5.5381
  99   2.0000      -0.201591        -5.4856
 100   2.0000      -0.194444        -5.2911
 101   0.0000      -0.045690        -1.2433
 102   0.0000      -0.032647        -0.8884
 103   0.0000      -0.015854        -0.4314
 104   0.0000       0.008380         0.2280
 105   0.0000       0.014798         0.4027

MULLIKEN ATOMIC CHARGES
-----------------------
   0 C :   -0.281066
   1 C :   -0.019215
   2 O :   -0.348895
   3 P :    0.597027
   4 S :   -0.320996
   5 O :   -0.382113
   6 C :    0.000531
   7 C :   -0.318532
   8 S :   -0.106644
   9 C :   -0.336693
  10 S :   -0.119372
  11 P :    0.592157
  12 S :   -0.298731
  13 O :   -0.349005
  14 C :   -0.014800
  15 C :   -0.287869
  16 O :   -0.378805
  17 C :   -0.002022
  18 C :   -0.336155
  19 H :    0.107417
  20 H :    0.119529
  21 H :    0.115821
  22 H :    0.100972
  23 H :    0.124040
  24 H :    0.104906
  25 H :    0.113904
  26 H :    0.116662
  27 H :    0.113841
  28 H :    0.129691
  29 H :    0.203964
  30 H :    0.189064
  31 H :    0.101105
  32 H :    0.114726
  33 H :    0.110029
  34 H :    0.122864
  35 H :    0.121339
  36 H :    0.109879
  37 H :    0.107571
  38 H :    0.124562
  39 H :    0.148814
  40 H :    0.110497
Sum of atomic charges:    0.0000000

LOEWDIN ATOMIC CHARGES
----------------------
   0 C :   -0.358458
   1 C :   -0.116203
   2 O :   -0.230966
   3 P :    0.572523
   4 S :   -0.314350
   5 O :   -0.247687
   6 C :   -0.115297
   7 C :   -0.371511
   8 S :    0.065711
   9 C :   -0.480769
  10 S :    0.069088
  11 P :    0.568181
  12 S :   -0.284395
  13 O :   -0.234629
  14 C :   -0.113447
  15 C :   -0.358940
  16 O :   -0.243508
  17 C :   -0.115140
  18 C :   -0.374906
  19 H :    0.128646
  20 H :    0.128758
  21 H :    0.124054
  22 H :    0.103274
  23 H :    0.117848
  24 H :    0.118421
  25 H :    0.114126
  26 H :    0.123025
  27 H :    0.131459
  28 H :    0.122067
  29 H :    0.125834
  30 H :    0.132445
  31 H :    0.102621
  32 H :    0.123638
  33 H :    0.129454
  34 H :    0.130532
  35 H :    0.126251
  36 H :    0.107909
  37 H :    0.120082
  38 H :    0.129457
  39 H :    0.114533
  40 H :    0.130269

  Mayer bond orders larger than 0.100000
B(  0-C ,  1-C ) :   1.1607 B(  0-C , 19-H ) :   0.9406 B(  0-C , 20-H ) :   0.9470
B(  0-C , 21-H ) :   0.9431 B(  1-C ,  2-O ) :   0.8890 B(  1-C , 22-H ) :   0.9153
B(  1-C , 23-H ) :   0.9270 B(  2-O ,  3-P ) :   1.1499 B(  3-P ,  4-S ) :   1.6249
B(  3-P ,  5-O ) :   1.0812 B(  3-P ,  8-S ) :   0.9639 B(  4-S ,  8-S ) :   0.1097
B(  5-O ,  6-C ) :   0.9055 B(  6-C ,  7-C ) :   1.1659 B(  6-C , 24-H ) :   0.9344
B(  6-C , 25-H ) :   0.9193 B(  7-C , 26-H ) :   0.9437 B(  7-C , 27-H ) :   0.9368
B(  7-C , 28-H ) :   0.9343 B(  8-S ,  9-C ) :   0.9698 B(  9-C , 10-S ) :   1.0092
B(  9-C , 29-H ) :   0.8639 B(  9-C , 30-H ) :   0.8925 B( 10-S , 11-P ) :   0.9264
B( 10-S , 12-S ) :   0.1156 B( 11-P , 12-S ) :   1.6592 B( 11-P , 13-O ) :   1.1419
B( 11-P , 16-O ) :   1.0870 B( 13-O , 14-C ) :   0.8943 B( 14-C , 15-C ) :   1.1642
B( 14-C , 31-H ) :   0.9159 B( 14-C , 32-H ) :   0.9357 B( 15-C , 33-H ) :   0.9398
B( 15-C , 34-H ) :   0.9465 B( 15-C , 35-H ) :   0.9424 B( 16-O , 17-C ) :   0.9074
B( 17-C , 18-C ) :   1.1682 B( 17-C , 36-H ) :   0.9238 B( 17-C , 37-H ) :   0.9330
B( 18-C , 38-H ) :   0.9419 B( 18-C , 39-H ) :   0.9188 B( 18-C , 40-H ) :   0.9343

Dispersion correction           -0.063648831
FINAL SINGLE POINT ENERGY     -2929.514558314168

DIPOLE MOMENT
-------------

Method             : SCF
Type of density    : Electron Density
Multiplicity       :   1
Irrep              :   0
Energy             : -2929.6360447390893569 Eh
Relativity type    :
Basis              : AO
                                X                 Y                 Z
Electronic contribution:      4.422557759      12.594380939       5.402911255
Nuclear contribution   :     -5.569372434     -14.184486182      -5.233826253
                        -----------------------------------------
Total Dipole Moment    :     -1.146814675      -1.590105242       0.169085002
                        -----------------------------------------
Magnitude (a.u.)       :      1.967792753
Magnitude (Debye)      :      5.001731684

Rotational constants in cm-1:             0.013626             0.004249             0.004081
Rotational constants in MHz :           408.484229           127.384476           122.356600

                             ****ORCA TERMINATED NORMALLY****
TOTAL RUN TIME: 0 days 0 hours 0 minutes 20 seconds 752 msec
