                         Program Version 6.0.0  -   RELEASE  -
|  1> ! pbe def2-sv(p) def2/J RI DEFGRID1 loosescf d4 GCP(DFT/SV(P)) printgap
|  2> %output
|  3>     printlevel normal
|  4> end
|  5> * xyz 0 1
|  6> C 0.8671832825 1.3789256168 -0.5693038169
|  7> C 1.588684047 0.1341002468 -0.0415137448
|  8> H 2.5330871915 0.036410639 -0.5941883929
|  9> C 0.7418900827 -1.1256431441 -0.3278162496
| 10> H 1.1672881191 -1.9702387379 0.2352802419
| 11> C -0.7056852503 -0.9103782469 0.1715523282
| 12> H -1.3489923159 -1.739919984 -0.1386727533
| 13> C -1.2488155792 0.3855362768 -0.4597711141
| 14> H -1.2038213611 0.2761979636 -1.5659717064
| 15> O -0.4533980389 1.4860781762 -0.0814050406
| 16> O -2.5446299868 0.6044307831 -0.0345771275
| 17> O -0.7598383255 -0.8824619775 1.5703617742
| 18> O 0.8023948655 -1.3605995589 -1.7129089704
| 19> O 1.8211521179 0.3142646368 1.3346450299
| 20> H 0.8573545231 1.3392489112 -1.6660855941
| 21> H 1.3776164303 2.2761524767 -0.2207180074
| 22> H -2.7584437593 1.5446648896 -0.1408809656
| 23> H -0.2923264464 -0.0873639002 1.879996443
| 24> H 0.4386787631 -2.2341739591 -1.9160029145
| 25> H 2.4200286232 -0.369912587 1.6652152379
| 26> *
| 27>
| 28>                          ****END OF INPUT****

CARTESIAN COORDINATES (ANGSTROEM)
---------------------------------
  C      0.867183    1.378926   -0.569304
  C      1.588684    0.134100   -0.041514
  H      2.533087    0.036411   -0.594188
  C      0.741890   -1.125643   -0.327816
  H      1.167288   -1.970239    0.235280
  C     -0.705685   -0.910378    0.171552
  H     -1.348992   -1.739920   -0.138673
  C     -1.248816    0.385536   -0.459771
  H     -1.203821    0.276198   -1.565972
  O     -0.453398    1.486078   -0.081405
  O     -2.544630    0.604431   -0.034577
  O     -0.759838   -0.882462    1.570362
  O      0.802395   -1.360600   -1.712909
  O      1.821152    0.314265    1.334645
  H      0.857355    1.339249   -1.666086
  H      1.377616    2.276152   -0.220718
  H     -2.758444    1.544665   -0.140881
  H     -0.292326   -0.087364    1.879996
  H      0.438679   -2.234174   -1.916003
  H      2.420029   -0.369913    1.665215

 Total Charge           Charge          ....    0
 Multiplicity           Mult            ....    1
 Number of Electrons    NEL             ....   80
 Basis Dimension        Dim             ....  160

ORBITAL ENERGIES
----------------

  NO   OCC          E(Eh)            E(eV)
   0   2.0000     -18.768012      -510.7036
   1   2.0000     -18.765893      -510.6459
   2   2.0000     -18.765641      -510.6390
   3   2.0000     -18.749089      -510.1887
   4   2.0000     -18.733350      -509.7604
   5   2.0000      -9.976248      -271.4675
   6   2.0000      -9.950595      -270.7695
   7   2.0000      -9.945831      -270.6398
   8   2.0000      -9.937357      -270.4092
   9   2.0000      -9.932619      -270.2803
  10   2.0000      -0.979396       -26.6507
  11   2.0000      -0.947777       -25.7903
  12   2.0000      -0.937296       -25.5051
  13   2.0000      -0.910853       -24.7856
  14   2.0000      -0.906250       -24.6603
  15   2.0000      -0.698610       -19.0101
  16   2.0000      -0.671048       -18.2601
  17   2.0000      -0.593427       -16.1480
  18   2.0000      -0.575029       -15.6473
  19   2.0000      -0.529506       -14.4086
  20   2.0000      -0.489973       -13.3329
  21   2.0000      -0.486052       -13.2261
  22   2.0000      -0.470848       -12.8124
  23   2.0000      -0.451036       -12.2733
  24   2.0000      -0.439620       -11.9627
  25   2.0000      -0.420411       -11.4400
  26   2.0000      -0.382741       -10.4149
  27   2.0000      -0.378062       -10.2876
  28   2.0000      -0.372792       -10.1442
  29   2.0000      -0.352030        -9.5792
  30   2.0000      -0.324589        -8.8325
  31   2.0000      -0.310382        -8.4459
  32   2.0000      -0.301734        -8.2106
  33   2.0000      -0.282663        -7.6917
  34   2.0000      -0.272875        -7.4253
  35   2.0000      -0.249136        -6.7793
  36   2.0000      -0.247086        -6.7235
  37   2.0000      -0.232804        -6.3349
  38   2.0000      -0.210459        -5.7269
  39   2.0000      -0.190898        -5.1946
  40   0.0000       0.012039         0.3276
  41   0.0000       0.012220         0.3325
  42   0.0000       0.044995         1.2244
  43   0.0000       0.072923         1.9843
  44   0.0000       0.078223         2.1285

MULLIKEN ATOMIC CHARGES
-----------------------
   0 C :    0.071097
   1 C :   -0.005180
   2 H :    0.075562
   3 C :    0.008662
   4 H :    0.059191
   5 C :    0.081667
   6 H :    0.063844
   7 C :    0.166096
   8 H :    0.036922
   9 O :   -0.328908
  10 O :   -0.375611
  11 O :   -0.427299
  12 O :   -0.411255
  13 O :   -0.415992
  14 H :    0.082861
  15 H :    0.099067
  16 H :    0.303573
  17 H :    0.300208
  18 H :    0.308071
  19 H :    0.307423
Sum of atomic charges:   -0.0000000

LOEWDIN ATOMIC CHARGES
----------------------
   0 C :   -0.112950
   1 C :   -0.081177
   2 H :    0.109641
   3 C :   -0.084179
   4 H :    0.096283
   5 C :   -0.086141
   6 H :    0.113343
   7 C :   -0.005403
   8 H :    0.077216
   9 O :   -0.164995
  10 O :   -0.297321
  11 O :   -0.312803
  12 O :   -0.318589
  13 O :   -0.309843
  14 H :    0.110929
  15 H :    0.122212
  16 H :    0.288337
  17 H :    0.272873
  18 H :    0.292245
  19 H :    0.290322

  Mayer bond orders larger than 0.100000
B(  0-C ,  1-C ) :   1.0783 B(  0-C ,  9-O ) :   1.0248 B(  0-C , 14-H ) :   0.8983
B(  0-C , 15-H ) :   0.9190 B(  1-C ,  2-H ) :   0.8922 B(  1-C ,  3-C ) :   0.9826
B(  1-C , 13-O ) :   1.0482 B(  3-C ,  4-H ) :   0.9072 B(  3-C ,  5-C ) :   0.9393
B(  3-C , 12-O ) :   1.0516 B(  5-C ,  6-H ) :   0.8933 B(  5-C ,  7-C ) :   0.9659
B(  5-C , 11-O ) :   1.0663 B(  7-C ,  8-H ) :   0.8858 B(  7-C ,  9-O ) :   0.9983
B(  7-C , 10-O ) :   1.1985 B( 10-O , 16-H ) :   0.8407 B( 11-O , 17-H ) :   0.8177
B( 12-O , 18-H ) :   0.8446 B( 13-O , 19-H ) :   0.8424

Dispersion correction           -0.019801176
FINAL SINGLE POINT ENERGY      -571.412890960105

DIPOLE MOMENT
-------------

Method             : SCF
Type of density    : Electron Density
Multiplicity       :   1
Irrep              :   0
Energy             :  -571.5212474647803447 Eh
Relativity type    :
Basis              : AO
                                X                 Y                 Z
Electronic contribution:     -2.071444343       0.568492602       1.691450722
Nuclear contribution   :      2.976399034      -0.869102709      -2.293859379
                        -----------------------------------------
Total Dipole Moment    :      0.904954691      -0.300610107      -0.602408657
                        -----------------------------------------
Magnitude (a.u.)       :      1.127920928
Magnitude (Debye)      :      2.866947159

Rotational constants in cm-1:             0.058148             0.040443             0.038334
Rotational constants in MHz :          1743.230138          1212.452450          1149.215845

                             ****ORCA TERMINATED NORMALLY****
TOTAL RUN TIME: 0 days 0 hours 0 minutes 14 seconds 922 msec
