                         Program Version 6.0.0  -   RELEASE  -
|  1> ! r2scan-3c def2/J RI DEFGRID2 scfconv6 printgap
|  2> %output
|  3>     printlevel normal
|  4> end
|  5> * xyz 0 1
|  6> C 5.4770775088 0.8035267393 -0.344534289
|  7> C 4.9271355254 -0.5450918891 -0.7577130262
|  8> O 3.7013426406 -0.8616725199 -0.0652964445
|  9> P 2.3583182478 -0.0703788573 -0.3290099598
| 10> S 2.0795024806 0.527121009 -2.1785546575
| 11> O 2.4498837214 1.0730591144 0.7724128366
| 12> C 1.5149761469 2.1606261905 0.8676560665
| 13> C 2.1553855555 3.2500700738 1.7028321051
| 14> S 1.0131377909 -1.4794769111 0.4792753976
| 15> C -0.0068538331 -1.8506661952 -0.9951554412
| 16> S -1.7448037797 -2.0250794468 -0.5593586751
| 17> P -2.0900611233 -0.0158355684 0.0724638852
| 18> S -1.3188098101 1.373351632 -1.0688767648
| 19> O -1.5835051155 0.1014247573 1.5573713981
| 20> C -2.0305834255 -0.7773725696 2.6235738427
| 21> C -3.1293311537 -0.1163083377 3.4288233377
| 22> O -3.6677704786 0.0124434368 0.2288802853
| 23> C -4.5329456094 -0.0350842906 -0.9258831751
| 24> C -5.9390284886 0.2857119987 -0.4619681399
| 25> H 6.4452281599 0.9565789645 -0.8110563853
| 26> H 4.7990212422 1.5921475262 -0.6688975259
| 27> H 5.5813816431 0.8516122678 0.7361361743
| 28> H 5.5973466001 -1.3602081518 -0.4822614166
| 29> H 4.7301398599 -0.5688086005 -1.8342212559
| 30> H 1.2734400377 2.5119864445 -0.1415911515
| 31> H 0.5951690928 1.7891635972 1.3308828807
| 32> H 3.0548780784 3.615123638 1.2152589675
| 33> H 1.4518504772 4.0682408217 1.8161364713
| 34> H 2.4169624528 2.8580205697 2.6812944753
| 35> H 0.3025201733 -2.8049121121 -1.4136025757
| 36> H 0.1174159799 -1.0392829317 -1.7187058654
| 37> H -2.3686498644 -1.720359078 2.1860432999
| 38> H -1.1363574129 -0.952622034 3.2245214192
| 39> H -2.7836735175 0.8356826192 3.8219623323
| 40> H -3.9999404658 0.058453531 2.8025998741
| 41> H -3.4037312349 -0.7667505513 4.2532762904
| 42> H -4.1730192033 0.6936688445 -1.6592360612
| 43> H -4.4716259804 -1.0375593917 -1.3576330321
| 44> H -6.2628336571 -0.443363948 0.2749891734
| 45> H -5.9690266856 1.2766204049 -0.0176716773
| 46> H -6.6094537979 0.2558375948 -1.3144866199
| 47> *
| 48>
| 49>                          ****END OF INPUT****

CARTESIAN COORDINATES (ANGSTROEM)
---------------------------------
  C      5.477078    0.803527   -0.344534
  C      4.927136   -0.545092   -0.757713
  O      3.701343   -0.861673   -0.065296
  P      2.358318   -0.070379   -0.329010
  S      2.079502    0.527121   -2.178555
  O      2.449884    1.073059    0.772413
  C      1.514976    2.160626    0.867656
  C      2.155386    3.250070    1.702832
  S      1.013138   -1.479477    0.479275
  C     -0.006854   -1.850666   -0.995155
  S     -1.744804   -2.025079   -0.559359
  P     -2.090061   -0.015836    0.072464
  S     -1.318810    1.373352   -1.068877
  O     -1.583505    0.101425    1.557371
  C     -2.030583   -0.777373    2.623574
  C     -3.129331   -0.116308    3.428823
  O     -3.667770    0.012443    0.228880
  C     -4.532946   -0.035084   -0.925883
  C     -5.939028    0.285712   -0.461968
  H      6.445228    0.956579   -0.811056
  H      4.799021    1.592148   -0.668898
  H      5.581382    0.851612    0.736136
  H      5.597347   -1.360208   -0.482261
  H      4.730140   -0.568809   -1.834221
  H      1.273440    2.511986   -0.141591
  H      0.595169    1.789164    1.330883
  H      3.054878    3.615124    1.215259
  H      1.451850    4.068241    1.816136
  H      2.416962    2.858021    2.681294
  H      0.302520   -2.804912   -1.413603
  H      0.117416   -1.039283   -1.718706
  H     -2.368650   -1.720359    2.186043
  H     -1.136357   -0.952622    3.224521
  H     -2.783674    0.835683    3.821962
  H     -3.999940    0.058454    2.802600
  H     -3.403731   -0.766751    4.253276
  H     -4.173019    0.693669   -1.659236
  H     -4.471626   -1.037559   -1.357633
  H     -6.262834   -0.443364    0.274989
  H     -5.969027    1.276620   -0.017672
  H     -6.609454    0.255838   -1.314487

 Total Charge           Charge          ....    0
 Multiplicity           Mult            ....    1
 Number of Electrons    NEL             ....  202
 Basis Dimension        Dim             ....  539

ORBITAL ENERGIES
----------------

  NO   OCC          E(Eh)            E(eV)
   0   2.0000     -88.577806     -2410.3246
   1   2.0000     -88.569241     -2410.0916
   2   2.0000     -88.515082     -2408.6178
   3   2.0000     -88.514889     -2408.6126
   4   2.0000     -76.913523     -2092.9234
   5   2.0000     -76.907020     -2092.7464
   6   2.0000     -18.996813      -516.9295
   7   2.0000     -18.993783      -516.8471
   8   2.0000     -18.983221      -516.5597
   9   2.0000     -18.981885      -516.5233
  10   2.0000     -10.103709      -274.9359
  11   2.0000     -10.103130      -274.9201
  12   2.0000     -10.102908      -274.9141
  13   2.0000     -10.092038      -274.6183
  14   2.0000     -10.083286      -274.3802
  15   2.0000     -10.037474      -273.1336
  16   2.0000     -10.033640      -273.0292
  17   2.0000     -10.023687      -272.7584
  18   2.0000     -10.023421      -272.7512
  19   2.0000      -7.872151      -214.2121
  20   2.0000      -7.863693      -213.9820
  21   2.0000      -7.809812      -212.5158
  22   2.0000      -7.809565      -212.5091
  23   2.0000      -6.592064      -179.3792
  24   2.0000      -6.585522      -179.2012
  25   2.0000      -5.818987      -158.3427
  26   2.0000      -5.815771      -158.2552
  27   2.0000      -5.810530      -158.1126
  28   2.0000      -5.809540      -158.0856
  29   2.0000      -5.807719      -158.0361
  30   2.0000      -5.800641      -157.8435
  31   2.0000      -5.757592      -156.6720
  32   2.0000      -5.757152      -156.6601
  33   2.0000      -5.750056      -156.4670
  34   2.0000      -5.749963      -156.4645
  35   2.0000      -5.749812      -156.4604
  36   2.0000      -5.749429      -156.4499
  37   2.0000      -4.737871      -128.9240
  38   2.0000      -4.737177      -128.9051
  39   2.0000      -4.735310      -128.8543
  40   2.0000      -4.730739      -128.7299
  41   2.0000      -4.730439      -128.7218
  42   2.0000      -4.729522      -128.6968
  43   2.0000      -1.054778       -28.7020
  44   2.0000      -1.042013       -28.3546
  45   2.0000      -1.014222       -27.5984
  46   2.0000      -1.002430       -27.2775
  47   2.0000      -0.797830       -21.7101
  48   2.0000      -0.760076       -20.6827
  49   2.0000      -0.748066       -20.3559
  50   2.0000      -0.740091       -20.1389
  51   2.0000      -0.725283       -19.7360
  52   2.0000      -0.706157       -19.2155
  53   2.0000      -0.682186       -18.5632
  54   2.0000      -0.662209       -18.0196
  55   2.0000      -0.626000       -17.0343
  56   2.0000      -0.620690       -16.8898
  57   2.0000      -0.606460       -16.5026
  58   2.0000      -0.593960       -16.1625
  59   2.0000      -0.590556       -16.0699
  60   2.0000      -0.536323       -14.5941
  61   2.0000      -0.518279       -14.1031
  62   2.0000      -0.503868       -13.7110
  63   2.0000      -0.488858       -13.3025
  64   2.0000      -0.467440       -12.7197
  65   2.0000      -0.464294       -12.6341
  66   2.0000      -0.461763       -12.5652
  67   2.0000      -0.450176       -12.2499
  68   2.0000      -0.441502       -12.0139
  69   2.0000      -0.431651       -11.7458
  70   2.0000      -0.421495       -11.4695
  71   2.0000      -0.411632       -11.2011
  72   2.0000      -0.408319       -11.1109
  73   2.0000      -0.400204       -10.8901
  74   2.0000      -0.397178       -10.8078
  75   2.0000      -0.384099       -10.4519
  76   2.0000      -0.381227       -10.3737
  77   2.0000      -0.373715       -10.1693
  78   2.0000      -0.370990       -10.0952
  79   2.0000      -0.364827        -9.9274
  80   2.0000      -0.363025        -9.8784
  81   2.0000      -0.357753        -9.7349
  82   2.0000      -0.352991        -9.6054
  83   2.0000      -0.351409        -9.5623
  84   2.0000      -0.344952        -9.3866
  85   2.0000      -0.332795        -9.0558
  86   2.0000      -0.319542        -8.6952
  87   2.0000      -0.318475        -8.6662
  88   2.0000      -0.310202        -8.4410
  89   2.0000      -0.305182        -8.3044
  90   2.0000      -0.294636        -8.0175
  91   2.0000      -0.292490        -7.9591
  92   2.0000      -0.283154        -7.7050
  93   2.0000      -0.277500        -7.5512
  94   2.0000      -0.267724        -7.2851
  95   2.0000      -0.247066        -6.7230
  96   2.0000      -0.231304        -6.2941
  97   2.0000      -0.223612        -6.0848
  98   2.0000      -0.214264        -5.8304
  99   2.0000      -0.207743        -5.6530
 100   2.0000      -0.199971        -5.4415
 101   0.0000      -0.043116        -1.1732
 102   0.0000      -0.031749        -0.8639
 103   0.0000      -0.005559        -0.1513
 104   0.0000       0.016631         0.4525
 105   0.0000       0.019498         0.5306

MULLIKEN ATOMIC CHARGES
-----------------------
   0 C :   -0.439825
   1 C :   -0.157006
   2 O :   -0.292408
   3 P :    0.662940
   4 S :   -0.462313
   5 O :   -0.264396
   6 C :   -0.132084
   7 C :   -0.466224
   8 S :   -0.140232
   9 C :   -0.218117
  10 S :   -0.184863
  11 P :    0.661441
  12 S :   -0.414372
  13 O :   -0.271012
  14 C :   -0.107520
  15 C :   -0.460642
  16 O :   -0.288332
  17 C :   -0.156683
  18 C :   -0.440496
  19 H :    0.145754
  20 H :    0.168410
  21 H :    0.154909
  22 H :    0.147439
  23 H :    0.171642
  24 H :    0.171383
  25 H :    0.171302
  26 H :    0.151094
  27 H :    0.148891
  28 H :    0.150717
  29 H :    0.191466
  30 H :    0.222749
  31 H :    0.162455
  32 H :    0.161639
  33 H :    0.155755
  34 H :    0.166436
  35 H :    0.147211
  36 H :    0.172984
  37 H :    0.150570
  38 H :    0.151003
  39 H :    0.159502
  40 H :    0.148832
Sum of atomic charges:   -0.0000000

LOEWDIN ATOMIC CHARGES
----------------------
   0 C :   -0.401123
   1 C :    0.021360
   2 O :   -0.668180
   3 P :    0.376015
   4 S :   -0.122446
   5 O :   -0.665196
   6 C :    0.012335
   7 C :   -0.387416
   8 S :    0.173435
   9 C :   -0.410608
  10 S :    0.120269
  11 P :    0.371137
  12 S :   -0.083811
  13 O :   -0.667335
  14 C :    0.018682
  15 C :   -0.392489
  16 O :   -0.675993
  17 C :    0.020656
  18 C :   -0.385815
  19 H :    0.158483
  20 H :    0.165342
  21 H :    0.160949
  22 H :    0.179079
  23 H :    0.179609
  24 H :    0.182554
  25 H :    0.182756
  26 H :    0.158324
  27 H :    0.160471
  28 H :    0.158624
  29 H :    0.178000
  30 H :    0.200968
  31 H :    0.176935
  32 H :    0.182086
  33 H :    0.160940
  34 H :    0.166288
  35 H :    0.159003
  36 H :    0.182005
  37 H :    0.172354
  38 H :    0.158406
  39 H :    0.162169
  40 H :    0.161179

  Mayer bond orders larger than 0.100000
B(  0-C ,  1-C ) :   0.9291 B(  0-C , 19-H ) :   0.9622 B(  0-C , 20-H ) :   0.9601
B(  0-C , 21-H ) :   0.9701 B(  1-C ,  2-O ) :   0.8094 B(  1-C , 22-H ) :   0.9613
B(  1-C , 23-H ) :   0.9656 B(  2-O ,  3-P ) :   1.1896 B(  3-P ,  4-S ) :   1.7550
B(  3-P ,  5-O ) :   1.0948 B(  3-P ,  8-S ) :   1.0817 B(  5-O ,  6-C ) :   0.7761
B(  6-C ,  7-C ) :   0.9388 B(  6-C , 24-H ) :   0.9444 B(  6-C , 25-H ) :   0.9377
B(  7-C , 26-H ) :   0.9745 B(  7-C , 27-H ) :   0.9659 B(  7-C , 28-H ) :   0.9747
B(  8-S ,  9-C ) :   0.9048 B(  9-C , 10-S ) :   0.9278 B(  9-C , 29-H ) :   0.9140
B(  9-C , 30-H ) :   0.9027 B( 10-S , 11-P ) :   0.9836 B( 11-P , 12-S ) :   1.8462
B( 11-P , 13-O ) :   1.1367 B( 11-P , 16-O ) :   1.0598 B( 13-O , 14-C ) :   0.7402
B( 14-C , 15-C ) :   0.9404 B( 14-C , 31-H ) :   0.9662 B( 14-C , 32-H ) :   0.9594
B( 15-C , 33-H ) :   0.9715 B( 15-C , 34-H ) :   0.9670 B( 15-C , 35-H ) :   0.9660
B( 16-O , 17-C ) :   0.7891 B( 17-C , 18-C ) :   0.9547 B( 17-C , 36-H ) :   0.9489
B( 17-C , 37-H ) :   0.9418 B( 18-C , 38-H ) :   0.9718 B( 18-C , 39-H ) :   0.9711
B( 18-C , 40-H ) :   0.9630

Dispersion correction           -0.021095886
FINAL SINGLE POINT ENERGY     -2932.461065902056

DIPOLE MOMENT
-------------

Method             : SCF
Type of density    : Electron Density
Multiplicity       :   1
Irrep              :   0
Energy             : -2932.4862587073075701 Eh
Relativity type    :
Basis              : AO
                                X                 Y                 Z
Electronic contribution:      4.008774075     -10.606934860     -11.383160244
Nuclear contribution   :     -4.742582481      10.137892120      12.487161199
                        -----------------------------------------
Total Dipole Moment    :     -0.733808406      -0.469042740       1.104000955
                        -----------------------------------------
Magnitude (a.u.)       :      1.406162856
Magnitude (Debye)      :      3.574181935

Rotational constants in cm-1:             0.013796             0.004523             0.004356
Rotational constants in MHz :           413.583386           135.599749           130.580019

                             ****ORCA TERMINATED NORMALLY****
TOTAL RUN TIME: 0 days 0 hours 1 minutes 16 seconds 955 msec
