                         Program Version 6.0.0  -   RELEASE  -
|  1> ! r2scan-3c def2/J RI DEFGRID2 scfconv6 printgap
|  2> %output
|  3>     printlevel normal
|  4> end
|  5> %cpcm
|  6>     smd true
|  7>     smdsolvent "water"
|  8> end
|  9> * xyz 0 1
| 10> C 5.4770775088 0.8035267393 -0.344534289
| 11> C 4.9271355254 -0.5450918891 -0.7577130262
| 12> O 3.7013426406 -0.8616725199 -0.0652964445
| 13> P 2.3583182478 -0.0703788573 -0.3290099598
| 14> S 2.0795024806 0.527121009 -2.1785546575
| 15> O 2.4498837214 1.0730591144 0.7724128366
| 16> C 1.5149761469 2.1606261905 0.8676560665
| 17> C 2.1553855555 3.2500700738 1.7028321051
| 18> S 1.0131377909 -1.4794769111 0.4792753976
| 19> C -0.0068538331 -1.8506661952 -0.9951554412
| 20> S -1.7448037797 -2.0250794468 -0.5593586751
| 21> P -2.0900611233 -0.0158355684 0.0724638852
| 22> S -1.3188098101 1.373351632 -1.0688767648
| 23> O -1.5835051155 0.1014247573 1.5573713981
| 24> C -2.0305834255 -0.7773725696 2.6235738427
| 25> C -3.1293311537 -0.1163083377 3.4288233377
| 26> O -3.6677704786 0.0124434368 0.2288802853
| 27> C -4.5329456094 -0.0350842906 -0.9258831751
| 28> C -5.9390284886 0.2857119987 -0.4619681399
| 29> H 6.4452281599 0.9565789645 -0.8110563853
| 30> H 4.7990212422 1.5921475262 -0.6688975259
| 31> H 5.5813816431 0.8516122678 0.7361361743
| 32> H 5.5973466001 -1.3602081518 -0.4822614166
| 33> H 4.7301398599 -0.5688086005 -1.8342212559
| 34> H 1.2734400377 2.5119864445 -0.1415911515
| 35> H 0.5951690928 1.7891635972 1.3308828807
| 36> H 3.0548780784 3.615123638 1.2152589675
| 37> H 1.4518504772 4.0682408217 1.8161364713
| 38> H 2.4169624528 2.8580205697 2.6812944753
| 39> H 0.3025201733 -2.8049121121 -1.4136025757
| 40> H 0.1174159799 -1.0392829317 -1.7187058654
| 41> H -2.3686498644 -1.720359078 2.1860432999
| 42> H -1.1363574129 -0.952622034 3.2245214192
| 43> H -2.7836735175 0.8356826192 3.8219623323
| 44> H -3.9999404658 0.058453531 2.8025998741
| 45> H -3.4037312349 -0.7667505513 4.2532762904
| 46> H -4.1730192033 0.6936688445 -1.6592360612
| 47> H -4.4716259804 -1.0375593917 -1.3576330321
| 48> H -6.2628336571 -0.443363948 0.2749891734
| 49> H -5.9690266856 1.2766204049 -0.0176716773
| 50> H -6.6094537979 0.2558375948 -1.3144866199
| 51> *
| 52>
| 53>                          ****END OF INPUT****

CARTESIAN COORDINATES (ANGSTROEM)
---------------------------------
  C      5.477078    0.803527   -0.344534
  C      4.927136   -0.545092   -0.757713
  O      3.701343   -0.861673   -0.065296
  P      2.358318   -0.070379   -0.329010
  S      2.079502    0.527121   -2.178555
  O      2.449884    1.073059    0.772413
  C      1.514976    2.160626    0.867656
  C      2.155386    3.250070    1.702832
  S      1.013138   -1.479477    0.479275
  C     -0.006854   -1.850666   -0.995155
  S     -1.744804   -2.025079   -0.559359
  P     -2.090061   -0.015836    0.072464
  S     -1.318810    1.373352   -1.068877
  O     -1.583505    0.101425    1.557371
  C     -2.030583   -0.777373    2.623574
  C     -3.129331   -0.116308    3.428823
  O     -3.667770    0.012443    0.228880
  C     -4.532946   -0.035084   -0.925883
  C     -5.939028    0.285712   -0.461968
  H      6.445228    0.956579   -0.811056
  H      4.799021    1.592148   -0.668898
  H      5.581382    0.851612    0.736136
  H      5.597347   -1.360208   -0.482261
  H      4.730140   -0.568809   -1.834221
  H      1.273440    2.511986   -0.141591
  H      0.595169    1.789164    1.330883
  H      3.054878    3.615124    1.215259
  H      1.451850    4.068241    1.816136
  H      2.416962    2.858021    2.681294
  H      0.302520   -2.804912   -1.413603
  H      0.117416   -1.039283   -1.718706
  H     -2.368650   -1.720359    2.186043
  H     -1.136357   -0.952622    3.224521
  H     -2.783674    0.835683    3.821962
  H     -3.999940    0.058454    2.802600
  H     -3.403731   -0.766751    4.253276
  H     -4.173019    0.693669   -1.659236
  H     -4.471626   -1.037559   -1.357633
  H     -6.262834   -0.443364    0.274989
  H     -5.969027    1.276620   -0.017672
  H     -6.609454    0.255838   -1.314487

 Total Charge           Charge          ....    0
 Multiplicity           Mult            ....    1
 Number of Electrons    NEL             ....  202
 Basis Dimension        Dim             ....  539

ORBITAL ENERGIES
----------------

  NO   OCC          E(Eh)            E(eV)
   0   2.0000     -88.580896     -2410.4087
   1   2.0000     -88.577041     -2410.3038
   2   2.0000     -88.527580     -2408.9579
   3   2.0000     -88.524443     -2408.8726
   4   2.0000     -76.918328     -2093.0541
   5   2.0000     -76.917813     -2093.0401
   6   2.0000     -18.996128      -516.9109
   7   2.0000     -18.995238      -516.8867
   8   2.0000     -18.993245      -516.8325
   9   2.0000     -18.991297      -516.7795
  10   2.0000     -10.104224      -274.9499
  11   2.0000     -10.092150      -274.6214
  12   2.0000     -10.091650      -274.6078
  13   2.0000     -10.088652      -274.5262
  14   2.0000     -10.085841      -274.4497
  15   2.0000     -10.020192      -272.6633
  16   2.0000     -10.018738      -272.6237
  17   2.0000     -10.018240      -272.6102
  18   2.0000     -10.017950      -272.6023
  19   2.0000      -7.875173      -214.2944
  20   2.0000      -7.871487      -214.1941
  21   2.0000      -7.822550      -212.8624
  22   2.0000      -7.819546      -212.7807
  23   2.0000      -6.596898      -179.5107
  24   2.0000      -6.596395      -179.4970
  25   2.0000      -5.822024      -158.4253
  26   2.0000      -5.818817      -158.3381
  27   2.0000      -5.818295      -158.3239
  28   2.0000      -5.815495      -158.2477
  29   2.0000      -5.812533      -158.1671
  30   2.0000      -5.808494      -158.0572
  31   2.0000      -5.770077      -157.0118
  32   2.0000      -5.767202      -156.9335
  33   2.0000      -5.763008      -156.8194
  34   2.0000      -5.762451      -156.8043
  35   2.0000      -5.759722      -156.7300
  36   2.0000      -5.759574      -156.7260
  37   2.0000      -4.742632      -129.0536
  38   2.0000      -4.741985      -129.0360
  39   2.0000      -4.741610      -129.0258
  40   2.0000      -4.741284      -129.0169
  41   2.0000      -4.740443      -128.9940
  42   2.0000      -4.740290      -128.9899
  43   2.0000      -1.054902       -28.7053
  44   2.0000      -1.051483       -28.6123
  45   2.0000      -1.013716       -27.5846
  46   2.0000      -1.011401       -27.5216
  47   2.0000      -0.801387       -21.8069
  48   2.0000      -0.757376       -20.6092
  49   2.0000      -0.745964       -20.2987
  50   2.0000      -0.727815       -19.8049
  51   2.0000      -0.723615       -19.6906
  52   2.0000      -0.708111       -19.2687
  53   2.0000      -0.687231       -18.7005
  54   2.0000      -0.670781       -18.2529
  55   2.0000      -0.628458       -17.1012
  56   2.0000      -0.615026       -16.7357
  57   2.0000      -0.598452       -16.2847
  58   2.0000      -0.593089       -16.1388
  59   2.0000      -0.590393       -16.0654
  60   2.0000      -0.533121       -14.5070
  61   2.0000      -0.521188       -14.1822
  62   2.0000      -0.498487       -13.5645
  63   2.0000      -0.492470       -13.4008
  64   2.0000      -0.468538       -12.7496
  65   2.0000      -0.461903       -12.5690
  66   2.0000      -0.458487       -12.4761
  67   2.0000      -0.445731       -12.1290
  68   2.0000      -0.442144       -12.0314
  69   2.0000      -0.434939       -11.8353
  70   2.0000      -0.419543       -11.4163
  71   2.0000      -0.411246       -11.1906
  72   2.0000      -0.403751       -10.9866
  73   2.0000      -0.400830       -10.9071
  74   2.0000      -0.392130       -10.6704
  75   2.0000      -0.387115       -10.5339
  76   2.0000      -0.377878       -10.2826
  77   2.0000      -0.365193        -9.9374
  78   2.0000      -0.361537        -9.8379
  79   2.0000      -0.359518        -9.7830
  80   2.0000      -0.353707        -9.6249
  81   2.0000      -0.351351        -9.5608
  82   2.0000      -0.350160        -9.5283
  83   2.0000      -0.347418        -9.4537
  84   2.0000      -0.346912        -9.4400
  85   2.0000      -0.326199        -8.8763
  86   2.0000      -0.320523        -8.7219
  87   2.0000      -0.315079        -8.5737
  88   2.0000      -0.310559        -8.4507
  89   2.0000      -0.302860        -8.2412
  90   2.0000      -0.299231        -8.1425
  91   2.0000      -0.291233        -7.9249
  92   2.0000      -0.287076        -7.8117
  93   2.0000      -0.277704        -7.5567
  94   2.0000      -0.274193        -7.4612
  95   2.0000      -0.251702        -6.8491
  96   2.0000      -0.242159        -6.5895
  97   2.0000      -0.234603        -6.3839
  98   2.0000      -0.224490        -6.1087
  99   2.0000      -0.218108        -5.9350
 100   2.0000      -0.211657        -5.7595
 101   0.0000      -0.048716        -1.3256
 102   0.0000      -0.040074        -1.0905
 103   0.0000      -0.010645        -0.2897
 104   0.0000       0.013108         0.3567
 105   0.0000       0.014180         0.3859

MULLIKEN ATOMIC CHARGES
-----------------------
   0 C :   -0.480581
   1 C :   -0.149649
   2 O :   -0.327045
   3 P :    0.692844
   4 S :   -0.508814
   5 O :   -0.289325
   6 C :   -0.121856
   7 C :   -0.502120
   8 S :   -0.152717
   9 C :   -0.220382
  10 S :   -0.181323
  11 P :    0.678307
  12 S :   -0.472027
  13 O :   -0.298970
  14 C :   -0.091729
  15 C :   -0.502766
  16 O :   -0.306365
  17 C :   -0.145923
  18 C :   -0.480201
  19 H :    0.172112
  20 H :    0.168311
  21 H :    0.168889
  22 H :    0.174375
  23 H :    0.175706
  24 H :    0.169770
  25 H :    0.173369
  26 H :    0.165366
  27 H :    0.168689
  28 H :    0.165708
  29 H :    0.232239
  30 H :    0.217136
  31 H :    0.174751
  32 H :    0.180394
  33 H :    0.167533
  34 H :    0.169525
  35 H :    0.171348
  36 H :    0.173831
  37 H :    0.168348
  38 H :    0.166347
  39 H :    0.166957
  40 H :    0.169936
Sum of atomic charges:   -0.0000000

LOEWDIN ATOMIC CHARGES
----------------------
   0 C :   -0.403989
   1 C :    0.026059
   2 O :   -0.685564
   3 P :    0.378899
   4 S :   -0.152986
   5 O :   -0.677351
   6 C :    0.014392
   7 C :   -0.390058
   8 S :    0.169386
   9 C :   -0.406161
  10 S :    0.130503
  11 P :    0.373894
  12 S :   -0.126791
  13 O :   -0.682269
  14 C :    0.026104
  15 C :   -0.395012
  16 O :   -0.681790
  17 C :    0.025155
  18 C :   -0.388655
  19 H :    0.168626
  20 H :    0.162706
  21 H :    0.164060
  22 H :    0.190338
  23 H :    0.181345
  24 H :    0.181752
  25 H :    0.183094
  26 H :    0.162450
  27 H :    0.168444
  28 H :    0.163385
  29 H :    0.193429
  30 H :    0.198291
  31 H :    0.182495
  32 H :    0.190072
  33 H :    0.163540
  34 H :    0.165531
  35 H :    0.168914
  36 H :    0.181807
  37 H :    0.179668
  38 H :    0.163328
  39 H :    0.163662
  40 H :    0.169298

  Mayer bond orders larger than 0.100000
B(  0-C ,  1-C ) :   0.9155 B(  0-C , 19-H ) :   0.9557 B(  0-C , 20-H ) :   0.9592
B(  0-C , 21-H ) :   0.9695 B(  1-C ,  2-O ) :   0.7986 B(  1-C , 22-H ) :   0.9513
B(  1-C , 23-H ) :   0.9608 B(  2-O ,  3-P ) :   1.1885 B(  3-P ,  4-S ) :   1.7209
B(  3-P ,  5-O ) :   1.0953 B(  3-P ,  8-S ) :   1.0984 B(  5-O ,  6-C ) :   0.7735
B(  6-C ,  7-C ) :   0.9346 B(  6-C , 24-H ) :   0.9427 B(  6-C , 25-H ) :   0.9338
B(  7-C , 26-H ) :   0.9713 B(  7-C , 27-H ) :   0.9586 B(  7-C , 28-H ) :   0.9707
B(  8-S ,  9-C ) :   0.8951 B(  9-C , 10-S ) :   0.9226 B(  9-C , 29-H ) :   0.8998
B(  9-C , 30-H ) :   0.9066 B( 10-S , 11-P ) :   0.9992 B( 11-P , 12-S ) :   1.8136
B( 11-P , 13-O ) :   1.1441 B( 11-P , 16-O ) :   1.0713 B( 13-O , 14-C ) :   0.7297
B( 14-C , 15-C ) :   0.9333 B( 14-C , 31-H ) :   0.9571 B( 14-C , 32-H ) :   0.9499
B( 15-C , 33-H ) :   0.9700 B( 15-C , 34-H ) :   0.9666 B( 15-C , 35-H ) :   0.9592
B( 16-O , 17-C ) :   0.7809 B( 17-C , 18-C ) :   0.9544 B( 17-C , 36-H ) :   0.9459
B( 17-C , 37-H ) :   0.9330 B( 18-C , 38-H ) :   0.9683 B( 18-C , 39-H ) :   0.9688
B( 18-C , 40-H ) :   0.9575

Dispersion correction           -0.021095886
FINAL SINGLE POINT ENERGY     -2932.469675308306

DIPOLE MOMENT
-------------

Method             : SCF
Type of density    : Electron Density
Multiplicity       :   1
Irrep              :   0
Energy             : -2932.4948681135574589 Eh
Relativity type    :
Basis              : AO
                                X                 Y                 Z
Electronic contribution:      3.813655217     -11.038529955     -11.053520360
Nuclear contribution   :     -4.742582481      10.137892120      12.487161199
                        -----------------------------------------
Total Dipole Moment    :     -0.928927264      -0.900637836       1.433640840
                        -----------------------------------------
Magnitude (a.u.)       :      1.931160384
Magnitude (Debye)      :      4.908619602

Rotational constants in cm-1:             0.013796             0.004523             0.004356
Rotational constants in MHz :           413.583386           135.599749           130.580019

                             ****ORCA TERMINATED NORMALLY****
TOTAL RUN TIME: 0 days 0 hours 1 minutes 52 seconds 24 msec
