                         Program Version 6.0.0  -   RELEASE  -
|  1> ! pbe def2-sv(p) def2/J RI DEFGRID1 loosescf d4 GCP(DFT/SV(P)) printgap
|  2> %output
|  3>     printlevel normal
|  4> end
|  5> * xyz 0 1
|  6> C 1.9349450979 -0.3629541838 -2.8557620657
|  7> C 2.3169640263 -1.4928427108 -1.9224451723
|  8> O 3.0358355797 -1.0359447226 -0.76345726
|  9> P 2.4770031887 -0.0382077453 0.3396800554
| 10> S 2.3739263633 1.8738680802 -0.0559010883
| 11> O 3.4907758259 -0.251901784 1.527550025
| 12> C 3.8456270474 -1.5516825648 2.0607403639
| 13> C 5.1538674302 -2.0339247354 1.4680037851
| 14> S 0.6637285477 -0.9937298289 0.9500835386
| 15> C -0.0853735932 0.4532566723 1.7626859115
| 16> S -1.8790267583 0.2938323348 1.8877144375
| 17> P -2.3052984706 0.2662327031 -0.1801538701
| 18> S -1.2077323893 1.3863454528 -1.3657770259
| 19> O -3.8685951043 0.5420782243 -0.2538495481
| 20> C -4.4201709391 1.8636247454 -0.3748441899
| 21> C -4.1957844406 2.6934354731 0.8730044551
| 22> O -2.2392063829 -1.2932841142 -0.4364090528
| 23> C -2.0344494965 -1.8534636772 -1.7494515382
| 24> C -3.2460999418 -1.660056709 -2.6367847006
| 25> H 1.2109292114 0.3003692903 -2.3832382674
| 26> H 2.8115248726 0.2257012707 -3.1149516165
| 27> H 1.4973376061 -0.7719733392 -3.761022969
| 28> H 3.0152138274 -2.1817349223 -2.4016203021
| 29> H 1.4311098915 -2.0392213879 -1.5853669977
| 30> H 3.9339444581 -1.3908975881 3.1366674646
| 31> H 3.0318923564 -2.253547373 1.8566053426
| 32> H 5.054271599 -2.1717247764 0.3948771426
| 33> H 5.9364628153 -1.3036492616 1.6542054378
| 34> H 5.4264956185 -2.9781661855 1.9288667801
| 35> H 0.1736391485 1.3401251705 1.1762219498
| 36> H 0.2871308165 0.5341418041 2.7811289071
| 37> H -3.967427149 2.3498067562 -1.2452943346
| 38> H -5.4813794198 1.6886740089 -0.5568472463
| 39> H -4.7347586247 3.6312596977 0.7837683086
| 40> H -4.5446454433 2.1563919038 1.751522477
| 41> H -3.1342714513 2.9080887301 0.9929533092
| 42> H -1.1525598685 -1.3805300479 -2.1941840469
| 43> H -1.8354573198 -2.9078012144 -1.5539004233
| 44> H -4.1354718623 -2.0468799716 -2.1466431443
| 45> H -3.389318263 -0.5992832197 -2.8392802923
| 46> H -3.0925985024 -2.1817008322 -3.5762133638
| 47> *
| 48>
| 49>                          ****END OF INPUT****

CARTESIAN COORDINATES (ANGSTROEM)
---------------------------------
  C      1.934945   -0.362954   -2.855762
  C      2.316964   -1.492843   -1.922445
  O      3.035836   -1.035945   -0.763457
  P      2.477003   -0.038208    0.339680
  S      2.373926    1.873868   -0.055901
  O      3.490776   -0.251902    1.527550
  C      3.845627   -1.551683    2.060740
  C      5.153867   -2.033925    1.468004
  S      0.663729   -0.993730    0.950084
  C     -0.085374    0.453257    1.762686
  S     -1.879027    0.293832    1.887714
  P     -2.305298    0.266233   -0.180154
  S     -1.207732    1.386345   -1.365777
  O     -3.868595    0.542078   -0.253850
  C     -4.420171    1.863625   -0.374844
  C     -4.195784    2.693435    0.873004
  O     -2.239206   -1.293284   -0.436409
  C     -2.034449   -1.853464   -1.749452
  C     -3.246100   -1.660057   -2.636785
  H      1.210929    0.300369   -2.383238
  H      2.811525    0.225701   -3.114952
  H      1.497338   -0.771973   -3.761023
  H      3.015214   -2.181735   -2.401620
  H      1.431110   -2.039221   -1.585367
  H      3.933944   -1.390898    3.136667
  H      3.031892   -2.253547    1.856605
  H      5.054272   -2.171725    0.394877
  H      5.936463   -1.303649    1.654205
  H      5.426496   -2.978166    1.928867
  H      0.173639    1.340125    1.176222
  H      0.287131    0.534142    2.781129
  H     -3.967427    2.349807   -1.245294
  H     -5.481379    1.688674   -0.556847
  H     -4.734759    3.631260    0.783768
  H     -4.544645    2.156392    1.751522
  H     -3.134271    2.908089    0.992953
  H     -1.152560   -1.380530   -2.194184
  H     -1.835457   -2.907801   -1.553900
  H     -4.135472   -2.046880   -2.146643
  H     -3.389318   -0.599283   -2.839280
  H     -3.092599   -2.181701   -3.576213

 Total Charge           Charge          ....    0
 Multiplicity           Mult            ....    1
 Number of Electrons    NEL             ....  202
 Basis Dimension        Dim             ....  334

ORBITAL ENERGIES
----------------

  NO   OCC          E(Eh)            E(eV)
   0   2.0000     -88.046083     -2395.8557
   1   2.0000     -88.040449     -2395.7024
   2   2.0000     -87.988485     -2394.2884
   3   2.0000     -87.977777     -2393.9970
   4   2.0000     -76.427008     -2079.6846
   5   2.0000     -76.422552     -2079.5634
   6   2.0000     -18.795839      -511.4608
   7   2.0000     -18.794459      -511.4232
   8   2.0000     -18.789628      -511.2918
   9   2.0000     -18.787497      -511.2338
  10   2.0000      -9.957378      -270.9540
  11   2.0000      -9.953847      -270.8579
  12   2.0000      -9.953789      -270.8564
  13   2.0000      -9.953733      -270.8549
  14   2.0000      -9.952543      -270.8225
  15   2.0000      -9.885873      -269.0083
  16   2.0000      -9.884976      -268.9839
  17   2.0000      -9.884761      -268.9780
  18   2.0000      -9.876604      -268.7561
  19   2.0000      -7.691452      -209.2950
  20   2.0000      -7.684925      -209.1174
  21   2.0000      -7.632891      -207.7015
  22   2.0000      -7.623085      -207.4347
  23   2.0000      -6.424553      -174.8210
  24   2.0000      -6.419872      -174.6936
  25   2.0000      -5.719369      -155.6320
  26   2.0000      -5.716008      -155.5405
  27   2.0000      -5.712668      -155.4496
  28   2.0000      -5.709491      -155.3631
  29   2.0000      -5.708286      -155.3304
  30   2.0000      -5.702110      -155.1623
  31   2.0000      -5.661671      -154.0619
  32   2.0000      -5.653604      -153.8424
  33   2.0000      -5.653175      -153.8307
  34   2.0000      -5.652187      -153.8038
  35   2.0000      -5.643658      -153.5718
  36   2.0000      -5.643045      -153.5551
  37   2.0000      -4.646905      -126.4487
  38   2.0000      -4.646307      -126.4324
  39   2.0000      -4.645205      -126.4024
  40   2.0000      -4.642807      -126.3372
  41   2.0000      -4.641819      -126.3103
  42   2.0000      -4.639845      -126.2566
  43   2.0000      -0.988045       -26.8861
  44   2.0000      -0.987412       -26.8689
  45   2.0000      -0.947234       -25.7756
  46   2.0000      -0.943993       -25.6874
  47   2.0000      -0.763285       -20.7700
  48   2.0000      -0.721151       -19.6235
  49   2.0000      -0.709642       -19.3103
  50   2.0000      -0.689008       -18.7489
  51   2.0000      -0.688391       -18.7321
  52   2.0000      -0.675268       -18.3750
  53   2.0000      -0.651145       -17.7186
  54   2.0000      -0.635092       -17.2817
  55   2.0000      -0.602041       -16.3824
  56   2.0000      -0.586769       -15.9668
  57   2.0000      -0.573928       -15.6174
  58   2.0000      -0.573155       -15.5963
  59   2.0000      -0.562160       -15.2972
  60   2.0000      -0.503232       -13.6936
  61   2.0000      -0.493375       -13.4254
  62   2.0000      -0.474706       -12.9174
  63   2.0000      -0.473549       -12.8859
  64   2.0000      -0.450814       -12.2673
  65   2.0000      -0.449397       -12.2287
  66   2.0000      -0.440638       -11.9904
  67   2.0000      -0.436946       -11.8899
  68   2.0000      -0.429247       -11.6804
  69   2.0000      -0.417743       -11.3674
  70   2.0000      -0.410225       -11.1628
  71   2.0000      -0.406420       -11.0593
  72   2.0000      -0.394254       -10.7282
  73   2.0000      -0.387993       -10.5578
  74   2.0000      -0.384165       -10.4537
  75   2.0000      -0.374681       -10.1956
  76   2.0000      -0.357144        -9.7184
  77   2.0000      -0.355565        -9.6754
  78   2.0000      -0.354602        -9.6492
  79   2.0000      -0.350819        -9.5463
  80   2.0000      -0.347783        -9.4637
  81   2.0000      -0.342541        -9.3210
  82   2.0000      -0.342062        -9.3080
  83   2.0000      -0.340348        -9.2613
  84   2.0000      -0.330876        -9.0036
  85   2.0000      -0.320025        -8.7083
  86   2.0000      -0.314132        -8.5480
  87   2.0000      -0.297159        -8.0861
  88   2.0000      -0.294473        -8.0130
  89   2.0000      -0.286729        -7.8023
  90   2.0000      -0.283550        -7.7158
  91   2.0000      -0.277614        -7.5543
  92   2.0000      -0.274899        -7.4804
  93   2.0000      -0.265549        -7.2260
  94   2.0000      -0.258088        -7.0229
  95   2.0000      -0.234104        -6.3703
  96   2.0000      -0.221764        -6.0345
  97   2.0000      -0.209294        -5.6952
  98   2.0000      -0.203130        -5.5274
  99   2.0000      -0.194912        -5.3038
 100   2.0000      -0.189432        -5.1547
 101   0.0000      -0.042320        -1.1516
 102   0.0000      -0.030858        -0.8397
 103   0.0000      -0.009771        -0.2659
 104   0.0000       0.009407         0.2560
 105   0.0000       0.018484         0.5030

MULLIKEN ATOMIC CHARGES
-----------------------
   0 C :   -0.331483
   1 C :   -0.018908
   2 O :   -0.380745
   3 P :    0.598392
   4 S :   -0.292592
   5 O :   -0.355440
   6 C :   -0.010124
   7 C :   -0.287985
   8 S :   -0.125115
   9 C :   -0.354402
  10 S :   -0.078960
  11 P :    0.605216
  12 S :   -0.311482
  13 O :   -0.370452
  14 C :   -0.004527
  15 C :   -0.318783
  16 O :   -0.359242
  17 C :   -0.022472
  18 C :   -0.299746
  19 H :    0.166269
  20 H :    0.121403
  21 H :    0.105804
  22 H :    0.104671
  23 H :    0.114282
  24 H :    0.107396
  25 H :    0.096947
  26 H :    0.120813
  27 H :    0.120374
  28 H :    0.107604
  29 H :    0.212541
  30 H :    0.181394
  31 H :    0.111585
  32 H :    0.105911
  33 H :    0.114836
  34 H :    0.118807
  35 H :    0.131299
  36 H :    0.120820
  37 H :    0.105718
  38 H :    0.118395
  39 H :    0.121913
  40 H :    0.110067
Sum of atomic charges:    0.0000000

LOEWDIN ATOMIC CHARGES
----------------------
   0 C :   -0.374784
   1 C :   -0.114962
   2 O :   -0.243292
   3 P :    0.563861
   4 S :   -0.287756
   5 O :   -0.239552
   6 C :   -0.116510
   7 C :   -0.358933
   8 S :    0.054158
   9 C :   -0.480375
  10 S :    0.098050
  11 P :    0.568124
  12 S :   -0.298397
  13 O :   -0.243433
  14 C :   -0.119276
  15 C :   -0.369562
  16 O :   -0.239168
  17 C :   -0.118490
  18 C :   -0.363307
  19 H :    0.122644
  20 H :    0.129771
  21 H :    0.127279
  22 H :    0.118466
  23 H :    0.105030
  24 H :    0.120021
  25 H :    0.101473
  26 H :    0.126007
  27 H :    0.129104
  28 H :    0.128184
  29 H :    0.123262
  30 H :    0.134623
  31 H :    0.110874
  32 H :    0.119073
  33 H :    0.131969
  34 H :    0.124482
  35 H :    0.123006
  36 H :    0.109687
  37 H :    0.118577
  38 H :    0.127442
  39 H :    0.123158
  40 H :    0.129470

  Mayer bond orders larger than 0.100000
B(  0-C ,  1-C ) :   1.1696 B(  0-C , 19-H ) :   0.9145 B(  0-C , 20-H ) :   0.9412
B(  0-C , 21-H ) :   0.9342 B(  1-C ,  2-O ) :   0.9121 B(  1-C , 22-H ) :   0.9325
B(  1-C , 23-H ) :   0.9223 B(  2-O ,  3-P ) :   1.0788 B(  3-P ,  4-S ) :   1.6701
B(  3-P ,  5-O ) :   1.1294 B(  3-P ,  8-S ) :   0.9387 B(  4-S ,  8-S ) :   0.1175
B(  5-O ,  6-C ) :   0.8987 B(  6-C ,  7-C ) :   1.1636 B(  6-C , 24-H ) :   0.9364
B(  6-C , 25-H ) :   0.9122 B(  7-C , 26-H ) :   0.9430 B(  7-C , 27-H ) :   0.9470
B(  7-C , 28-H ) :   0.9402 B(  8-S ,  9-C ) :   0.9821 B(  9-C , 10-S ) :   1.0134
B(  9-C , 29-H ) :   0.8474 B(  9-C , 30-H ) :   0.9098 B( 10-S , 11-P ) :   0.9519
B( 10-S , 12-S ) :   0.1125 B( 11-P , 12-S ) :   1.6058 B( 11-P , 13-O ) :   1.1084
B( 11-P , 16-O ) :   1.1263 B( 13-O , 14-C ) :   0.9077 B( 14-C , 15-C ) :   1.1661
B( 14-C , 31-H ) :   0.9158 B( 14-C , 32-H ) :   0.9338 B( 15-C , 33-H ) :   0.9379
B( 15-C , 34-H ) :   0.9445 B( 15-C , 35-H ) :   0.9357 B( 16-O , 17-C ) :   0.9074
B( 17-C , 18-C ) :   1.1617 B( 17-C , 36-H ) :   0.9082 B( 17-C , 37-H ) :   0.9350
B( 18-C , 38-H ) :   0.9456 B( 18-C , 39-H ) :   0.9368 B( 18-C , 40-H ) :   0.9394

Dispersion correction           -0.065365204
FINAL SINGLE POINT ENERGY     -2929.518995662583

DIPOLE MOMENT
-------------

Method             : SCF
Type of density    : Electron Density
Multiplicity       :   1
Irrep              :   0
Energy             : -2929.6380505688630365 Eh
Relativity type    :
Basis              : AO
                                X                 Y                 Z
Electronic contribution:      1.132075422       7.362507663      10.279014294
Nuclear contribution   :     -1.701223551      -8.819666354     -10.410147354
                        -----------------------------------------
Total Dipole Moment    :     -0.569148129      -1.457158691      -0.131133060
                        -----------------------------------------
Magnitude (a.u.)       :      1.569852516
Magnitude (Debye)      :      3.990247986

Rotational constants in cm-1:             0.013188             0.004787             0.004444
Rotational constants in MHz :           395.374981           143.497056           133.223602

                             ****ORCA TERMINATED NORMALLY****
TOTAL RUN TIME: 0 days 0 hours 0 minutes 21 seconds 310 msec
