                         Program Version 6.0.0  -   RELEASE  -
|  1> ! pbe def2-sv(p) def2/J RI DEFGRID1 loosescf d4 GCP(DFT/SV(P)) printgap
|  2> %output
|  3>     printlevel normal
|  4> end
|  5> * xyz 0 1
|  6> C 4.4705699777 1.4382079393 -1.2694146889
|  7> C 4.133127675 -0.0127627271 -1.547566343
|  8> O 2.7707036051 -0.3189801781 -1.2054902539
|  9> P 2.2935533621 -0.4443004506 0.315605164
| 10> S 3.6206710832 -1.2565780295 1.5023780862
| 11> O 0.9225969302 -1.2230380875 0.1366425907
| 12> C 0.9150300708 -2.6528177583 -0.0767106995
| 13> C 0.4520209299 -3.3578956364 1.1808141174
| 14> S 1.5488144297 1.4340352217 0.8712102156
| 15> C 0.5476169809 1.8537447089 -0.6091364005
| 16> S -1.173084872 2.1912090103 -0.190914424
| 17> P -1.9591933259 0.2194126627 -0.3850385
| 18> S -1.3798083813 -0.7484823163 -1.9822994292
| 19> O -3.5215738732 0.4925354533 -0.2952608204
| 20> C -4.22824816 1.1314251612 -1.3779685221
| 21> C -5.7114391535 0.9136704121 -1.1579972168
| 22> O -1.6690156101 -0.5434730713 0.9615509102
| 23> C -2.0128754618 -0.0157647217 2.2659113839
| 24> C -3.334374024 -0.5804209903 2.7437241845
| 25> H 5.4867772606 1.6368777127 -1.5943801139
| 26> H 3.7887680848 2.0963545043 -1.8016708921
| 27> H 4.3969276936 1.6379061432 -0.2006125404
| 28> H 4.7897532348 -0.6765558668 -0.9756895307
| 29> H 4.198418639 -0.2491127883 -2.610450398
| 30> H 0.225598395 -2.8138393181 -0.9082500763
| 31> H 1.9185020217 -2.9771271896 -0.3667336978
| 32> H -0.5279492427 -2.9857719003 1.4675670866
| 33> H 0.3933805664 -4.4248529172 0.9915966795
| 34> H 1.1548326011 -3.1747553905 1.9912272454
| 35> H 0.5909375616 1.0302415771 -1.3232572713
| 36> H 0.9513688339 2.7726141049 -1.0249689426
| 37> H -3.9736676263 2.1944088405 -1.3705080184
| 38> H -3.8925369499 0.6885863995 -2.3212717613
| 39> H -5.9357988402 -0.1492951881 -1.1480140699
| 40> H -6.0156215173 1.3483887975 -0.2103055278
| 41> H -6.2631122476 1.3877135358 -1.9630058518
| 42> H -1.1869458594 -0.3226240988 2.9118167437
| 43> H -2.0463373934 1.0763531336 2.211910711
| 44> H -4.1363244489 -0.272925338 2.0781831635
| 45> H -3.2932839123 -1.6660668996 2.7655997875
| 46> H -3.5349898539 -0.2101586564 3.7442555805
| 47> *
| 48>
| 49>                          ****END OF INPUT****

CARTESIAN COORDINATES (ANGSTROEM)
---------------------------------
  C      4.470570    1.438208   -1.269415
  C      4.133128   -0.012763   -1.547566
  O      2.770704   -0.318980   -1.205490
  P      2.293553   -0.444300    0.315605
  S      3.620671   -1.256578    1.502378
  O      0.922597   -1.223038    0.136643
  C      0.915030   -2.652818   -0.076711
  C      0.452021   -3.357896    1.180814
  S      1.548814    1.434035    0.871210
  C      0.547617    1.853745   -0.609136
  S     -1.173085    2.191209   -0.190914
  P     -1.959193    0.219413   -0.385039
  S     -1.379808   -0.748482   -1.982299
  O     -3.521574    0.492535   -0.295261
  C     -4.228248    1.131425   -1.377969
  C     -5.711439    0.913670   -1.157997
  O     -1.669016   -0.543473    0.961551
  C     -2.012875   -0.015765    2.265911
  C     -3.334374   -0.580421    2.743724
  H      5.486777    1.636878   -1.594380
  H      3.788768    2.096355   -1.801671
  H      4.396928    1.637906   -0.200613
  H      4.789753   -0.676556   -0.975690
  H      4.198419   -0.249113   -2.610450
  H      0.225598   -2.813839   -0.908250
  H      1.918502   -2.977127   -0.366734
  H     -0.527949   -2.985772    1.467567
  H      0.393381   -4.424853    0.991597
  H      1.154833   -3.174755    1.991227
  H      0.590938    1.030242   -1.323257
  H      0.951369    2.772614   -1.024969
  H     -3.973668    2.194409   -1.370508
  H     -3.892537    0.688586   -2.321272
  H     -5.935799   -0.149295   -1.148014
  H     -6.015622    1.348389   -0.210306
  H     -6.263112    1.387714   -1.963006
  H     -1.186946   -0.322624    2.911817
  H     -2.046337    1.076353    2.211911
  H     -4.136324   -0.272925    2.078183
  H     -3.293284   -1.666067    2.765600
  H     -3.534990   -0.210159    3.744256

 Total Charge           Charge          ....    0
 Multiplicity           Mult            ....    1
 Number of Electrons    NEL             ....  202
 Basis Dimension        Dim             ....  334

ORBITAL ENERGIES
----------------

  NO   OCC          E(Eh)            E(eV)
   0   2.0000     -88.048855     -2395.9312
   1   2.0000     -88.042172     -2395.7493
   2   2.0000     -87.988254     -2394.2821
   3   2.0000     -87.983550     -2394.1541
   4   2.0000     -76.430193     -2079.7713
   5   2.0000     -76.420651     -2079.5116
   6   2.0000     -18.801717      -511.6207
   7   2.0000     -18.795243      -511.4446
   8   2.0000     -18.788952      -511.2734
   9   2.0000     -18.778010      -510.9756
  10   2.0000      -9.960264      -271.0325
  11   2.0000      -9.958992      -270.9980
  12   2.0000      -9.956048      -270.9178
  13   2.0000      -9.948420      -270.7103
  14   2.0000      -9.937412      -270.4107
  15   2.0000      -9.894251      -269.2363
  16   2.0000      -9.887828      -269.0615
  17   2.0000      -9.883760      -268.9508
  18   2.0000      -9.870632      -268.5936
  19   2.0000      -7.694040      -209.3655
  20   2.0000      -7.687664      -209.1920
  21   2.0000      -7.633283      -207.7122
  22   2.0000      -7.628758      -207.5890
  23   2.0000      -6.427843      -174.9105
  24   2.0000      -6.418665      -174.6608
  25   2.0000      -5.721781      -155.6976
  26   2.0000      -5.718397      -155.6055
  27   2.0000      -5.716005      -155.5404
  28   2.0000      -5.711867      -155.4278
  29   2.0000      -5.711287      -155.4120
  30   2.0000      -5.704409      -155.2249
  31   2.0000      -5.662300      -154.0790
  32   2.0000      -5.657732      -153.9547
  33   2.0000      -5.653827      -153.8485
  34   2.0000      -5.653371      -153.8360
  35   2.0000      -5.649442      -153.7291
  36   2.0000      -5.648789      -153.7114
  37   2.0000      -4.650696      -126.5519
  38   2.0000      -4.649675      -126.5241
  39   2.0000      -4.647938      -126.4768
  40   2.0000      -4.641063      -126.2897
  41   2.0000      -4.640597      -126.2771
  42   2.0000      -4.639111      -126.2366
  43   2.0000      -0.994625       -27.0651
  44   2.0000      -0.979338       -26.6491
  45   2.0000      -0.951300       -25.8862
  46   2.0000      -0.936542       -25.4846
  47   2.0000      -0.764665       -20.8076
  48   2.0000      -0.724266       -19.7083
  49   2.0000      -0.708402       -19.2766
  50   2.0000      -0.696220       -18.9451
  51   2.0000      -0.682637       -18.5755
  52   2.0000      -0.671511       -18.2727
  53   2.0000      -0.651406       -17.7257
  54   2.0000      -0.638798       -17.3826
  55   2.0000      -0.593925       -16.1615
  56   2.0000      -0.588059       -16.0019
  57   2.0000      -0.574657       -15.6372
  58   2.0000      -0.570654       -15.5283
  59   2.0000      -0.559405       -15.2222
  60   2.0000      -0.512668       -13.9504
  61   2.0000      -0.495073       -13.4716
  62   2.0000      -0.486112       -13.2278
  63   2.0000      -0.464303       -12.6343
  64   2.0000      -0.457114       -12.4387
  65   2.0000      -0.449733       -12.2378
  66   2.0000      -0.440217       -11.9789
  67   2.0000      -0.436672       -11.8825
  68   2.0000      -0.430944       -11.7266
  69   2.0000      -0.417848       -11.3702
  70   2.0000      -0.411877       -11.2078
  71   2.0000      -0.393114       -10.6972
  72   2.0000      -0.392682       -10.6854
  73   2.0000      -0.387799       -10.5525
  74   2.0000      -0.376036       -10.2325
  75   2.0000      -0.371394       -10.1062
  76   2.0000      -0.367357        -9.9963
  77   2.0000      -0.360418        -9.8075
  78   2.0000      -0.357480        -9.7275
  79   2.0000      -0.349311        -9.5052
  80   2.0000      -0.347486        -9.4556
  81   2.0000      -0.346721        -9.4347
  82   2.0000      -0.341535        -9.2936
  83   2.0000      -0.333494        -9.0748
  84   2.0000      -0.327900        -8.9226
  85   2.0000      -0.322632        -8.7793
  86   2.0000      -0.308294        -8.3891
  87   2.0000      -0.305757        -8.3201
  88   2.0000      -0.297621        -8.0987
  89   2.0000      -0.290600        -7.9076
  90   2.0000      -0.281615        -7.6631
  91   2.0000      -0.271649        -7.3919
  92   2.0000      -0.267745        -7.2857
  93   2.0000      -0.263981        -7.1833
  94   2.0000      -0.261644        -7.1197
  95   2.0000      -0.241926        -6.5831
  96   2.0000      -0.220498        -6.0000
  97   2.0000      -0.209536        -5.7018
  98   2.0000      -0.206282        -5.6132
  99   2.0000      -0.200563        -5.4576
 100   2.0000      -0.196118        -5.3366
 101   0.0000      -0.041522        -1.1299
 102   0.0000      -0.027990        -0.7617
 103   0.0000      -0.019095        -0.5196
 104   0.0000       0.006809         0.1853
 105   0.0000       0.015424         0.4197

MULLIKEN ATOMIC CHARGES
-----------------------
   0 C :   -0.315627
   1 C :   -0.006268
   2 O :   -0.378716
   3 P :    0.596384
   4 S :   -0.325603
   5 O :   -0.363942
   6 C :   -0.000208
   7 C :   -0.296109
   8 S :   -0.075171
   9 C :   -0.364723
  10 S :   -0.104573
  11 P :    0.614852
  12 S :   -0.305903
  13 O :   -0.383077
  14 C :   -0.015125
  15 C :   -0.283740
  16 O :   -0.346063
  17 C :   -0.010945
  18 C :   -0.295355
  19 H :    0.112963
  20 H :    0.111476
  21 H :    0.128197
  22 H :    0.112058
  23 H :    0.105291
  24 H :    0.113721
  25 H :    0.096335
  26 H :    0.120135
  27 H :    0.103177
  28 H :    0.115316
  29 H :    0.208167
  30 H :    0.187714
  31 H :    0.105833
  32 H :    0.108470
  33 H :    0.123430
  34 H :    0.117469
  35 H :    0.115228
  36 H :    0.117713
  37 H :    0.104038
  38 H :    0.121251
  39 H :    0.120319
  40 H :    0.111611
Sum of atomic charges:   -0.0000000

LOEWDIN ATOMIC CHARGES
----------------------
   0 C :   -0.367252
   1 C :   -0.122459
   2 O :   -0.249074
   3 P :    0.562134
   4 S :   -0.323396
   5 O :   -0.240062
   6 C :   -0.118701
   7 C :   -0.360136
   8 S :    0.080844
   9 C :   -0.476176
  10 S :    0.071072
  11 P :    0.577113
  12 S :   -0.295010
  13 O :   -0.248459
  14 C :   -0.121543
  15 C :   -0.350616
  16 O :   -0.221294
  17 C :   -0.115565
  18 C :   -0.360360
  19 H :    0.131074
  20 H :    0.121572
  21 H :    0.122334
  22 H :    0.109356
  23 H :    0.118394
  24 H :    0.111781
  25 H :    0.105315
  26 H :    0.123940
  27 H :    0.126670
  28 H :    0.122789
  29 H :    0.129828
  30 H :    0.136627
  31 H :    0.109009
  32 H :    0.110730
  33 H :    0.130149
  34 H :    0.126202
  35 H :    0.132589
  36 H :    0.123277
  37 H :    0.103779
  38 H :    0.125058
  39 H :    0.127794
  40 H :    0.130670

  Mayer bond orders larger than 0.100000
B(  0-C ,  1-C ) :   1.1624 B(  0-C , 19-H ) :   0.9393 B(  0-C , 20-H ) :   0.9469
B(  0-C , 21-H ) :   0.9357 B(  1-C ,  2-O ) :   0.9153 B(  1-C , 22-H ) :   0.9106
B(  1-C , 23-H ) :   0.9334 B(  2-O ,  3-P ) :   1.0596 B(  3-P ,  4-S ) :   1.6295
B(  3-P ,  5-O ) :   1.1316 B(  3-P ,  8-S ) :   0.9925 B(  5-O ,  6-C ) :   0.8818
B(  6-C ,  7-C ) :   1.1720 B(  6-C , 24-H ) :   0.9136 B(  6-C , 25-H ) :   0.9120
B(  7-C , 26-H ) :   0.9419 B(  7-C , 27-H ) :   0.9410 B(  7-C , 28-H ) :   0.9406
B(  8-S ,  9-C ) :   0.9588 B(  9-C , 10-S ) :   1.0104 B(  9-C , 29-H ) :   0.8557
B(  9-C , 30-H ) :   0.9081 B( 10-S , 11-P ) :   0.9516 B( 10-S , 12-S ) :   0.1067
B( 11-P , 12-S ) :   1.6417 B( 11-P , 13-O ) :   1.0801 B( 11-P , 16-O ) :   1.1462
B( 13-O , 14-C ) :   0.9028 B( 14-C , 15-C ) :   1.1596 B( 14-C , 31-H ) :   0.9278
B( 14-C , 32-H ) :   0.9099 B( 15-C , 33-H ) :   0.9507 B( 15-C , 34-H ) :   0.9506
B( 15-C , 35-H ) :   0.9416 B( 16-O , 17-C ) :   0.8839 B( 17-C , 18-C ) :   1.1630
B( 17-C , 36-H ) :   0.9320 B( 17-C , 37-H ) :   0.9105 B( 18-C , 38-H ) :   0.9401
B( 18-C , 39-H ) :   0.9486 B( 18-C , 40-H ) :   0.9396

Dispersion correction           -0.065136582
FINAL SINGLE POINT ENERGY     -2929.520843667956

DIPOLE MOMENT
-------------

Method             : SCF
Type of density    : Electron Density
Multiplicity       :   1
Irrep              :   0
Energy             : -2929.6426810242760439 Eh
Relativity type    :
Basis              : AO
                                X                 Y                 Z
Electronic contribution:     11.343784059       4.463590981      -0.729511376
Nuclear contribution   :    -12.509690970      -3.672564869       0.372105736
                        -----------------------------------------
Total Dipole Moment    :     -1.165906911       0.791026112      -0.357405640
                        -----------------------------------------
Magnitude (a.u.)       :      1.453547394
Magnitude (Debye)      :      3.694623860

Rotational constants in cm-1:             0.012974             0.005032             0.004599
Rotational constants in MHz :           388.962051           150.855350           137.876617

                             ****ORCA TERMINATED NORMALLY****
TOTAL RUN TIME: 0 days 0 hours 0 minutes 21 seconds 457 msec
