                         Program Version 6.0.0  -   RELEASE  -
|  1> ! pbe def2-sv(p) def2/J RI DEFGRID1 loosescf d4 GCP(DFT/SV(P)) printgap
|  2> %output
|  3>     printlevel normal
|  4> end
|  5> * xyz 0 1
|  6> C 6.0950587042 -0.1955148046 -0.6699137848
|  7> C 4.7272653595 0.4458894701 -0.7866944077
|  8> O 3.7892090488 -0.3736092912 -0.0606210934
|  9> P 2.3959398906 0.2094640425 0.4277181586
| 10> S 2.5202360251 1.8969803418 1.4079873588
| 11> O 1.818712221 -0.9420383976 1.329707111
| 12> C 1.3114109502 -2.229575364 0.9021215192
| 13> C 2.3027652464 -3.0140797533 0.0723673368
| 14> S 1.243916993 0.2796386185 -1.3672987707
| 15> C 0.043488408 1.5053961123 -0.783273158
| 16> S -0.9307736873 0.9494495831 0.6396682799
| 17> P -2.393109005 -0.1558243981 -0.4755689783
| 18> S -1.7049028993 -1.7185647834 -1.4325196478
| 19> O -3.0903783649 0.8663955676 -1.4492044397
| 20> C -4.1567890231 1.7866011646 -1.0991811695
| 21> C -3.7137582813 2.8542586533 -0.1215944188
| 22> O -3.5098178704 -0.4586399923 0.6079746446
| 23> C -3.3291057456 -1.4949281352 1.5958575213
| 24> C -4.6930618548 -1.848773333 2.1526366503
| 25> H 6.8160797494 0.4026692437 -1.2171851852
| 26> H 6.3923199711 -0.2500556414 0.3735610907
| 27> H 6.0719156513 -1.1995689489 -1.0831941051
| 28> H 4.3970023083 0.4989709455 -1.8276208512
| 29> H 4.7186269782 1.4527532011 -0.355333833
| 30> H 1.0872228981 -2.7298371338 1.8452991479
| 31> H 0.3850149068 -2.0700793281 0.3411003312
| 32> H 2.4643141369 -2.5232782639 -0.8853370898
| 33> H 3.2518550753 -3.0963293758 0.5953936532
| 34> H 1.8987761618 -4.0054319856 -0.1087763239
| 35> H -0.61443677 1.7224555491 -1.6221354076
| 36> H 0.5808117221 2.3935029983 -0.4505551218
| 37> H -4.4362391382 2.2148281103 -2.0631433027
| 38> H -4.9865357068 1.2063650874 -0.693661549
| 39> H -4.529347477 3.5560633078 0.0232802511
| 40> H -3.4561254033 2.4106789318 0.8375099834
| 41> H -2.8489857022 3.3915225979 -0.5033770792
| 42> H -2.8559018553 -2.3567745662 1.1135716107
| 43> H -2.6654749554 -1.1088437912 2.3742086241
| 44> H -5.1532371672 -0.9718583893 2.5984526701
| 45> H -5.3350097554 -2.2211615262 1.3593186873
| 46> H -4.5783978469 -2.6174274839 2.9097082592
| 47> *
| 48>
| 49>                          ****END OF INPUT****

CARTESIAN COORDINATES (ANGSTROEM)
---------------------------------
  C      6.095059   -0.195515   -0.669914
  C      4.727265    0.445889   -0.786694
  O      3.789209   -0.373609   -0.060621
  P      2.395940    0.209464    0.427718
  S      2.520236    1.896980    1.407987
  O      1.818712   -0.942038    1.329707
  C      1.311411   -2.229575    0.902122
  C      2.302765   -3.014080    0.072367
  S      1.243917    0.279639   -1.367299
  C      0.043488    1.505396   -0.783273
  S     -0.930774    0.949450    0.639668
  P     -2.393109   -0.155824   -0.475569
  S     -1.704903   -1.718565   -1.432520
  O     -3.090378    0.866396   -1.449204
  C     -4.156789    1.786601   -1.099181
  C     -3.713758    2.854259   -0.121594
  O     -3.509818   -0.458640    0.607975
  C     -3.329106   -1.494928    1.595858
  C     -4.693062   -1.848773    2.152637
  H      6.816080    0.402669   -1.217185
  H      6.392320   -0.250056    0.373561
  H      6.071916   -1.199569   -1.083194
  H      4.397002    0.498971   -1.827621
  H      4.718627    1.452753   -0.355334
  H      1.087223   -2.729837    1.845299
  H      0.385015   -2.070079    0.341100
  H      2.464314   -2.523278   -0.885337
  H      3.251855   -3.096329    0.595394
  H      1.898776   -4.005432   -0.108776
  H     -0.614437    1.722456   -1.622135
  H      0.580812    2.393503   -0.450555
  H     -4.436239    2.214828   -2.063143
  H     -4.986536    1.206365   -0.693662
  H     -4.529347    3.556063    0.023280
  H     -3.456125    2.410679    0.837510
  H     -2.848986    3.391523   -0.503377
  H     -2.855902   -2.356775    1.113572
  H     -2.665475   -1.108844    2.374209
  H     -5.153237   -0.971858    2.598453
  H     -5.335010   -2.221162    1.359319
  H     -4.578398   -2.617427    2.909708

 Total Charge           Charge          ....    0
 Multiplicity           Mult            ....    1
 Number of Electrons    NEL             ....  202
 Basis Dimension        Dim             ....  334

ORBITAL ENERGIES
----------------

  NO   OCC          E(Eh)            E(eV)
   0   2.0000     -88.040698     -2395.7092
   1   2.0000     -88.036029     -2395.5821
   2   2.0000     -87.984962     -2394.1925
   3   2.0000     -87.977496     -2393.9894
   4   2.0000     -76.429706     -2079.7580
   5   2.0000     -76.420282     -2079.5016
   6   2.0000     -18.802369      -511.6385
   7   2.0000     -18.799760      -511.5675
   8   2.0000     -18.788773      -511.2685
   9   2.0000     -18.783751      -511.1319
  10   2.0000      -9.963627      -271.1241
  11   2.0000      -9.961277      -271.0601
  12   2.0000      -9.954867      -270.8857
  13   2.0000      -9.949051      -270.7274
  14   2.0000      -9.942848      -270.5586
  15   2.0000      -9.895057      -269.2582
  16   2.0000      -9.892253      -269.1819
  17   2.0000      -9.885360      -268.9943
  18   2.0000      -9.878725      -268.8138
  19   2.0000      -7.685116      -209.1226
  20   2.0000      -7.680948      -209.0092
  21   2.0000      -7.629948      -207.6214
  22   2.0000      -7.622911      -207.4299
  23   2.0000      -6.427147      -174.8916
  24   2.0000      -6.417605      -174.6319
  25   2.0000      -5.712796      -155.4531
  26   2.0000      -5.709959      -155.3759
  27   2.0000      -5.708645      -155.3401
  28   2.0000      -5.705542      -155.2557
  29   2.0000      -5.702074      -155.1613
  30   2.0000      -5.698068      -155.0523
  31   2.0000      -5.658877      -153.9859
  32   2.0000      -5.651836      -153.7943
  33   2.0000      -5.650773      -153.7654
  34   2.0000      -5.649879      -153.7410
  35   2.0000      -5.643454      -153.5662
  36   2.0000      -5.643064      -153.5556
  37   2.0000      -4.650479      -126.5460
  38   2.0000      -4.648784      -126.4998
  39   2.0000      -4.646985      -126.4509
  40   2.0000      -4.640333      -126.2699
  41   2.0000      -4.639551      -126.2486
  42   2.0000      -4.637793      -126.2008
  43   2.0000      -0.996533       -27.1170
  44   2.0000      -0.981269       -26.7017
  45   2.0000      -0.953511       -25.9463
  46   2.0000      -0.939557       -25.5666
  47   2.0000      -0.761054       -20.7093
  48   2.0000      -0.724291       -19.7090
  49   2.0000      -0.710192       -19.3253
  50   2.0000      -0.700324       -19.0568
  51   2.0000      -0.686375       -18.6772
  52   2.0000      -0.672741       -18.3062
  53   2.0000      -0.647330       -17.6148
  54   2.0000      -0.633541       -17.2395
  55   2.0000      -0.596062       -16.2197
  56   2.0000      -0.588703       -16.0194
  57   2.0000      -0.581144       -15.8137
  58   2.0000      -0.565423       -15.3859
  59   2.0000      -0.561828       -15.2881
  60   2.0000      -0.513785       -13.9808
  61   2.0000      -0.498653       -13.5691
  62   2.0000      -0.483120       -13.1464
  63   2.0000      -0.469519       -12.7763
  64   2.0000      -0.460805       -12.5391
  65   2.0000      -0.451321       -12.2811
  66   2.0000      -0.443014       -12.0550
  67   2.0000      -0.436275       -11.8717
  68   2.0000      -0.428276       -11.6540
  69   2.0000      -0.417187       -11.3522
  70   2.0000      -0.405426       -11.0322
  71   2.0000      -0.403715       -10.9856
  72   2.0000      -0.392373       -10.6770
  73   2.0000      -0.381832       -10.3902
  74   2.0000      -0.375747       -10.2246
  75   2.0000      -0.372484       -10.1358
  76   2.0000      -0.366250        -9.9662
  77   2.0000      -0.359666        -9.7870
  78   2.0000      -0.358574        -9.7573
  79   2.0000      -0.354908        -9.6575
  80   2.0000      -0.348746        -9.4899
  81   2.0000      -0.346752        -9.4356
  82   2.0000      -0.343007        -9.3337
  83   2.0000      -0.339866        -9.2482
  84   2.0000      -0.331474        -9.0199
  85   2.0000      -0.327583        -8.9140
  86   2.0000      -0.310142        -8.4394
  87   2.0000      -0.308057        -8.3827
  88   2.0000      -0.301905        -8.2152
  89   2.0000      -0.294466        -8.0128
  90   2.0000      -0.283216        -7.7067
  91   2.0000      -0.279847        -7.6150
  92   2.0000      -0.269854        -7.3431
  93   2.0000      -0.259355        -7.0574
  94   2.0000      -0.255492        -6.9523
  95   2.0000      -0.240350        -6.5403
  96   2.0000      -0.214518        -5.8373
  97   2.0000      -0.207625        -5.6498
  98   2.0000      -0.197751        -5.3811
  99   2.0000      -0.195637        -5.3236
 100   2.0000      -0.187382        -5.0989
 101   0.0000      -0.042820        -1.1652
 102   0.0000      -0.027636        -0.7520
 103   0.0000      -0.006346        -0.1727
 104   0.0000       0.006034         0.1642
 105   0.0000       0.019207         0.5226

MULLIKEN ATOMIC CHARGES
-----------------------
   0 C :   -0.280680
   1 C :   -0.009530
   2 O :   -0.377006
   3 P :    0.601532
   4 S :   -0.329325
   5 O :   -0.354016
   6 C :   -0.019493
   7 C :   -0.304376
   8 S :   -0.088659
   9 C :   -0.358389
  10 S :   -0.085179
  11 P :    0.604118
  12 S :   -0.302372
  13 O :   -0.369676
  14 C :    0.003110
  15 C :   -0.315558
  16 O :   -0.388516
  17 C :   -0.015653
  18 C :   -0.281513
  19 H :    0.111212
  20 H :    0.121298
  21 H :    0.115205
  22 H :    0.100997
  23 H :    0.105109
  24 H :    0.099798
  25 H :    0.126248
  26 H :    0.117424
  27 H :    0.117313
  28 H :    0.112482
  29 H :    0.182459
  30 H :    0.196453
  31 H :    0.112608
  32 H :    0.113129
  33 H :    0.114929
  34 H :    0.129609
  35 H :    0.120810
  36 H :    0.108510
  37 H :    0.111441
  38 H :    0.116578
  39 H :    0.122000
  40 H :    0.115569
Sum of atomic charges:    0.0000000

LOEWDIN ATOMIC CHARGES
----------------------
   0 C :   -0.350491
   1 C :   -0.121476
   2 O :   -0.244815
   3 P :    0.567260
   4 S :   -0.323773
   5 O :   -0.230343
   6 C :   -0.121166
   7 C :   -0.363677
   8 S :    0.070896
   9 C :   -0.482010
  10 S :    0.078419
  11 P :    0.566290
  12 S :   -0.305014
  13 O :   -0.240177
  14 C :   -0.106641
  15 C :   -0.367742
  16 O :   -0.249566
  17 C :   -0.118692
  18 C :   -0.350363
  19 H :    0.130519
  20 H :    0.129426
  21 H :    0.125939
  22 H :    0.108790
  23 H :    0.108302
  24 H :    0.118258
  25 H :    0.102004
  26 H :    0.118984
  27 H :    0.125131
  28 H :    0.131474
  29 H :    0.130311
  30 H :    0.131144
  31 H :    0.123119
  32 H :    0.116631
  33 H :    0.132183
  34 H :    0.121291
  35 H :    0.126735
  36 H :    0.109858
  37 H :    0.113677
  38 H :    0.126615
  39 H :    0.129693
  40 H :    0.133001

  Mayer bond orders larger than 0.100000
B(  0-C ,  1-C ) :   1.1606 B(  0-C , 19-H ) :   0.9419 B(  0-C , 20-H ) :   0.9506
B(  0-C , 21-H ) :   0.9514 B(  1-C ,  2-O ) :   0.9038 B(  1-C , 22-H ) :   0.9290
B(  1-C , 23-H ) :   0.9069 B(  2-O ,  3-P ) :   1.0908 B(  3-P ,  4-S ) :   1.6203
B(  3-P ,  5-O ) :   1.1611 B(  3-P ,  8-S ) :   0.9474 B(  4-S ,  8-S ) :   0.1095
B(  5-O ,  6-C ) :   0.8900 B(  6-C ,  7-C ) :   1.1745 B(  6-C , 24-H ) :   0.9343
B(  6-C , 25-H ) :   0.8931 B(  7-C , 26-H ) :   0.9398 B(  7-C , 27-H ) :   0.9447
B(  7-C , 28-H ) :   0.9360 B(  8-S ,  9-C ) :   1.0073 B(  9-C , 10-S ) :   0.9996
B(  9-C , 29-H ) :   0.8925 B(  9-C , 30-H ) :   0.8775 B( 10-S , 11-P ) :   0.9487
B( 10-S , 12-S ) :   0.1121 B( 11-P , 12-S ) :   1.6653 B( 11-P , 13-O ) :   1.1194
B( 11-P , 16-O ) :   1.0729 B( 13-O , 14-C ) :   0.8902 B( 14-C , 15-C ) :   1.1703
B( 14-C , 31-H ) :   0.9353 B( 14-C , 32-H ) :   0.9273 B( 15-C , 33-H ) :   0.9351
B( 15-C , 34-H ) :   0.9369 B( 15-C , 35-H ) :   0.9457 B( 16-O , 17-C ) :   0.8999
B( 17-C , 18-C ) :   1.1617 B( 17-C , 36-H ) :   0.9078 B( 17-C , 37-H ) :   0.9303
B( 18-C , 38-H ) :   0.9511 B( 18-C , 39-H ) :   0.9506 B( 18-C , 40-H ) :   0.9409

Dispersion correction           -0.063825812
FINAL SINGLE POINT ENERGY     -2929.517021591597

DIPOLE MOMENT
-------------

Method             : SCF
Type of density    : Electron Density
Multiplicity       :   1
Irrep              :   0
Energy             : -2929.6372562648211897 Eh
Relativity type    :
Basis              : AO
                                X                 Y                 Z
Electronic contribution:      2.254419549       5.550952376      -3.443676710
Nuclear contribution   :     -3.235690474      -5.638115117       3.411773641
                        -----------------------------------------
Total Dipole Moment    :     -0.981270925      -0.087162742      -0.031903069
                        -----------------------------------------
Magnitude (a.u.)       :      0.985650941
Magnitude (Debye)      :      2.505325590

Rotational constants in cm-1:             0.013495             0.004495             0.004114
Rotational constants in MHz :           404.569260           134.770853           123.337612

                             ****ORCA TERMINATED NORMALLY****
TOTAL RUN TIME: 0 days 0 hours 0 minutes 20 seconds 623 msec
