                         Program Version 6.0.0  -   RELEASE  -
|  1> ! r2scan-3c def2/J RI DEFGRID2 scfconv6 printgap
|  2> %output
|  3>     printlevel normal
|  4> end
|  5> * xyz 0 1
|  6> C 4.2986413559 -2.2142693313 1.0019148295
|  7> C 4.6389188062 -0.7846784984 0.633210266
|  8> O 3.5067029184 0.092858878 0.7654405151
|  9> P 2.2397280254 -0.0004116564 -0.1876651036
| 10> S 2.6351914501 -0.3729419536 -2.0752273231
| 11> O 1.5164473882 1.3804800621 0.1257179833
| 12> C 1.7168605101 2.549697588 -0.6916398974
| 13> C 3.1134587224 3.1116043241 -0.530769518
| 14> S 0.9319293425 -1.3140702609 0.8139989751
| 15> C -0.2073164739 -1.5909897009 -0.5735837132
| 16> S -0.941923903 -0.0681465037 -1.2411019341
| 17> P -2.5365386025 0.1319156928 0.1597146593
| 18> S -3.6076968125 1.7568276714 -0.0440611414
| 19> O -1.8675927745 -0.0940287835 1.5771603576
| 20> C -1.2315097602 0.9828010338 2.293011319
| 21> C -0.8978931962 0.4684360479 3.6779826695
| 22> O -3.3056865387 -1.2533631821 0.1110278437
| 23> C -4.4607743781 -1.4368008672 -0.7277801601
| 24> C -4.0915263463 -1.498770626 -2.1967252917
| 25> H 5.2061608503 -2.8094547068 1.0074587956
| 26> H 3.8354193306 -2.2512318279 1.9846673904
| 27> H 3.6069538018 -2.6325027603 0.2718603562
| 28> H 4.9998111931 -0.7298595917 -0.3988661328
| 29> H 5.3804474202 -0.358485606 1.3101506308
| 30> H 1.520729599 2.2794261184 -1.7347141187
| 31> H 0.9529342823 3.2489965837 -0.3474017147
| 32> H 3.3270314933 3.2906868262 0.5197588842
| 33> H 3.8431524023 2.4047916509 -0.9242388329
| 34> H 3.1918717817 4.0435514563 -1.0817212864
| 35> H -0.9926538615 -2.2468280158 -0.2048208222
| 36> H 0.3398995694 -2.0417896409 -1.4000200201
| 37> H -0.3261395967 1.2836536754 1.756193236
| 38> H -1.921091481 1.8327382382 2.3269799312
| 39> H -1.8044203492 0.1475712241 4.1825756038
| 40> H -0.2179722006 -0.3758304344 3.600651027
| 41> H -0.4270588527 1.2616952621 4.2490049836
| 42> H -4.8921379805 -2.3760797826 -0.3789077412
| 43> H -5.1597359424 -0.6150639313 -0.5427863864
| 44> H -3.3562801059 -2.2792975496 -2.3747568947
| 45> H -4.9821302605 -1.7056787637 -2.7814029684
| 46> H -3.6752595884 -0.5433212483 -2.5153540299
| 47> *
| 48>
| 49>                          ****END OF INPUT****

CARTESIAN COORDINATES (ANGSTROEM)
---------------------------------
  C      4.298641   -2.214269    1.001915
  C      4.638919   -0.784678    0.633210
  O      3.506703    0.092859    0.765441
  P      2.239728   -0.000412   -0.187665
  S      2.635191   -0.372942   -2.075227
  O      1.516447    1.380480    0.125718
  C      1.716861    2.549698   -0.691640
  C      3.113459    3.111604   -0.530770
  S      0.931929   -1.314070    0.813999
  C     -0.207316   -1.590990   -0.573584
  S     -0.941924   -0.068147   -1.241102
  P     -2.536539    0.131916    0.159715
  S     -3.607697    1.756828   -0.044061
  O     -1.867593   -0.094029    1.577160
  C     -1.231510    0.982801    2.293011
  C     -0.897893    0.468436    3.677983
  O     -3.305687   -1.253363    0.111028
  C     -4.460774   -1.436801   -0.727780
  C     -4.091526   -1.498771   -2.196725
  H      5.206161   -2.809455    1.007459
  H      3.835419   -2.251232    1.984667
  H      3.606954   -2.632503    0.271860
  H      4.999811   -0.729860   -0.398866
  H      5.380447   -0.358486    1.310151
  H      1.520730    2.279426   -1.734714
  H      0.952934    3.248997   -0.347402
  H      3.327031    3.290687    0.519759
  H      3.843152    2.404792   -0.924239
  H      3.191872    4.043551   -1.081721
  H     -0.992654   -2.246828   -0.204821
  H      0.339900   -2.041790   -1.400020
  H     -0.326140    1.283654    1.756193
  H     -1.921091    1.832738    2.326980
  H     -1.804420    0.147571    4.182576
  H     -0.217972   -0.375830    3.600651
  H     -0.427059    1.261695    4.249005
  H     -4.892138   -2.376080   -0.378908
  H     -5.159736   -0.615064   -0.542786
  H     -3.356280   -2.279298   -2.374757
  H     -4.982130   -1.705679   -2.781403
  H     -3.675260   -0.543321   -2.515354

 Total Charge           Charge          ....    0
 Multiplicity           Mult            ....    1
 Number of Electrons    NEL             ....  202
 Basis Dimension        Dim             ....  539

ORBITAL ENERGIES
----------------

  NO   OCC          E(Eh)            E(eV)
   0   2.0000     -88.578546     -2410.3448
   1   2.0000     -88.573734     -2410.2138
   2   2.0000     -88.527072     -2408.9441
   3   2.0000     -88.520670     -2408.7699
   4   2.0000     -76.918475     -2093.0581
   5   2.0000     -76.911895     -2092.8791
   6   2.0000     -18.998057      -516.9634
   7   2.0000     -18.991686      -516.7900
   8   2.0000     -18.991073      -516.7734
   9   2.0000     -18.987311      -516.6710
  10   2.0000     -10.110757      -275.1277
  11   2.0000     -10.103405      -274.9276
  12   2.0000     -10.098914      -274.8054
  13   2.0000     -10.096582      -274.7420
  14   2.0000     -10.089947      -274.5614
  15   2.0000     -10.033120      -273.0151
  16   2.0000     -10.029230      -272.9092
  17   2.0000     -10.028545      -272.8906
  18   2.0000     -10.026102      -272.8241
  19   2.0000      -7.873140      -214.2390
  20   2.0000      -7.867577      -214.0877
  21   2.0000      -7.821677      -212.8387
  22   2.0000      -7.815268      -212.6642
  23   2.0000      -6.597010      -179.5138
  24   2.0000      -6.590468      -179.3358
  25   2.0000      -5.820002      -158.3703
  26   2.0000      -5.817022      -158.2892
  27   2.0000      -5.814821      -158.2293
  28   2.0000      -5.811154      -158.1295
  29   2.0000      -5.810197      -158.1035
  30   2.0000      -5.804698      -157.9539
  31   2.0000      -5.769276      -156.9900
  32   2.0000      -5.762850      -156.8151
  33   2.0000      -5.761968      -156.7911
  34   2.0000      -5.761760      -156.7855
  35   2.0000      -5.755532      -156.6160
  36   2.0000      -5.755384      -156.6119
  37   2.0000      -4.742372      -129.0465
  38   2.0000      -4.741893      -129.0335
  39   2.0000      -4.740911      -129.0068
  40   2.0000      -4.735824      -128.8683
  41   2.0000      -4.735691      -128.8647
  42   2.0000      -4.734034      -128.8196
  43   2.0000      -1.053545       -28.6684
  44   2.0000      -1.051235       -28.6056
  45   2.0000      -1.014271       -27.5997
  46   2.0000      -1.009189       -27.4614
  47   2.0000      -0.802734       -21.8435
  48   2.0000      -0.759421       -20.6649
  49   2.0000      -0.750227       -20.4147
  50   2.0000      -0.733605       -19.9624
  51   2.0000      -0.727196       -19.7880
  52   2.0000      -0.712443       -19.3866
  53   2.0000      -0.690650       -18.7935
  54   2.0000      -0.670549       -18.2466
  55   2.0000      -0.635579       -17.2950
  56   2.0000      -0.626609       -17.0509
  57   2.0000      -0.607772       -16.5383
  58   2.0000      -0.595642       -16.2082
  59   2.0000      -0.593148       -16.1404
  60   2.0000      -0.528075       -14.3696
  61   2.0000      -0.520286       -14.1577
  62   2.0000      -0.495846       -13.4927
  63   2.0000      -0.489897       -13.3308
  64   2.0000      -0.480015       -13.0619
  65   2.0000      -0.462046       -12.5729
  66   2.0000      -0.461021       -12.5450
  67   2.0000      -0.456748       -12.4287
  68   2.0000      -0.444373       -12.0920
  69   2.0000      -0.438145       -11.9225
  70   2.0000      -0.427053       -11.6207
  71   2.0000      -0.413792       -11.2598
  72   2.0000      -0.411956       -11.2099
  73   2.0000      -0.408023       -11.1029
  74   2.0000      -0.395437       -10.7604
  75   2.0000      -0.391605       -10.6561
  76   2.0000      -0.384518       -10.4633
  77   2.0000      -0.377085       -10.2610
  78   2.0000      -0.370530       -10.0826
  79   2.0000      -0.366250        -9.9662
  80   2.0000      -0.364689        -9.9237
  81   2.0000      -0.359404        -9.7799
  82   2.0000      -0.358866        -9.7652
  83   2.0000      -0.353444        -9.6177
  84   2.0000      -0.346971        -9.4415
  85   2.0000      -0.331496        -9.0205
  86   2.0000      -0.328712        -8.9447
  87   2.0000      -0.317030        -8.6268
  88   2.0000      -0.314310        -8.5528
  89   2.0000      -0.304997        -8.2994
  90   2.0000      -0.301199        -8.1961
  91   2.0000      -0.289878        -7.8880
  92   2.0000      -0.284609        -7.7446
  93   2.0000      -0.281622        -7.6633
  94   2.0000      -0.270185        -7.3521
  95   2.0000      -0.246054        -6.6955
  96   2.0000      -0.231805        -6.3077
  97   2.0000      -0.226301        -6.1580
  98   2.0000      -0.221273        -6.0211
  99   2.0000      -0.218935        -5.9575
 100   2.0000      -0.216396        -5.8884
 101   0.0000      -0.047225        -1.2851
 102   0.0000      -0.022233        -0.6050
 103   0.0000      -0.011966        -0.3256
 104   0.0000       0.003078         0.0838
 105   0.0000       0.005164         0.1405

MULLIKEN ATOMIC CHARGES
-----------------------
   0 C :   -0.455219
   1 C :   -0.149629
   2 O :   -0.301747
   3 P :    0.665569
   4 S :   -0.469728
   5 O :   -0.277479
   6 C :   -0.153125
   7 C :   -0.441061
   8 S :   -0.104449
   9 C :   -0.236361
  10 S :   -0.139342
  11 P :    0.690013
  12 S :   -0.461459
  13 O :   -0.294067
  14 C :   -0.125177
  15 C :   -0.461010
  16 O :   -0.311070
  17 C :   -0.156460
  18 C :   -0.429595
  19 H :    0.149424
  20 H :    0.156172
  21 H :    0.177264
  22 H :    0.172565
  23 H :    0.149683
  24 H :    0.175312
  25 H :    0.157300
  26 H :    0.155181
  27 H :    0.165420
  28 H :    0.148555
  29 H :    0.198578
  30 H :    0.214811
  31 H :    0.173791
  32 H :    0.165074
  33 H :    0.153511
  34 H :    0.159689
  35 H :    0.145641
  36 H :    0.149056
  37 H :    0.173743
  38 H :    0.148673
  39 H :    0.147477
  40 H :    0.174478
Sum of atomic charges:   -0.0000000

LOEWDIN ATOMIC CHARGES
----------------------
   0 C :   -0.406631
   1 C :    0.020422
   2 O :   -0.660245
   3 P :    0.373138
   4 S :   -0.122493
   5 O :   -0.696284
   6 C :    0.017306
   7 C :   -0.398704
   8 S :    0.184398
   9 C :   -0.410724
  10 S :    0.170885
  11 P :    0.370015
  12 S :   -0.112328
  13 O :   -0.673167
  14 C :    0.013582
  15 C :   -0.387687
  16 O :   -0.667647
  17 C :    0.021952
  18 C :   -0.403313
  19 H :    0.159902
  20 H :    0.160423
  21 H :    0.165345
  22 H :    0.179696
  23 H :    0.180189
  24 H :    0.182206
  25 H :    0.182377
  26 H :    0.160499
  27 H :    0.163838
  28 H :    0.160112
  29 H :    0.192256
  30 H :    0.190135
  31 H :    0.188209
  32 H :    0.178526
  33 H :    0.159902
  34 H :    0.160820
  35 H :    0.159256
  36 H :    0.179489
  37 H :    0.180855
  38 H :    0.157467
  39 H :    0.159456
  40 H :    0.166570

  Mayer bond orders larger than 0.100000
B(  0-C ,  1-C ) :   0.9203 B(  0-C , 19-H ) :   0.9583 B(  0-C , 20-H ) :   0.9682
B(  0-C , 21-H ) :   0.9631 B(  1-C ,  2-O ) :   0.8125 B(  1-C , 22-H ) :   0.9678
B(  1-C , 23-H ) :   0.9575 B(  2-O ,  3-P ) :   1.0670 B(  3-P ,  4-S ) :   1.7528
B(  3-P ,  5-O ) :   1.1359 B(  3-P ,  8-S ) :   1.0979 B(  5-O ,  6-C ) :   0.7984
B(  6-C ,  7-C ) :   0.9218 B(  6-C , 24-H ) :   0.9636 B(  6-C , 25-H ) :   0.9599
B(  7-C , 26-H ) :   0.9718 B(  7-C , 27-H ) :   0.9607 B(  7-C , 28-H ) :   0.9620
B(  8-S ,  9-C ) :   0.9050 B(  9-C , 10-S ) :   0.8954 B(  9-C , 29-H ) :   0.9163
B(  9-C , 30-H ) :   0.9157 B( 10-S , 11-P ) :   1.0478 B( 11-P , 12-S ) :   1.8055
B( 11-P , 13-O ) :   1.1273 B( 11-P , 16-O ) :   1.0966 B( 13-O , 14-C ) :   0.7521
B( 14-C , 15-C ) :   0.9370 B( 14-C , 31-H ) :   0.9359 B( 14-C , 32-H ) :   0.9401
B( 15-C , 33-H ) :   0.9741 B( 15-C , 34-H ) :   0.9741 B( 15-C , 35-H ) :   0.9677
B( 16-O , 17-C ) :   0.8081 B( 17-C , 18-C ) :   0.9291 B( 17-C , 36-H ) :   0.9599
B( 17-C , 37-H ) :   0.9658 B( 18-C , 38-H ) :   0.9687 B( 18-C , 39-H ) :   0.9608
B( 18-C , 40-H ) :   0.9614

Dispersion correction           -0.021627312
FINAL SINGLE POINT ENERGY     -2932.465890112811

DIPOLE MOMENT
-------------

Method             : SCF
Type of density    : Electron Density
Multiplicity       :   1
Irrep              :   0
Energy             : -2932.4907487174186826 Eh
Relativity type    :
Basis              : AO
                                X                 Y                 Z
Electronic contribution:     -7.405133631       0.583749961      -5.621159242
Nuclear contribution   :      8.218531198      -1.215513289       6.257808978
                        -----------------------------------------
Total Dipole Moment    :      0.813397567      -0.631763328       0.636649736
                        -----------------------------------------
Magnitude (a.u.)       :      1.210811047
Magnitude (Debye)      :      3.077637097

Rotational constants in cm-1:             0.012532             0.004803             0.004703
Rotational constants in MHz :           375.709433           143.980280           141.005744

                             ****ORCA TERMINATED NORMALLY****
TOTAL RUN TIME: 0 days 0 hours 1 minutes 18 seconds 248 msec
