                         Program Version 6.0.0  -   RELEASE  -
|  1> ! r2scan-3c def2/J RI DEFGRID2 scfconv6 printgap
|  2> %output
|  3>     printlevel normal
|  4> end
|  5> %cpcm
|  6>     smd true
|  7>     smdsolvent "water"
|  8> end
|  9> * xyz 0 1
| 10> C 4.2986413559 -2.2142693313 1.0019148295
| 11> C 4.6389188062 -0.7846784984 0.633210266
| 12> O 3.5067029184 0.092858878 0.7654405151
| 13> P 2.2397280254 -0.0004116564 -0.1876651036
| 14> S 2.6351914501 -0.3729419536 -2.0752273231
| 15> O 1.5164473882 1.3804800621 0.1257179833
| 16> C 1.7168605101 2.549697588 -0.6916398974
| 17> C 3.1134587224 3.1116043241 -0.530769518
| 18> S 0.9319293425 -1.3140702609 0.8139989751
| 19> C -0.2073164739 -1.5909897009 -0.5735837132
| 20> S -0.941923903 -0.0681465037 -1.2411019341
| 21> P -2.5365386025 0.1319156928 0.1597146593
| 22> S -3.6076968125 1.7568276714 -0.0440611414
| 23> O -1.8675927745 -0.0940287835 1.5771603576
| 24> C -1.2315097602 0.9828010338 2.293011319
| 25> C -0.8978931962 0.4684360479 3.6779826695
| 26> O -3.3056865387 -1.2533631821 0.1110278437
| 27> C -4.4607743781 -1.4368008672 -0.7277801601
| 28> C -4.0915263463 -1.498770626 -2.1967252917
| 29> H 5.2061608503 -2.8094547068 1.0074587956
| 30> H 3.8354193306 -2.2512318279 1.9846673904
| 31> H 3.6069538018 -2.6325027603 0.2718603562
| 32> H 4.9998111931 -0.7298595917 -0.3988661328
| 33> H 5.3804474202 -0.358485606 1.3101506308
| 34> H 1.520729599 2.2794261184 -1.7347141187
| 35> H 0.9529342823 3.2489965837 -0.3474017147
| 36> H 3.3270314933 3.2906868262 0.5197588842
| 37> H 3.8431524023 2.4047916509 -0.9242388329
| 38> H 3.1918717817 4.0435514563 -1.0817212864
| 39> H -0.9926538615 -2.2468280158 -0.2048208222
| 40> H 0.3398995694 -2.0417896409 -1.4000200201
| 41> H -0.3261395967 1.2836536754 1.756193236
| 42> H -1.921091481 1.8327382382 2.3269799312
| 43> H -1.8044203492 0.1475712241 4.1825756038
| 44> H -0.2179722006 -0.3758304344 3.600651027
| 45> H -0.4270588527 1.2616952621 4.2490049836
| 46> H -4.8921379805 -2.3760797826 -0.3789077412
| 47> H -5.1597359424 -0.6150639313 -0.5427863864
| 48> H -3.3562801059 -2.2792975496 -2.3747568947
| 49> H -4.9821302605 -1.7056787637 -2.7814029684
| 50> H -3.6752595884 -0.5433212483 -2.5153540299
| 51> *
| 52>
| 53>                          ****END OF INPUT****

CARTESIAN COORDINATES (ANGSTROEM)
---------------------------------
  C      4.298641   -2.214269    1.001915
  C      4.638919   -0.784678    0.633210
  O      3.506703    0.092859    0.765441
  P      2.239728   -0.000412   -0.187665
  S      2.635191   -0.372942   -2.075227
  O      1.516447    1.380480    0.125718
  C      1.716861    2.549698   -0.691640
  C      3.113459    3.111604   -0.530770
  S      0.931929   -1.314070    0.813999
  C     -0.207316   -1.590990   -0.573584
  S     -0.941924   -0.068147   -1.241102
  P     -2.536539    0.131916    0.159715
  S     -3.607697    1.756828   -0.044061
  O     -1.867593   -0.094029    1.577160
  C     -1.231510    0.982801    2.293011
  C     -0.897893    0.468436    3.677983
  O     -3.305687   -1.253363    0.111028
  C     -4.460774   -1.436801   -0.727780
  C     -4.091526   -1.498771   -2.196725
  H      5.206161   -2.809455    1.007459
  H      3.835419   -2.251232    1.984667
  H      3.606954   -2.632503    0.271860
  H      4.999811   -0.729860   -0.398866
  H      5.380447   -0.358486    1.310151
  H      1.520730    2.279426   -1.734714
  H      0.952934    3.248997   -0.347402
  H      3.327031    3.290687    0.519759
  H      3.843152    2.404792   -0.924239
  H      3.191872    4.043551   -1.081721
  H     -0.992654   -2.246828   -0.204821
  H      0.339900   -2.041790   -1.400020
  H     -0.326140    1.283654    1.756193
  H     -1.921091    1.832738    2.326980
  H     -1.804420    0.147571    4.182576
  H     -0.217972   -0.375830    3.600651
  H     -0.427059    1.261695    4.249005
  H     -4.892138   -2.376080   -0.378908
  H     -5.159736   -0.615064   -0.542786
  H     -3.356280   -2.279298   -2.374757
  H     -4.982130   -1.705679   -2.781403
  H     -3.675260   -0.543321   -2.515354

 Total Charge           Charge          ....    0
 Multiplicity           Mult            ....    1
 Number of Electrons    NEL             ....  202
 Basis Dimension        Dim             ....  539

ORBITAL ENERGIES
----------------

  NO   OCC          E(Eh)            E(eV)
   0   2.0000     -88.577847     -2410.3258
   1   2.0000     -88.576972     -2410.3019
   2   2.0000     -88.531163     -2409.0554
   3   2.0000     -88.530011     -2409.0241
   4   2.0000     -76.919182     -2093.0773
   5   2.0000     -76.918831     -2093.0678
   6   2.0000     -18.996284      -516.9152
   7   2.0000     -18.994655      -516.8708
   8   2.0000     -18.993451      -516.8381
   9   2.0000     -18.990573      -516.7598
  10   2.0000     -10.106323      -275.0070
  11   2.0000     -10.090397      -274.5737
  12   2.0000     -10.090094      -274.5654
  13   2.0000     -10.088237      -274.5149
  14   2.0000     -10.087464      -274.4939
  15   2.0000     -10.018803      -272.6255
  16   2.0000     -10.018496      -272.6171
  17   2.0000     -10.018458      -272.6161
  18   2.0000     -10.018324      -272.6124
  19   2.0000      -7.872389      -214.2186
  20   2.0000      -7.870894      -214.1779
  21   2.0000      -7.826123      -212.9596
  22   2.0000      -7.824914      -212.9267
  23   2.0000      -6.597781      -179.5347
  24   2.0000      -6.597486      -179.5267
  25   2.0000      -5.819259      -158.3501
  26   2.0000      -5.818111      -158.3189
  27   2.0000      -5.816277      -158.2689
  28   2.0000      -5.814451      -158.2193
  29   2.0000      -5.809447      -158.0831
  30   2.0000      -5.808060      -158.0453
  31   2.0000      -5.773598      -157.1076
  32   2.0000      -5.772449      -157.0763
  33   2.0000      -5.766359      -156.9106
  34   2.0000      -5.766303      -156.9091
  35   2.0000      -5.765183      -156.8786
  36   2.0000      -5.765028      -156.8744
  37   2.0000      -4.743113      -129.0667
  38   2.0000      -4.742801      -129.0582
  39   2.0000      -4.742718      -129.0559
  40   2.0000      -4.742663      -129.0544
  41   2.0000      -4.741737      -129.0292
  42   2.0000      -4.741113      -129.0122
  43   2.0000      -1.055514       -28.7220
  44   2.0000      -1.052025       -28.6271
  45   2.0000      -1.012934       -27.5633
  46   2.0000      -1.012304       -27.5462
  47   2.0000      -0.801470       -21.8091
  48   2.0000      -0.756571       -20.5873
  49   2.0000      -0.743877       -20.2419
  50   2.0000      -0.723170       -19.6784
  51   2.0000      -0.720569       -19.6077
  52   2.0000      -0.711067       -19.3491
  53   2.0000      -0.693558       -18.8727
  54   2.0000      -0.675097       -18.3703
  55   2.0000      -0.631594       -17.1866
  56   2.0000      -0.623253       -16.9596
  57   2.0000      -0.598793       -16.2940
  58   2.0000      -0.592639       -16.1265
  59   2.0000      -0.588589       -16.0163
  60   2.0000      -0.527149       -14.3445
  61   2.0000      -0.514311       -13.9951
  62   2.0000      -0.490501       -13.3472
  63   2.0000      -0.488799       -13.3009
  64   2.0000      -0.477999       -13.0070
  65   2.0000      -0.457660       -12.4536
  66   2.0000      -0.455597       -12.3974
  67   2.0000      -0.453618       -12.3436
  68   2.0000      -0.441118       -12.0034
  69   2.0000      -0.432394       -11.7660
  70   2.0000      -0.422225       -11.4893
  71   2.0000      -0.411040       -11.1850
  72   2.0000      -0.406022       -11.0484
  73   2.0000      -0.404335       -11.0025
  74   2.0000      -0.394416       -10.7326
  75   2.0000      -0.386636       -10.5209
  76   2.0000      -0.382523       -10.4090
  77   2.0000      -0.370898       -10.0927
  78   2.0000      -0.364483        -9.9181
  79   2.0000      -0.359111        -9.7719
  80   2.0000      -0.353768        -9.6265
  81   2.0000      -0.352472        -9.5912
  82   2.0000      -0.350231        -9.5303
  83   2.0000      -0.347184        -9.4474
  84   2.0000      -0.343154        -9.3377
  85   2.0000      -0.329475        -8.9655
  86   2.0000      -0.324199        -8.8219
  87   2.0000      -0.315473        -8.5845
  88   2.0000      -0.305878        -8.3234
  89   2.0000      -0.303860        -8.2684
  90   2.0000      -0.297446        -8.0939
  91   2.0000      -0.286830        -7.8050
  92   2.0000      -0.282500        -7.6872
  93   2.0000      -0.280173        -7.6239
  94   2.0000      -0.272845        -7.4245
  95   2.0000      -0.247626        -6.7382
  96   2.0000      -0.237818        -6.4713
  97   2.0000      -0.231862        -6.3093
  98   2.0000      -0.230374        -6.2688
  99   2.0000      -0.224515        -6.1094
 100   2.0000      -0.221792        -6.0353
 101   0.0000      -0.048335        -1.3153
 102   0.0000      -0.028134        -0.7656
 103   0.0000      -0.014112        -0.3840
 104   0.0000      -0.001705        -0.0464
 105   0.0000       0.005299         0.1442

MULLIKEN ATOMIC CHARGES
-----------------------
   0 C :   -0.491160
   1 C :   -0.151052
   2 O :   -0.328071
   3 P :    0.706369
   4 S :   -0.520667
   5 O :   -0.298030
   6 C :   -0.150546
   7 C :   -0.485078
   8 S :   -0.105826
   9 C :   -0.245592
  10 S :   -0.162703
  11 P :    0.712240
  12 S :   -0.515848
  13 O :   -0.314884
  14 C :   -0.118969
  15 C :   -0.498598
  16 O :   -0.330427
  17 C :   -0.148089
  18 C :   -0.469750
  19 H :    0.173430
  20 H :    0.169841
  21 H :    0.173905
  22 H :    0.178852
  23 H :    0.175880
  24 H :    0.176417
  25 H :    0.178119
  26 H :    0.169604
  27 H :    0.167904
  28 H :    0.171652
  29 H :    0.231503
  30 H :    0.237306
  31 H :    0.178924
  32 H :    0.171332
  33 H :    0.165026
  34 H :    0.167094
  35 H :    0.170684
  36 H :    0.175699
  37 H :    0.176325
  38 H :    0.168840
  39 H :    0.171226
  40 H :    0.167118
Sum of atomic charges:   -0.0000000

LOEWDIN ATOMIC CHARGES
----------------------
   0 C :   -0.409779
   1 C :    0.025850
   2 O :   -0.672091
   3 P :    0.378767
   4 S :   -0.153249
   5 O :   -0.705693
   6 C :    0.019347
   7 C :   -0.402464
   8 S :    0.186650
   9 C :   -0.400544
  10 S :    0.159929
  11 P :    0.374283
  12 S :   -0.152103
  13 O :   -0.686113
  14 C :    0.016914
  15 C :   -0.391272
  16 O :   -0.675588
  17 C :    0.027566
  18 C :   -0.406593
  19 H :    0.168614
  20 H :    0.163770
  21 H :    0.161688
  22 H :    0.181662
  23 H :    0.191243
  24 H :    0.181782
  25 H :    0.190324
  26 H :    0.164144
  27 H :    0.162477
  28 H :    0.168463
  29 H :    0.204012
  30 H :    0.198042
  31 H :    0.189812
  32 H :    0.181117
  33 H :    0.162980
  34 H :    0.162169
  35 H :    0.168804
  36 H :    0.191095
  37 H :    0.181391
  38 H :    0.163269
  39 H :    0.167981
  40 H :    0.161344

  Mayer bond orders larger than 0.100000
B(  0-C ,  1-C ) :   0.9072 B(  0-C , 19-H ) :   0.9531 B(  0-C , 20-H ) :   0.9653
B(  0-C , 21-H ) :   0.9640 B(  1-C ,  2-O ) :   0.8008 B(  1-C , 22-H ) :   0.9665
B(  1-C , 23-H ) :   0.9480 B(  2-O ,  3-P ) :   1.0744 B(  3-P ,  4-S ) :   1.7037
B(  3-P ,  5-O ) :   1.1424 B(  3-P ,  8-S ) :   1.1113 B(  5-O ,  6-C ) :   0.7860
B(  6-C ,  7-C ) :   0.9147 B(  6-C , 24-H ) :   0.9604 B(  6-C , 25-H ) :   0.9511
B(  7-C , 26-H ) :   0.9706 B(  7-C , 27-H ) :   0.9601 B(  7-C , 28-H ) :   0.9563
B(  8-S ,  9-C ) :   0.9002 B(  9-C , 10-S ) :   0.8909 B(  9-C , 29-H ) :   0.9059
B(  9-C , 30-H ) :   0.9075 B( 10-S , 11-P ) :   1.0638 B( 11-P , 12-S ) :   1.7728
B( 11-P , 13-O ) :   1.1297 B( 11-P , 16-O ) :   1.1048 B( 13-O , 14-C ) :   0.7465
B( 14-C , 15-C ) :   0.9332 B( 14-C , 31-H ) :   0.9304 B( 14-C , 32-H ) :   0.9375
B( 15-C , 33-H ) :   0.9714 B( 15-C , 34-H ) :   0.9712 B( 15-C , 35-H ) :   0.9613
B( 16-O , 17-C ) :   0.7964 B( 17-C , 18-C ) :   0.9188 B( 17-C , 36-H ) :   0.9494
B( 17-C , 37-H ) :   0.9635 B( 18-C , 38-H ) :   0.9657 B( 18-C , 39-H ) :   0.9558
B( 18-C , 40-H ) :   0.9633

Dispersion correction           -0.021627312
FINAL SINGLE POINT ENERGY     -2932.473592801353

DIPOLE MOMENT
-------------

Method             : SCF
Type of density    : Electron Density
Multiplicity       :   1
Irrep              :   0
Energy             : -2932.4984514059610774 Eh
Relativity type    :
Basis              : AO
                                X                 Y                 Z
Electronic contribution:     -7.177501717       0.249163512      -5.415794941
Nuclear contribution   :      8.218531198      -1.215513289       6.257808978
                        -----------------------------------------
Total Dipole Moment    :      1.041029481      -0.966349777       0.842014037
                        -----------------------------------------
Magnitude (a.u.)       :      1.651230423
Magnitude (Debye)      :      4.197094186

Rotational constants in cm-1:             0.012532             0.004803             0.004703
Rotational constants in MHz :           375.709433           143.980280           141.005744

                             ****ORCA TERMINATED NORMALLY****
TOTAL RUN TIME: 0 days 0 hours 1 minutes 50 seconds 451 msec
