                         Program Version 6.0.0  -   RELEASE  -
|  1> ! pbe def2-sv(p) def2/J RI DEFGRID1 loosescf d4 GCP(DFT/SV(P)) printgap
|  2> %output
|  3>     printlevel normal
|  4> end
|  5> * xyz 0 1
|  6> C -0.5902916365 0.0756805556 -0.4638200857
|  7> C 0.6006735144 -0.0688059983 0.4888748103
|  8> O 1.7808819535 0.0333168714 -0.2779436969
|  9> O -1.8287226952 0.0153307162 0.200624771
| 10> H -0.5172707643 -0.6904335079 -1.2454867023
| 11> H -0.5466159139 1.0564835014 -0.9421679087
| 12> H 0.5535402558 -1.0444287703 0.9926552478
| 13> H 0.5507527349 0.7237550392 1.2462984559
| 14> H 2.5490059678 -0.0295809448 0.306374214
| 15> H -1.9537306645 -0.8699139197 0.5710827978
| 16> *
| 17>
| 18>                          ****END OF INPUT****

CARTESIAN COORDINATES (ANGSTROEM)
---------------------------------
  C     -0.590292    0.075681   -0.463820
  C      0.600674   -0.068806    0.488875
  O      1.780882    0.033317   -0.277944
  O     -1.828723    0.015331    0.200625
  H     -0.517271   -0.690434   -1.245487
  H     -0.546616    1.056484   -0.942168
  H      0.553540   -1.044429    0.992655
  H      0.550753    0.723755    1.246298
  H      2.549006   -0.029581    0.306374
  H     -1.953731   -0.869914    0.571083

 Total Charge           Charge          ....    0
 Multiplicity           Mult            ....    1
 Number of Electrons    NEL             ....   34
 Basis Dimension        Dim             ....   68

ORBITAL ENERGIES
----------------

  NO   OCC          E(Eh)            E(eV)
   0   2.0000     -18.747178      -510.1366
   1   2.0000     -18.744964      -510.0764
   2   2.0000      -9.930380      -270.2194
   3   2.0000      -9.926522      -270.1144
   4   2.0000      -0.926690       -25.2165
   5   2.0000      -0.915917       -24.9234
   6   2.0000      -0.656384       -17.8611
   7   2.0000      -0.553786       -15.0693
   8   2.0000      -0.474690       -12.9170
   9   2.0000      -0.445533       -12.1236
  10   2.0000      -0.410617       -11.1734
  11   2.0000      -0.375436       -10.2161
  12   2.0000      -0.347971        -9.4688
  13   2.0000      -0.292625        -7.9627
  14   2.0000      -0.271151        -7.3784
  15   2.0000      -0.218245        -5.9387
  16   2.0000      -0.215841        -5.8733
  17   0.0000       0.020935         0.5697
  18   0.0000       0.027757         0.7553
  19   0.0000       0.084991         2.3127
  20   0.0000       0.097340         2.6488
  21   0.0000       0.101649         2.7660

MULLIKEN ATOMIC CHARGES
-----------------------
   0 C :   -0.002716
   1 C :   -0.032724
   2 O :   -0.439174
   3 O :   -0.436275
   4 H :    0.081374
   5 H :    0.097551
   6 H :    0.057274
   7 H :    0.079097
   8 H :    0.301176
   9 H :    0.294416
Sum of atomic charges:    0.0000000

LOEWDIN ATOMIC CHARGES
----------------------
   0 C :   -0.134977
   1 C :   -0.147382
   2 O :   -0.348973
   3 O :   -0.336305
   4 H :    0.098054
   5 H :    0.117032
   6 H :    0.086280
   7 H :    0.097221
   8 H :    0.286970
   9 H :    0.282080

  Mayer bond orders larger than 0.100000
B(  0-C ,  1-C ) :   1.0886 B(  0-C ,  3-O ) :   1.0627 B(  0-C ,  4-H ) :   0.9273
B(  0-C ,  5-H ) :   0.9261 B(  1-C ,  2-O ) :   1.0772 B(  1-C ,  6-H ) :   0.9213
B(  1-C ,  7-H ) :   0.9192 B(  2-O ,  8-H ) :   0.8519 B(  3-O ,  9-H ) :   0.8547

Dispersion correction           -0.004675111
FINAL SINGLE POINT ENERGY      -229.722849562298

DIPOLE MOMENT
-------------

Method             : SCF
Type of density    : Electron Density
Multiplicity       :   1
Irrep              :   0
Energy             :  -229.7733462064817616 Eh
Relativity type    :
Basis              : AO
                                X                 Y                 Z
Electronic contribution:     -0.157416942       0.231868380      -0.274041013
Nuclear contribution   :      0.595668519      -0.800588222       0.870185107
                        -----------------------------------------
Total Dipole Moment    :      0.438251577      -0.568719841       0.596144094
                        -----------------------------------------
Magnitude (a.u.)       :      0.933217276
Magnitude (Debye)      :      2.372049804

Rotational constants in cm-1:             1.009457             0.131305             0.122647
Rotational constants in MHz :         30262.758632          3936.439535          3676.877530

                             ****ORCA TERMINATED NORMALLY****
TOTAL RUN TIME: 0 days 0 hours 0 minutes 4 seconds 240 msec
