                         Program Version 6.0.0  -   RELEASE  -
|  1> ! pbe def2-sv(p) def2/J RI DEFGRID1 loosescf d4 GCP(DFT/SV(P)) printgap
|  2> %output
|  3>     printlevel normal
|  4> end
|  5> * xyz 0 1
|  6> C 4.996268654 -2.3941494516 -1.7869535174
|  7> C 4.011930512 -1.2422880949 -1.8151020628
|  8> O 3.0187964562 -1.4809248728 -0.7971682544
|  9> P 2.1235742825 -0.3077145097 -0.202182281
| 10> S 3.137033662 1.29649746 0.3032063183
| 11> O 1.3630016212 -1.0809807081 0.9466955989
| 12> C 1.8311106279 -1.1066032208 2.3148660984
| 13> C 1.04852364 -0.1231105011 3.1618895578
| 14> S 0.6183930493 -0.0747635884 -1.6573376589
| 15> C 0.0767251268 1.5873136216 -1.1736010579
| 16> S -0.6010725564 1.6567577148 0.5063846796
| 17> P -2.2162338276 0.3414788207 0.1935391247
| 18> S -3.0891410149 0.3506651559 -1.5658677424
| 19> O -3.2077519569 0.6222677365 1.4073882924
| 20> C -4.2721137367 1.5865708251 1.3292216379
| 21> C -3.7493191882 3.0075627742 1.2768916957
| 22> O -1.5559158803 -1.0170568782 0.6693780455
| 23> C -2.1324629709 -2.3077666023 0.3701218911
| 24> C -1.3782352198 -2.9694018295 -0.7663225
| 25> H 5.4906308955 -2.4406357482 -0.8207104003
| 26> H 4.4749165129 -3.33083164 -1.9614525625
| 27> H 5.7397602875 -2.245329822 -2.5630402183
| 28> H 3.5007671324 -1.1763813812 -2.7790840372
| 29> H 4.5049349071 -0.287349676 -1.603486594
| 30> H 1.6703652566 -2.1347446242 2.6428315714
| 31> H 2.899764807 -0.8751345491 2.3355555213
| 32> H 1.3296303432 -0.2435222874 4.2031484751
| 33> H 1.2626842456 0.897064796 2.849564232
| 34> H -0.0182094232 -0.3025700718 3.0508303015
| 35> H -0.6863712411 1.8790283726 -1.8941512073
| 36> H 0.9252394276 2.2704817447 -1.1892797275
| 37> H -4.8738301836 1.3647664458 0.4419144155
| 38> H -4.8575106047 1.4042231931 2.2313499711
| 39> H -3.0633738287 3.1886170763 2.1005899654
| 40> H -3.2219730669 3.1761874812 0.3389198116
| 41> H -4.5828063449 3.6996165002 1.3413447862
| 42> H -2.0409135327 -2.8777557401 1.2960979683
| 43> H -3.1895419721 -2.1827092759 0.1181396451
| 44> H -0.3162229018 -3.0055881444 -0.5349375057
| 45> H -1.7530669403 -3.9779211794 -0.9080077126
| 46> H -1.5130777265 -2.4048105347 -1.6868464558
| 47> *
| 48>
| 49>                          ****END OF INPUT****

CARTESIAN COORDINATES (ANGSTROEM)
---------------------------------
  C      4.996269   -2.394149   -1.786954
  C      4.011931   -1.242288   -1.815102
  O      3.018796   -1.480925   -0.797168
  P      2.123574   -0.307715   -0.202182
  S      3.137034    1.296497    0.303206
  O      1.363002   -1.080981    0.946696
  C      1.831111   -1.106603    2.314866
  C      1.048524   -0.123111    3.161890
  S      0.618393   -0.074764   -1.657338
  C      0.076725    1.587314   -1.173601
  S     -0.601073    1.656758    0.506385
  P     -2.216234    0.341479    0.193539
  S     -3.089141    0.350665   -1.565868
  O     -3.207752    0.622268    1.407388
  C     -4.272114    1.586571    1.329222
  C     -3.749319    3.007563    1.276892
  O     -1.555916   -1.017057    0.669378
  C     -2.132463   -2.307767    0.370122
  C     -1.378235   -2.969402   -0.766323
  H      5.490631   -2.440636   -0.820710
  H      4.474917   -3.330832   -1.961453
  H      5.739760   -2.245330   -2.563040
  H      3.500767   -1.176381   -2.779084
  H      4.504935   -0.287350   -1.603487
  H      1.670365   -2.134745    2.642832
  H      2.899765   -0.875135    2.335556
  H      1.329630   -0.243522    4.203148
  H      1.262684    0.897065    2.849564
  H     -0.018209   -0.302570    3.050830
  H     -0.686371    1.879028   -1.894151
  H      0.925239    2.270482   -1.189280
  H     -4.873830    1.364766    0.441914
  H     -4.857511    1.404223    2.231350
  H     -3.063374    3.188617    2.100590
  H     -3.221973    3.176187    0.338920
  H     -4.582806    3.699617    1.341345
  H     -2.040914   -2.877756    1.296098
  H     -3.189542   -2.182709    0.118140
  H     -0.316223   -3.005588   -0.534938
  H     -1.753067   -3.977921   -0.908008
  H     -1.513078   -2.404811   -1.686846

 Total Charge           Charge          ....    0
 Multiplicity           Mult            ....    1
 Number of Electrons    NEL             ....  202
 Basis Dimension        Dim             ....  334

ORBITAL ENERGIES
----------------

  NO   OCC          E(Eh)            E(eV)
   0   2.0000     -88.044164     -2395.8035
   1   2.0000     -88.042813     -2395.7667
   2   2.0000     -87.989208     -2394.3081
   3   2.0000     -87.987606     -2394.2645
   4   2.0000     -76.426214     -2079.6630
   5   2.0000     -76.425273     -2079.6374
   6   2.0000     -18.793048      -511.3848
   7   2.0000     -18.792152      -511.3605
   8   2.0000     -18.787384      -511.2307
   9   2.0000     -18.785829      -511.1884
  10   2.0000      -9.955938      -270.9148
  11   2.0000      -9.951593      -270.7966
  12   2.0000      -9.951342      -270.7898
  13   2.0000      -9.950565      -270.7686
  14   2.0000      -9.949877      -270.7499
  15   2.0000      -9.887894      -269.0633
  16   2.0000      -9.883837      -268.9529
  17   2.0000      -9.875322      -268.7212
  18   2.0000      -9.875261      -268.7195
  19   2.0000      -7.689053      -209.2298
  20   2.0000      -7.687883      -209.1979
  21   2.0000      -7.634131      -207.7353
  22   2.0000      -7.632578      -207.6930
  23   2.0000      -6.423759      -174.7994
  24   2.0000      -6.422961      -174.7777
  25   2.0000      -5.716926      -155.5655
  26   2.0000      -5.715761      -155.5338
  27   2.0000      -5.713688      -155.4773
  28   2.0000      -5.712441      -155.4434
  29   2.0000      -5.705848      -155.2640
  30   2.0000      -5.704754      -155.2342
  31   2.0000      -5.662933      -154.0962
  32   2.0000      -5.661372      -154.0538
  33   2.0000      -5.654896      -153.8776
  34   2.0000      -5.654297      -153.8612
  35   2.0000      -5.653282      -153.8336
  36   2.0000      -5.652798      -153.8205
  37   2.0000      -4.646209      -126.4298
  38   2.0000      -4.645457      -126.4093
  39   2.0000      -4.645352      -126.4064
  40   2.0000      -4.644732      -126.3896
  41   2.0000      -4.644399      -126.3805
  42   2.0000      -4.643548      -126.3574
  43   2.0000      -0.985501       -26.8168
  44   2.0000      -0.984368       -26.7860
  45   2.0000      -0.943400       -25.6712
  46   2.0000      -0.942068       -25.6350
  47   2.0000      -0.766842       -20.8668
  48   2.0000      -0.721830       -19.6420
  49   2.0000      -0.707749       -19.2588
  50   2.0000      -0.685518       -18.6539
  51   2.0000      -0.683354       -18.5950
  52   2.0000      -0.672117       -18.2892
  53   2.0000      -0.649648       -17.6778
  54   2.0000      -0.639573       -17.4037
  55   2.0000      -0.600365       -16.3368
  56   2.0000      -0.588838       -16.0231
  57   2.0000      -0.572248       -15.5717
  58   2.0000      -0.566800       -15.4234
  59   2.0000      -0.556057       -15.1311
  60   2.0000      -0.506407       -13.7800
  61   2.0000      -0.499044       -13.5797
  62   2.0000      -0.474351       -12.9077
  63   2.0000      -0.468703       -12.7541
  64   2.0000      -0.459340       -12.4993
  65   2.0000      -0.440992       -12.0000
  66   2.0000      -0.438360       -11.9284
  67   2.0000      -0.432848       -11.7784
  68   2.0000      -0.429765       -11.6945
  69   2.0000      -0.415510       -11.3066
  70   2.0000      -0.407361       -11.0849
  71   2.0000      -0.393951       -10.7199
  72   2.0000      -0.385128       -10.4799
  73   2.0000      -0.380738       -10.3604
  74   2.0000      -0.379083       -10.3154
  75   2.0000      -0.377200       -10.2641
  76   2.0000      -0.370318       -10.0769
  77   2.0000      -0.354673        -9.6512
  78   2.0000      -0.353017        -9.6061
  79   2.0000      -0.348684        -9.4882
  80   2.0000      -0.345604        -9.4044
  81   2.0000      -0.343962        -9.3597
  82   2.0000      -0.339590        -9.2407
  83   2.0000      -0.337057        -9.1718
  84   2.0000      -0.334071        -9.0905
  85   2.0000      -0.315886        -8.5957
  86   2.0000      -0.301287        -8.1984
  87   2.0000      -0.299430        -8.1479
  88   2.0000      -0.296235        -8.0610
  89   2.0000      -0.291064        -7.9203
  90   2.0000      -0.280707        -7.6384
  91   2.0000      -0.278549        -7.5797
  92   2.0000      -0.266043        -7.2394
  93   2.0000      -0.264091        -7.1863
  94   2.0000      -0.260841        -7.0978
  95   2.0000      -0.232228        -6.3193
  96   2.0000      -0.218388        -5.9426
  97   2.0000      -0.214795        -5.8449
  98   2.0000      -0.207061        -5.6344
  99   2.0000      -0.201434        -5.4813
 100   2.0000      -0.200296        -5.4503
 101   0.0000      -0.046279        -1.2593
 102   0.0000      -0.025883        -0.7043
 103   0.0000      -0.000257        -0.0070
 104   0.0000       0.003724         0.1013
 105   0.0000       0.005626         0.1531

MULLIKEN ATOMIC CHARGES
-----------------------
   0 C :   -0.279914
   1 C :   -0.010714
   2 O :   -0.379994
   3 P :    0.621361
   4 S :   -0.341432
   5 O :   -0.355963
   6 C :   -0.002414
   7 C :   -0.294204
   8 S :   -0.077298
   9 C :   -0.359431
  10 S :   -0.069411
  11 P :    0.616675
  12 S :   -0.338879
  13 O :   -0.375263
  14 C :   -0.004598
  15 C :   -0.314077
  16 O :   -0.355902
  17 C :   -0.001463
  18 C :   -0.293427
  19 H :    0.117352
  20 H :    0.116305
  21 H :    0.112155
  22 H :    0.101543
  23 H :    0.105522
  24 H :    0.102576
  25 H :    0.103037
  26 H :    0.103329
  27 H :    0.127874
  28 H :    0.119589
  29 H :    0.189998
  30 H :    0.192070
  31 H :    0.111190
  32 H :    0.104703
  33 H :    0.118211
  34 H :    0.124547
  35 H :    0.113080
  36 H :    0.102555
  37 H :    0.101167
  38 H :    0.119220
  39 H :    0.103090
  40 H :    0.127236
Sum of atomic charges:   -0.0000000

LOEWDIN ATOMIC CHARGES
----------------------
   0 C :   -0.350402
   1 C :   -0.121254
   2 O :   -0.252485
   3 P :    0.567387
   4 S :   -0.329239
   5 O :   -0.232343
   6 C :   -0.110213
   7 C :   -0.363550
   8 S :    0.099503
   9 C :   -0.479595
  10 S :    0.111878
  11 P :    0.570018
  12 S :   -0.328394
  13 O :   -0.248323
  14 C :   -0.120237
  15 C :   -0.368788
  16 O :   -0.234594
  17 C :   -0.110811
  18 C :   -0.362769
  19 H :    0.127599
  20 H :    0.126689
  21 H :    0.130863
  22 H :    0.110036
  23 H :    0.107279
  24 H :    0.116960
  25 H :    0.108383
  26 H :    0.125780
  27 H :    0.122761
  28 H :    0.123509
  29 H :    0.131127
  30 H :    0.131698
  31 H :    0.109947
  32 H :    0.118443
  33 H :    0.124697
  34 H :    0.120332
  35 H :    0.130974
  36 H :    0.116777
  37 H :    0.107860
  38 H :    0.123372
  39 H :    0.125470
  40 H :    0.123656

  Mayer bond orders larger than 0.100000
B(  0-C ,  1-C ) :   1.1611 B(  0-C , 19-H ) :   0.9512 B(  0-C , 20-H ) :   0.9508
B(  0-C , 21-H ) :   0.9420 B(  1-C ,  2-O ) :   0.9067 B(  1-C , 22-H ) :   0.9293
B(  1-C , 23-H ) :   0.9082 B(  2-O ,  3-P ) :   1.1060 B(  3-P ,  4-S ) :   1.5912
B(  3-P ,  5-O ) :   1.1372 B(  3-P ,  8-S ) :   0.9672 B(  4-S ,  8-S ) :   0.1085
B(  5-O ,  6-C ) :   0.8928 B(  6-C ,  7-C ) :   1.1728 B(  6-C , 24-H ) :   0.9335
B(  6-C , 25-H ) :   0.9138 B(  7-C , 26-H ) :   0.9388 B(  7-C , 27-H ) :   0.9374
B(  7-C , 28-H ) :   0.9421 B(  8-S ,  9-C ) :   1.0062 B(  9-C , 10-S ) :   1.0050
B(  9-C , 29-H ) :   0.8864 B(  9-C , 30-H ) :   0.8843 B( 10-S , 11-P ) :   0.9610
B( 10-S , 12-S ) :   0.1088 B( 11-P , 12-S ) :   1.5819 B( 11-P , 13-O ) :   1.1068
B( 11-P , 16-O ) :   1.1302 B( 13-O , 14-C ) :   0.9106 B( 14-C , 15-C ) :   1.1646
B( 14-C , 31-H ) :   0.9150 B( 14-C , 32-H ) :   0.9339 B( 15-C , 33-H ) :   0.9451
B( 15-C , 34-H ) :   0.9361 B( 15-C , 35-H ) :   0.9381 B( 16-O , 17-C ) :   0.8954
B( 17-C , 18-C ) :   1.1720 B( 17-C , 36-H ) :   0.9338 B( 17-C , 37-H ) :   0.9142
B( 18-C , 38-H ) :   0.9425 B( 18-C , 39-H ) :   0.9394 B( 18-C , 40-H ) :   0.9380

Dispersion correction           -0.066912585
FINAL SINGLE POINT ENERGY     -2929.527944826035

DIPOLE MOMENT
-------------

Method             : SCF
Type of density    : Electron Density
Multiplicity       :   1
Irrep              :   0
Energy             : -2929.6452585139581970 Eh
Relativity type    :
Basis              : AO
                                X                 Y                 Z
Electronic contribution:     -1.720102553       8.504966863      -6.189145488
Nuclear contribution   :      1.653062063      -9.178853665       6.686480460
                        -----------------------------------------
Total Dipole Moment    :     -0.067040489      -0.673886802       0.497334972
                        -----------------------------------------
Magnitude (a.u.)       :      0.840214213
Magnitude (Debye)      :      2.135654806

Rotational constants in cm-1:             0.013156             0.005132             0.004839
Rotational constants in MHz :           394.419448           153.857046           145.083046

                             ****ORCA TERMINATED NORMALLY****
TOTAL RUN TIME: 0 days 0 hours 0 minutes 21 seconds 668 msec
