                         Program Version 6.0.0  -   RELEASE  -
|  1> ! pbe def2-sv(p) def2/J RI DEFGRID1 loosescf d4 GCP(DFT/SV(P)) printgap
|  2> %output
|  3>     printlevel normal
|  4> end
|  5> * xyz 0 1
|  6> C 4.449742342 0.6036101663 -2.1217817711
|  7> C 4.6575843149 0.2397443265 -0.6654101957
|  8> O 3.5124246709 -0.4262278086 -0.113265421
|  9> P 2.1367466657 0.3415585353 0.1663747605
| 10> S 2.3854460617 2.1767531896 0.8040684601
| 11> O 1.4222516043 -0.7026734075 1.1120244116
| 12> C 1.8033457968 -0.8819847653 2.4952852645
| 13> C 0.9378176003 -0.030493023 3.4017630459
| 14> S 0.9595458232 0.1280069373 -1.5769588986
| 15> C 0.5021297025 -1.6243103427 -1.5235697597
| 16> S -0.73259187 -2.0586039477 -0.251142546
| 17> P -1.9381289092 -0.336461338 -0.3038732726
| 18> S -2.5173960167 0.3260091027 -2.0607821656
| 19> O -1.1339365736 0.6725993092 0.6205098718
| 20> C -1.3382490846 2.0964065294 0.5255424012
| 21> C -2.6961528449 2.5005105195 1.0558072619
| 22> O -3.1254462563 -0.754822947 0.6648592538
| 23> C -4.2167519468 -1.5846031939 0.2166962423
| 24> C -5.3861113408 -1.3685994355 1.1561189242
| 25> H 3.6416953907 1.3301443549 -2.2100480077
| 26> H 5.3607603076 1.0410416822 -2.5171542733
| 27> H 4.1913366852 -0.2779927826 -2.7024913143
| 28> H 4.8558939247 1.1376083311 -0.071009161
| 29> H 5.4695275362 -0.477601272 -0.5387309776
| 30> H 1.6454411541 -1.9463502237 2.6789713727
| 31> H 2.8626546984 -0.6387556866 2.6117450653
| 32> H -0.1120530395 -0.2294921835 3.2008442049
| 33> H 1.1595353288 -0.2671491147 4.437486474
| 34> H 1.1326574759 1.0256437347 3.2273878191
| 35> H 1.3788184362 -2.2351783534 -1.3227594735
| 36> H 0.0864261774 -1.8347749039 -2.5074225142
| 37> H -0.5232123935 2.524641052 1.1125626663
| 38> H -1.2228773026 2.3944586313 -0.5227028596
| 39> H -3.4763045824 2.0810699778 0.4213270651
| 40> H -2.8279251465 2.1327994407 2.0698691398
| 41> H -2.7759114657 3.5829475231 1.047574512
| 42> H -4.4687802874 -1.3029284356 -0.8114032587
| 43> H -3.8796930036 -2.6243902052 0.230726862
| 44> H -5.7121969459 -0.3329908075 1.1187140513
| 45> H -6.2060926763 -2.0126644374 0.8560999586
| 46> H -5.0922096788 -1.6086811998 2.1737228168
| 47> *
| 48>
| 49>                          ****END OF INPUT****

CARTESIAN COORDINATES (ANGSTROEM)
---------------------------------
  C      4.449742    0.603610   -2.121782
  C      4.657584    0.239744   -0.665410
  O      3.512425   -0.426228   -0.113265
  P      2.136747    0.341559    0.166375
  S      2.385446    2.176753    0.804068
  O      1.422252   -0.702673    1.112024
  C      1.803346   -0.881985    2.495285
  C      0.937818   -0.030493    3.401763
  S      0.959546    0.128007   -1.576959
  C      0.502130   -1.624310   -1.523570
  S     -0.732592   -2.058604   -0.251143
  P     -1.938129   -0.336461   -0.303873
  S     -2.517396    0.326009   -2.060782
  O     -1.133937    0.672599    0.620510
  C     -1.338249    2.096407    0.525542
  C     -2.696153    2.500511    1.055807
  O     -3.125446   -0.754823    0.664859
  C     -4.216752   -1.584603    0.216696
  C     -5.386111   -1.368599    1.156119
  H      3.641695    1.330144   -2.210048
  H      5.360760    1.041042   -2.517154
  H      4.191337   -0.277993   -2.702491
  H      4.855894    1.137608   -0.071009
  H      5.469528   -0.477601   -0.538731
  H      1.645441   -1.946350    2.678971
  H      2.862655   -0.638756    2.611745
  H     -0.112053   -0.229492    3.200844
  H      1.159535   -0.267149    4.437486
  H      1.132657    1.025644    3.227388
  H      1.378818   -2.235178   -1.322759
  H      0.086426   -1.834775   -2.507423
  H     -0.523212    2.524641    1.112563
  H     -1.222877    2.394459   -0.522703
  H     -3.476305    2.081070    0.421327
  H     -2.827925    2.132799    2.069869
  H     -2.775911    3.582948    1.047575
  H     -4.468780   -1.302928   -0.811403
  H     -3.879693   -2.624390    0.230727
  H     -5.712197   -0.332991    1.118714
  H     -6.206093   -2.012664    0.856100
  H     -5.092210   -1.608681    2.173723

 Total Charge           Charge          ....    0
 Multiplicity           Mult            ....    1
 Number of Electrons    NEL             ....  202
 Basis Dimension        Dim             ....  334

ORBITAL ENERGIES
----------------

  NO   OCC          E(Eh)            E(eV)
   0   2.0000     -88.045983     -2395.8530
   1   2.0000     -88.038241     -2395.6423
   2   2.0000     -87.990996     -2394.3567
   3   2.0000     -87.981617     -2394.1015
   4   2.0000     -76.427441     -2079.6964
   5   2.0000     -76.423282     -2079.5832
   6   2.0000     -18.792046      -511.3576
   7   2.0000     -18.791485      -511.3423
   8   2.0000     -18.789515      -511.2887
   9   2.0000     -18.784341      -511.1479
  10   2.0000      -9.962300      -271.0880
  11   2.0000      -9.954942      -270.8878
  12   2.0000      -9.951291      -270.7884
  13   2.0000      -9.950910      -270.7780
  14   2.0000      -9.937125      -270.4029
  15   2.0000      -9.887403      -269.0499
  16   2.0000      -9.884413      -268.9686
  17   2.0000      -9.878326      -268.8029
  18   2.0000      -9.874938      -268.7107
  19   2.0000      -7.690571      -209.2711
  20   2.0000      -7.683679      -209.0835
  21   2.0000      -7.636029      -207.7869
  22   2.0000      -7.626622      -207.5309
  23   2.0000      -6.425025      -174.8338
  24   2.0000      -6.420458      -174.7095
  25   2.0000      -5.718976      -155.6212
  26   2.0000      -5.714812      -155.5079
  27   2.0000      -5.711796      -155.4259
  28   2.0000      -5.708263      -155.3297
  29   2.0000      -5.707265      -155.3026
  30   2.0000      -5.700242      -155.1115
  31   2.0000      -5.664847      -154.1483
  32   2.0000      -5.656857      -153.9309
  33   2.0000      -5.656073      -153.9096
  34   2.0000      -5.655520      -153.8945
  35   2.0000      -5.647240      -153.6692
  36   2.0000      -5.646858      -153.6588
  37   2.0000      -4.647519      -126.4654
  38   2.0000      -4.646951      -126.4500
  39   2.0000      -4.645458      -126.4093
  40   2.0000      -4.642847      -126.3383
  41   2.0000      -4.642329      -126.3242
  42   2.0000      -4.641040      -126.2891
  43   2.0000      -0.987534       -26.8722
  44   2.0000      -0.982729       -26.7414
  45   2.0000      -0.944414       -25.6988
  46   2.0000      -0.940945       -25.6044
  47   2.0000      -0.764356       -20.7992
  48   2.0000      -0.720508       -19.6060
  49   2.0000      -0.706802       -19.2331
  50   2.0000      -0.685440       -18.6518
  51   2.0000      -0.682299       -18.5663
  52   2.0000      -0.672581       -18.3018
  53   2.0000      -0.652631       -17.7590
  54   2.0000      -0.637472       -17.3465
  55   2.0000      -0.596864       -16.2415
  56   2.0000      -0.589359       -16.0373
  57   2.0000      -0.575284       -15.6543
  58   2.0000      -0.567414       -15.4401
  59   2.0000      -0.558346       -15.1934
  60   2.0000      -0.502603       -13.6765
  61   2.0000      -0.499633       -13.5957
  62   2.0000      -0.471132       -12.8202
  63   2.0000      -0.468899       -12.7594
  64   2.0000      -0.459997       -12.5172
  65   2.0000      -0.441226       -12.0064
  66   2.0000      -0.438819       -11.9409
  67   2.0000      -0.430357       -11.7106
  68   2.0000      -0.425488       -11.5781
  69   2.0000      -0.417236       -11.3536
  70   2.0000      -0.408801       -11.1240
  71   2.0000      -0.398576       -10.8458
  72   2.0000      -0.388663       -10.5761
  73   2.0000      -0.386716       -10.5231
  74   2.0000      -0.378955       -10.3119
  75   2.0000      -0.370639       -10.0856
  76   2.0000      -0.369840       -10.0639
  77   2.0000      -0.355963        -9.6862
  78   2.0000      -0.353254        -9.6125
  79   2.0000      -0.349520        -9.5109
  80   2.0000      -0.346693        -9.4340
  81   2.0000      -0.343148        -9.3375
  82   2.0000      -0.338850        -9.2206
  83   2.0000      -0.337010        -9.1705
  84   2.0000      -0.327023        -8.8988
  85   2.0000      -0.316981        -8.6255
  86   2.0000      -0.308400        -8.3920
  87   2.0000      -0.298790        -8.1305
  88   2.0000      -0.296632        -8.0718
  89   2.0000      -0.293827        -7.9954
  90   2.0000      -0.279844        -7.6150
  91   2.0000      -0.273261        -7.4358
  92   2.0000      -0.266055        -7.2397
  93   2.0000      -0.262545        -7.1442
  94   2.0000      -0.259780        -7.0690
  95   2.0000      -0.229251        -6.2382
  96   2.0000      -0.220724        -6.0062
  97   2.0000      -0.211615        -5.7583
  98   2.0000      -0.205703        -5.5975
  99   2.0000      -0.194962        -5.3052
 100   2.0000      -0.194068        -5.2809
 101   0.0000      -0.046909        -1.2765
 102   0.0000      -0.026753        -0.7280
 103   0.0000      -0.010448        -0.2843
 104   0.0000       0.002842         0.0773
 105   0.0000       0.015131         0.4117

MULLIKEN ATOMIC CHARGES
-----------------------
   0 C :   -0.307763
   1 C :   -0.008435
   2 O :   -0.380845
   3 P :    0.628564
   4 S :   -0.325855
   5 O :   -0.365374
   6 C :   -0.000159
   7 C :   -0.297698
   8 S :   -0.075303
   9 C :   -0.320220
  10 S :   -0.096264
  11 P :    0.614400
  12 S :   -0.334488
  13 O :   -0.362595
  14 C :   -0.018144
  15 C :   -0.301350
  16 O :   -0.377022
  17 C :   -0.011498
  18 C :   -0.282062
  19 H :    0.124647
  20 H :    0.112820
  21 H :    0.112596
  22 H :    0.110781
  23 H :    0.102685
  24 H :    0.104788
  25 H :    0.101349
  26 H :    0.125561
  27 H :    0.104528
  28 H :    0.126020
  29 H :    0.179940
  30 H :    0.192122
  31 H :    0.116763
  32 H :    0.112376
  33 H :    0.118130
  34 H :    0.111392
  35 H :    0.110351
  36 H :    0.105958
  37 H :    0.100953
  38 H :    0.120855
  39 H :    0.111603
  40 H :    0.115894
Sum of atomic charges:   -0.0000000

LOEWDIN ATOMIC CHARGES
----------------------
   0 C :   -0.366279
   1 C :   -0.123818
   2 O :   -0.255009
   3 P :    0.569964
   4 S :   -0.310741
   5 O :   -0.237025
   6 C :   -0.107808
   7 C :   -0.362835
   8 S :    0.116881
   9 C :   -0.465870
  10 S :    0.078655
  11 P :    0.565231
  12 S :   -0.333661
  13 O :   -0.234531
  14 C :   -0.127077
  15 C :   -0.364952
  16 O :   -0.248251
  17 C :   -0.121630
  18 C :   -0.350456
  19 H :    0.120122
  20 H :    0.130684
  21 H :    0.123103
  22 H :    0.108425
  23 H :    0.117107
  24 H :    0.118730
  25 H :    0.109665
  26 H :    0.128716
  27 H :    0.126763
  28 H :    0.123644
  29 H :    0.134666
  30 H :    0.139672
  31 H :    0.112854
  32 H :    0.109877
  33 H :    0.118819
  34 H :    0.123541
  35 H :    0.129937
  36 H :    0.107766
  37 H :    0.109471
  38 H :    0.128425
  39 H :    0.130662
  40 H :    0.126563

  Mayer bond orders larger than 0.100000
B(  0-C ,  1-C ) :   1.1629 B(  0-C , 19-H ) :   0.9367 B(  0-C , 20-H ) :   0.9390
B(  0-C , 21-H ) :   0.9461 B(  1-C ,  2-O ) :   0.9177 B(  1-C , 22-H ) :   0.9128
B(  1-C , 23-H ) :   0.9334 B(  2-O ,  3-P ) :   1.0695 B(  3-P ,  4-S ) :   1.6244
B(  3-P ,  5-O ) :   1.1293 B(  3-P ,  8-S ) :   0.9557 B(  5-O ,  6-C ) :   0.8892
B(  6-C ,  7-C ) :   1.1725 B(  6-C , 24-H ) :   0.9339 B(  6-C , 25-H ) :   0.9190
B(  7-C , 26-H ) :   0.9414 B(  7-C , 27-H ) :   0.9388 B(  7-C , 28-H ) :   0.9351
B(  8-S ,  9-C ) :   1.0033 B(  9-C , 10-S ) :   0.9784 B(  9-C , 29-H ) :   0.9075
B(  9-C , 30-H ) :   0.9029 B( 10-S , 11-P ) :   0.9821 B( 10-S , 12-S ) :   0.1117
B( 11-P , 12-S ) :   1.6002 B( 11-P , 13-O ) :   1.1168 B( 11-P , 16-O ) :   1.1037
B( 13-O , 14-C ) :   0.8901 B( 14-C , 15-C ) :   1.1624 B( 14-C , 31-H ) :   0.9176
B( 14-C , 32-H ) :   0.9160 B( 15-C , 33-H ) :   0.9339 B( 15-C , 34-H ) :   0.9469
B( 15-C , 35-H ) :   0.9398 B( 16-O , 17-C ) :   0.9051 B( 17-C , 18-C ) :   1.1606
B( 17-C , 36-H ) :   0.9067 B( 17-C , 37-H ) :   0.9301 B( 18-C , 38-H ) :   0.9513
B( 18-C , 39-H ) :   0.9420 B( 18-C , 40-H ) :   0.9504

Dispersion correction           -0.067465705
FINAL SINGLE POINT ENERGY     -2929.519760039882

DIPOLE MOMENT
-------------

Method             : SCF
Type of density    : Electron Density
Multiplicity       :   1
Irrep              :   0
Energy             : -2929.6376483836970692 Eh
Relativity type    :
Basis              : AO
                                X                 Y                 Z
Electronic contribution:      4.817948842      -2.399198347     -10.849948037
Nuclear contribution   :     -4.403723892       1.331995166      11.488384539
                        -----------------------------------------
Total Dipole Moment    :      0.414224950      -1.067203181       0.638436502
                        -----------------------------------------
Magnitude (a.u.)       :      1.310765466
Magnitude (Debye)      :      3.331701039

Rotational constants in cm-1:             0.013177             0.005246             0.004983
Rotational constants in MHz :           395.028133           157.265883           149.384916

                             ****ORCA TERMINATED NORMALLY****
TOTAL RUN TIME: 0 days 0 hours 0 minutes 21 seconds 863 msec
