                         Program Version 6.0.0  -   RELEASE  -
|  1> ! pbe def2-sv(p) def2/J RI DEFGRID1 loosescf d4 GCP(DFT/SV(P)) printgap
|  2> %output
|  3>     printlevel normal
|  4> end
|  5> * xyz 0 1
|  6> C 2.2223969213 1.6328188303 2.6211409838
|  7> C 1.4544155589 0.4265507302 2.1199650046
|  8> O 1.9996200892 0.0637403068 0.8398489141
|  9> P 1.8941059835 -1.3955766267 0.2143540746
| 10> S 1.9189598897 -2.8560562524 1.5169526075
| 11> O 3.049180181 -1.3636041851 -0.8705700339
| 12> C 4.3952181856 -1.7845395298 -0.5621207196
| 13> C 5.0545446763 -0.8791104849 0.4563953398
| 14> S 0.2338932525 -1.3677920511 -1.0921077403
| 15> C 0.5046605185 0.234688354 -1.9042720635
| 16> S 0.0241238474 1.6608978224 -0.8848435505
| 17> P -1.9425130468 1.0502026133 -0.4636071458
| 18> S -2.9417843516 0.1327194758 -1.8846876404
| 19> O -2.6399619555 2.3790006044 0.0604439019
| 20> C -3.1865316494 3.3662826981 -0.8388247264
| 21> C -4.2291476903 4.1636557059 -0.0815631422
| 22> O -1.7300378562 0.2739065166 0.9040549347
| 23> C -2.7563347946 -0.5706081631 1.4762204312
| 24> C -2.4139734793 -2.0327095921 1.2709324212
| 25> H 1.8034928995 1.9507840132 3.5701303811
| 26> H 3.2708934145 1.3835063975 2.7571429742
| 27> H 2.1403668728 2.4423489591 1.9010896244
| 28> H 0.3943579863 0.6613902805 1.9911891656
| 29> H 1.5507816321 -0.4300458048 2.7959620198
| 30> H 4.3573958179 -2.8150656218 -0.1960268593
| 31> H 4.9032538626 -1.7512554726 -1.5268102795
| 32> H 4.9987016836 0.1569122729 0.1324982879
| 33> H 4.5513490731 -0.9787956076 1.4173180267
| 34> H 6.0946962582 -1.1672096739 0.572771647
| 35> H -0.114342065 0.211978684 -2.7999366886
| 36> H 1.5565570685 0.3560140793 -2.1473864378
| 37> H -2.3659979816 4.0030360106 -1.1784617614
| 38> H -3.6230231078 2.8493164586 -1.7000850398
| 39> H -5.0363108261 3.5132734115 0.2436288385
| 40> H -3.778455475 4.6286033252 0.7903805221
| 41> H -4.6304152627 4.9326648633 -0.7334045823
| 42> H -2.7784505152 -0.3093384902 2.535395186
| 43> H -3.7180959014 -0.3286084812 1.0159890012
| 44> H -3.1489058068 -2.6477176207 1.7800164346
| 45> H -2.4177173648 -2.2765173839 0.2102815734
| 46> H -1.4263481204 -2.2527337939 1.6712509811
| 47> *
| 48>
| 49>                          ****END OF INPUT****

CARTESIAN COORDINATES (ANGSTROEM)
---------------------------------
  C      2.222397    1.632819    2.621141
  C      1.454416    0.426551    2.119965
  O      1.999620    0.063740    0.839849
  P      1.894106   -1.395577    0.214354
  S      1.918960   -2.856056    1.516953
  O      3.049180   -1.363604   -0.870570
  C      4.395218   -1.784540   -0.562121
  C      5.054545   -0.879110    0.456395
  S      0.233893   -1.367792   -1.092108
  C      0.504661    0.234688   -1.904272
  S      0.024124    1.660898   -0.884844
  P     -1.942513    1.050203   -0.463607
  S     -2.941784    0.132719   -1.884688
  O     -2.639962    2.379001    0.060444
  C     -3.186532    3.366283   -0.838825
  C     -4.229148    4.163656   -0.081563
  O     -1.730038    0.273907    0.904055
  C     -2.756335   -0.570608    1.476220
  C     -2.413973   -2.032710    1.270932
  H      1.803493    1.950784    3.570130
  H      3.270893    1.383506    2.757143
  H      2.140367    2.442349    1.901090
  H      0.394358    0.661390    1.991189
  H      1.550782   -0.430046    2.795962
  H      4.357396   -2.815066   -0.196027
  H      4.903254   -1.751255   -1.526810
  H      4.998702    0.156912    0.132498
  H      4.551349   -0.978796    1.417318
  H      6.094696   -1.167210    0.572772
  H     -0.114342    0.211979   -2.799937
  H      1.556557    0.356014   -2.147386
  H     -2.365998    4.003036   -1.178462
  H     -3.623023    2.849316   -1.700085
  H     -5.036311    3.513273    0.243629
  H     -3.778455    4.628603    0.790381
  H     -4.630415    4.932665   -0.733405
  H     -2.778451   -0.309338    2.535395
  H     -3.718096   -0.328608    1.015989
  H     -3.148906   -2.647718    1.780016
  H     -2.417717   -2.276517    0.210282
  H     -1.426348   -2.252734    1.671251

 Total Charge           Charge          ....    0
 Multiplicity           Mult            ....    1
 Number of Electrons    NEL             ....  202
 Basis Dimension        Dim             ....  334

ORBITAL ENERGIES
----------------

  NO   OCC          E(Eh)            E(eV)
   0   2.0000     -88.045496     -2395.8398
   1   2.0000     -88.039951     -2395.6889
   2   2.0000     -87.990217     -2394.3355
   3   2.0000     -87.988963     -2394.3014
   4   2.0000     -76.429454     -2079.7512
   5   2.0000     -76.425010     -2079.6302
   6   2.0000     -18.795334      -511.4471
   7   2.0000     -18.793015      -511.3839
   8   2.0000     -18.791942      -511.3547
   9   2.0000     -18.790251      -511.3087
  10   2.0000      -9.959350      -271.0077
  11   2.0000      -9.954613      -270.8788
  12   2.0000      -9.954343      -270.8714
  13   2.0000      -9.951397      -270.7913
  14   2.0000      -9.943241      -270.5693
  15   2.0000      -9.890331      -269.1296
  16   2.0000      -9.886636      -269.0290
  17   2.0000      -9.883440      -268.9421
  18   2.0000      -9.873430      -268.6697
  19   2.0000      -7.690849      -209.2786
  20   2.0000      -7.684823      -209.1147
  21   2.0000      -7.635172      -207.7636
  22   2.0000      -7.634047      -207.7330
  23   2.0000      -6.426896      -174.8847
  24   2.0000      -6.422998      -174.7787
  25   2.0000      -5.718721      -155.6143
  26   2.0000      -5.715367      -155.5230
  27   2.0000      -5.713110      -155.4616
  28   2.0000      -5.709164      -155.3542
  29   2.0000      -5.707722      -155.3150
  30   2.0000      -5.701520      -155.1463
  31   2.0000      -5.664017      -154.1257
  32   2.0000      -5.662922      -154.0959
  33   2.0000      -5.655896      -153.9047
  34   2.0000      -5.655346      -153.8898
  35   2.0000      -5.654712      -153.8725
  36   2.0000      -5.654212      -153.8589
  37   2.0000      -4.649378      -126.5160
  38   2.0000      -4.648677      -126.4969
  39   2.0000      -4.647441      -126.4633
  40   2.0000      -4.645317      -126.4055
  41   2.0000      -4.644992      -126.3967
  42   2.0000      -4.643455      -126.3548
  43   2.0000      -0.988208       -26.8905
  44   2.0000      -0.986268       -26.8377
  45   2.0000      -0.945925       -25.7399
  46   2.0000      -0.944569       -25.7030
  47   2.0000      -0.765914       -20.8416
  48   2.0000      -0.724666       -19.7192
  49   2.0000      -0.709882       -19.3169
  50   2.0000      -0.687655       -18.7121
  51   2.0000      -0.686466       -18.6797
  52   2.0000      -0.671714       -18.2783
  53   2.0000      -0.653285       -17.7768
  54   2.0000      -0.639971       -17.4145
  55   2.0000      -0.598896       -16.2968
  56   2.0000      -0.592334       -16.1182
  57   2.0000      -0.572406       -15.5760
  58   2.0000      -0.563830       -15.3426
  59   2.0000      -0.560244       -15.2450
  60   2.0000      -0.510006       -13.8780
  61   2.0000      -0.500160       -13.6101
  62   2.0000      -0.477917       -13.0048
  63   2.0000      -0.477198       -12.9852
  64   2.0000      -0.461579       -12.5602
  65   2.0000      -0.446478       -12.1493
  66   2.0000      -0.436337       -11.8733
  67   2.0000      -0.434711       -11.8291
  68   2.0000      -0.426939       -11.6176
  69   2.0000      -0.415202       -11.2982
  70   2.0000      -0.411764       -11.2047
  71   2.0000      -0.400972       -10.9110
  72   2.0000      -0.386944       -10.5293
  73   2.0000      -0.381483       -10.3807
  74   2.0000      -0.380109       -10.3433
  75   2.0000      -0.376677       -10.2499
  76   2.0000      -0.365553        -9.9472
  77   2.0000      -0.356604        -9.7037
  78   2.0000      -0.355352        -9.6696
  79   2.0000      -0.353997        -9.6327
  80   2.0000      -0.348464        -9.4822
  81   2.0000      -0.345923        -9.4130
  82   2.0000      -0.342603        -9.3227
  83   2.0000      -0.338221        -9.2035
  84   2.0000      -0.332223        -9.0402
  85   2.0000      -0.320466        -8.7203
  86   2.0000      -0.306144        -8.3306
  87   2.0000      -0.302378        -8.2281
  88   2.0000      -0.294795        -8.0218
  89   2.0000      -0.291108        -7.9214
  90   2.0000      -0.286888        -7.8066
  91   2.0000      -0.278643        -7.5823
  92   2.0000      -0.275709        -7.5024
  93   2.0000      -0.265932        -7.2364
  94   2.0000      -0.256777        -6.9873
  95   2.0000      -0.232498        -6.3266
  96   2.0000      -0.218263        -5.9392
  97   2.0000      -0.209351        -5.6967
  98   2.0000      -0.208509        -5.6738
  99   2.0000      -0.204959        -5.5772
 100   2.0000      -0.202179        -5.5016
 101   0.0000      -0.045551        -1.2395
 102   0.0000      -0.018586        -0.5058
 103   0.0000      -0.009006        -0.2451
 104   0.0000       0.003270         0.0890
 105   0.0000       0.010003         0.2722

MULLIKEN ATOMIC CHARGES
-----------------------
   0 C :   -0.284686
   1 C :   -0.026459
   2 O :   -0.380718
   3 P :    0.619240
   4 S :   -0.321787
   5 O :   -0.380967
   6 C :   -0.001711
   7 C :   -0.315277
   8 S :   -0.057724
   9 C :   -0.351942
  10 S :   -0.086645
  11 P :    0.611550
  12 S :   -0.330651
  13 O :   -0.377054
  14 C :   -0.010443
  15 C :   -0.281010
  16 O :   -0.363646
  17 C :   -0.003867
  18 C :   -0.292766
  19 H :    0.108454
  20 H :    0.112721
  21 H :    0.113269
  22 H :    0.121462
  23 H :    0.104884
  24 H :    0.114298
  25 H :    0.106194
  26 H :    0.117552
  27 H :    0.126889
  28 H :    0.113440
  29 H :    0.194857
  30 H :    0.186323
  31 H :    0.100942
  32 H :    0.106923
  33 H :    0.118237
  34 H :    0.116483
  35 H :    0.112918
  36 H :    0.105560
  37 H :    0.102073
  38 H :    0.105273
  39 H :    0.130589
  40 H :    0.117224
Sum of atomic charges:    0.0000000

LOEWDIN ATOMIC CHARGES
----------------------
   0 C :   -0.350771
   1 C :   -0.130598
   2 O :   -0.244730
   3 P :    0.566265
   4 S :   -0.318926
   5 O :   -0.249345
   6 C :   -0.114132
   7 C :   -0.367018
   8 S :    0.110187
   9 C :   -0.473672
  10 S :    0.088559
  11 P :    0.565109
  12 S :   -0.324287
  13 O :   -0.251514
  14 C :   -0.120762
  15 C :   -0.350452
  16 O :   -0.238958
  17 C :   -0.111550
  18 C :   -0.362884
  19 H :    0.129295
  20 H :    0.123254
  21 H :    0.124617
  22 H :    0.108836
  23 H :    0.104529
  24 H :    0.113770
  25 H :    0.119356
  26 H :    0.126009
  27 H :    0.122171
  28 H :    0.131097
  29 H :    0.136249
  30 H :    0.135187
  31 H :    0.110534
  32 H :    0.107554
  33 H :    0.127959
  34 H :    0.126739
  35 H :    0.131292
  36 H :    0.117279
  37 H :    0.108569
  38 H :    0.127369
  39 H :    0.125358
  40 H :    0.122458

  Mayer bond orders larger than 0.100000
B(  0-C ,  1-C ) :   1.1609 B(  0-C , 19-H ) :   0.9425 B(  0-C , 20-H ) :   0.9511
B(  0-C , 21-H ) :   0.9493 B(  1-C ,  2-O ) :   0.8917 B(  1-C , 22-H ) :   0.9061
B(  1-C , 23-H ) :   0.9098 B(  2-O ,  3-P ) :   1.0980 B(  3-P ,  4-S ) :   1.6337
B(  3-P ,  5-O ) :   1.1006 B(  3-P ,  8-S ) :   0.9741 B(  5-O ,  6-C ) :   0.9074
B(  6-C ,  7-C ) :   1.1623 B(  6-C , 24-H ) :   0.9205 B(  6-C , 25-H ) :   0.9359
B(  7-C , 26-H ) :   0.9454 B(  7-C , 27-H ) :   0.9330 B(  7-C , 28-H ) :   0.9370
B(  8-S ,  9-C ) :   0.9963 B(  9-C , 10-S ) :   0.9856 B(  9-C , 29-H ) :   0.8922
B(  9-C , 30-H ) :   0.8983 B( 10-S , 11-P ) :   0.9790 B( 10-S , 12-S ) :   0.1117
B( 11-P , 12-S ) :   1.5999 B( 11-P , 13-O ) :   1.1124 B( 11-P , 16-O ) :   1.1157
B( 13-O , 14-C ) :   0.9041 B( 14-C , 15-C ) :   1.1612 B( 14-C , 31-H ) :   0.9304
B( 14-C , 32-H ) :   0.9067 B( 15-C , 33-H ) :   0.9512 B( 15-C , 34-H ) :   0.9508
B( 15-C , 35-H ) :   0.9419 B( 16-O , 17-C ) :   0.8833 B( 17-C , 18-C ) :   1.1729
B( 17-C , 36-H ) :   0.9339 B( 17-C , 37-H ) :   0.9127 B( 18-C , 38-H ) :   0.9388
B( 18-C , 39-H ) :   0.9383 B( 18-C , 40-H ) :   0.9370

Dispersion correction           -0.065060948
FINAL SINGLE POINT ENERGY     -2929.526240084586

DIPOLE MOMENT
-------------

Method             : SCF
Type of density    : Electron Density
Multiplicity       :   1
Irrep              :   0
Energy             : -2929.6460665509407590 Eh
Relativity type    :
Basis              : AO
                                X                 Y                 Z
Electronic contribution:     -2.100328624     -10.374215131     -12.296845193
Nuclear contribution   :      2.499477564      11.781388368      12.597212812
                        -----------------------------------------
Total Dipole Moment    :      0.399148939       1.407173236       0.300367619
                        -----------------------------------------
Magnitude (a.u.)       :      1.493210333
Magnitude (Debye)      :      3.795439038

Rotational constants in cm-1:             0.013428             0.004771             0.004580
Rotational constants in MHz :           402.562557           143.029067           137.310136

                             ****ORCA TERMINATED NORMALLY****
TOTAL RUN TIME: 0 days 0 hours 0 minutes 21 seconds 373 msec
