                         Program Version 6.0.1  -  RELEASE   -
|  1> ! pbe def2-sv(p) def2/J RI DEFGRID1 loosescf d4 GCP(DFT/SV(P)) printgap
|  2> %output
|  3>     printlevel normal
|  4> end
|  5> * xyz 0 1
|  6> C 4.4848738629 -3.2461054028 -1.5699050266
|  7> C 3.0471290937 -2.909265507 -1.9329693101
|  8> O 2.6429324951 -1.6638172808 -1.3337231845
|  9> C 2.1586565075 -1.6847380474 -0.1088461736
| 10> O 2.0269613975 -2.6803892558 0.5660166243
| 11> C 1.7755744179 -0.2933225019 0.3659509164
| 12> C 0.9784812652 0.4511966564 -0.7058793417
| 13> H 1.6045114127 0.6298041023 -1.5827090677
| 14> C 0.4450880898 1.7605347594 -0.1657879672
| 15> O -0.7492004416 1.9746584154 -0.0504548999
| 16> O 1.3824049948 2.5915903655 0.1689962188
| 17> C 0.9925832704 3.8568561089 0.7556440835
| 18> C 2.2572027393 4.6073956334 1.1190721481
| 19> S -0.445942065 -0.5195239428 -1.3152095046
| 20> P -1.8569595217 -0.2038060507 0.2250681808
| 21> S -1.4241299231 0.1081291552 2.1238123615
| 22> O -3.1259311817 0.5990779273 -0.3221978765
| 23> C -3.5035983555 1.9288248073 0.0341141036
| 24> O -2.4203771944 -1.6945157722 0.0028541049
| 25> C -3.5064561897 -2.2048643855 0.7790209013
| 26> H 4.7828902753 -4.1509729171 -2.08899106
| 27> H 5.1444576092 -2.4327536415 -1.8589844244
| 28> H 4.5704822219 -3.4104119132 -0.4981709903
| 29> H 2.3660461549 -3.6953394929 -1.5952386413
| 30> H 2.9332802038 -2.7437954006 -3.0042299342
| 31> H 2.6863474211 0.2675535221 0.5847578364
| 32> H 1.1956510094 -0.4017088018 1.2854515889
| 33> H 0.3915012477 4.401280673 0.0221484018
| 34> H 0.3708890743 3.648038006 1.6313266532
| 35> H 2.8319955921 4.0436621369 1.8472513858
| 36> H 2.8655197592 4.7637445597 0.2336417141
| 37> H 1.9900851468 5.5688435223 1.5444946966
| 38> H -3.0734101228 2.6314176415 -0.6760755013
| 39> H -3.1534144797 2.161411082 1.0406421408
| 40> H -4.5904566372 1.9493272374 -0.0079010731
| 41> H -3.3455340062 -1.9884044904 1.8375802856
| 42> H -3.5105606713 -3.2787311945 0.6099333836
| 43> H -4.44415049 -1.7592885908 0.448166297
| 44> *
| 45>
| 46>                          ****END OF INPUT****

CARTESIAN COORDINATES (ANGSTROEM)
---------------------------------
  C      4.484874   -3.246105   -1.569905
  C      3.047129   -2.909266   -1.932969
  O      2.642932   -1.663817   -1.333723
  C      2.158657   -1.684738   -0.108846
  O      2.026961   -2.680389    0.566017
  C      1.775574   -0.293323    0.365951
  C      0.978481    0.451197   -0.705879
  H      1.604511    0.629804   -1.582709
  C      0.445088    1.760535   -0.165788
  O     -0.749200    1.974658   -0.050455
  O      1.382405    2.591590    0.168996
  C      0.992583    3.856856    0.755644
  C      2.257203    4.607396    1.119072
  S     -0.445942   -0.519524   -1.315210
  P     -1.856960   -0.203806    0.225068
  S     -1.424130    0.108129    2.123812
  O     -3.125931    0.599078   -0.322198
  C     -3.503598    1.928825    0.034114
  O     -2.420377   -1.694516    0.002854
  C     -3.506456   -2.204864    0.779021
  H      4.782890   -4.150973   -2.088991
  H      5.144458   -2.432754   -1.858984
  H      4.570482   -3.410412   -0.498171
  H      2.366046   -3.695339   -1.595239
  H      2.933280   -2.743795   -3.004230
  H      2.686347    0.267554    0.584758
  H      1.195651   -0.401709    1.285452
  H      0.391501    4.401281    0.022148
  H      0.370889    3.648038    1.631327
  H      2.831996    4.043662    1.847251
  H      2.865520    4.763745    0.233642
  H      1.990085    5.568844    1.544495
  H     -3.073410    2.631418   -0.676076
  H     -3.153414    2.161411    1.040642
  H     -4.590457    1.949327   -0.007901
  H     -3.345534   -1.988404    1.837580
  H     -3.510561   -3.278731    0.609933
  H     -4.444150   -1.759289    0.448166

 Total Charge           Charge          ....    0
 Multiplicity           Mult            ....    1
 Number of Electrons    NEL             ....  174
 Basis Dimension        Dim             ....  316

ORBITAL ENERGIES
----------------

  NO   OCC          E(Eh)            E(eV)
   0   2.0000     -88.032693     -2395.4914
   1   2.0000     -87.968203     -2393.7365
   2   2.0000     -76.415740     -2079.3780
   3   2.0000     -18.831852      -512.4407
   4   2.0000     -18.802383      -511.6388
   5   2.0000     -18.778620      -510.9922
   6   2.0000     -18.766437      -510.6607
   7   2.0000     -18.766001      -510.6489
   8   2.0000     -18.733068      -509.7527
   9   2.0000     -10.034710      -273.0584
  10   2.0000     -10.006982      -272.3038
  11   2.0000      -9.966210      -271.1944
  12   2.0000      -9.952365      -270.8176
  13   2.0000      -9.947261      -270.6787
  14   2.0000      -9.930847      -270.2321
  15   2.0000      -9.925633      -270.0902
  16   2.0000      -9.906479      -269.5690
  17   2.0000      -9.902243      -269.4537
  18   2.0000      -9.886999      -269.0389
  19   2.0000      -7.677729      -208.9216
  20   2.0000      -7.613309      -207.1687
  21   2.0000      -6.411372      -174.4623
  22   2.0000      -5.706005      -155.2683
  23   2.0000      -5.702428      -155.1710
  24   2.0000      -5.694067      -154.9434
  25   2.0000      -5.642439      -153.5386
  26   2.0000      -5.634222      -153.3150
  27   2.0000      -5.632925      -153.2797
  28   2.0000      -4.634032      -126.0984
  29   2.0000      -4.633383      -126.0808
  30   2.0000      -4.631987      -126.0428
  31   2.0000      -1.042122       -28.3576
  32   2.0000      -1.009370       -27.4664
  33   2.0000      -0.966476       -26.2992
  34   2.0000      -0.944572       -25.7031
  35   2.0000      -0.920780       -25.0557
  36   2.0000      -0.911050       -24.7909
  37   2.0000      -0.768504       -20.9120
  38   2.0000      -0.725584       -19.7441
  39   2.0000      -0.707610       -19.2550
  40   2.0000      -0.685645       -18.6574
  41   2.0000      -0.648597       -17.6492
  42   2.0000      -0.628274       -17.0962
  43   2.0000      -0.616934       -16.7876
  44   2.0000      -0.612686       -16.6720
  45   2.0000      -0.593660       -16.1543
  46   2.0000      -0.566020       -15.4022
  47   2.0000      -0.528187       -14.3727
  48   2.0000      -0.505082       -13.7440
  49   2.0000      -0.497186       -13.5291
  50   2.0000      -0.485235       -13.2039
  51   2.0000      -0.468401       -12.7459
  52   2.0000      -0.463030       -12.5997
  53   2.0000      -0.450520       -12.2593
  54   2.0000      -0.446212       -12.1420
  55   2.0000      -0.436972       -11.8906
  56   2.0000      -0.419642       -11.4190
  57   2.0000      -0.411185       -11.1889
  58   2.0000      -0.409991       -11.1564
  59   2.0000      -0.403463       -10.9788
  60   2.0000      -0.397404       -10.8139
  61   2.0000      -0.388138       -10.5618
  62   2.0000      -0.385979       -10.5030
  63   2.0000      -0.383224       -10.4281
  64   2.0000      -0.378097       -10.2886
  65   2.0000      -0.372842       -10.1455
  66   2.0000      -0.368947       -10.0396
  67   2.0000      -0.355935        -9.6855
  68   2.0000      -0.349253        -9.5037
  69   2.0000      -0.342088        -9.3087
  70   2.0000      -0.334469        -9.1014
  71   2.0000      -0.331709        -9.0263
  72   2.0000      -0.326648        -8.8885
  73   2.0000      -0.318774        -8.6743
  74   2.0000      -0.302809        -8.2399
  75   2.0000      -0.294078        -8.0023
  76   2.0000      -0.290937        -7.9168
  77   2.0000      -0.288896        -7.8613
  78   2.0000      -0.273332        -7.4377
  79   2.0000      -0.260364        -7.0849
  80   2.0000      -0.257579        -7.0091
  81   2.0000      -0.255717        -6.9584
  82   2.0000      -0.244631        -6.6567
  83   2.0000      -0.216117        -5.8808
  84   2.0000      -0.210888        -5.7386
  85   2.0000      -0.189035        -5.1439
  86   2.0000      -0.181310        -4.9337
  87   0.0000      -0.050110        -1.3636
  88   0.0000      -0.037654        -1.0246
  89   0.0000      -0.014830        -0.4035
  90   0.0000       0.008531         0.2322
  91   0.0000       0.028526         0.7762

MULLIKEN ATOMIC CHARGES
-----------------------
   0 C :   -0.305251
   1 C :   -0.008602
   2 O :   -0.243360
   3 C :    0.133915
   4 O :   -0.182980
   5 C :   -0.091545
   6 C :   -0.320072
   7 H :    0.149302
   8 C :    0.236877
   9 O :   -0.202862
  10 O :   -0.215321
  11 C :   -0.034930
  12 C :   -0.274903
  13 S :   -0.060475
  14 P :    0.650351
  15 S :   -0.355775
  16 O :   -0.390498
  17 C :   -0.083088
  18 O :   -0.392253
  19 C :   -0.095074
  20 H :    0.113837
  21 H :    0.110499
  22 H :    0.128472
  23 H :    0.114879
  24 H :    0.101883
  25 H :    0.118456
  26 H :    0.124995
  27 H :    0.111915
  28 H :    0.125959
  29 H :    0.123609
  30 H :    0.118799
  31 H :    0.118404
  32 H :    0.111065
  33 H :    0.111889
  34 H :    0.113938
  35 H :    0.112806
  36 H :    0.120437
  37 H :    0.104699
Sum of atomic charges:   -0.0000000

LOEWDIN ATOMIC CHARGES
----------------------
   0 C :   -0.356360
   1 C :   -0.109523
   2 O :   -0.065315
   3 C :    0.025296
   4 O :   -0.152457
   5 C :   -0.255200
   6 C :   -0.265417
   7 H :    0.149240
   8 C :    0.029893
   9 O :   -0.152188
  10 O :   -0.034196
  11 C :   -0.102018
  12 C :   -0.349919
  13 S :    0.127348
  14 P :    0.590821
  15 S :   -0.346373
  16 O :   -0.252526
  17 C :   -0.212034
  18 O :   -0.269989
  19 C :   -0.216039
  20 H :    0.131119
  21 H :    0.123171
  22 H :    0.131294
  23 H :    0.123687
  24 H :    0.117338
  25 H :    0.143134
  26 H :    0.137724
  27 H :    0.120145
  28 H :    0.126895
  29 H :    0.130774
  30 H :    0.128696
  31 H :    0.135022
  32 H :    0.110780
  33 H :    0.107513
  34 H :    0.114688
  35 H :    0.107488
  36 H :    0.119932
  37 H :    0.107556

  Mayer bond orders larger than 0.100000
B(  0-C ,  1-C ) :   1.1743 B(  0-C , 20-H ) :   0.9444 B(  0-C , 21-H ) :   0.9488
B(  0-C , 22-H ) :   0.9459 B(  1-C ,  2-O ) :   0.9134 B(  1-C , 23-H ) :   0.9139
B(  1-C , 24-H ) :   0.9375 B(  2-O ,  3-C ) :   1.2004 B(  3-C ,  4-O ) :   2.0819
B(  3-C ,  5-C ) :   1.0206 B(  5-C ,  6-C ) :   1.0361 B(  5-C , 25-H ) :   0.8737
B(  5-C , 26-H ) :   0.8787 B(  6-C ,  7-H ) :   0.8573 B(  6-C ,  8-C ) :   0.9304
B(  6-C , 13-S ) :   1.0424 B(  8-C ,  9-O ) :   1.8995 B(  8-C , 10-O ) :   1.2923
B(  9-O , 14-P ) :   0.1342 B( 10-O , 11-C ) :   0.8833 B( 11-C , 12-C ) :   1.1559
B( 11-C , 27-H ) :   0.9322 B( 11-C , 28-H ) :   0.9279 B( 12-C , 29-H ) :   0.9493
B( 12-C , 30-H ) :   0.9492 B( 12-C , 31-H ) :   0.9417 B( 13-S , 14-P ) :   0.9283
B( 13-S , 15-S ) :   0.1091 B( 14-P , 15-S ) :   1.5503 B( 14-P , 16-O ) :   1.0925
B( 14-P , 18-O ) :   1.0746 B( 16-O , 17-C ) :   0.9331 B( 17-C , 32-H ) :   0.9533
B( 17-C , 33-H ) :   0.9344 B( 17-C , 34-H ) :   0.9545 B( 18-O , 19-C ) :   0.9424
B( 19-C , 35-H ) :   0.9326 B( 19-C , 36-H ) :   0.9609 B( 19-C , 37-H ) :   0.9510

Dispersion correction           -0.050705084
FINAL SINGLE POINT ENERGY     -1979.011668456894

DIPOLE MOMENT
-------------

Method             : SCF
Type of density    : Electron Density
Multiplicity       :   1
Irrep              :   0
Energy             : -1979.1426725619558056 Eh
Relativity type    :
Basis              : AO
                                X                 Y                 Z
Electronic contribution:    -11.793539300      -4.446262755      -0.432428927
Nuclear contribution   :     12.607660363       6.001187397      -0.451728711
                        -----------------------------------------
Total Dipole Moment    :      0.814121063       1.554924642      -0.884157638
                        -----------------------------------------
Magnitude (a.u.)       :      1.965278218
Magnitude (Debye)      :      4.995340245

Rotational constants in cm-1:             0.010746             0.007688             0.005244
Rotational constants in MHz :           322.156435           230.475444           157.201145

                             ****ORCA TERMINATED NORMALLY****
TOTAL RUN TIME: 0 days 0 hours 0 minutes 41 seconds 356 msec
