                         Program Version 6.0.0  -   RELEASE  -
|  1> ! r2scan-3c def2/J RI DEFGRID2 scfconv6 printgap
|  2> %output
|  3>     printlevel normal
|  4> end
|  5> * xyz 0 1
|  6> C 4.9998057885 -2.6782552147 -1.2822852995
|  7> C 4.0807327298 -1.4885747183 -1.4738889838
|  8> O 3.0544248582 -1.5547492678 -0.4636832436
|  9> P 2.2143809631 -0.2792860429 -0.0352823207
| 10> S 3.258066225 1.3454369328 0.3238691944
| 11> O 1.3562823867 -0.8450043426 1.1645649802
| 12> C 1.7670519544 -0.6741091481 2.5388847532
| 13> C 3.0047237445 -1.4867317727 2.8523669484
| 14> S 0.7622658349 -0.117784869 -1.5683237094
| 15> C 0.1781942813 1.5312338621 -1.0969062905
| 16> S -0.7785977175 1.5167516787 0.4359272016
| 17> P -2.4689771848 0.4861768451 -0.37150493
| 18> S -2.9479989873 1.000175265 -2.1945628086
| 19> O -3.5744015205 0.7284036969 0.7424918464
| 20> C -4.1945672473 2.0208351637 0.9162128338
| 21> C -5.4154518139 1.8323546298 1.7931922947
| 22> O -2.1955990042 -1.0551640609 -0.2344249032
| 23> C -1.9503089149 -1.7103810493 1.037839423
| 24> C -1.1941259771 -2.9919388427 0.758439087
| 25> H 5.4783839206 -2.630169272 -0.3083135157
| 26> H 4.4296771733 -3.6000859638 -1.3502134016
| 27> H 5.7607977353 -2.6678485793 -2.0556115769
| 28> H 3.5961793452 -1.5108339531 -2.4537223483
| 29> H 4.6201546095 -0.5416793112 -1.3633196142
| 30> H 1.9437717119 0.3911379535 2.7180557781
| 31> H 0.9041757747 -1.0089798106 3.1156954037
| 32> H 2.8448641122 -2.5305268494 2.596198655
| 33> H 3.8479959301 -1.1074075619 2.276273463
| 34> H 3.233957544 -1.4023691434 3.9099687402
| 35> H -0.4534384581 1.8874758931 -1.9111625818
| 36> H 1.0334090386 2.1878087083 -0.934387955
| 37> H -3.4648099336 2.6889682002 1.3813274328
| 38> H -4.461966884 2.4127049195 -0.0703203841
| 39> H -6.1149174846 1.1512371954 1.3168507469
| 40> H -5.1224737244 1.4224021879 2.7552088638
| 41> H -5.8968308737 2.7930426527 1.9430184476
| 42> H -1.3742118917 -1.0316861076 1.6735280287
| 43> H -2.9204302402 -1.9037425224 1.4987969443
| 44> H -0.222348877 -2.7680161911 0.3250183039
| 45> H -1.0560122365 -3.5347582272 1.6879684345
| 46> H -1.754420646 -3.6067794178 0.0599436831
| 47> *
| 48>
| 49>                          ****END OF INPUT****

CARTESIAN COORDINATES (ANGSTROEM)
---------------------------------
  C      4.999806   -2.678255   -1.282285
  C      4.080733   -1.488575   -1.473889
  O      3.054425   -1.554749   -0.463683
  P      2.214381   -0.279286   -0.035282
  S      3.258066    1.345437    0.323869
  O      1.356282   -0.845004    1.164565
  C      1.767052   -0.674109    2.538885
  C      3.004724   -1.486732    2.852367
  S      0.762266   -0.117785   -1.568324
  C      0.178194    1.531234   -1.096906
  S     -0.778598    1.516752    0.435927
  P     -2.468977    0.486177   -0.371505
  S     -2.947999    1.000175   -2.194563
  O     -3.574402    0.728404    0.742492
  C     -4.194567    2.020835    0.916213
  C     -5.415452    1.832355    1.793192
  O     -2.195599   -1.055164   -0.234425
  C     -1.950309   -1.710381    1.037839
  C     -1.194126   -2.991939    0.758439
  H      5.478384   -2.630169   -0.308314
  H      4.429677   -3.600086   -1.350213
  H      5.760798   -2.667849   -2.055612
  H      3.596179   -1.510834   -2.453722
  H      4.620155   -0.541679   -1.363320
  H      1.943772    0.391138    2.718056
  H      0.904176   -1.008980    3.115695
  H      2.844864   -2.530527    2.596199
  H      3.847996   -1.107408    2.276273
  H      3.233958   -1.402369    3.909969
  H     -0.453438    1.887476   -1.911163
  H      1.033409    2.187809   -0.934388
  H     -3.464810    2.688968    1.381327
  H     -4.461967    2.412705   -0.070320
  H     -6.114917    1.151237    1.316851
  H     -5.122474    1.422402    2.755209
  H     -5.896831    2.793043    1.943018
  H     -1.374212   -1.031686    1.673528
  H     -2.920430   -1.903743    1.498797
  H     -0.222349   -2.768016    0.325018
  H     -1.056012   -3.534758    1.687968
  H     -1.754421   -3.606779    0.059944

 Total Charge           Charge          ....    0
 Multiplicity           Mult            ....    1
 Number of Electrons    NEL             ....  202
 Basis Dimension        Dim             ....  539

ORBITAL ENERGIES
----------------

  NO   OCC          E(Eh)            E(eV)
   0   2.0000     -88.574702     -2410.2402
   1   2.0000     -88.572522     -2410.1808
   2   2.0000     -88.523566     -2408.8487
   3   2.0000     -88.517406     -2408.6811
   4   2.0000     -76.916345     -2093.0002
   5   2.0000     -76.911468     -2092.8674
   6   2.0000     -18.997175      -516.9394
   7   2.0000     -18.995885      -516.9043
   8   2.0000     -18.994171      -516.8577
   9   2.0000     -18.989839      -516.7398
  10   2.0000     -10.103444      -274.9287
  11   2.0000     -10.102306      -274.8977
  12   2.0000     -10.100925      -274.8602
  13   2.0000     -10.100535      -274.8495
  14   2.0000     -10.100219      -274.8409
  15   2.0000     -10.036476      -273.1064
  16   2.0000     -10.035031      -273.0671
  17   2.0000     -10.033609      -273.0284
  18   2.0000     -10.028633      -272.8930
  19   2.0000      -7.868811      -214.1212
  20   2.0000      -7.866788      -214.0662
  21   2.0000      -7.818347      -212.7480
  22   2.0000      -7.812203      -212.5809
  23   2.0000      -6.595092      -179.4616
  24   2.0000      -6.590112      -179.3261
  25   2.0000      -5.815663      -158.2522
  26   2.0000      -5.813536      -158.1943
  27   2.0000      -5.812736      -158.1726
  28   2.0000      -5.810629      -158.1153
  29   2.0000      -5.805929      -157.9874
  30   2.0000      -5.804075      -157.9369
  31   2.0000      -5.765903      -156.8982
  32   2.0000      -5.759901      -156.7349
  33   2.0000      -5.758644      -156.7007
  34   2.0000      -5.758416      -156.6945
  35   2.0000      -5.752455      -156.5323
  36   2.0000      -5.752173      -156.5246
  37   2.0000      -4.740506      -128.9957
  38   2.0000      -4.740019      -128.9825
  39   2.0000      -4.738846      -128.9506
  40   2.0000      -4.735948      -128.8717
  41   2.0000      -4.735099      -128.8486
  42   2.0000      -4.733473      -128.8044
  43   2.0000      -1.055576       -28.7237
  44   2.0000      -1.051606       -28.6156
  45   2.0000      -1.016832       -27.6694
  46   2.0000      -1.009940       -27.4819
  47   2.0000      -0.801138       -21.8001
  48   2.0000      -0.762424       -20.7466
  49   2.0000      -0.753679       -20.5086
  50   2.0000      -0.737656       -20.0726
  51   2.0000      -0.736032       -20.0284
  52   2.0000      -0.709998       -19.3200
  53   2.0000      -0.683248       -18.5921
  54   2.0000      -0.667725       -18.1697
  55   2.0000      -0.634023       -17.2526
  56   2.0000      -0.616078       -16.7643
  57   2.0000      -0.604293       -16.4437
  58   2.0000      -0.603012       -16.4088
  59   2.0000      -0.595092       -16.1933
  60   2.0000      -0.538568       -14.6552
  61   2.0000      -0.528903       -14.3922
  62   2.0000      -0.502528       -13.6745
  63   2.0000      -0.501474       -13.6458
  64   2.0000      -0.478409       -13.0182
  65   2.0000      -0.467465       -12.7204
  66   2.0000      -0.458923       -12.4879
  67   2.0000      -0.457368       -12.4456
  68   2.0000      -0.448258       -12.1977
  69   2.0000      -0.433528       -11.7969
  70   2.0000      -0.425391       -11.5755
  71   2.0000      -0.417498       -11.3607
  72   2.0000      -0.406409       -11.0589
  73   2.0000      -0.400087       -10.8869
  74   2.0000      -0.392296       -10.6749
  75   2.0000      -0.390730       -10.6323
  76   2.0000      -0.382825       -10.4172
  77   2.0000      -0.377353       -10.2683
  78   2.0000      -0.374761       -10.1978
  79   2.0000      -0.366972        -9.9858
  80   2.0000      -0.364846        -9.9280
  81   2.0000      -0.363981        -9.9044
  82   2.0000      -0.362232        -9.8568
  83   2.0000      -0.353323        -9.6144
  84   2.0000      -0.349695        -9.5157
  85   2.0000      -0.334734        -9.1086
  86   2.0000      -0.325349        -8.8532
  87   2.0000      -0.319377        -8.6907
  88   2.0000      -0.318454        -8.6656
  89   2.0000      -0.314849        -8.5675
  90   2.0000      -0.306046        -8.3279
  91   2.0000      -0.294876        -8.0240
  92   2.0000      -0.286315        -7.7910
  93   2.0000      -0.280094        -7.6218
  94   2.0000      -0.271053        -7.3757
  95   2.0000      -0.247580        -6.7370
  96   2.0000      -0.233038        -6.3413
  97   2.0000      -0.227141        -6.1808
  98   2.0000      -0.217275        -5.9123
  99   2.0000      -0.215105        -5.8533
 100   2.0000      -0.210923        -5.7395
 101   0.0000      -0.046100        -1.2544
 102   0.0000      -0.023278        -0.6334
 103   0.0000      -0.000129        -0.0035
 104   0.0000       0.001724         0.0469
 105   0.0000       0.015900         0.4327

MULLIKEN ATOMIC CHARGES
-----------------------
   0 C :   -0.439466
   1 C :   -0.153733
   2 O :   -0.290368
   3 P :    0.677502
   4 S :   -0.489663
   5 O :   -0.259568
   6 C :   -0.143672
   7 C :   -0.450008
   8 S :   -0.123242
   9 C :   -0.231318
  10 S :   -0.187782
  11 P :    0.671527
  12 S :   -0.450828
  13 O :   -0.284978
  14 C :   -0.153682
  15 C :   -0.439113
  16 O :   -0.258987
  17 C :   -0.102527
  18 C :   -0.466296
  19 H :    0.154231
  20 H :    0.154641
  21 H :    0.148438
  22 H :    0.153712
  23 H :    0.170995
  24 H :    0.176476
  25 H :    0.147754
  26 H :    0.156378
  27 H :    0.170917
  28 H :    0.148974
  29 H :    0.218090
  30 H :    0.212670
  31 H :    0.151920
  32 H :    0.170927
  33 H :    0.158926
  34 H :    0.150442
  35 H :    0.147474
  36 H :    0.155104
  37 H :    0.154498
  38 H :    0.176993
  39 H :    0.141485
  40 H :    0.155154
Sum of atomic charges:    0.0000000

LOEWDIN ATOMIC CHARGES
----------------------
   0 C :   -0.385243
   1 C :    0.021921
   2 O :   -0.664406
   3 P :    0.372410
   4 S :   -0.137023
   5 O :   -0.681126
   6 C :    0.017494
   7 C :   -0.399127
   8 S :    0.177004
   9 C :   -0.424279
  10 S :    0.136312
  11 P :    0.373383
  12 S :   -0.106021
  13 O :   -0.669959
  14 C :    0.020879
  15 C :   -0.385729
  16 O :   -0.647435
  17 C :    0.025600
  18 C :   -0.389254
  19 H :    0.159830
  20 H :    0.160341
  21 H :    0.160778
  22 H :    0.173071
  23 H :    0.181099
  24 H :    0.182701
  25 H :    0.177827
  26 H :    0.160555
  27 H :    0.166441
  28 H :    0.160156
  29 H :    0.193281
  30 H :    0.191614
  31 H :    0.172334
  32 H :    0.181134
  33 H :    0.162050
  34 H :    0.158491
  35 H :    0.160585
  36 H :    0.177195
  37 H :    0.173453
  38 H :    0.170812
  39 H :    0.158803
  40 H :    0.162049

  Mayer bond orders larger than 0.100000
B(  0-C ,  1-C ) :   0.9572 B(  0-C , 19-H ) :   0.9711 B(  0-C , 20-H ) :   0.9714
B(  0-C , 21-H ) :   0.9642 B(  1-C ,  2-O ) :   0.7770 B(  1-C , 22-H ) :   0.9454
B(  1-C , 23-H ) :   0.9519 B(  2-O ,  3-P ) :   1.0916 B(  3-P ,  4-S ) :   1.7483
B(  3-P ,  5-O ) :   1.1357 B(  3-P ,  8-S ) :   1.0789 B(  5-O ,  6-C ) :   0.7664
B(  6-C ,  7-C ) :   0.9181 B(  6-C , 24-H ) :   0.9581 B(  6-C , 25-H ) :   0.9630
B(  7-C , 26-H ) :   0.9740 B(  7-C , 27-H ) :   0.9591 B(  7-C , 28-H ) :   0.9629
B(  8-S ,  9-C ) :   0.9204 B(  9-C , 10-S ) :   0.9163 B(  9-C , 29-H ) :   0.9029
B(  9-C , 30-H ) :   0.9051 B( 10-S , 11-P ) :   0.9701 B( 11-P , 12-S ) :   1.8334
B( 11-P , 13-O ) :   1.0551 B( 11-P , 16-O ) :   1.1845 B( 13-O , 14-C ) :   0.7862
B( 14-C , 15-C ) :   0.9542 B( 14-C , 31-H ) :   0.9418 B( 14-C , 32-H ) :   0.9512
B( 15-C , 33-H ) :   0.9713 B( 15-C , 34-H ) :   0.9715 B( 15-C , 35-H ) :   0.9638
B( 16-O , 17-C ) :   0.7280 B( 17-C , 18-C ) :   0.9402 B( 17-C , 36-H ) :   0.9555
B( 17-C , 37-H ) :   0.9447 B( 18-C , 38-H ) :   0.9656 B( 18-C , 39-H ) :   0.9679
B( 18-C , 40-H ) :   0.9693

Dispersion correction           -0.021056108
FINAL SINGLE POINT ENERGY     -2932.467655127433

DIPOLE MOMENT
-------------

Method             : SCF
Type of density    : Electron Density
Multiplicity       :   1
Irrep              :   0
Energy             : -2932.4928604834940415 Eh
Relativity type    :
Basis              : AO
                                X                 Y                 Z
Electronic contribution:     -4.454611542      13.422605784     -14.703228521
Nuclear contribution   :      4.750394611     -14.321873610      16.239722439
                        -----------------------------------------
Total Dipole Moment    :      0.295783069      -0.899267826       1.536493918
                        -----------------------------------------
Magnitude (a.u.)       :      1.804711557
Magnitude (Debye)      :      4.587212227

Rotational constants in cm-1:             0.013530             0.004461             0.004297
Rotational constants in MHz :           405.604206           133.743753           128.810152

                             ****ORCA TERMINATED NORMALLY****
TOTAL RUN TIME: 0 days 0 hours 1 minutes 19 seconds 214 msec
