                         Program Version 6.0.0  -   RELEASE  -
|  1> ! r2scan-3c def2/J RI DEFGRID2 scfconv6 printgap
|  2> %output
|  3>     printlevel normal
|  4> end
|  5> %cpcm
|  6>     smd true
|  7>     smdsolvent "water"
|  8> end
|  9> * xyz 0 1
| 10> C 4.9998057885 -2.6782552147 -1.2822852995
| 11> C 4.0807327298 -1.4885747183 -1.4738889838
| 12> O 3.0544248582 -1.5547492678 -0.4636832436
| 13> P 2.2143809631 -0.2792860429 -0.0352823207
| 14> S 3.258066225 1.3454369328 0.3238691944
| 15> O 1.3562823867 -0.8450043426 1.1645649802
| 16> C 1.7670519544 -0.6741091481 2.5388847532
| 17> C 3.0047237445 -1.4867317727 2.8523669484
| 18> S 0.7622658349 -0.117784869 -1.5683237094
| 19> C 0.1781942813 1.5312338621 -1.0969062905
| 20> S -0.7785977175 1.5167516787 0.4359272016
| 21> P -2.4689771848 0.4861768451 -0.37150493
| 22> S -2.9479989873 1.000175265 -2.1945628086
| 23> O -3.5744015205 0.7284036969 0.7424918464
| 24> C -4.1945672473 2.0208351637 0.9162128338
| 25> C -5.4154518139 1.8323546298 1.7931922947
| 26> O -2.1955990042 -1.0551640609 -0.2344249032
| 27> C -1.9503089149 -1.7103810493 1.037839423
| 28> C -1.1941259771 -2.9919388427 0.758439087
| 29> H 5.4783839206 -2.630169272 -0.3083135157
| 30> H 4.4296771733 -3.6000859638 -1.3502134016
| 31> H 5.7607977353 -2.6678485793 -2.0556115769
| 32> H 3.5961793452 -1.5108339531 -2.4537223483
| 33> H 4.6201546095 -0.5416793112 -1.3633196142
| 34> H 1.9437717119 0.3911379535 2.7180557781
| 35> H 0.9041757747 -1.0089798106 3.1156954037
| 36> H 2.8448641122 -2.5305268494 2.596198655
| 37> H 3.8479959301 -1.1074075619 2.276273463
| 38> H 3.233957544 -1.4023691434 3.9099687402
| 39> H -0.4534384581 1.8874758931 -1.9111625818
| 40> H 1.0334090386 2.1878087083 -0.934387955
| 41> H -3.4648099336 2.6889682002 1.3813274328
| 42> H -4.461966884 2.4127049195 -0.0703203841
| 43> H -6.1149174846 1.1512371954 1.3168507469
| 44> H -5.1224737244 1.4224021879 2.7552088638
| 45> H -5.8968308737 2.7930426527 1.9430184476
| 46> H -1.3742118917 -1.0316861076 1.6735280287
| 47> H -2.9204302402 -1.9037425224 1.4987969443
| 48> H -0.222348877 -2.7680161911 0.3250183039
| 49> H -1.0560122365 -3.5347582272 1.6879684345
| 50> H -1.754420646 -3.6067794178 0.0599436831
| 51> *
| 52>
| 53>                          ****END OF INPUT****

CARTESIAN COORDINATES (ANGSTROEM)
---------------------------------
  C      4.999806   -2.678255   -1.282285
  C      4.080733   -1.488575   -1.473889
  O      3.054425   -1.554749   -0.463683
  P      2.214381   -0.279286   -0.035282
  S      3.258066    1.345437    0.323869
  O      1.356282   -0.845004    1.164565
  C      1.767052   -0.674109    2.538885
  C      3.004724   -1.486732    2.852367
  S      0.762266   -0.117785   -1.568324
  C      0.178194    1.531234   -1.096906
  S     -0.778598    1.516752    0.435927
  P     -2.468977    0.486177   -0.371505
  S     -2.947999    1.000175   -2.194563
  O     -3.574402    0.728404    0.742492
  C     -4.194567    2.020835    0.916213
  C     -5.415452    1.832355    1.793192
  O     -2.195599   -1.055164   -0.234425
  C     -1.950309   -1.710381    1.037839
  C     -1.194126   -2.991939    0.758439
  H      5.478384   -2.630169   -0.308314
  H      4.429677   -3.600086   -1.350213
  H      5.760798   -2.667849   -2.055612
  H      3.596179   -1.510834   -2.453722
  H      4.620155   -0.541679   -1.363320
  H      1.943772    0.391138    2.718056
  H      0.904176   -1.008980    3.115695
  H      2.844864   -2.530527    2.596199
  H      3.847996   -1.107408    2.276273
  H      3.233958   -1.402369    3.909969
  H     -0.453438    1.887476   -1.911163
  H      1.033409    2.187809   -0.934388
  H     -3.464810    2.688968    1.381327
  H     -4.461967    2.412705   -0.070320
  H     -6.114917    1.151237    1.316851
  H     -5.122474    1.422402    2.755209
  H     -5.896831    2.793043    1.943018
  H     -1.374212   -1.031686    1.673528
  H     -2.920430   -1.903743    1.498797
  H     -0.222349   -2.768016    0.325018
  H     -1.056012   -3.534758    1.687968
  H     -1.754421   -3.606779    0.059944

 Total Charge           Charge          ....    0
 Multiplicity           Mult            ....    1
 Number of Electrons    NEL             ....  202
 Basis Dimension        Dim             ....  539

ORBITAL ENERGIES
----------------

  NO   OCC          E(Eh)            E(eV)
   0   2.0000     -88.580009     -2410.3846
   1   2.0000     -88.578084     -2410.3322
   2   2.0000     -88.530770     -2409.0447
   3   2.0000     -88.529271     -2409.0039
   4   2.0000     -76.920294     -2093.1076
   5   2.0000     -76.919762     -2093.0931
   6   2.0000     -18.997325      -516.9435
   7   2.0000     -18.997192      -516.9399
   8   2.0000     -18.996446      -516.9196
   9   2.0000     -18.994604      -516.8694
  10   2.0000     -10.103484      -274.9298
  11   2.0000     -10.092583      -274.6331
  12   2.0000     -10.091693      -274.6089
  13   2.0000     -10.090950      -274.5887
  14   2.0000     -10.090217      -274.5688
  15   2.0000     -10.020161      -272.6624
  16   2.0000     -10.019907      -272.6555
  17   2.0000     -10.019294      -272.6389
  18   2.0000     -10.019061      -272.6325
  19   2.0000      -7.874234      -214.2688
  20   2.0000      -7.872313      -214.2165
  21   2.0000      -7.825930      -212.9544
  22   2.0000      -7.824337      -212.9110
  23   2.0000      -6.598974      -179.5672
  24   2.0000      -6.598508      -179.5545
  25   2.0000      -5.821029      -158.3982
  26   2.0000      -5.819074      -158.3450
  27   2.0000      -5.818141      -158.3197
  28   2.0000      -5.816174      -158.2661
  29   2.0000      -5.811424      -158.1369
  30   2.0000      -5.809571      -158.0865
  31   2.0000      -5.773501      -157.1050
  32   2.0000      -5.771840      -157.0597
  33   2.0000      -5.766151      -156.9049
  34   2.0000      -5.765986      -156.9005
  35   2.0000      -5.764629      -156.8635
  36   2.0000      -5.764412      -156.8576
  37   2.0000      -4.744750      -129.1112
  38   2.0000      -4.743917      -129.0886
  39   2.0000      -4.743842      -129.0865
  40   2.0000      -4.743439      -129.0755
  41   2.0000      -4.742479      -129.0494
  42   2.0000      -4.742381      -129.0468
  43   2.0000      -1.056241       -28.7418
  44   2.0000      -1.054582       -28.6966
  45   2.0000      -1.015054       -27.6210
  46   2.0000      -1.013897       -27.5896
  47   2.0000      -0.805192       -21.9104
  48   2.0000      -0.758745       -20.6465
  49   2.0000      -0.747099       -20.3296
  50   2.0000      -0.727494       -19.7961
  51   2.0000      -0.725099       -19.7309
  52   2.0000      -0.709942       -19.3185
  53   2.0000      -0.687988       -18.7211
  54   2.0000      -0.675082       -18.3699
  55   2.0000      -0.628215       -17.0946
  56   2.0000      -0.612304       -16.6616
  57   2.0000      -0.598188       -16.2775
  58   2.0000      -0.595591       -16.2069
  59   2.0000      -0.592031       -16.1100
  60   2.0000      -0.536029       -14.5861
  61   2.0000      -0.524480       -14.2718
  62   2.0000      -0.500373       -13.6159
  63   2.0000      -0.496184       -13.5018
  64   2.0000      -0.478005       -13.0072
  65   2.0000      -0.462617       -12.5885
  66   2.0000      -0.452119       -12.3028
  67   2.0000      -0.450442       -12.2572
  68   2.0000      -0.442261       -12.0345
  69   2.0000      -0.434185       -11.8148
  70   2.0000      -0.422983       -11.5100
  71   2.0000      -0.411894       -11.2082
  72   2.0000      -0.404262       -11.0005
  73   2.0000      -0.397894       -10.8273
  74   2.0000      -0.388705       -10.5772
  75   2.0000      -0.385304       -10.4847
  76   2.0000      -0.381592       -10.3836
  77   2.0000      -0.371517       -10.1095
  78   2.0000      -0.363436        -9.8896
  79   2.0000      -0.357264        -9.7216
  80   2.0000      -0.354897        -9.6572
  81   2.0000      -0.354049        -9.6341
  82   2.0000      -0.352415        -9.5897
  83   2.0000      -0.347262        -9.4495
  84   2.0000      -0.344550        -9.3757
  85   2.0000      -0.328435        -8.9372
  86   2.0000      -0.321810        -8.7569
  87   2.0000      -0.317406        -8.6371
  88   2.0000      -0.314522        -8.5586
  89   2.0000      -0.313230        -8.5234
  90   2.0000      -0.301115        -8.1938
  91   2.0000      -0.290443        -7.9034
  92   2.0000      -0.284931        -7.7534
  93   2.0000      -0.279097        -7.5946
  94   2.0000      -0.273750        -7.4491
  95   2.0000      -0.253010        -6.8848
  96   2.0000      -0.241496        -6.5715
  97   2.0000      -0.236149        -6.4259
  98   2.0000      -0.227789        -6.1985
  99   2.0000      -0.224267        -6.1026
 100   2.0000      -0.221157        -6.0180
 101   0.0000      -0.052744        -1.4353
 102   0.0000      -0.030903        -0.8409
 103   0.0000      -0.005490        -0.1494
 104   0.0000      -0.003950        -0.1075
 105   0.0000       0.014718         0.4005

MULLIKEN ATOMIC CHARGES
-----------------------
   0 C :   -0.482544
   1 C :   -0.145011
   2 O :   -0.314577
   3 P :    0.713840
   4 S :   -0.533558
   5 O :   -0.279762
   6 C :   -0.138839
   7 C :   -0.491458
   8 S :   -0.149044
   9 C :   -0.239991
  10 S :   -0.184427
  11 P :    0.679189
  12 S :   -0.505672
  13 O :   -0.304122
  14 C :   -0.140136
  15 C :   -0.480557
  16 O :   -0.288685
  17 C :   -0.102096
  18 C :   -0.506461
  19 H :    0.166254
  20 H :    0.166501
  21 H :    0.169928
  22 H :    0.172072
  23 H :    0.172352
  24 H :    0.177401
  25 H :    0.182068
  26 H :    0.171320
  27 H :    0.168777
  28 H :    0.173674
  29 H :    0.232501
  30 H :    0.232238
  31 H :    0.169883
  32 H :    0.172882
  33 H :    0.166697
  34 H :    0.166178
  35 H :    0.169786
  36 H :    0.175007
  37 H :    0.176980
  38 H :    0.171333
  39 H :    0.173328
  40 H :    0.166749
Sum of atomic charges:    0.0000000

LOEWDIN ATOMIC CHARGES
----------------------
   0 C :   -0.388942
   1 C :    0.026413
   2 O :   -0.674475
   3 P :    0.378219
   4 S :   -0.164634
   5 O :   -0.686766
   6 C :    0.023558
   7 C :   -0.402353
   8 S :    0.160816
   9 C :   -0.420950
  10 S :    0.142384
  11 P :    0.374503
  12 S :   -0.149528
  13 O :   -0.676850
  14 C :    0.026312
  15 C :   -0.388525
  16 O :   -0.669887
  17 C :    0.032264
  18 C :   -0.392919
  19 H :    0.162715
  20 H :    0.163549
  21 H :    0.169108
  22 H :    0.180252
  23 H :    0.182002
  24 H :    0.182829
  25 H :    0.191458
  26 H :    0.164351
  27 H :    0.163054
  28 H :    0.169329
  29 H :    0.197045
  30 H :    0.197106
  31 H :    0.179969
  32 H :    0.181746
  33 H :    0.163504
  34 H :    0.163406
  35 H :    0.169403
  36 H :    0.184531
  37 H :    0.183779
  38 H :    0.166479
  39 H :    0.171369
  40 H :    0.164377

  Mayer bond orders larger than 0.100000
B(  0-C ,  1-C ) :   0.9529 B(  0-C , 19-H ) :   0.9686 B(  0-C , 20-H ) :   0.9687
B(  0-C , 21-H ) :   0.9585 B(  1-C ,  2-O ) :   0.7694 B(  1-C , 22-H ) :   0.9371
B(  1-C , 23-H ) :   0.9487 B(  2-O ,  3-P ) :   1.1001 B(  3-P ,  4-S ) :   1.7138
B(  3-P ,  5-O ) :   1.1493 B(  3-P ,  8-S ) :   1.0820 B(  5-O ,  6-C ) :   0.7533
B(  6-C ,  7-C ) :   0.9044 B(  6-C , 24-H ) :   0.9553 B(  6-C , 25-H ) :   0.9523
B(  7-C , 26-H ) :   0.9731 B(  7-C , 27-H ) :   0.9590 B(  7-C , 28-H ) :   0.9569
B(  8-S ,  9-C ) :   0.9074 B(  9-C , 10-S ) :   0.9058 B(  9-C , 29-H ) :   0.8996
B(  9-C , 30-H ) :   0.9015 B( 10-S , 11-P ) :   0.9874 B( 11-P , 12-S ) :   1.8093
B( 11-P , 13-O ) :   1.0674 B( 11-P , 16-O ) :   1.1902 B( 13-O , 14-C ) :   0.7774
B( 14-C , 15-C ) :   0.9529 B( 14-C , 31-H ) :   0.9321 B( 14-C , 32-H ) :   0.9481
B( 15-C , 33-H ) :   0.9693 B( 15-C , 34-H ) :   0.9679 B( 15-C , 35-H ) :   0.9578
B( 16-O , 17-C ) :   0.7166 B( 17-C , 18-C ) :   0.9289 B( 17-C , 36-H ) :   0.9468
B( 17-C , 37-H ) :   0.9343 B( 18-C , 38-H ) :   0.9669 B( 18-C , 39-H ) :   0.9605
B( 18-C , 40-H ) :   0.9681

Dispersion correction           -0.021056108
FINAL SINGLE POINT ENERGY     -2932.477572189479

DIPOLE MOMENT
-------------

Method             : SCF
Type of density    : Electron Density
Multiplicity       :   1
Irrep              :   0
Energy             : -2932.5027775455405390 Eh
Relativity type    :
Basis              : AO
                                X                 Y                 Z
Electronic contribution:     -4.359667536      13.307915207     -13.999192240
Nuclear contribution   :      4.750394611     -14.321873610      16.239722439
                        -----------------------------------------
Total Dipole Moment    :      0.390727075      -1.013958403       2.240530199
                        -----------------------------------------
Magnitude (a.u.)       :      2.490131495
Magnitude (Debye)      :      6.329411253

Rotational constants in cm-1:             0.013530             0.004461             0.004297
Rotational constants in MHz :           405.604206           133.743753           128.810152

                             ****ORCA TERMINATED NORMALLY****
TOTAL RUN TIME: 0 days 0 hours 1 minutes 48 seconds 734 msec
