                         Program Version 6.0.0  -   RELEASE  -
|  1> ! wb97x-v def2-tzvp def2/J RIJCOSX DEFGRID2 scfconv7 GCP(DFT/TZ) printgap
|  2> %output
|  3>     printlevel normal
|  4> end
|  5> * xyz 0 1
|  6> C -1.2473693342800345 0.9670664863181164 -1.2600998389716662
|  7> C -1.006522726801597 0.11872202825892335 5.203619753956482e-05
|  8> C -1.9419069154839885 -1.0905256841354016 6.37506077029089e-05
|  9> C -1.247013329756423 0.966820527451761 1.260413306807883
| 10> C 0.43716696559594986 -0.3656206019858346 -0.0005910643278477161
| 11> O 0.7922908352375225 -1.5327490680784677 -0.0022013586981352424
| 12> O 1.3139691100625484 0.6562440859685966 0.0010152021432710055
| 13> C 2.7168948449116135 0.28779568528538974 0.0005023376747040609
| 14> H -1.0393375035630636 0.3896315244392336 -2.1669821467751653
| 15> H -2.2969973878031555 1.276637979955497 -1.2847358992843112
| 16> H -0.623700461932018 1.8645740542325122 -1.26624128940151
| 17> H -2.978798652072904 -0.7417777959166243 7.08713300809942e-05
| 18> H -1.7876738831122168 -1.7111549459504218 0.8874615214319509
| 19> H -1.7877002538170501 -1.711174562609847 -0.8873154443268291
| 20> H -1.0376927058789829 0.38955289290538425 2.1671006987035333
| 21> H -0.6241339363465666 1.8648667529986502 1.266054602808703
| 22> H -2.296880699559294 1.2754850015856543 1.2859873816899625
| 23> H 2.9555176374512793 -0.28772481465338345 -0.8970289713272207
| 24> H 2.9546128662892963 -0.29415375625359896 0.8941010157988769
| 25> H 3.2626757285281407 1.230493657171896 0.0041244640624427545
| 26> *
| 27>
| 28>                          ****END OF INPUT****

CARTESIAN COORDINATES (ANGSTROEM)
---------------------------------
  C     -1.247369    0.967066   -1.260100
  C     -1.006523    0.118722    0.000052
  C     -1.941907   -1.090526    0.000064
  C     -1.247013    0.966821    1.260413
  C      0.437167   -0.365621   -0.000591
  O      0.792291   -1.532749   -0.002201
  O      1.313969    0.656244    0.001015
  C      2.716895    0.287796    0.000502
  H     -1.039338    0.389632   -2.166982
  H     -2.296997    1.276638   -1.284736
  H     -0.623700    1.864574   -1.266241
  H     -2.978799   -0.741778    0.000071
  H     -1.787674   -1.711155    0.887462
  H     -1.787700   -1.711175   -0.887315
  H     -1.037693    0.389553    2.167101
  H     -0.624134    1.864867    1.266055
  H     -2.296881    1.275485    1.285987
  H      2.955518   -0.287725   -0.897029
  H      2.954613   -0.294154    0.894101
  H      3.262676    1.230494    0.004124

 Total Charge           Charge          ....    0
 Multiplicity           Mult            ....    1
 Number of Electrons    NEL             ....   64
 Basis Dimension        Dim             ....  320

ORBITAL ENERGIES
----------------

  NO   OCC          E(Eh)            E(eV)
   0   2.0000     -21.718040      -590.9779
   1   2.0000     -21.654576      -589.2510
   2   2.0000     -12.171502      -331.2034
   3   2.0000     -12.103265      -329.3466
   4   2.0000     -12.074199      -328.5557
   5   2.0000     -12.043058      -327.7083
   6   2.0000     -12.042763      -327.7002
   7   2.0000     -12.033701      -327.4537
   8   2.0000      -1.757397       -47.8212
   9   2.0000      -1.689626       -45.9771
  10   2.0000      -1.347300       -36.6619
  11   2.0000      -1.270998       -34.5856
  12   2.0000      -1.187279       -32.3075
  13   2.0000      -1.182260       -32.1709
  14   2.0000      -1.136100       -30.9148
  15   2.0000      -1.083319       -29.4786
  16   2.0000      -1.056081       -28.7374
  17   2.0000      -0.995532       -27.0898
  18   2.0000      -0.990001       -26.9393
  19   2.0000      -0.938229       -25.5305
  20   2.0000      -0.902336       -24.5538
  21   2.0000      -0.881199       -23.9786
  22   2.0000      -0.871581       -23.7169
  23   2.0000      -0.869458       -23.6592
  24   2.0000      -0.842954       -22.9379
  25   2.0000      -0.827373       -22.5140
  26   2.0000      -0.818754       -22.2794
  27   2.0000      -0.815007       -22.1775
  28   2.0000      -0.801593       -21.8125
  29   2.0000      -0.790824       -21.5194
  30   2.0000      -0.780633       -21.2421
  31   2.0000      -0.778824       -21.1929
  32   0.0000      -0.306942        -8.3523
  33   0.0000      -0.183161        -4.9841
  34   0.0000      -0.104778        -2.8512
  35   0.0000      -0.046838        -1.2745
  36   0.0000      -0.031050        -0.8449

MULLIKEN ATOMIC CHARGES
-----------------------
   0 C :   -0.383319
   1 C :    0.139443
   2 C :   -0.343517
   3 C :   -0.383213
   4 C :    0.282643
   5 O :   -0.343315
   6 O :   -0.247022
   7 C :   -0.194070
   8 H :    0.121118
   9 H :    0.115454
  10 H :    0.129328
  11 H :    0.111710
  12 H :    0.120351
  13 H :    0.120439
  14 H :    0.121072
  15 H :    0.129312
  16 H :    0.115441
  17 H :    0.130215
  18 H :    0.130339
  19 H :    0.127591
Sum of atomic charges:   -0.0000000

LOEWDIN ATOMIC CHARGES
----------------------
   0 C :   -0.246780
   1 C :   -0.327384
   2 C :   -0.247175
   3 C :   -0.246801
   4 C :   -0.420969
   5 O :    0.092436
   6 O :    0.232585
   7 C :   -0.287206
   8 H :    0.124864
   9 H :    0.124057
  10 H :    0.123826
  11 H :    0.120927
  12 H :    0.126289
  13 H :    0.126304
  14 H :    0.124851
  15 H :    0.123824
  16 H :    0.124049
  17 H :    0.111546
  18 H :    0.111575
  19 H :    0.109184

  Mayer bond orders larger than 0.100000
B(  0-C ,  1-C ) :   0.9595 B(  0-C ,  8-H ) :   0.9769 B(  0-C ,  9-H ) :   0.9758
B(  0-C , 10-H ) :   0.9730 B(  1-C ,  2-C ) :   1.0000 B(  1-C ,  3-C ) :   0.9596
B(  1-C ,  4-C ) :   0.9361 B(  2-C , 11-H ) :   0.9815 B(  2-C , 12-H ) :   0.9693
B(  2-C , 13-H ) :   0.9693 B(  3-C , 14-H ) :   0.9769 B(  3-C , 15-H ) :   0.9730
B(  3-C , 16-H ) :   0.9757 B(  4-C ,  5-O ) :   2.0704 B(  4-C ,  6-O ) :   1.2014
B(  6-O ,  7-C ) :   0.9113 B(  7-C , 17-H ) :   0.9784 B(  7-C , 18-H ) :   0.9784
B(  7-C , 19-H ) :   0.9733

FINAL SINGLE POINT ENERGY      -386.353663299554

DIPOLE MOMENT
-------------

Method             : SCF
Type of density    : Electron Density
Multiplicity       :   1
Irrep              :   0
Energy             :  -386.3678335010536102 Eh
Relativity type    :
Basis              : AO
                                X                 Y                 Z
Electronic contribution:      5.079661401      -2.533358933      -0.002649119
Nuclear contribution   :     -5.025377673       3.296472354       0.003611006
                        -----------------------------------------
Total Dipole Moment    :      0.054283729       0.763113421       0.000961888
                        -----------------------------------------
Magnitude (a.u.)       :      0.765042313
Magnitude (Debye)      :      1.944583022

Rotational constants in cm-1:             0.105282             0.049851             0.043957
Rotational constants in MHz :          3156.284315          1494.505207          1317.799975

                             ****ORCA TERMINATED NORMALLY****
TOTAL RUN TIME: 0 days 0 hours 3 minutes 32 seconds 9 msec
