                         Program Version 6.0.0  -   RELEASE  -
|  1> ! wb97x-v def2-tzvp def2/J RIJCOSX DEFGRID2 scfconv7 GCP(DFT/TZ) printgap
|  2> %output
|  3>     printlevel normal
|  4> end
|  5> %cpcm
|  6>     smd true
|  7>     smdsolvent "water"
|  8> end
|  9> * xyz 0 1
| 10> C -1.2473693342800345 0.9670664863181164 -1.2600998389716662
| 11> C -1.006522726801597 0.11872202825892335 5.203619753956482e-05
| 12> C -1.9419069154839885 -1.0905256841354016 6.37506077029089e-05
| 13> C -1.247013329756423 0.966820527451761 1.260413306807883
| 14> C 0.43716696559594986 -0.3656206019858346 -0.0005910643278477161
| 15> O 0.7922908352375225 -1.5327490680784677 -0.0022013586981352424
| 16> O 1.3139691100625484 0.6562440859685966 0.0010152021432710055
| 17> C 2.7168948449116135 0.28779568528538974 0.0005023376747040609
| 18> H -1.0393375035630636 0.3896315244392336 -2.1669821467751653
| 19> H -2.2969973878031555 1.276637979955497 -1.2847358992843112
| 20> H -0.623700461932018 1.8645740542325122 -1.26624128940151
| 21> H -2.978798652072904 -0.7417777959166243 7.08713300809942e-05
| 22> H -1.7876738831122168 -1.7111549459504218 0.8874615214319509
| 23> H -1.7877002538170501 -1.711174562609847 -0.8873154443268291
| 24> H -1.0376927058789829 0.38955289290538425 2.1671006987035333
| 25> H -0.6241339363465666 1.8648667529986502 1.266054602808703
| 26> H -2.296880699559294 1.2754850015856543 1.2859873816899625
| 27> H 2.9555176374512793 -0.28772481465338345 -0.8970289713272207
| 28> H 2.9546128662892963 -0.29415375625359896 0.8941010157988769
| 29> H 3.2626757285281407 1.230493657171896 0.0041244640624427545
| 30> *
| 31>
| 32>                          ****END OF INPUT****

CARTESIAN COORDINATES (ANGSTROEM)
---------------------------------
  C     -1.247369    0.967066   -1.260100
  C     -1.006523    0.118722    0.000052
  C     -1.941907   -1.090526    0.000064
  C     -1.247013    0.966821    1.260413
  C      0.437167   -0.365621   -0.000591
  O      0.792291   -1.532749   -0.002201
  O      1.313969    0.656244    0.001015
  C      2.716895    0.287796    0.000502
  H     -1.039338    0.389632   -2.166982
  H     -2.296997    1.276638   -1.284736
  H     -0.623700    1.864574   -1.266241
  H     -2.978799   -0.741778    0.000071
  H     -1.787674   -1.711155    0.887462
  H     -1.787700   -1.711175   -0.887315
  H     -1.037693    0.389553    2.167101
  H     -0.624134    1.864867    1.266055
  H     -2.296881    1.275485    1.285987
  H      2.955518   -0.287725   -0.897029
  H      2.954613   -0.294154    0.894101
  H      3.262676    1.230494    0.004124

 Total Charge           Charge          ....    0
 Multiplicity           Mult            ....    1
 Number of Electrons    NEL             ....   64
 Basis Dimension        Dim             ....  320

ORBITAL ENERGIES
----------------

  NO   OCC          E(Eh)            E(eV)
   0   2.0000     -21.722004      -591.0858
   1   2.0000     -21.668375      -589.6265
   2   2.0000     -12.181614      -331.4786
   3   2.0000     -12.092261      -329.0471
   4   2.0000     -12.070158      -328.4457
   5   2.0000     -12.033066      -327.4364
   6   2.0000     -12.032785      -327.4287
   7   2.0000     -12.028571      -327.3141
   8   2.0000      -1.764346       -48.0103
   9   2.0000      -1.701474       -46.2995
  10   2.0000      -1.343323       -36.5537
  11   2.0000      -1.268021       -34.5046
  12   2.0000      -1.177990       -32.0547
  13   2.0000      -1.176471       -32.0134
  14   2.0000      -1.139491       -31.0071
  15   2.0000      -1.084866       -29.5207
  16   2.0000      -1.066341       -29.0166
  17   2.0000      -0.998094       -27.1595
  18   2.0000      -0.987925       -26.8828
  19   2.0000      -0.940790       -25.6002
  20   2.0000      -0.914975       -24.8977
  21   2.0000      -0.885493       -24.0955
  22   2.0000      -0.866619       -23.5819
  23   2.0000      -0.866580       -23.5808
  24   2.0000      -0.833142       -22.6709
  25   2.0000      -0.819185       -22.2912
  26   2.0000      -0.809135       -22.0177
  27   2.0000      -0.808529       -22.0012
  28   2.0000      -0.793412       -21.5898
  29   2.0000      -0.786054       -21.3896
  30   2.0000      -0.773919       -21.0594
  31   2.0000      -0.771728       -20.9998
  32   0.0000      -0.312098        -8.4926
  33   0.0000      -0.177208        -4.8221
  34   0.0000      -0.107079        -2.9138
  35   0.0000      -0.045081        -1.2267
  36   0.0000      -0.022273        -0.6061

MULLIKEN ATOMIC CHARGES
-----------------------
   0 C :   -0.430952
   1 C :    0.192969
   2 C :   -0.429561
   3 C :   -0.430958
   4 C :    0.364246
   5 O :   -0.462194
   6 O :   -0.269194
   7 C :   -0.235312
   8 H :    0.139688
   9 H :    0.139911
  10 H :    0.137870
  11 H :    0.140324
  12 H :    0.134574
  13 H :    0.134557
  14 H :    0.139689
  15 H :    0.137846
  16 H :    0.139900
  17 H :    0.149996
  18 H :    0.149959
  19 H :    0.156644
Sum of atomic charges:   -0.0000000

LOEWDIN ATOMIC CHARGES
----------------------
   0 C :   -0.247913
   1 C :   -0.324891
   2 C :   -0.255232
   3 C :   -0.247947
   4 C :   -0.401752
   5 O :    0.031273
   6 O :    0.230680
   7 C :   -0.284118
   8 H :    0.128714
   9 H :    0.130419
  10 H :    0.124900
  11 H :    0.128983
  12 H :    0.125826
  13 H :    0.125815
  14 H :    0.128708
  15 H :    0.124891
  16 H :    0.130413
  17 H :    0.116080
  18 H :    0.116066
  19 H :    0.119087

  Mayer bond orders larger than 0.100000
B(  0-C ,  1-C ) :   0.9478 B(  0-C ,  8-H ) :   0.9730 B(  0-C ,  9-H ) :   0.9735
B(  0-C , 10-H ) :   0.9706 B(  1-C ,  2-C ) :   0.9616 B(  1-C ,  3-C ) :   0.9479
B(  1-C ,  4-C ) :   0.9455 B(  2-C , 11-H ) :   0.9779 B(  2-C , 12-H ) :   0.9720
B(  2-C , 13-H ) :   0.9719 B(  3-C , 14-H ) :   0.9730 B(  3-C , 15-H ) :   0.9706
B(  3-C , 16-H ) :   0.9735 B(  4-C ,  5-O ) :   1.9422 B(  4-C ,  6-O ) :   1.2232
B(  6-O ,  7-C ) :   0.8865 B(  7-C , 17-H ) :   0.9730 B(  7-C , 18-H ) :   0.9730
B(  7-C , 19-H ) :   0.9679

FINAL SINGLE POINT ENERGY      -386.357942347053

DIPOLE MOMENT
-------------

Method             : SCF
Type of density    : Electron Density
Multiplicity       :   1
Irrep              :   0
Energy             :  -386.3721125485530479 Eh
Relativity type    :
Basis              : AO
                                X                 Y                 Z
Electronic contribution:      5.004444402      -2.184667841      -0.002229140
Nuclear contribution   :     -5.025377673       3.296472354       0.003611006
                        -----------------------------------------
Total Dipole Moment    :     -0.020933271       1.111804513       0.001381867
                        -----------------------------------------
Magnitude (a.u.)       :      1.112002422
Magnitude (Debye)      :      2.826485532

Rotational constants in cm-1:             0.105282             0.049851             0.043957
Rotational constants in MHz :          3156.284315          1494.505207          1317.799975

                             ****ORCA TERMINATED NORMALLY****
TOTAL RUN TIME: 0 days 0 hours 3 minutes 25 seconds 40 msec
