                         Program Version 6.0.0  -   RELEASE  -
|  1> ! pbe def2-sv(p) def2/J RI DEFGRID1 loosescf d4 GCP(DFT/SV(P)) printgap
|  2> %output
|  3>     printlevel normal
|  4> end
|  5> * xyz 0 1
|  6> C 5.3245034794 -1.4149678436 -0.4382590818
|  7> C 4.0723324021 -2.2243403292 -0.7081813638
|  8> O 3.0228541569 -1.4287632258 -1.3000776234
|  9> P 2.3154259202 -0.2142926895 -0.5690326525
| 10> S 3.2073985335 1.5352586439 -0.5281838553
| 11> O 2.0002602761 -0.8222437311 0.8700061477
| 12> C 1.9981327788 -0.0691267497 2.1017864191
| 13> C 0.8561599344 -0.5434392099 2.9763737539
| 14> S 0.5656064901 -0.3021329098 -1.7527766208
| 15> C -0.0019048519 1.3907707254 -1.4314221874
| 16> S -0.5143349082 1.6299523366 0.2858216225
| 17> P -2.1539461445 0.2808649472 0.2190491228
| 18> S -3.1945952088 0.3097850843 -1.4477804104
| 19> O -2.9023974569 0.575887935 1.5854109019
| 20> C -3.4600281236 1.8508080167 1.9587018992
| 21> C -4.790538764 2.1106075071 1.2796244103
| 22> O -1.4895030864 -1.1097133485 0.5783026772
| 23> C -1.9063172918 -2.3492241109 -0.020664747
| 24> C -3.1947747339 -2.8400256833 0.6051234223
| 25> H 5.1212453473 -0.639479007 0.2994549386
| 26> H 6.1037984657 -2.06971656 -0.0609685308
| 27> H 5.66792628 -0.9353086199 -1.3517120621
| 28> H 3.6891944499 -2.67281719 0.2115459
| 29> H 4.251699237 -3.0016003284 -1.4529164982
| 30> H 2.9613436034 -0.2536807332 2.5841079235
| 31> H 1.9158368972 0.9977875714 1.8733033851
| 32> H 0.891995708 -0.0084844604 3.9196750702
| 33> H -0.0999952697 -0.352247459 2.4958508851
| 34> H 0.9466925956 -1.6098587782 3.1615958989
| 35> H -0.8482509195 1.5702901937 -2.0942778828
| 36> H 0.8106826598 2.0931603493 -1.6182095342
| 37> H -3.5767141348 1.7749222695 3.041398165
| 38> H -2.7365676142 2.636340769 1.7221557232
| 39> H -5.1996513053 3.0478554298 1.6428628133
| 40> H -4.6626984854 2.1745123699 0.2013233161
| 41> H -5.4877535554 1.3063216271 1.4984930258
| 42> H -2.0259519284 -2.19998841 -1.0990111806
| 43> H -1.0740401328 -3.0299659251 0.1633458795
| 44> H -3.4620853763 -3.8016422232 0.1789102892
| 45> H -3.0775353072 -2.9371058658 1.6808695318
| 46> H -3.9920683249 -2.1261125764 0.4012700919
| 47> *
| 48>
| 49>                          ****END OF INPUT****

CARTESIAN COORDINATES (ANGSTROEM)
---------------------------------
  C      5.324503   -1.414968   -0.438259
  C      4.072332   -2.224340   -0.708181
  O      3.022854   -1.428763   -1.300078
  P      2.315426   -0.214293   -0.569033
  S      3.207399    1.535259   -0.528184
  O      2.000260   -0.822244    0.870006
  C      1.998133   -0.069127    2.101786
  C      0.856160   -0.543439    2.976374
  S      0.565606   -0.302133   -1.752777
  C     -0.001905    1.390771   -1.431422
  S     -0.514335    1.629952    0.285822
  P     -2.153946    0.280865    0.219049
  S     -3.194595    0.309785   -1.447780
  O     -2.902397    0.575888    1.585411
  C     -3.460028    1.850808    1.958702
  C     -4.790539    2.110608    1.279624
  O     -1.489503   -1.109713    0.578303
  C     -1.906317   -2.349224   -0.020665
  C     -3.194775   -2.840026    0.605123
  H      5.121245   -0.639479    0.299455
  H      6.103798   -2.069717   -0.060969
  H      5.667926   -0.935309   -1.351712
  H      3.689194   -2.672817    0.211546
  H      4.251699   -3.001600   -1.452916
  H      2.961344   -0.253681    2.584108
  H      1.915837    0.997788    1.873303
  H      0.891996   -0.008484    3.919675
  H     -0.099995   -0.352247    2.495851
  H      0.946693   -1.609859    3.161596
  H     -0.848251    1.570290   -2.094278
  H      0.810683    2.093160   -1.618210
  H     -3.576714    1.774922    3.041398
  H     -2.736568    2.636341    1.722156
  H     -5.199651    3.047855    1.642863
  H     -4.662698    2.174512    0.201323
  H     -5.487754    1.306322    1.498493
  H     -2.025952   -2.199988   -1.099011
  H     -1.074040   -3.029966    0.163346
  H     -3.462085   -3.801642    0.178910
  H     -3.077535   -2.937106    1.680870
  H     -3.992068   -2.126113    0.401270

 Total Charge           Charge          ....    0
 Multiplicity           Mult            ....    1
 Number of Electrons    NEL             ....  202
 Basis Dimension        Dim             ....  334

ORBITAL ENERGIES
----------------

  NO   OCC          E(Eh)            E(eV)
   0   2.0000     -88.045860     -2395.8497
   1   2.0000     -88.038687     -2395.6545
   2   2.0000     -87.992087     -2394.3864
   3   2.0000     -87.986239     -2394.2273
   4   2.0000     -76.431251     -2079.8001
   5   2.0000     -76.426056     -2079.6587
   6   2.0000     -18.799849      -511.5699
   7   2.0000     -18.792711      -511.3757
   8   2.0000     -18.791567      -511.3445
   9   2.0000     -18.791530      -511.3435
  10   2.0000      -9.960440      -271.0374
  11   2.0000      -9.957399      -270.9546
  12   2.0000      -9.951652      -270.7982
  13   2.0000      -9.949257      -270.7330
  14   2.0000      -9.947962      -270.6978
  15   2.0000      -9.885533      -268.9990
  16   2.0000      -9.884635      -268.9746
  17   2.0000      -9.882437      -268.9148
  18   2.0000      -9.879237      -268.8277
  19   2.0000      -7.690568      -209.2710
  20   2.0000      -7.683768      -209.0860
  21   2.0000      -7.636870      -207.8098
  22   2.0000      -7.631251      -207.6569
  23   2.0000      -6.428327      -174.9237
  24   2.0000      -6.423350      -174.7882
  25   2.0000      -5.718259      -155.6017
  26   2.0000      -5.715107      -155.5160
  27   2.0000      -5.711702      -155.4233
  28   2.0000      -5.708369      -155.3326
  29   2.0000      -5.707746      -155.3157
  30   2.0000      -5.700579      -155.1206
  31   2.0000      -5.665700      -154.1715
  32   2.0000      -5.660058      -154.0180
  33   2.0000      -5.657429      -153.9465
  34   2.0000      -5.657201      -153.9403
  35   2.0000      -5.652113      -153.8018
  36   2.0000      -5.651287      -153.7793
  37   2.0000      -4.650752      -126.5534
  38   2.0000      -4.650258      -126.5399
  39   2.0000      -4.648816      -126.5007
  40   2.0000      -4.646187      -126.4292
  41   2.0000      -4.644817      -126.3919
  42   2.0000      -4.643911      -126.3672
  43   2.0000      -0.991673       -26.9848
  44   2.0000      -0.985936       -26.8287
  45   2.0000      -0.949456       -25.8360
  46   2.0000      -0.942096       -25.6357
  47   2.0000      -0.765763       -20.8375
  48   2.0000      -0.724197       -19.7064
  49   2.0000      -0.710071       -19.3220
  50   2.0000      -0.688303       -18.7297
  51   2.0000      -0.687266       -18.7015
  52   2.0000      -0.673069       -18.3151
  53   2.0000      -0.652342       -17.7511
  54   2.0000      -0.639333       -17.3971
  55   2.0000      -0.601044       -16.3552
  56   2.0000      -0.594009       -16.1638
  57   2.0000      -0.573131       -15.5957
  58   2.0000      -0.571542       -15.5525
  59   2.0000      -0.560274       -15.2458
  60   2.0000      -0.505119       -13.7450
  61   2.0000      -0.497511       -13.5380
  62   2.0000      -0.477729       -12.9997
  63   2.0000      -0.474410       -12.9093
  64   2.0000      -0.460851       -12.5404
  65   2.0000      -0.445109       -12.1120
  66   2.0000      -0.441511       -12.0141
  67   2.0000      -0.431263       -11.7353
  68   2.0000      -0.426003       -11.5921
  69   2.0000      -0.414932       -11.2909
  70   2.0000      -0.411299       -11.1920
  71   2.0000      -0.397082       -10.8051
  72   2.0000      -0.391398       -10.6505
  73   2.0000      -0.387814       -10.5529
  74   2.0000      -0.382242       -10.4013
  75   2.0000      -0.377432       -10.2704
  76   2.0000      -0.367534       -10.0011
  77   2.0000      -0.353729        -9.6255
  78   2.0000      -0.351220        -9.5572
  79   2.0000      -0.349758        -9.5174
  80   2.0000      -0.348928        -9.4948
  81   2.0000      -0.346339        -9.4244
  82   2.0000      -0.340575        -9.2675
  83   2.0000      -0.339282        -9.2323
  84   2.0000      -0.332858        -9.0575
  85   2.0000      -0.326184        -8.8759
  86   2.0000      -0.311995        -8.4898
  87   2.0000      -0.300427        -8.1750
  88   2.0000      -0.293352        -7.9825
  89   2.0000      -0.292953        -7.9717
  90   2.0000      -0.288196        -7.8422
  91   2.0000      -0.278270        -7.5721
  92   2.0000      -0.274739        -7.4760
  93   2.0000      -0.269774        -7.3409
  94   2.0000      -0.256599        -6.9824
  95   2.0000      -0.234368        -6.3775
  96   2.0000      -0.217476        -5.9178
  97   2.0000      -0.214566        -5.8387
  98   2.0000      -0.206798        -5.6272
  99   2.0000      -0.201807        -5.4915
 100   2.0000      -0.197860        -5.3840
 101   0.0000      -0.047030        -1.2798
 102   0.0000      -0.024327        -0.6620
 103   0.0000      -0.005863        -0.1596
 104   0.0000       0.002191         0.0596
 105   0.0000       0.011889         0.3235

MULLIKEN ATOMIC CHARGES
-----------------------
   0 C :   -0.316511
   1 C :   -0.003768
   2 O :   -0.378700
   3 P :    0.639848
   4 S :   -0.334163
   5 O :   -0.384628
   6 C :   -0.003555
   7 C :   -0.297234
   8 S :   -0.072280
   9 C :   -0.368259
  10 S :   -0.095348
  11 P :    0.620924
  12 S :   -0.320613
  13 O :   -0.372876
  14 C :   -0.016662
  15 C :   -0.301946
  16 O :   -0.360509
  17 C :   -0.004435
  18 C :   -0.298188
  19 H :    0.129635
  20 H :    0.110395
  21 H :    0.126274
  22 H :    0.107469
  23 H :    0.109396
  24 H :    0.096867
  25 H :    0.113286
  26 H :    0.103184
  27 H :    0.134343
  28 H :    0.105462
  29 H :    0.193184
  30 H :    0.196124
  31 H :    0.109523
  32 H :    0.110423
  33 H :    0.109905
  34 H :    0.131820
  35 H :    0.116894
  36 H :    0.115458
  37 H :    0.103832
  38 H :    0.111157
  39 H :    0.113535
  40 H :    0.120739
Sum of atomic charges:    0.0000000

LOEWDIN ATOMIC CHARGES
----------------------
   0 C :   -0.366322
   1 C :   -0.111046
   2 O :   -0.247095
   3 P :    0.570841
   4 S :   -0.316853
   5 O :   -0.248630
   6 C :   -0.119363
   7 C :   -0.359031
   8 S :    0.098207
   9 C :   -0.486080
  10 S :    0.088289
  11 P :    0.571127
  12 S :   -0.310391
  13 O :   -0.240564
  14 C :   -0.115668
  15 C :   -0.365555
  16 O :   -0.227466
  17 C :   -0.120764
  18 C :   -0.362772
  19 H :    0.121712
  20 H :    0.129345
  21 H :    0.131434
  22 H :    0.111569
  23 H :    0.121540
  24 H :    0.109604
  25 H :    0.102630
  26 H :    0.127491
  27 H :    0.118630
  28 H :    0.122696
  29 H :    0.130055
  30 H :    0.129900
  31 H :    0.120598
  32 H :    0.106633
  33 H :    0.129841
  34 H :    0.124144
  35 H :    0.127556
  36 H :    0.108352
  37 H :    0.118138
  38 H :    0.130011
  39 H :    0.124938
  40 H :    0.122321

  Mayer bond orders larger than 0.100000
B(  0-C ,  1-C ) :   1.1644 B(  0-C , 19-H ) :   0.9356 B(  0-C , 20-H ) :   0.9364
B(  0-C , 21-H ) :   0.9454 B(  1-C ,  2-O ) :   0.9114 B(  1-C , 22-H ) :   0.9281
B(  1-C , 23-H ) :   0.9351 B(  2-O ,  3-P ) :   1.1232 B(  3-P ,  4-S ) :   1.6156
B(  3-P ,  5-O ) :   1.0911 B(  3-P ,  8-S ) :   0.9513 B(  4-S ,  8-S ) :   0.1106
B(  5-O ,  6-C ) :   0.8933 B(  6-C ,  7-C ) :   1.1645 B(  6-C , 24-H ) :   0.9341
B(  6-C , 25-H ) :   0.9024 B(  7-C , 26-H ) :   0.9392 B(  7-C , 27-H ) :   0.9312
B(  7-C , 28-H ) :   0.9482 B(  8-S ,  9-C ) :   1.0108 B(  9-C , 10-S ) :   0.9973
B(  9-C , 29-H ) :   0.8790 B(  9-C , 30-H ) :   0.8745 B( 10-S , 11-P ) :   0.9540
B( 10-S , 12-S ) :   0.1058 B( 11-P , 12-S ) :   1.5962 B( 11-P , 13-O ) :   1.1057
B( 11-P , 16-O ) :   1.1073 B( 13-O , 14-C ) :   0.9102 B( 14-C , 15-C ) :   1.1650
B( 14-C , 31-H ) :   0.9350 B( 14-C , 32-H ) :   0.9192 B( 15-C , 33-H ) :   0.9379
B( 15-C , 34-H ) :   0.9322 B( 15-C , 35-H ) :   0.9474 B( 16-O , 17-C ) :   0.8962
B( 17-C , 18-C ) :   1.1640 B( 17-C , 36-H ) :   0.9099 B( 17-C , 37-H ) :   0.9331
B( 18-C , 38-H ) :   0.9405 B( 18-C , 39-H ) :   0.9474 B( 18-C , 40-H ) :   0.9365

Dispersion correction           -0.066434479
FINAL SINGLE POINT ENERGY     -2929.524543939930

DIPOLE MOMENT
-------------

Method             : SCF
Type of density    : Electron Density
Multiplicity       :   1
Irrep              :   0
Energy             : -2929.6435835380857498 Eh
Relativity type    :
Basis              : AO
                                X                 Y                 Z
Electronic contribution:      3.731306802       8.810031696     -15.427646441
Nuclear contribution   :     -3.779613962      -9.608831370      16.761364872
                        -----------------------------------------
Total Dipole Moment    :     -0.048307159      -0.798799673       1.333718431
                        -----------------------------------------
Magnitude (a.u.)       :      1.555383989
Magnitude (Debye)      :      3.953471912

Rotational constants in cm-1:             0.013764             0.004825             0.004697
Rotational constants in MHz :           412.643154           144.658735           140.804021

                             ****ORCA TERMINATED NORMALLY****
TOTAL RUN TIME: 0 days 0 hours 0 minutes 21 seconds 710 msec
