                         Program Version 6.0.0  -   RELEASE  -
|  1> ! pbe def2-sv(p) def2/J RI DEFGRID1 loosescf d4 GCP(DFT/SV(P)) printgap
|  2> %output
|  3>     printlevel normal
|  4> end
|  5> * xyz 0 1
|  6> C -1.6972180567 0.4087977892 -0.0195486319
|  7> C -0.6204843016 -0.6537470142 0.0726684671
|  8> S 1.0415509095 0.1392229338 -0.0268277354
|  9> H -2.6782573012 -0.0558304905 0.0394073043
| 10> H -1.5969300405 1.1233423582 0.7947615778
| 11> H -1.6194259829 0.9480278891 -0.9612710357
| 12> H -0.6911763389 -1.3588831019 -0.7540052269
| 13> H -0.6690376056 -1.1823539416 1.0233856737
| 14> H 1.7388308468 -0.9844443822 0.0781883564
| 15> *
| 16>
| 17>                          ****END OF INPUT****

CARTESIAN COORDINATES (ANGSTROEM)
---------------------------------
  C     -1.697218    0.408798   -0.019549
  C     -0.620484   -0.653747    0.072668
  S      1.041551    0.139223   -0.026828
  H     -2.678257   -0.055830    0.039407
  H     -1.596930    1.123342    0.794762
  H     -1.619426    0.948028   -0.961271
  H     -0.691176   -1.358883   -0.754005
  H     -0.669038   -1.182354    1.023386
  H      1.738831   -0.984444    0.078188

 Total Charge           Charge          ....    0
 Multiplicity           Mult            ....    1
 Number of Electrons    NEL             ....   34
 Basis Dimension        Dim             ....   58

ORBITAL ENERGIES
----------------

  NO   OCC          E(Eh)            E(eV)
   0   2.0000     -88.010584     -2394.8897
   1   2.0000      -9.918639      -269.8999
   2   2.0000      -9.886615      -269.0285
   3   2.0000      -7.657170      -208.3622
   4   2.0000      -5.685630      -154.7139
   5   2.0000      -5.681807      -154.6098
   6   2.0000      -5.673167      -154.3747
   7   2.0000      -0.723288       -19.6817
   8   2.0000      -0.634640       -17.2694
   9   2.0000      -0.535327       -14.5670
  10   2.0000      -0.414934       -11.2909
  11   2.0000      -0.412867       -11.2347
  12   2.0000      -0.349064        -9.4985
  13   2.0000      -0.325861        -8.8671
  14   2.0000      -0.321200        -8.7403
  15   2.0000      -0.282334        -7.6827
  16   2.0000      -0.191109        -5.2003
  17   0.0000       0.001849         0.0503
  18   0.0000       0.042890         1.1671
  19   0.0000       0.063767         1.7352
  20   0.0000       0.090104         2.4519
  21   0.0000       0.091002         2.4763

MULLIKEN ATOMIC CHARGES
-----------------------
   0 C :   -0.278301
   1 C :   -0.291936
   2 S :   -0.193684
   3 H :    0.118020
   4 H :    0.118751
   5 H :    0.118755
   6 H :    0.132463
   7 H :    0.132450
   8 H :    0.143482
Sum of atomic charges:   -0.0000000

LOEWDIN ATOMIC CHARGES
----------------------
   0 C :   -0.357707
   1 C :   -0.333306
   2 S :   -0.003288
   3 H :    0.127630
   4 H :    0.124184
   5 H :    0.124167
   6 H :    0.120548
   7 H :    0.120532
   8 H :    0.077240

  Mayer bond orders larger than 0.100000
B(  0-C ,  1-C ) :   1.1454 B(  0-C ,  3-H ) :   0.9506 B(  0-C ,  4-H ) :   0.9527
B(  0-C ,  5-H ) :   0.9528 B(  1-C ,  2-S ) :   1.0524 B(  1-C ,  6-H ) :   0.9305
B(  1-C ,  7-H ) :   0.9306 B(  2-S ,  8-H ) :   0.9098

Dispersion correction           -0.005115158
FINAL SINGLE POINT ENERGY      -477.485781812417

DIPOLE MOMENT
-------------

Method             : SCF
Type of density    : Electron Density
Multiplicity       :   1
Irrep              :   0
Energy             :  -477.5171442098198327 Eh
Relativity type    :
Basis              : AO
                                X                 Y                 Z
Electronic contribution:      4.832260988       0.911124567      -0.151769169
Nuclear contribution   :     -5.204595813      -1.420735728       0.207599236
                        -----------------------------------------
Total Dipole Moment    :     -0.372334824      -0.509611161       0.055830067
                        -----------------------------------------
Magnitude (a.u.)       :      0.633603782
Magnitude (Debye)      :      1.610492826

Rotational constants in cm-1:             0.967419             0.179976             0.160955
Rotational constants in MHz :         29002.488899          5395.552361          4825.306530

                             ****ORCA TERMINATED NORMALLY****
TOTAL RUN TIME: 0 days 0 hours 0 minutes 4 seconds 846 msec
