                         Program Version 6.0.0  -   RELEASE  -
|  1> ! pbe def2-sv(p) def2/J RI DEFGRID1 loosescf d4 GCP(DFT/SV(P)) printgap
|  2> %output
|  3>     printlevel normal
|  4> end
|  5> * xyz 0 1
|  6> C 5.5822761878 -0.4340576147 -1.1192692132
|  7> C 4.335620593 0.4246618475 -1.0569024979
|  8> O 3.3818421183 -0.241991162 -0.2093553521
|  9> P 1.9942480438 0.455580279 0.1532313594
| 10> S 2.1439795118 2.2856973803 0.8301160819
| 11> O 1.3704633949 -0.6350824117 1.1050947447
| 12> C 1.353939422 -0.4827320361 2.5386061927
| 13> C 2.7299889136 -0.7152875025 3.1237987611
| 14> S 0.8562925159 0.254170394 -1.62846702
| 15> C 0.4740664895 -1.5166941453 -1.5894385786
| 16> S -0.7537681084 -2.0048635906 -0.3288314488
| 17> P -2.0035728407 -0.314306661 -0.3308048869
| 18> S -2.6281059416 0.3796555929 -2.0593909759
| 19> O -1.2107408676 0.695348813 0.6077459213
| 20> C -1.5055123027 2.1081175826 0.5822902679
| 21> C -2.870274191 2.4059368443 1.1624354128
| 22> O -3.1645567489 -0.7903858023 0.6420142238
| 23> C -4.2485626169 -1.6249026732 0.1842836376
| 24> C -5.4063463457 -1.4595498306 1.1479501404
| 25> H 6.3140373277 0.0484495118 -1.7587033533
| 26> H 6.0002205455 -0.556897895 -0.1244712594
| 27> H 5.3411361254 -1.4127164829 -1.523518367
| 28> H 3.8884691454 0.558446452 -2.0474821207
| 29> H 4.5450536558 1.4116644179 -0.6316396334
| 30> H 0.9904319907 0.5207458262 2.7809253095
| 31> H 0.631438641 -1.2291925246 2.8719940953
| 32> H 2.6745709705 -0.6692432452 4.2067715301
| 33> H 3.1073553687 -1.6876265571 2.8193184772
| 34> H 3.4125505923 0.056367426 2.7694558415
| 35> H 1.373783016 -2.0896764851 -1.3769692659
| 36> H 0.0783448475 -1.7453486566 -2.577224878
| 37> H -0.7023674789 2.5607973518 1.167460158
| 38> H -1.4354873015 2.4567978689 -0.4541576237
| 39> H -3.0069823082 3.4812923014 1.2182880269
| 40> H -3.642278608 1.9819790352 0.5212569644
| 41> H -2.9576205227 1.9745188914 2.1560507747
| 42> H -4.5215228805 -1.3155243391 -0.8304131292
| 43> H -3.8932671539 -2.6583368611 0.1602123008
| 44> H -6.2193939149 -2.1087683362 0.840274349
| 45> H -5.0920626937 -1.7261421255 2.1527529218
| 46> H -5.7515410605 -0.4294721867 1.1484544237
| 47> *
| 48>
| 49>                          ****END OF INPUT****

CARTESIAN COORDINATES (ANGSTROEM)
---------------------------------
  C      5.582276   -0.434058   -1.119269
  C      4.335621    0.424662   -1.056902
  O      3.381842   -0.241991   -0.209355
  P      1.994248    0.455580    0.153231
  S      2.143980    2.285697    0.830116
  O      1.370463   -0.635082    1.105095
  C      1.353939   -0.482732    2.538606
  C      2.729989   -0.715288    3.123799
  S      0.856293    0.254170   -1.628467
  C      0.474066   -1.516694   -1.589439
  S     -0.753768   -2.004864   -0.328831
  P     -2.003573   -0.314307   -0.330805
  S     -2.628106    0.379656   -2.059391
  O     -1.210741    0.695349    0.607746
  C     -1.505512    2.108118    0.582290
  C     -2.870274    2.405937    1.162435
  O     -3.164557   -0.790386    0.642014
  C     -4.248563   -1.624903    0.184284
  C     -5.406346   -1.459550    1.147950
  H      6.314037    0.048450   -1.758703
  H      6.000221   -0.556898   -0.124471
  H      5.341136   -1.412716   -1.523518
  H      3.888469    0.558446   -2.047482
  H      4.545054    1.411664   -0.631640
  H      0.990432    0.520746    2.780925
  H      0.631439   -1.229193    2.871994
  H      2.674571   -0.669243    4.206772
  H      3.107355   -1.687627    2.819318
  H      3.412551    0.056367    2.769456
  H      1.373783   -2.089676   -1.376969
  H      0.078345   -1.745349   -2.577225
  H     -0.702367    2.560797    1.167460
  H     -1.435487    2.456798   -0.454158
  H     -3.006982    3.481292    1.218288
  H     -3.642279    1.981979    0.521257
  H     -2.957621    1.974519    2.156051
  H     -4.521523   -1.315524   -0.830413
  H     -3.893267   -2.658337    0.160212
  H     -6.219394   -2.108768    0.840274
  H     -5.092063   -1.726142    2.152753
  H     -5.751541   -0.429472    1.148454

 Total Charge           Charge          ....    0
 Multiplicity           Mult            ....    1
 Number of Electrons    NEL             ....  202
 Basis Dimension        Dim             ....  334

ORBITAL ENERGIES
----------------

  NO   OCC          E(Eh)            E(eV)
   0   2.0000     -88.044783     -2395.8203
   1   2.0000     -88.038390     -2395.6464
   2   2.0000     -87.990726     -2394.3494
   3   2.0000     -87.981117     -2394.0879
   4   2.0000     -76.427219     -2079.6904
   5   2.0000     -76.423374     -2079.5857
   6   2.0000     -18.792873      -511.3801
   7   2.0000     -18.792069      -511.3582
   8   2.0000     -18.791380      -511.3395
   9   2.0000     -18.784962      -511.1648
  10   2.0000      -9.961871      -271.0763
  11   2.0000      -9.952795      -270.8293
  12   2.0000      -9.951698      -270.7995
  13   2.0000      -9.950939      -270.7788
  14   2.0000      -9.936960      -270.3984
  15   2.0000      -9.890193      -269.1258
  16   2.0000      -9.887485      -269.0522
  17   2.0000      -9.883843      -268.9530
  18   2.0000      -9.875233      -268.7187
  19   2.0000      -7.689358      -209.2381
  20   2.0000      -7.683857      -209.0884
  21   2.0000      -7.635774      -207.7800
  22   2.0000      -7.626166      -207.5185
  23   2.0000      -6.424946      -174.8317
  24   2.0000      -6.420546      -174.7120
  25   2.0000      -5.717627      -155.5845
  26   2.0000      -5.713659      -155.4766
  27   2.0000      -5.711968      -155.4306
  28   2.0000      -5.708405      -155.3336
  29   2.0000      -5.706142      -155.2720
  30   2.0000      -5.700457      -155.1173
  31   2.0000      -5.664624      -154.1422
  32   2.0000      -5.656469      -153.9204
  33   2.0000      -5.655917      -153.9053
  34   2.0000      -5.655043      -153.8815
  35   2.0000      -5.646798      -153.6572
  36   2.0000      -5.646401      -153.6464
  37   2.0000      -4.647339      -126.4605
  38   2.0000      -4.646878      -126.4480
  39   2.0000      -4.645401      -126.4078
  40   2.0000      -4.642963      -126.3414
  41   2.0000      -4.642409      -126.3264
  42   2.0000      -4.641118      -126.2912
  43   2.0000      -0.989241       -26.9186
  44   2.0000      -0.982688       -26.7403
  45   2.0000      -0.947230       -25.7754
  46   2.0000      -0.940850       -25.6018
  47   2.0000      -0.763933       -20.7877
  48   2.0000      -0.721492       -19.6328
  49   2.0000      -0.707993       -19.2655
  50   2.0000      -0.688790       -18.7429
  51   2.0000      -0.682532       -18.5726
  52   2.0000      -0.671700       -18.2779
  53   2.0000      -0.651804       -17.7365
  54   2.0000      -0.637258       -17.3407
  55   2.0000      -0.598591       -16.2885
  56   2.0000      -0.591762       -16.1027
  57   2.0000      -0.570863       -15.5340
  58   2.0000      -0.564141       -15.3511
  59   2.0000      -0.558453       -15.1963
  60   2.0000      -0.507065       -13.7979
  61   2.0000      -0.499699       -13.5975
  62   2.0000      -0.478747       -13.0274
  63   2.0000      -0.469451       -12.7744
  64   2.0000      -0.459460       -12.5026
  65   2.0000      -0.442539       -12.0421
  66   2.0000      -0.436547       -11.8791
  67   2.0000      -0.432339       -11.7646
  68   2.0000      -0.425963       -11.5910
  69   2.0000      -0.417338       -11.3563
  70   2.0000      -0.408357       -11.1120
  71   2.0000      -0.397769       -10.8238
  72   2.0000      -0.391230       -10.6459
  73   2.0000      -0.380755       -10.3609
  74   2.0000      -0.378017       -10.2864
  75   2.0000      -0.372116       -10.1258
  76   2.0000      -0.369341       -10.0503
  77   2.0000      -0.358688        -9.7604
  78   2.0000      -0.356251        -9.6941
  79   2.0000      -0.354097        -9.6355
  80   2.0000      -0.346441        -9.4271
  81   2.0000      -0.344356        -9.3704
  82   2.0000      -0.342883        -9.3303
  83   2.0000      -0.337547        -9.1851
  84   2.0000      -0.330327        -8.9887
  85   2.0000      -0.318104        -8.6561
  86   2.0000      -0.311617        -8.4795
  87   2.0000      -0.300156        -8.1677
  88   2.0000      -0.298058        -8.1106
  89   2.0000      -0.292259        -7.9528
  90   2.0000      -0.281801        -7.6682
  91   2.0000      -0.274773        -7.4769
  92   2.0000      -0.263663        -7.1746
  93   2.0000      -0.261421        -7.1136
  94   2.0000      -0.258873        -7.0443
  95   2.0000      -0.229406        -6.2425
  96   2.0000      -0.221801        -6.0355
  97   2.0000      -0.213042        -5.7972
  98   2.0000      -0.205928        -5.6036
  99   2.0000      -0.194536        -5.2936
 100   2.0000      -0.193410        -5.2630
 101   0.0000      -0.046372        -1.2618
 102   0.0000      -0.024237        -0.6595
 103   0.0000      -0.007910        -0.2152
 104   0.0000       0.002270         0.0618
 105   0.0000       0.019310         0.5254

MULLIKEN ATOMIC CHARGES
-----------------------
   0 C :   -0.275864
   1 C :   -0.016234
   2 O :   -0.377428
   3 P :    0.625340
   4 S :   -0.326566
   5 O :   -0.363025
   6 C :   -0.000127
   7 C :   -0.301905
   8 S :   -0.079529
   9 C :   -0.320451
  10 S :   -0.097441
  11 P :    0.611157
  12 S :   -0.332881
  13 O :   -0.367424
  14 C :   -0.019483
  15 C :   -0.301438
  16 O :   -0.375856
  17 C :   -0.010825
  18 C :   -0.282844
  19 H :    0.112944
  20 H :    0.118192
  21 H :    0.113345
  22 H :    0.098631
  23 H :    0.107252
  24 H :    0.113868
  25 H :    0.104303
  26 H :    0.111850
  27 H :    0.114690
  28 H :    0.120934
  29 H :    0.179938
  30 H :    0.191669
  31 H :    0.117160
  32 H :    0.112488
  33 H :    0.110415
  34 H :    0.118542
  35 H :    0.110740
  36 H :    0.106040
  37 H :    0.101040
  38 H :    0.111663
  39 H :    0.115837
  40 H :    0.121282
Sum of atomic charges:   -0.0000000

LOEWDIN ATOMIC CHARGES
----------------------
   0 C :   -0.349603
   1 C :   -0.124740
   2 O :   -0.254034
   3 P :    0.573141
   4 S :   -0.310097
   5 O :   -0.231331
   6 C :   -0.113221
   7 C :   -0.363562
   8 S :    0.106099
   9 C :   -0.466390
  10 S :    0.078844
  11 P :    0.564554
  12 S :   -0.332648
  13 O :   -0.240601
  14 C :   -0.127980
  15 C :   -0.365489
  16 O :   -0.247871
  17 C :   -0.121540
  18 C :   -0.350485
  19 H :    0.131317
  20 H :    0.127742
  21 H :    0.125407
  22 H :    0.105276
  23 H :    0.109548
  24 H :    0.111470
  25 H :    0.118259
  26 H :    0.130315
  27 H :    0.125673
  28 H :    0.122156
  29 H :    0.133815
  30 H :    0.139370
  31 H :    0.111239
  32 H :    0.110423
  33 H :    0.129937
  34 H :    0.118609
  35 H :    0.123398
  36 H :    0.107713
  37 H :    0.109670
  38 H :    0.130696
  39 H :    0.126529
  40 H :    0.128392

  Mayer bond orders larger than 0.100000
B(  0-C ,  1-C ) :   1.1597 B(  0-C , 19-H ) :   0.9422 B(  0-C , 20-H ) :   0.9516
B(  0-C , 21-H ) :   0.9512 B(  1-C ,  2-O ) :   0.9094 B(  1-C , 22-H ) :   0.9202
B(  1-C , 23-H ) :   0.9164 B(  2-O ,  3-P ) :   1.0792 B(  3-P ,  4-S ) :   1.6291
B(  3-P ,  5-O ) :   1.1360 B(  3-P ,  8-S ) :   0.9526 B(  5-O ,  6-C ) :   0.8928
B(  6-C ,  7-C ) :   1.1626 B(  6-C , 24-H ) :   0.9171 B(  6-C , 25-H ) :   0.9317
B(  7-C , 26-H ) :   0.9399 B(  7-C , 27-H ) :   0.9464 B(  7-C , 28-H ) :   0.9364
B(  8-S ,  9-C ) :   1.0045 B(  9-C , 10-S ) :   0.9756 B(  9-C , 29-H ) :   0.9065
B(  9-C , 30-H ) :   0.9047 B( 10-S , 11-P ) :   0.9841 B( 10-S , 12-S ) :   0.1127
B( 11-P , 12-S ) :   1.6046 B( 11-P , 13-O ) :   1.1147 B( 11-P , 16-O ) :   1.1044
B( 13-O , 14-C ) :   0.8923 B( 14-C , 15-C ) :   1.1618 B( 14-C , 31-H ) :   0.9161
B( 14-C , 32-H ) :   0.9169 B( 15-C , 33-H ) :   0.9395 B( 15-C , 34-H ) :   0.9338
B( 15-C , 35-H ) :   0.9462 B( 16-O , 17-C ) :   0.9042 B( 17-C , 18-C ) :   1.1604
B( 17-C , 36-H ) :   0.9062 B( 17-C , 37-H ) :   0.9302 B( 18-C , 38-H ) :   0.9420
B( 18-C , 39-H ) :   0.9503 B( 18-C , 40-H ) :   0.9514

Dispersion correction           -0.066364709
FINAL SINGLE POINT ENERGY     -2929.520314955699

DIPOLE MOMENT
-------------

Method             : SCF
Type of density    : Electron Density
Multiplicity       :   1
Irrep              :   0
Energy             : -2929.6389968965154367 Eh
Relativity type    :
Basis              : AO
                                X                 Y                 Z
Electronic contribution:     -0.673559191       1.549372271     -12.339414259
Nuclear contribution   :      1.089663040      -2.585603158      12.937338090
                        -----------------------------------------
Total Dipole Moment    :      0.416103849      -1.036230888       0.597923831
                        -----------------------------------------
Magnitude (a.u.)       :      1.266660875
Magnitude (Debye)      :      3.219596080

Rotational constants in cm-1:             0.013416             0.004956             0.004794
Rotational constants in MHz :           402.198225           148.577163           143.713470

                             ****ORCA TERMINATED NORMALLY****
TOTAL RUN TIME: 0 days 0 hours 0 minutes 21 seconds 333 msec
