                         Program Version 6.0.0  -   RELEASE  -
|  1> ! r2scan-3c def2/J RI DEFGRID2 scfconv6 printgap
|  2> %output
|  3>     printlevel normal
|  4> end
|  5> * xyz 0 1
|  6> C 4.9363850079 -1.6239239078 -0.7400637509
|  7> C 4.4293350096 -0.5339226087 -1.6607363451
|  8> O 3.03508796 -0.2402479871 -1.4340493252
|  9> P 2.5347139087 0.4410971849 -0.088922982
| 10> S 3.7503781391 1.7413130533 0.7268651596
| 11> O 2.2010658076 -0.8347593657 0.8104669572
| 12> C 2.1401985954 -0.7659594426 2.2430098421
| 13> C 0.9953331225 0.0985231338 2.7301187124
| 14> S 0.6770171651 1.1658257774 -0.7836137602
| 15> C 0.0143036495 -0.3828353646 -1.477070231
| 16> S -0.793911084 -1.4465973563 -0.2554796037
| 17> P -2.5051302147 -0.2476866169 -0.0073054032
| 18> S -3.23950909 0.6244452961 -1.6093412925
| 19> O -1.9976049049 0.6944773164 1.161325375
| 20> C -2.6945143059 1.9029653226 1.5380071073
| 21> C -2.0508502836 3.1116174655 0.8880667328
| 22> O -3.553401655 -1.1559751692 0.7727675186
| 23> C -4.5132531156 -1.9834443587 0.0924701069
| 24> C -3.853276852 -3.1407013287 -0.6290038369
| 25> H 4.2986725559 -2.5015462436 -0.8065183641
| 26> H 5.949922212 -1.8899671766 -1.023464903
| 27> H 4.9399802957 -1.2668364816 0.2888695366
| 28> H 4.4638159973 -0.8372774975 -2.7079703917
| 29> H 5.002955544 0.3876202791 -1.5208487248
| 30> H 2.0213826339 -1.8052392042 2.5516635445
| 31> H 3.0927876401 -0.3693050239 2.6090968125
| 32> H 0.9728522977 0.0892602782 3.8151147608
| 33> H 1.1391246368 1.1243845109 2.3891002741
| 34> H 0.0451162699 -0.267030722 2.348689269
| 35> H 0.8218868096 -0.954188537 -1.9235150711
| 36> H -0.7209894898 -0.0803287311 -2.2235317786
| 37> H -3.7465192112 1.8183276547 1.2518494964
| 38> H -2.6118422892 1.9424932639 2.6251933789
| 39> H -2.5396870847 4.0133132683 1.2423644162
| 40> H -0.9931908011 3.152697024 1.1341867825
| 41> H -2.1480087368 3.0550654141 -0.1941347189
| 42> H -5.1743905036 -2.3272116298 0.8889985158
| 43> H -5.071141296 -1.3582196794 -0.6121183297
| 44> H -3.2487341373 -2.767870405 -1.454787228
| 45> H -3.2121877487 -3.693997184 0.0525002079
| 46> H -4.6183224609 -3.8017753111 -1.0233478205
| 47> *
| 48>
| 49>                          ****END OF INPUT****

CARTESIAN COORDINATES (ANGSTROEM)
---------------------------------
  C      4.936385   -1.623924   -0.740064
  C      4.429335   -0.533923   -1.660736
  O      3.035088   -0.240248   -1.434049
  P      2.534714    0.441097   -0.088923
  S      3.750378    1.741313    0.726865
  O      2.201066   -0.834759    0.810467
  C      2.140199   -0.765959    2.243010
  C      0.995333    0.098523    2.730119
  S      0.677017    1.165826   -0.783614
  C      0.014304   -0.382835   -1.477070
  S     -0.793911   -1.446597   -0.255480
  P     -2.505130   -0.247687   -0.007305
  S     -3.239509    0.624445   -1.609341
  O     -1.997605    0.694477    1.161325
  C     -2.694514    1.902965    1.538007
  C     -2.050850    3.111617    0.888067
  O     -3.553402   -1.155975    0.772768
  C     -4.513253   -1.983444    0.092470
  C     -3.853277   -3.140701   -0.629004
  H      4.298673   -2.501546   -0.806518
  H      5.949922   -1.889967   -1.023465
  H      4.939980   -1.266836    0.288870
  H      4.463816   -0.837277   -2.707970
  H      5.002956    0.387620   -1.520849
  H      2.021383   -1.805239    2.551664
  H      3.092788   -0.369305    2.609097
  H      0.972852    0.089260    3.815115
  H      1.139125    1.124385    2.389100
  H      0.045116   -0.267031    2.348689
  H      0.821887   -0.954189   -1.923515
  H     -0.720989   -0.080329   -2.223532
  H     -3.746519    1.818328    1.251849
  H     -2.611842    1.942493    2.625193
  H     -2.539687    4.013313    1.242364
  H     -0.993191    3.152697    1.134187
  H     -2.148009    3.055065   -0.194135
  H     -5.174391   -2.327212    0.888999
  H     -5.071141   -1.358220   -0.612118
  H     -3.248734   -2.767870   -1.454787
  H     -3.212188   -3.693997    0.052500
  H     -4.618322   -3.801775   -1.023348

 Total Charge           Charge          ....    0
 Multiplicity           Mult            ....    1
 Number of Electrons    NEL             ....  202
 Basis Dimension        Dim             ....  539

ORBITAL ENERGIES
----------------

  NO   OCC          E(Eh)            E(eV)
   0   2.0000     -88.579636     -2410.3744
   1   2.0000     -88.573137     -2410.1976
   2   2.0000     -88.525682     -2408.9063
   3   2.0000     -88.521851     -2408.8020
   4   2.0000     -76.917911     -2093.0428
   5   2.0000     -76.914208     -2092.9420
   6   2.0000     -18.996924      -516.9326
   7   2.0000     -18.991058      -516.7729
   8   2.0000     -18.990538      -516.7588
   9   2.0000     -18.989553      -516.7320
  10   2.0000     -10.108192      -275.0579
  11   2.0000     -10.101428      -274.8738
  12   2.0000     -10.099737      -274.8278
  13   2.0000     -10.099387      -274.8183
  14   2.0000     -10.094852      -274.6949
  15   2.0000     -10.032061      -272.9863
  16   2.0000     -10.030560      -272.9454
  17   2.0000     -10.022957      -272.7385
  18   2.0000     -10.019814      -272.6530
  19   2.0000      -7.874188      -214.2676
  20   2.0000      -7.867273      -214.0794
  21   2.0000      -7.820395      -212.8038
  22   2.0000      -7.816453      -212.6965
  23   2.0000      -6.596473      -179.4992
  24   2.0000      -6.592515      -179.3915
  25   2.0000      -5.821036      -158.3984
  26   2.0000      -5.818083      -158.3181
  27   2.0000      -5.814612      -158.2236
  28   2.0000      -5.811236      -158.1318
  29   2.0000      -5.810903      -158.1227
  30   2.0000      -5.804173      -157.9396
  31   2.0000      -5.767964      -156.9543
  32   2.0000      -5.764131      -156.8500
  33   2.0000      -5.760818      -156.7598
  34   2.0000      -5.760347      -156.7470
  35   2.0000      -5.756861      -156.6521
  36   2.0000      -5.756328      -156.6377
  37   2.0000      -4.741972      -129.0356
  38   2.0000      -4.741285      -129.0169
  39   2.0000      -4.740310      -128.9904
  40   2.0000      -4.737858      -128.9237
  41   2.0000      -4.737516      -128.9144
  42   2.0000      -4.736356      -128.8828
  43   2.0000      -1.052812       -28.6485
  44   2.0000      -1.048924       -28.5427
  45   2.0000      -1.012995       -27.5650
  46   2.0000      -1.010269       -27.4908
  47   2.0000      -0.803473       -21.8636
  48   2.0000      -0.760188       -20.6858
  49   2.0000      -0.747991       -20.3539
  50   2.0000      -0.731518       -19.9056
  51   2.0000      -0.728577       -19.8256
  52   2.0000      -0.712326       -19.3834
  53   2.0000      -0.691473       -18.8159
  54   2.0000      -0.670985       -18.2584
  55   2.0000      -0.633243       -17.2314
  56   2.0000      -0.625862       -17.0306
  57   2.0000      -0.608952       -16.5704
  58   2.0000      -0.604305       -16.4440
  59   2.0000      -0.590325       -16.0636
  60   2.0000      -0.527914       -14.3653
  61   2.0000      -0.518006       -14.0957
  62   2.0000      -0.492408       -13.3991
  63   2.0000      -0.490086       -13.3359
  64   2.0000      -0.481227       -13.0949
  65   2.0000      -0.463228       -12.6051
  66   2.0000      -0.460427       -12.5288
  67   2.0000      -0.456461       -12.4209
  68   2.0000      -0.446511       -12.1502
  69   2.0000      -0.431948       -11.7539
  70   2.0000      -0.427971       -11.6457
  71   2.0000      -0.415525       -11.3070
  72   2.0000      -0.412670       -11.2293
  73   2.0000      -0.410097       -11.1593
  74   2.0000      -0.398175       -10.8349
  75   2.0000      -0.394062       -10.7230
  76   2.0000      -0.381110       -10.3705
  77   2.0000      -0.372539       -10.1373
  78   2.0000      -0.369273       -10.0484
  79   2.0000      -0.367247        -9.9933
  80   2.0000      -0.361810        -9.8454
  81   2.0000      -0.357801        -9.7363
  82   2.0000      -0.356411        -9.6984
  83   2.0000      -0.352785        -9.5998
  84   2.0000      -0.343761        -9.3542
  85   2.0000      -0.333332        -9.0704
  86   2.0000      -0.322584        -8.7779
  87   2.0000      -0.313762        -8.5379
  88   2.0000      -0.309513        -8.4223
  89   2.0000      -0.305108        -8.3024
  90   2.0000      -0.301637        -8.2080
  91   2.0000      -0.294518        -8.0142
  92   2.0000      -0.288881        -7.8608
  93   2.0000      -0.283123        -7.7042
  94   2.0000      -0.272182        -7.4064
  95   2.0000      -0.244807        -6.6615
  96   2.0000      -0.230139        -6.2624
  97   2.0000      -0.225643        -6.1401
  98   2.0000      -0.222688        -6.0596
  99   2.0000      -0.219972        -5.9857
 100   2.0000      -0.215709        -5.8697
 101   0.0000      -0.044922        -1.2224
 102   0.0000      -0.023231        -0.6322
 103   0.0000      -0.017188        -0.4677
 104   0.0000       0.004240         0.1154
 105   0.0000       0.007106         0.1934

MULLIKEN ATOMIC CHARGES
-----------------------
   0 C :   -0.431416
   1 C :   -0.155061
   2 O :   -0.304632
   3 P :    0.644406
   4 S :   -0.460841
   5 O :   -0.267706
   6 C :   -0.140529
   7 C :   -0.458359
   8 S :   -0.097894
   9 C :   -0.271771
  10 S :   -0.089130
  11 P :    0.648326
  12 S :   -0.476160
  13 O :   -0.265942
  14 C :   -0.115947
  15 C :   -0.465668
  16 O :   -0.302655
  17 C :   -0.148160
  18 C :   -0.455389
  19 H :    0.153638
  20 H :    0.147844
  21 H :    0.167007
  22 H :    0.148856
  23 H :    0.174048
  24 H :    0.147243
  25 H :    0.162837
  26 H :    0.143355
  27 H :    0.167880
  28 H :    0.179810
  29 H :    0.215351
  30 H :    0.216161
  31 H :    0.151239
  32 H :    0.150414
  33 H :    0.144342
  34 H :    0.163040
  35 H :    0.179393
  36 H :    0.148592
  37 H :    0.172692
  38 H :    0.176383
  39 H :    0.155738
  40 H :    0.148665
Sum of atomic charges:   -0.0000000

LOEWDIN ATOMIC CHARGES
----------------------
   0 C :   -0.399506
   1 C :    0.023735
   2 O :   -0.693571
   3 P :    0.370628
   4 S :   -0.110886
   5 O :   -0.677719
   6 C :    0.016264
   7 C :   -0.409415
   8 S :    0.190856
   9 C :   -0.409661
  10 S :    0.181617
  11 P :    0.374908
  12 S :   -0.133436
  13 O :   -0.680864
  14 C :    0.026910
  15 C :   -0.402925
  16 O :   -0.658944
  17 C :    0.019750
  18 C :   -0.406398
  19 H :    0.160585
  20 H :    0.159717
  21 H :    0.164814
  22 H :    0.179550
  23 H :    0.180850
  24 H :    0.179952
  25 H :    0.178398
  26 H :    0.157504
  27 H :    0.165772
  28 H :    0.172760
  29 H :    0.195904
  30 H :    0.195754
  31 H :    0.175547
  32 H :    0.179081
  33 H :    0.157728
  34 H :    0.162277
  35 H :    0.167486
  36 H :    0.179724
  37 H :    0.180026
  38 H :    0.165319
  39 H :    0.160043
  40 H :    0.159865

  Mayer bond orders larger than 0.100000
B(  0-C ,  1-C ) :   0.9241 B(  0-C , 19-H ) :   0.9703 B(  0-C , 20-H ) :   0.9611
B(  0-C , 21-H ) :   0.9603 B(  1-C ,  2-O ) :   0.8113 B(  1-C , 22-H ) :   0.9622
B(  1-C , 23-H ) :   0.9664 B(  2-O ,  3-P ) :   1.1259 B(  3-P ,  4-S ) :   1.8117
B(  3-P ,  5-O ) :   1.0327 B(  3-P ,  8-S ) :   1.0863 B(  5-O ,  6-C ) :   0.7937
B(  6-C ,  7-C ) :   0.9290 B(  6-C , 24-H ) :   0.9603 B(  6-C , 25-H ) :   0.9586
B(  7-C , 26-H ) :   0.9610 B(  7-C , 27-H ) :   0.9611 B(  7-C , 28-H ) :   0.9572
B(  8-S ,  9-C ) :   0.9115 B(  9-C , 10-S ) :   0.9142 B(  9-C , 29-H ) :   0.9094
B(  9-C , 30-H ) :   0.9084 B( 10-S , 11-P ) :   1.1088 B( 11-P , 12-S ) :   1.7558
B( 11-P , 13-O ) :   1.1475 B( 11-P , 16-O ) :   1.0682 B( 13-O , 14-C ) :   0.7532
B( 14-C , 15-C ) :   0.9419 B( 14-C , 31-H ) :   0.9622 B( 14-C , 32-H ) :   0.9620
B( 15-C , 33-H ) :   0.9638 B( 15-C , 34-H ) :   0.9702 B( 15-C , 35-H ) :   0.9609
B( 16-O , 17-C ) :   0.8192 B( 17-C , 18-C ) :   0.9207 B( 17-C , 36-H ) :   0.9584
B( 17-C , 37-H ) :   0.9660 B( 18-C , 38-H ) :   0.9621 B( 18-C , 39-H ) :   0.9691
B( 18-C , 40-H ) :   0.9585

Dispersion correction           -0.021695332
FINAL SINGLE POINT ENERGY     -2932.463008415038

DIPOLE MOMENT
-------------

Method             : SCF
Type of density    : Electron Density
Multiplicity       :   1
Irrep              :   0
Energy             : -2932.4879876475224592 Eh
Relativity type    :
Basis              : AO
                                X                 Y                 Z
Electronic contribution:      0.879912556       6.678608181      -6.913657535
Nuclear contribution   :     -1.296383165      -8.078055210       7.391869315
                        -----------------------------------------
Total Dipole Moment    :     -0.416470608      -1.399447029       0.478211780
                        -----------------------------------------
Magnitude (a.u.)       :      1.536419950
Magnitude (Debye)      :      3.905269155

Rotational constants in cm-1:             0.013459             0.004641             0.004292
Rotational constants in MHz :           403.480876           139.127592           128.676340

                             ****ORCA TERMINATED NORMALLY****
TOTAL RUN TIME: 0 days 0 hours 1 minutes 20 seconds 335 msec
