                         Program Version 6.0.0  -   RELEASE  -
|  1> ! r2scan-3c def2/J RI DEFGRID2 scfconv6 printgap
|  2> %output
|  3>     printlevel normal
|  4> end
|  5> %cpcm
|  6>     smd true
|  7>     smdsolvent "water"
|  8> end
|  9> * xyz 0 1
| 10> C 4.9363850079 -1.6239239078 -0.7400637509
| 11> C 4.4293350096 -0.5339226087 -1.6607363451
| 12> O 3.03508796 -0.2402479871 -1.4340493252
| 13> P 2.5347139087 0.4410971849 -0.088922982
| 14> S 3.7503781391 1.7413130533 0.7268651596
| 15> O 2.2010658076 -0.8347593657 0.8104669572
| 16> C 2.1401985954 -0.7659594426 2.2430098421
| 17> C 0.9953331225 0.0985231338 2.7301187124
| 18> S 0.6770171651 1.1658257774 -0.7836137602
| 19> C 0.0143036495 -0.3828353646 -1.477070231
| 20> S -0.793911084 -1.4465973563 -0.2554796037
| 21> P -2.5051302147 -0.2476866169 -0.0073054032
| 22> S -3.23950909 0.6244452961 -1.6093412925
| 23> O -1.9976049049 0.6944773164 1.161325375
| 24> C -2.6945143059 1.9029653226 1.5380071073
| 25> C -2.0508502836 3.1116174655 0.8880667328
| 26> O -3.553401655 -1.1559751692 0.7727675186
| 27> C -4.5132531156 -1.9834443587 0.0924701069
| 28> C -3.853276852 -3.1407013287 -0.6290038369
| 29> H 4.2986725559 -2.5015462436 -0.8065183641
| 30> H 5.949922212 -1.8899671766 -1.023464903
| 31> H 4.9399802957 -1.2668364816 0.2888695366
| 32> H 4.4638159973 -0.8372774975 -2.7079703917
| 33> H 5.002955544 0.3876202791 -1.5208487248
| 34> H 2.0213826339 -1.8052392042 2.5516635445
| 35> H 3.0927876401 -0.3693050239 2.6090968125
| 36> H 0.9728522977 0.0892602782 3.8151147608
| 37> H 1.1391246368 1.1243845109 2.3891002741
| 38> H 0.0451162699 -0.267030722 2.348689269
| 39> H 0.8218868096 -0.954188537 -1.9235150711
| 40> H -0.7209894898 -0.0803287311 -2.2235317786
| 41> H -3.7465192112 1.8183276547 1.2518494964
| 42> H -2.6118422892 1.9424932639 2.6251933789
| 43> H -2.5396870847 4.0133132683 1.2423644162
| 44> H -0.9931908011 3.152697024 1.1341867825
| 45> H -2.1480087368 3.0550654141 -0.1941347189
| 46> H -5.1743905036 -2.3272116298 0.8889985158
| 47> H -5.071141296 -1.3582196794 -0.6121183297
| 48> H -3.2487341373 -2.767870405 -1.454787228
| 49> H -3.2121877487 -3.693997184 0.0525002079
| 50> H -4.6183224609 -3.8017753111 -1.0233478205
| 51> *
| 52>
| 53>                          ****END OF INPUT****

CARTESIAN COORDINATES (ANGSTROEM)
---------------------------------
  C      4.936385   -1.623924   -0.740064
  C      4.429335   -0.533923   -1.660736
  O      3.035088   -0.240248   -1.434049
  P      2.534714    0.441097   -0.088923
  S      3.750378    1.741313    0.726865
  O      2.201066   -0.834759    0.810467
  C      2.140199   -0.765959    2.243010
  C      0.995333    0.098523    2.730119
  S      0.677017    1.165826   -0.783614
  C      0.014304   -0.382835   -1.477070
  S     -0.793911   -1.446597   -0.255480
  P     -2.505130   -0.247687   -0.007305
  S     -3.239509    0.624445   -1.609341
  O     -1.997605    0.694477    1.161325
  C     -2.694514    1.902965    1.538007
  C     -2.050850    3.111617    0.888067
  O     -3.553402   -1.155975    0.772768
  C     -4.513253   -1.983444    0.092470
  C     -3.853277   -3.140701   -0.629004
  H      4.298673   -2.501546   -0.806518
  H      5.949922   -1.889967   -1.023465
  H      4.939980   -1.266836    0.288870
  H      4.463816   -0.837277   -2.707970
  H      5.002956    0.387620   -1.520849
  H      2.021383   -1.805239    2.551664
  H      3.092788   -0.369305    2.609097
  H      0.972852    0.089260    3.815115
  H      1.139125    1.124385    2.389100
  H      0.045116   -0.267031    2.348689
  H      0.821887   -0.954189   -1.923515
  H     -0.720989   -0.080329   -2.223532
  H     -3.746519    1.818328    1.251849
  H     -2.611842    1.942493    2.625193
  H     -2.539687    4.013313    1.242364
  H     -0.993191    3.152697    1.134187
  H     -2.148009    3.055065   -0.194135
  H     -5.174391   -2.327212    0.888999
  H     -5.071141   -1.358220   -0.612118
  H     -3.248734   -2.767870   -1.454787
  H     -3.212188   -3.693997    0.052500
  H     -4.618322   -3.801775   -1.023348

 Total Charge           Charge          ....    0
 Multiplicity           Mult            ....    1
 Number of Electrons    NEL             ....  202
 Basis Dimension        Dim             ....  539

ORBITAL ENERGIES
----------------

  NO   OCC          E(Eh)            E(eV)
   0   2.0000     -88.580624     -2410.4013
   1   2.0000     -88.577805     -2410.3246
   2   2.0000     -88.530687     -2409.0425
   3   2.0000     -88.529487     -2409.0098
   4   2.0000     -76.919750     -2093.0928
   5   2.0000     -76.919731     -2093.0923
   6   2.0000     -18.996304      -516.9157
   7   2.0000     -18.992250      -516.8054
   8   2.0000     -18.991812      -516.7935
   9   2.0000     -18.991412      -516.7826
  10   2.0000     -10.106387      -275.0088
  11   2.0000     -10.090101      -274.5656
  12   2.0000     -10.089444      -274.5477
  13   2.0000     -10.089408      -274.5467
  14   2.0000     -10.088144      -274.5124
  15   2.0000     -10.018772      -272.6246
  16   2.0000     -10.018593      -272.6198
  17   2.0000     -10.015856      -272.5453
  18   2.0000     -10.015370      -272.5321
  19   2.0000      -7.875133      -214.2933
  20   2.0000      -7.872043      -214.2092
  21   2.0000      -7.825646      -212.9467
  22   2.0000      -7.824482      -212.9150
  23   2.0000      -6.598357      -179.5504
  24   2.0000      -6.598089      -179.5431
  25   2.0000      -5.821995      -158.4245
  26   2.0000      -5.819314      -158.3516
  27   2.0000      -5.819032      -158.3439
  28   2.0000      -5.815598      -158.2505
  29   2.0000      -5.812177      -158.1574
  30   2.0000      -5.809077      -158.0730
  31   2.0000      -5.773228      -157.0975
  32   2.0000      -5.771997      -157.0640
  33   2.0000      -5.766021      -156.9014
  34   2.0000      -5.765583      -156.8895
  35   2.0000      -5.764898      -156.8709
  36   2.0000      -5.764444      -156.8585
  37   2.0000      -4.743813      -129.0857
  38   2.0000      -4.743374      -129.0738
  39   2.0000      -4.743170      -129.0682
  40   2.0000      -4.743071      -129.0655
  41   2.0000      -4.742259      -129.0434
  42   2.0000      -4.742040      -129.0375
  43   2.0000      -1.052324       -28.6352
  44   2.0000      -1.050527       -28.5863
  45   2.0000      -1.011972       -27.5372
  46   2.0000      -1.011320       -27.5194
  47   2.0000      -0.804011       -21.8783
  48   2.0000      -0.757168       -20.6036
  49   2.0000      -0.741777       -20.1848
  50   2.0000      -0.722289       -19.6545
  51   2.0000      -0.721993       -19.6464
  52   2.0000      -0.710711       -19.3394
  53   2.0000      -0.694435       -18.8965
  54   2.0000      -0.675570       -18.3832
  55   2.0000      -0.631245       -17.1770
  56   2.0000      -0.622076       -16.9275
  57   2.0000      -0.601800       -16.3758
  58   2.0000      -0.598663       -16.2904
  59   2.0000      -0.588246       -16.0070
  60   2.0000      -0.521830       -14.1997
  61   2.0000      -0.514518       -14.0007
  62   2.0000      -0.488506       -13.2929
  63   2.0000      -0.485910       -13.2223
  64   2.0000      -0.479377       -13.0445
  65   2.0000      -0.458621       -12.4797
  66   2.0000      -0.455115       -12.3843
  67   2.0000      -0.454337       -12.3632
  68   2.0000      -0.439815       -11.9680
  69   2.0000      -0.427937       -11.6448
  70   2.0000      -0.424022       -11.5382
  71   2.0000      -0.412668       -11.2293
  72   2.0000      -0.408671       -11.1205
  73   2.0000      -0.406279       -11.0554
  74   2.0000      -0.394503       -10.7350
  75   2.0000      -0.389842       -10.6081
  76   2.0000      -0.380354       -10.3500
  77   2.0000      -0.367684       -10.0052
  78   2.0000      -0.363184        -9.8827
  79   2.0000      -0.361263        -9.8305
  80   2.0000      -0.353166        -9.6101
  81   2.0000      -0.350465        -9.5366
  82   2.0000      -0.349833        -9.5194
  83   2.0000      -0.346713        -9.4345
  84   2.0000      -0.342868        -9.3299
  85   2.0000      -0.331046        -9.0082
  86   2.0000      -0.319646        -8.6980
  87   2.0000      -0.306131        -8.3302
  88   2.0000      -0.305518        -8.3136
  89   2.0000      -0.302326        -8.2267
  90   2.0000      -0.299321        -8.1449
  91   2.0000      -0.291674        -7.9368
  92   2.0000      -0.287081        -7.8119
  93   2.0000      -0.281066        -7.6482
  94   2.0000      -0.272703        -7.4206
  95   2.0000      -0.246863        -6.7175
  96   2.0000      -0.236418        -6.4333
  97   2.0000      -0.231992        -6.3128
  98   2.0000      -0.230146        -6.2626
  99   2.0000      -0.226500        -6.1634
 100   2.0000      -0.221440        -6.0257
 101   0.0000      -0.047303        -1.2872
 102   0.0000      -0.029005        -0.7893
 103   0.0000      -0.020512        -0.5582
 104   0.0000       0.002834         0.0771
 105   0.0000       0.003975         0.1082

MULLIKEN ATOMIC CHARGES
-----------------------
   0 C :   -0.474213
   1 C :   -0.146307
   2 O :   -0.326037
   3 P :    0.672662
   4 S :   -0.516598
   5 O :   -0.282930
   6 C :   -0.141119
   7 C :   -0.490979
   8 S :   -0.129044
   9 C :   -0.278691
  10 S :   -0.090625
  11 P :    0.683712
  12 S :   -0.523995
  13 O :   -0.288579
  14 C :   -0.122738
  15 C :   -0.498416
  16 O :   -0.328575
  17 C :   -0.148048
  18 C :   -0.490747
  19 H :    0.168863
  20 H :    0.172140
  21 H :    0.167966
  22 H :    0.175322
  23 H :    0.176394
  24 H :    0.175704
  25 H :    0.171638
  26 H :    0.170781
  27 H :    0.167583
  28 H :    0.175768
  29 H :    0.246835
  30 H :    0.230616
  31 H :    0.169120
  32 H :    0.176463
  33 H :    0.168854
  34 H :    0.167359
  35 H :    0.172201
  36 H :    0.174995
  37 H :    0.177193
  38 H :    0.172394
  39 H :    0.170269
  40 H :    0.172811
Sum of atomic charges:   -0.0000000

LOEWDIN ATOMIC CHARGES
----------------------
   0 C :   -0.402712
   1 C :    0.028525
   2 O :   -0.700501
   3 P :    0.374114
   4 S :   -0.148950
   5 O :   -0.683017
   6 C :    0.021539
   7 C :   -0.412557
   8 S :    0.172580
   9 C :   -0.402258
  10 S :    0.183714
  11 P :    0.380681
  12 S :   -0.162691
  13 O :   -0.692551
  14 C :    0.031122
  15 C :   -0.407668
  16 O :   -0.670199
  17 C :    0.024943
  18 C :   -0.409352
  19 H :    0.164366
  20 H :    0.168787
  21 H :    0.162604
  22 H :    0.190777
  23 H :    0.181307
  24 H :    0.191160
  25 H :    0.181609
  26 H :    0.167150
  27 H :    0.162524
  28 H :    0.169750
  29 H :    0.206896
  30 H :    0.200487
  31 H :    0.181317
  32 H :    0.189678
  33 H :    0.166185
  34 H :    0.162114
  35 H :    0.162286
  36 H :    0.190839
  37 H :    0.181416
  38 H :    0.161545
  39 H :    0.163775
  40 H :    0.168666

  Mayer bond orders larger than 0.100000
B(  0-C ,  1-C ) :   0.9128 B(  0-C , 19-H ) :   0.9693 B(  0-C , 20-H ) :   0.9552
B(  0-C , 21-H ) :   0.9596 B(  1-C ,  2-O ) :   0.8000 B(  1-C , 22-H ) :   0.9516
B(  1-C , 23-H ) :   0.9628 B(  2-O ,  3-P ) :   1.1346 B(  3-P ,  4-S ) :   1.7748
B(  3-P ,  5-O ) :   1.0398 B(  3-P ,  8-S ) :   1.1003 B(  5-O ,  6-C ) :   0.7820
B(  6-C ,  7-C ) :   0.9147 B(  6-C , 24-H ) :   0.9512 B(  6-C , 25-H ) :   0.9570
B(  7-C , 26-H ) :   0.9560 B(  7-C , 27-H ) :   0.9632 B(  7-C , 28-H ) :   0.9582
B(  8-S ,  9-C ) :   0.9047 B(  9-C , 10-S ) :   0.9127 B(  9-C , 29-H ) :   0.8978
B(  9-C , 30-H ) :   0.9035 B( 10-S , 11-P ) :   1.1196 B( 11-P , 12-S ) :   1.7128
B( 11-P , 13-O ) :   1.1539 B( 11-P , 16-O ) :   1.0756 B( 13-O , 14-C ) :   0.7416
B( 14-C , 15-C ) :   0.9289 B( 14-C , 31-H ) :   0.9590 B( 14-C , 32-H ) :   0.9526
B( 15-C , 33-H ) :   0.9596 B( 15-C , 34-H ) :   0.9690 B( 15-C , 35-H ) :   0.9644
B( 16-O , 17-C ) :   0.8073 B( 17-C , 18-C ) :   0.9085 B( 17-C , 36-H ) :   0.9489
B( 17-C , 37-H ) :   0.9644 B( 18-C , 38-H ) :   0.9628 B( 18-C , 39-H ) :   0.9661
B( 18-C , 40-H ) :   0.9533

Dispersion correction           -0.021695332
FINAL SINGLE POINT ENERGY     -2932.470641641428

DIPOLE MOMENT
-------------

Method             : SCF
Type of density    : Electron Density
Multiplicity       :   1
Irrep              :   0
Energy             : -2932.4956208739122303 Eh
Relativity type    :
Basis              : AO
                                X                 Y                 Z
Electronic contribution:      0.751209588       6.075782523      -6.751675790
Nuclear contribution   :     -1.296383165      -8.078055210       7.391869315
                        -----------------------------------------
Total Dipole Moment    :     -0.545173577      -2.002272687       0.640193524
                        -----------------------------------------
Magnitude (a.u.)       :      2.171671681
Magnitude (Debye)      :      5.519950736

Rotational constants in cm-1:             0.013459             0.004641             0.004292
Rotational constants in MHz :           403.480876           139.127592           128.676340

                             ****ORCA TERMINATED NORMALLY****
TOTAL RUN TIME: 0 days 0 hours 1 minutes 56 seconds 394 msec
