                         Program Version 6.0.0  -   RELEASE  -
|  1> ! pbe def2-sv(p) def2/J RI DEFGRID1 loosescf d4 GCP(DFT/SV(P)) printgap
|  2> %output
|  3>     printlevel normal
|  4> end
|  5> * xyz 0 1
|  6> C 4.3265073088 0.9949549735 -2.1474243148
|  7> C 4.6358549948 0.4917079166 -0.7535314552
|  8> O 3.5984358271 0.8081615462 0.1943401429
|  9> P 2.0708986295 0.4066334748 0.0472690122
| 10> S 0.9250747845 1.4865734244 -1.1245354349
| 11> O 1.563420005 0.5662270585 1.5333687743
| 12> C 2.2785210504 0.182223416 2.7370221553
| 13> C 2.2264519119 -1.3119008145 2.9851108093
| 14> S 2.1635235209 -1.6583501127 -0.4761673168
| 15> C 0.4292301306 -1.8723134399 -0.9041318516
| 16> S -0.677029321 -1.5741542707 0.5195151936
| 17> P -2.0803916591 -0.2685198703 -0.3658537545
| 18> S -2.1390466532 -0.1184558242 -2.3093700219
| 19> O -1.9269447579 1.1415897382 0.3479689374
| 20> C -1.8465669661 1.2643086521 1.7877729627
| 21> C -2.4868168327 2.5774476565 2.1876359961
| 22> O -3.3633738673 -0.9604734931 0.2981740489
| 23> C -4.6751846331 -0.8395283521 -0.2810701806
| 24> C -5.2597062534 0.5413968784 -0.0614510653
| 25> H 4.1274521513 2.0639854266 -2.1304615473
| 26> H 5.1703558765 0.7956230047 -2.7998923807
| 27> H 3.4454969517 0.490713849 -2.5423981455
| 28> H 5.5185270636 0.9822923715 -0.3394544132
| 29> H 4.7760547694 -0.5924448162 -0.7558832508
| 30> H 3.3062774933 0.5388434734 2.6570026148
| 31> H 1.7556809348 0.7326138881 3.5211190007
| 32> H 1.2026990719 -1.6709352483 2.9056658494
| 33> H 2.8401808131 -1.8467831325 2.2650358108
| 34> H 2.5991206207 -1.5131796384 3.9845504808
| 35> H 0.3180831635 -2.9063835155 -1.2205120954
| 36> H 0.1524762965 -1.1816673284 -1.7057449356
| 37> H -2.3522107819 0.4087703388 2.2460650699
| 38> H -0.7855911677 1.2440750456 2.0506994035
| 39> H -1.9904103058 3.3967296683 1.6746856658
| 40> H -3.5393918656 2.5847663336 1.9181291833
| 41> H -2.3875981958 2.709210118 3.2602587475
| 42> H -4.603008939 -1.0613459272 -1.3505273863
| 43> H -5.2580144421 -1.6131458362 0.2208026372
| 44> H -4.6339960858 1.2868228979 -0.5529986133
| 45> H -6.2571068816 0.5823322793 -0.4877813389
| 46> H -5.3131063452 0.7654798292 1.0010575236
| 47> *
| 48>
| 49>                          ****END OF INPUT****

CARTESIAN COORDINATES (ANGSTROEM)
---------------------------------
  C      4.326507    0.994955   -2.147424
  C      4.635855    0.491708   -0.753531
  O      3.598436    0.808162    0.194340
  P      2.070899    0.406633    0.047269
  S      0.925075    1.486573   -1.124535
  O      1.563420    0.566227    1.533369
  C      2.278521    0.182223    2.737022
  C      2.226452   -1.311901    2.985111
  S      2.163524   -1.658350   -0.476167
  C      0.429230   -1.872313   -0.904132
  S     -0.677029   -1.574154    0.519515
  P     -2.080392   -0.268520   -0.365854
  S     -2.139047   -0.118456   -2.309370
  O     -1.926945    1.141590    0.347969
  C     -1.846567    1.264309    1.787773
  C     -2.486817    2.577448    2.187636
  O     -3.363374   -0.960473    0.298174
  C     -4.675185   -0.839528   -0.281070
  C     -5.259706    0.541397   -0.061451
  H      4.127452    2.063985   -2.130462
  H      5.170356    0.795623   -2.799892
  H      3.445497    0.490714   -2.542398
  H      5.518527    0.982292   -0.339454
  H      4.776055   -0.592445   -0.755883
  H      3.306277    0.538843    2.657003
  H      1.755681    0.732614    3.521119
  H      1.202699   -1.670935    2.905666
  H      2.840181   -1.846783    2.265036
  H      2.599121   -1.513180    3.984550
  H      0.318083   -2.906384   -1.220512
  H      0.152476   -1.181667   -1.705745
  H     -2.352211    0.408770    2.246065
  H     -0.785591    1.244075    2.050699
  H     -1.990410    3.396730    1.674686
  H     -3.539392    2.584766    1.918129
  H     -2.387598    2.709210    3.260259
  H     -4.603009   -1.061346   -1.350527
  H     -5.258014   -1.613146    0.220803
  H     -4.633996    1.286823   -0.552999
  H     -6.257107    0.582332   -0.487781
  H     -5.313106    0.765480    1.001058

 Total Charge           Charge          ....    0
 Multiplicity           Mult            ....    1
 Number of Electrons    NEL             ....  202
 Basis Dimension        Dim             ....  334

ORBITAL ENERGIES
----------------

  NO   OCC          E(Eh)            E(eV)
   0   2.0000     -88.045024     -2395.8269
   1   2.0000     -88.035624     -2395.5711
   2   2.0000     -87.979966     -2394.0566
   3   2.0000     -87.975548     -2393.9364
   4   2.0000     -76.424765     -2079.6236
   5   2.0000     -76.417252     -2079.4191
   6   2.0000     -18.796476      -511.4781
   7   2.0000     -18.789587      -511.2906
   8   2.0000     -18.782192      -511.0894
   9   2.0000     -18.781128      -511.0605
  10   2.0000      -9.961338      -271.0618
  11   2.0000      -9.956900      -270.9410
  12   2.0000      -9.952897      -270.8321
  13   2.0000      -9.946219      -270.6504
  14   2.0000      -9.945839      -270.6400
  15   2.0000      -9.886425      -269.0233
  16   2.0000      -9.883657      -268.9480
  17   2.0000      -9.882891      -268.9271
  18   2.0000      -9.882026      -268.9036
  19   2.0000      -7.689894      -209.2526
  20   2.0000      -7.680664      -209.0015
  21   2.0000      -7.625272      -207.4942
  22   2.0000      -7.620429      -207.3624
  23   2.0000      -6.421664      -174.7424
  24   2.0000      -6.415219      -174.5670
  25   2.0000      -5.717672      -155.5858
  26   2.0000      -5.714265      -155.4930
  27   2.0000      -5.708590      -155.3386
  28   2.0000      -5.707152      -155.2995
  29   2.0000      -5.705394      -155.2517
  30   2.0000      -5.697290      -155.0311
  31   2.0000      -5.654362      -153.8630
  32   2.0000      -5.649655      -153.7349
  33   2.0000      -5.646153      -153.6396
  34   2.0000      -5.644918      -153.6060
  35   2.0000      -5.640966      -153.4985
  36   2.0000      -5.640408      -153.4833
  37   2.0000      -4.644659      -126.3876
  38   2.0000      -4.643680      -126.3609
  39   2.0000      -4.641547      -126.3029
  40   2.0000      -4.637981      -126.2059
  41   2.0000      -4.636649      -126.1696
  42   2.0000      -4.635836      -126.1475
  43   2.0000      -0.989363       -26.9219
  44   2.0000      -0.975642       -26.5486
  45   2.0000      -0.944675       -25.7059
  46   2.0000      -0.934208       -25.4211
  47   2.0000      -0.761166       -20.7124
  48   2.0000      -0.719336       -19.5741
  49   2.0000      -0.709225       -19.2990
  50   2.0000      -0.691933       -18.8285
  51   2.0000      -0.686137       -18.6707
  52   2.0000      -0.672074       -18.2881
  53   2.0000      -0.647507       -17.6196
  54   2.0000      -0.632295       -17.2056
  55   2.0000      -0.591257       -16.0889
  56   2.0000      -0.586003       -15.9459
  57   2.0000      -0.580823       -15.8050
  58   2.0000      -0.564905       -15.3718
  59   2.0000      -0.559048       -15.2125
  60   2.0000      -0.503241       -13.6939
  61   2.0000      -0.495907       -13.4943
  62   2.0000      -0.473010       -12.8713
  63   2.0000      -0.471964       -12.8428
  64   2.0000      -0.451200       -12.2778
  65   2.0000      -0.444337       -12.0910
  66   2.0000      -0.440669       -11.9912
  67   2.0000      -0.433478       -11.7955
  68   2.0000      -0.431095       -11.7307
  69   2.0000      -0.413805       -11.2602
  70   2.0000      -0.408779       -11.1234
  71   2.0000      -0.396133       -10.7793
  72   2.0000      -0.392221       -10.6729
  73   2.0000      -0.388053       -10.5595
  74   2.0000      -0.383591       -10.4380
  75   2.0000      -0.364286        -9.9127
  76   2.0000      -0.355671        -9.6783
  77   2.0000      -0.355083        -9.6623
  78   2.0000      -0.353067        -9.6074
  79   2.0000      -0.348366        -9.4795
  80   2.0000      -0.343167        -9.3380
  81   2.0000      -0.342772        -9.3273
  82   2.0000      -0.340068        -9.2537
  83   2.0000      -0.336284        -9.1507
  84   2.0000      -0.333109        -9.0644
  85   2.0000      -0.320635        -8.7249
  86   2.0000      -0.311716        -8.4822
  87   2.0000      -0.303533        -8.2596
  88   2.0000      -0.298271        -8.1164
  89   2.0000      -0.291906        -7.9432
  90   2.0000      -0.278291        -7.5727
  91   2.0000      -0.273352        -7.4383
  92   2.0000      -0.264430        -7.1955
  93   2.0000      -0.259236        -7.0542
  94   2.0000      -0.258827        -7.0430
  95   2.0000      -0.231709        -6.3051
  96   2.0000      -0.212752        -5.7893
  97   2.0000      -0.209841        -5.7101
  98   2.0000      -0.195157        -5.3105
  99   2.0000      -0.188634        -5.1330
 100   2.0000      -0.182282        -4.9601
 101   0.0000      -0.043000        -1.1701
 102   0.0000      -0.032064        -0.8725
 103   0.0000      -0.007426        -0.2021
 104   0.0000       0.011210         0.3050
 105   0.0000       0.021747         0.5918

MULLIKEN ATOMIC CHARGES
-----------------------
   0 C :   -0.307670
   1 C :   -0.014679
   2 O :   -0.381848
   3 P :    0.599453
   4 S :   -0.281498
   5 O :   -0.351581
   6 C :   -0.004259
   7 C :   -0.316410
   8 S :   -0.131249
   9 C :   -0.340292
  10 S :   -0.110994
  11 P :    0.627578
  12 S :   -0.298562
  13 O :   -0.357942
  14 C :   -0.043706
  15 C :   -0.284777
  16 O :   -0.391706
  17 C :   -0.005809
  18 C :   -0.321727
  19 H :    0.127517
  20 H :    0.111103
  21 H :    0.130331
  22 H :    0.109071
  23 H :    0.114365
  24 H :    0.110099
  25 H :    0.105735
  26 H :    0.129438
  27 H :    0.123306
  28 H :    0.109589
  29 H :    0.181431
  30 H :    0.210537
  31 H :    0.098198
  32 H :    0.131810
  33 H :    0.128063
  34 H :    0.115036
  35 H :    0.105171
  36 H :    0.111431
  37 H :    0.102062
  38 H :    0.135340
  39 H :    0.111595
  40 H :    0.116453
Sum of atomic charges:    0.0000000

LOEWDIN ATOMIC CHARGES
----------------------
   0 C :   -0.368665
   1 C :   -0.114954
   2 O :   -0.245278
   3 P :    0.559119
   4 S :   -0.287502
   5 O :   -0.232826
   6 C :   -0.110732
   7 C :   -0.371326
   8 S :    0.066565
   9 C :   -0.475279
  10 S :    0.073169
  11 P :    0.573980
  12 S :   -0.292049
  13 O :   -0.236046
  14 C :   -0.125971
  15 C :   -0.350333
  16 O :   -0.262639
  17 C :   -0.119734
  18 C :   -0.366338
  19 H :    0.131467
  20 H :    0.130093
  21 H :    0.123352
  22 H :    0.121005
  23 H :    0.107634
  24 H :    0.112785
  25 H :    0.118117
  26 H :    0.125008
  27 H :    0.116725
  28 H :    0.129116
  29 H :    0.136054
  30 H :    0.125608
  31 H :    0.102604
  32 H :    0.117108
  33 H :    0.133350
  34 H :    0.123596
  35 H :    0.127710
  36 H :    0.109253
  37 H :    0.116836
  38 H :    0.127478
  39 H :    0.130519
  40 H :    0.121421

  Mayer bond orders larger than 0.100000
B(  0-C ,  1-C ) :   1.1665 B(  0-C , 19-H ) :   0.9433 B(  0-C , 20-H ) :   0.9349
B(  0-C , 21-H ) :   0.9310 B(  1-C ,  2-O ) :   0.9114 B(  1-C , 22-H ) :   0.9333
B(  1-C , 23-H ) :   0.9257 B(  2-O ,  3-P ) :   1.0809 B(  3-P ,  4-S ) :   1.6767
B(  3-P ,  5-O ) :   1.1108 B(  3-P ,  8-S ) :   0.9225 B(  4-S ,  8-S ) :   0.1093
B(  5-O ,  6-C ) :   0.8981 B(  6-C ,  7-C ) :   1.1689 B(  6-C , 24-H ) :   0.9251
B(  6-C , 25-H ) :   0.9342 B(  7-C , 26-H ) :   0.9403 B(  7-C , 27-H ) :   0.9371
B(  7-C , 28-H ) :   0.9365 B(  8-S ,  9-C ) :   1.0062 B(  9-C , 10-S ) :   1.0044
B(  9-C , 29-H ) :   0.9103 B(  9-C , 30-H ) :   0.8475 B( 10-S , 11-P ) :   0.9497
B( 10-S , 12-S ) :   0.1080 B( 11-P , 12-S ) :   1.6362 B( 11-P , 13-O ) :   1.1147
B( 11-P , 16-O ) :   1.0655 B( 13-O , 14-C ) :   0.8988 B( 14-C , 15-C ) :   1.1655
B( 14-C , 31-H ) :   0.9148 B( 14-C , 32-H ) :   0.9107 B( 15-C , 33-H ) :   0.9475
B( 15-C , 34-H ) :   0.9475 B( 15-C , 35-H ) :   0.9410 B( 16-O , 17-C ) :   0.9179
B( 17-C , 18-C ) :   1.1600 B( 17-C , 36-H ) :   0.9121 B( 17-C , 37-H ) :   0.9349
B( 18-C , 38-H ) :   0.9358 B( 18-C , 39-H ) :   0.9380 B( 18-C , 40-H ) :   0.9422

Dispersion correction           -0.067318475
FINAL SINGLE POINT ENERGY     -2929.511673429216

DIPOLE MOMENT
-------------

Method             : SCF
Type of density    : Electron Density
Multiplicity       :   1
Irrep              :   0
Energy             : -2929.6302042881284251 Eh
Relativity type    :
Basis              : AO
                                X                 Y                 Z
Electronic contribution:      2.489340480      -6.230855366     -11.798183004
Nuclear contribution   :     -1.791368868       5.766863389      13.382949800
                        -----------------------------------------
Total Dipole Moment    :      0.697971612      -0.463991977       1.584766796
                        -----------------------------------------
Magnitude (a.u.)       :      1.792746140
Magnitude (Debye)      :      4.556798554

Rotational constants in cm-1:             0.013086             0.005174             0.004864
Rotational constants in MHz :           392.302017           155.109921           145.830045

                             ****ORCA TERMINATED NORMALLY****
TOTAL RUN TIME: 0 days 0 hours 0 minutes 21 seconds 485 msec
