                         Program Version 6.0.0  -   RELEASE  -
|  1> ! r2scan-3c def2/J RI DEFGRID2 scfconv6 printgap
|  2> %output
|  3>     printlevel normal
|  4> end
|  5> * xyz 0 1
|  6> C 0.9663551222 1.8344788946 2.9541339497
|  7> C 2.0717844689 1.5566866568 1.956632449
|  8> O 2.1826817969 0.1172230689 1.8043061713
|  9> P 2.7217464976 -0.5687072093 0.4934048579
| 10> S 2.8074424393 -2.5136848964 0.6719043029
| 11> O 4.1051412755 0.1833700325 0.272078639
| 12> C 5.1470684221 -0.3248244953 -0.5816519358
| 13> C 4.7311722628 -0.3674701358 -2.0375690407
| 14> S 1.4816540739 0.1652642192 -1.079714268
| 15> C 0.136508872 -1.0110325258 -0.8173129254
| 16> S -0.8714185121 -0.6299325902 0.6435951664
| 17> P -2.6454015999 0.0677414106 -0.2914021961
| 18> S -2.7347801144 -0.1772760373 -2.2407005686
| 19> O -2.9128446714 1.5607950005 0.1925104315
| 20> C -2.4953478204 2.7067343076 -0.5685961773
| 21> C -1.0067389849 2.9538294229 -0.4399966512
| 22> O -3.6522387836 -0.7422003802 0.6219740336
| 23> C -5.0201380413 -0.3498765299 0.8714884693
| 24> C -5.8473175204 -0.3078274039 -0.396818672
| 25> H 0.0237979729 1.4314876643 2.59118475
| 26> H 1.1967178132 1.3619232246 3.9044932603
| 27> H 0.8759441796 2.9065570062 3.0977892128
| 28> H 3.036916505 1.9227788045 2.3110478193
| 29> H 1.8551183255 1.9973384124 0.9788271257
| 30> H 5.9737046519 0.3681399774 -0.4185026444
| 31> H 5.4226556704 -1.323857368 -0.2306083918
| 32> H 3.9569694769 -1.1194260655 -2.1828294153
| 33> H 4.3447981024 0.5992626843 -2.3505409451
| 34> H 5.5903832105 -0.627984145 -2.6472488784
| 35> H 0.5682980771 -2.0015565387 -0.6703930048
| 36> H -0.4998130818 -0.9820039959 -1.7057429342
| 37> H -2.7718717041 2.5488579286 -1.6162784323
| 38> H -3.0773414129 3.5287546441 -0.1494558484
| 39> H -0.4507768964 2.1418296178 -0.9079268421
| 40> H -0.7520399347 3.881855485 -0.9413831606
| 41> H -0.7261451622 3.0211257755 0.6077198555
| 42> H -5.3809286316 -1.1164111474 1.5593039797
| 43> H -5.0140318661 0.6226868742 1.3680382671
| 44> H -5.800177675 -1.2650710089 -0.9109673534
| 45> H -6.8799621019 -0.0847809711 -0.1476325211
| 46> H -5.4688731311 0.4620936171 -1.0680398084
| 47> *
| 48>
| 49>                          ****END OF INPUT****

CARTESIAN COORDINATES (ANGSTROEM)
---------------------------------
  C      0.966355    1.834479    2.954134
  C      2.071784    1.556687    1.956632
  O      2.182682    0.117223    1.804306
  P      2.721746   -0.568707    0.493405
  S      2.807442   -2.513685    0.671904
  O      4.105141    0.183370    0.272079
  C      5.147068   -0.324824   -0.581652
  C      4.731172   -0.367470   -2.037569
  S      1.481654    0.165264   -1.079714
  C      0.136509   -1.011033   -0.817313
  S     -0.871419   -0.629933    0.643595
  P     -2.645402    0.067741   -0.291402
  S     -2.734780   -0.177276   -2.240701
  O     -2.912845    1.560795    0.192510
  C     -2.495348    2.706734   -0.568596
  C     -1.006739    2.953829   -0.439997
  O     -3.652239   -0.742200    0.621974
  C     -5.020138   -0.349877    0.871488
  C     -5.847318   -0.307827   -0.396819
  H      0.023798    1.431488    2.591185
  H      1.196718    1.361923    3.904493
  H      0.875944    2.906557    3.097789
  H      3.036917    1.922779    2.311048
  H      1.855118    1.997338    0.978827
  H      5.973705    0.368140   -0.418503
  H      5.422656   -1.323857   -0.230608
  H      3.956969   -1.119426   -2.182829
  H      4.344798    0.599263   -2.350541
  H      5.590383   -0.627984   -2.647249
  H      0.568298   -2.001557   -0.670393
  H     -0.499813   -0.982004   -1.705743
  H     -2.771872    2.548858   -1.616278
  H     -3.077341    3.528755   -0.149456
  H     -0.450777    2.141830   -0.907927
  H     -0.752040    3.881855   -0.941383
  H     -0.726145    3.021126    0.607720
  H     -5.380929   -1.116411    1.559304
  H     -5.014032    0.622687    1.368038
  H     -5.800178   -1.265071   -0.910967
  H     -6.879962   -0.084781   -0.147633
  H     -5.468873    0.462094   -1.068040

 Total Charge           Charge          ....    0
 Multiplicity           Mult            ....    1
 Number of Electrons    NEL             ....  202
 Basis Dimension        Dim             ....  539

ORBITAL ENERGIES
----------------

  NO   OCC          E(Eh)            E(eV)
   0   2.0000     -88.574339     -2410.2303
   1   2.0000     -88.574197     -2410.2264
   2   2.0000     -88.525049     -2408.8891
   3   2.0000     -88.519997     -2408.7516
   4   2.0000     -76.917137     -2093.0217
   5   2.0000     -76.913731     -2092.9290
   6   2.0000     -18.997725      -516.9544
   7   2.0000     -18.995730      -516.9001
   8   2.0000     -18.993154      -516.8300
   9   2.0000     -18.991755      -516.7919
  10   2.0000     -10.103438      -274.9285
  11   2.0000     -10.102936      -274.9149
  12   2.0000     -10.102172      -274.8941
  13   2.0000     -10.101551      -274.8772
  14   2.0000     -10.098041      -274.7817
  15   2.0000     -10.032988      -273.0115
  16   2.0000     -10.031990      -272.9843
  17   2.0000     -10.030856      -272.9535
  18   2.0000     -10.030108      -272.9331
  19   2.0000      -7.868811      -214.1212
  20   2.0000      -7.868211      -214.1049
  21   2.0000      -7.819822      -212.7882
  22   2.0000      -7.814662      -212.6478
  23   2.0000      -6.595455      -179.4715
  24   2.0000      -6.592347      -179.3869
  25   2.0000      -5.815485      -158.2474
  26   2.0000      -5.815130      -158.2377
  27   2.0000      -5.812670      -158.1708
  28   2.0000      -5.812019      -158.1531
  29   2.0000      -5.806106      -157.9922
  30   2.0000      -5.805372      -157.9722
  31   2.0000      -5.767358      -156.9378
  32   2.0000      -5.762360      -156.8018
  33   2.0000      -5.760276      -156.7451
  34   2.0000      -5.759772      -156.7314
  35   2.0000      -5.754871      -156.5980
  36   2.0000      -5.754706      -156.5935
  37   2.0000      -4.741209      -129.0148
  38   2.0000      -4.740108      -128.9849
  39   2.0000      -4.739242      -128.9613
  40   2.0000      -4.738233      -128.9339
  41   2.0000      -4.737216      -128.9062
  42   2.0000      -4.735766      -128.8668
  43   2.0000      -1.054960       -28.7069
  44   2.0000      -1.052845       -28.6494
  45   2.0000      -1.013383       -27.5756
  46   2.0000      -1.011764       -27.5315
  47   2.0000      -0.798503       -21.7284
  48   2.0000      -0.761656       -20.7257
  49   2.0000      -0.752953       -20.4889
  50   2.0000      -0.736930       -20.0529
  51   2.0000      -0.735105       -20.0032
  52   2.0000      -0.713214       -19.4075
  53   2.0000      -0.687615       -18.7110
  54   2.0000      -0.668889       -18.2014
  55   2.0000      -0.633741       -17.2450
  56   2.0000      -0.623981       -16.9794
  57   2.0000      -0.614437       -16.7197
  58   2.0000      -0.606541       -16.5048
  59   2.0000      -0.587001       -15.9731
  60   2.0000      -0.532097       -14.4791
  61   2.0000      -0.524555       -14.2739
  62   2.0000      -0.495703       -13.4888
  63   2.0000      -0.494492       -13.4558
  64   2.0000      -0.481097       -13.0913
  65   2.0000      -0.466402       -12.6914
  66   2.0000      -0.457492       -12.4490
  67   2.0000      -0.452466       -12.3122
  68   2.0000      -0.451693       -12.2912
  69   2.0000      -0.437368       -11.9014
  70   2.0000      -0.434169       -11.8143
  71   2.0000      -0.425516       -11.5789
  72   2.0000      -0.409418       -11.1408
  73   2.0000      -0.402635       -10.9563
  74   2.0000      -0.393666       -10.7122
  75   2.0000      -0.390748       -10.6328
  76   2.0000      -0.382295       -10.4028
  77   2.0000      -0.374173       -10.1818
  78   2.0000      -0.371663       -10.1135
  79   2.0000      -0.369981       -10.0677
  80   2.0000      -0.364352        -9.9145
  81   2.0000      -0.359332        -9.7779
  82   2.0000      -0.356247        -9.6940
  83   2.0000      -0.354391        -9.6435
  84   2.0000      -0.354097        -9.6355
  85   2.0000      -0.333374        -9.0716
  86   2.0000      -0.327163        -8.9026
  87   2.0000      -0.319199        -8.6859
  88   2.0000      -0.315476        -8.5845
  89   2.0000      -0.310818        -8.4578
  90   2.0000      -0.308380        -8.3915
  91   2.0000      -0.294746        -8.0204
  92   2.0000      -0.286114        -7.7855
  93   2.0000      -0.280585        -7.6351
  94   2.0000      -0.273071        -7.4306
  95   2.0000      -0.243922        -6.6375
  96   2.0000      -0.234862        -6.3909
  97   2.0000      -0.226930        -6.1751
  98   2.0000      -0.219418        -5.9707
  99   2.0000      -0.218482        -5.9452
 100   2.0000      -0.211724        -5.7613
 101   0.0000      -0.042600        -1.1592
 102   0.0000      -0.031269        -0.8509
 103   0.0000      -0.009616        -0.2617
 104   0.0000       0.001931         0.0525
 105   0.0000       0.011641         0.3168

MULLIKEN ATOMIC CHARGES
-----------------------
   0 C :   -0.463850
   1 C :   -0.103789
   2 O :   -0.269831
   3 P :    0.641339
   4 S :   -0.434651
   5 O :   -0.292218
   6 C :   -0.160162
   7 C :   -0.451720
   8 S :   -0.157620
   9 C :   -0.257305
  10 S :   -0.085646
  11 P :    0.671929
  12 S :   -0.470765
  13 O :   -0.293385
  14 C :   -0.149925
  15 C :   -0.448285
  16 O :   -0.300953
  17 C :   -0.141399
  18 C :   -0.438293
  19 H :    0.170061
  20 H :    0.157949
  21 H :    0.145604
  22 H :    0.155620
  23 H :    0.156166
  24 H :    0.147993
  25 H :    0.173962
  26 H :    0.182367
  27 H :    0.153783
  28 H :    0.148638
  29 H :    0.216381
  30 H :    0.217674
  31 H :    0.172885
  32 H :    0.146813
  33 H :    0.172276
  34 H :    0.148089
  35 H :    0.156578
  36 H :    0.151010
  37 H :    0.157420
  38 H :    0.164894
  39 H :    0.146696
  40 H :    0.163669
Sum of atomic charges:   -0.0000000

LOEWDIN ATOMIC CHARGES
----------------------
   0 C :   -0.396504
   1 C :    0.021373
   2 O :   -0.654653
   3 P :    0.373264
   4 S :   -0.101222
   5 O :   -0.663829
   6 C :    0.023750
   7 C :   -0.408527
   8 S :    0.118456
   9 C :   -0.426086
  10 S :    0.184481
  11 P :    0.386341
  12 S :   -0.133953
  13 O :   -0.674987
  14 C :    0.019344
  15 C :   -0.406230
  16 O :   -0.660997
  17 C :    0.031751
  18 C :   -0.401106
  19 H :    0.165705
  20 H :    0.163094
  21 H :    0.158267
  22 H :    0.174929
  23 H :    0.175829
  24 H :    0.179665
  25 H :    0.180489
  26 H :    0.167430
  27 H :    0.159711
  28 H :    0.159998
  29 H :    0.193285
  30 H :    0.197999
  31 H :    0.181212
  32 H :    0.178229
  33 H :    0.167321
  34 H :    0.160155
  35 H :    0.160957
  36 H :    0.182291
  37 H :    0.175172
  38 H :    0.165279
  39 H :    0.158395
  40 H :    0.163923

  Mayer bond orders larger than 0.100000
B(  0-C ,  1-C ) :   0.9428 B(  0-C , 19-H ) :   0.9655 B(  0-C , 20-H ) :   0.9669
B(  0-C , 21-H ) :   0.9682 B(  1-C ,  2-O ) :   0.7344 B(  1-C , 22-H ) :   0.9466
B(  1-C , 23-H ) :   0.9513 B(  2-O ,  3-P ) :   1.1512 B(  3-P ,  4-S ) :   1.8576
B(  3-P ,  5-O ) :   1.0393 B(  3-P ,  8-S ) :   1.0011 B(  5-O ,  6-C ) :   0.8198
B(  6-C ,  7-C ) :   0.9160 B(  6-C , 24-H ) :   0.9617 B(  6-C , 25-H ) :   0.9685
B(  7-C , 26-H ) :   0.9622 B(  7-C , 27-H ) :   0.9681 B(  7-C , 28-H ) :   0.9556
B(  8-S ,  9-C ) :   0.9143 B(  9-C , 10-S ) :   0.9144 B(  9-C , 29-H ) :   0.9099
B(  9-C , 30-H ) :   0.8836 B( 10-S , 11-P ) :   1.0826 B( 11-P , 12-S ) :   1.7549
B( 11-P , 13-O ) :   1.0373 B( 11-P , 16-O ) :   1.1674 B( 13-O , 14-C ) :   0.8052
B( 14-C , 15-C ) :   0.9401 B( 14-C , 31-H ) :   0.9596 B( 14-C , 32-H ) :   0.9600
B( 15-C , 33-H ) :   0.9513 B( 15-C , 34-H ) :   0.9607 B( 15-C , 35-H ) :   0.9667
B( 16-O , 17-C ) :   0.7954 B( 17-C , 18-C ) :   0.9390 B( 17-C , 36-H ) :   0.9570
B( 17-C , 37-H ) :   0.9711 B( 18-C , 38-H ) :   0.9669 B( 18-C , 39-H ) :   0.9631
B( 18-C , 40-H ) :   0.9555

Dispersion correction           -0.021177055
FINAL SINGLE POINT ENERGY     -2932.461111834408

DIPOLE MOMENT
-------------

Method             : SCF
Type of density    : Electron Density
Multiplicity       :   1
Irrep              :   0
Energy             : -2932.4868448748165974 Eh
Relativity type    :
Basis              : AO
                                X                 Y                 Z
Electronic contribution:      3.582444405     -15.665746198      -0.117193629
Nuclear contribution   :     -3.822876838      17.699314442       0.362102678
                        -----------------------------------------
Total Dipole Moment    :     -0.240432434       2.033568244       0.244909049
                        -----------------------------------------
Magnitude (a.u.)       :      2.062325872
Magnitude (Debye)      :      5.242015776

Rotational constants in cm-1:             0.014223             0.004122             0.004000
Rotational constants in MHz :           426.390299           123.585707           119.917489

                             ****ORCA TERMINATED NORMALLY****
TOTAL RUN TIME: 0 days 0 hours 1 minutes 20 seconds 999 msec
