                         Program Version 6.0.0  -   RELEASE  -
|  1> ! r2scan-3c def2/J RI DEFGRID2 scfconv6 printgap
|  2> %output
|  3>     printlevel normal
|  4> end
|  5> %cpcm
|  6>     smd true
|  7>     smdsolvent "water"
|  8> end
|  9> * xyz 0 1
| 10> C 0.9663551222 1.8344788946 2.9541339497
| 11> C 2.0717844689 1.5566866568 1.956632449
| 12> O 2.1826817969 0.1172230689 1.8043061713
| 13> P 2.7217464976 -0.5687072093 0.4934048579
| 14> S 2.8074424393 -2.5136848964 0.6719043029
| 15> O 4.1051412755 0.1833700325 0.272078639
| 16> C 5.1470684221 -0.3248244953 -0.5816519358
| 17> C 4.7311722628 -0.3674701358 -2.0375690407
| 18> S 1.4816540739 0.1652642192 -1.079714268
| 19> C 0.136508872 -1.0110325258 -0.8173129254
| 20> S -0.8714185121 -0.6299325902 0.6435951664
| 21> P -2.6454015999 0.0677414106 -0.2914021961
| 22> S -2.7347801144 -0.1772760373 -2.2407005686
| 23> O -2.9128446714 1.5607950005 0.1925104315
| 24> C -2.4953478204 2.7067343076 -0.5685961773
| 25> C -1.0067389849 2.9538294229 -0.4399966512
| 26> O -3.6522387836 -0.7422003802 0.6219740336
| 27> C -5.0201380413 -0.3498765299 0.8714884693
| 28> C -5.8473175204 -0.3078274039 -0.396818672
| 29> H 0.0237979729 1.4314876643 2.59118475
| 30> H 1.1967178132 1.3619232246 3.9044932603
| 31> H 0.8759441796 2.9065570062 3.0977892128
| 32> H 3.036916505 1.9227788045 2.3110478193
| 33> H 1.8551183255 1.9973384124 0.9788271257
| 34> H 5.9737046519 0.3681399774 -0.4185026444
| 35> H 5.4226556704 -1.323857368 -0.2306083918
| 36> H 3.9569694769 -1.1194260655 -2.1828294153
| 37> H 4.3447981024 0.5992626843 -2.3505409451
| 38> H 5.5903832105 -0.627984145 -2.6472488784
| 39> H 0.5682980771 -2.0015565387 -0.6703930048
| 40> H -0.4998130818 -0.9820039959 -1.7057429342
| 41> H -2.7718717041 2.5488579286 -1.6162784323
| 42> H -3.0773414129 3.5287546441 -0.1494558484
| 43> H -0.4507768964 2.1418296178 -0.9079268421
| 44> H -0.7520399347 3.881855485 -0.9413831606
| 45> H -0.7261451622 3.0211257755 0.6077198555
| 46> H -5.3809286316 -1.1164111474 1.5593039797
| 47> H -5.0140318661 0.6226868742 1.3680382671
| 48> H -5.800177675 -1.2650710089 -0.9109673534
| 49> H -6.8799621019 -0.0847809711 -0.1476325211
| 50> H -5.4688731311 0.4620936171 -1.0680398084
| 51> *
| 52>
| 53>                          ****END OF INPUT****

CARTESIAN COORDINATES (ANGSTROEM)
---------------------------------
  C      0.966355    1.834479    2.954134
  C      2.071784    1.556687    1.956632
  O      2.182682    0.117223    1.804306
  P      2.721746   -0.568707    0.493405
  S      2.807442   -2.513685    0.671904
  O      4.105141    0.183370    0.272079
  C      5.147068   -0.324824   -0.581652
  C      4.731172   -0.367470   -2.037569
  S      1.481654    0.165264   -1.079714
  C      0.136509   -1.011033   -0.817313
  S     -0.871419   -0.629933    0.643595
  P     -2.645402    0.067741   -0.291402
  S     -2.734780   -0.177276   -2.240701
  O     -2.912845    1.560795    0.192510
  C     -2.495348    2.706734   -0.568596
  C     -1.006739    2.953829   -0.439997
  O     -3.652239   -0.742200    0.621974
  C     -5.020138   -0.349877    0.871488
  C     -5.847318   -0.307827   -0.396819
  H      0.023798    1.431488    2.591185
  H      1.196718    1.361923    3.904493
  H      0.875944    2.906557    3.097789
  H      3.036917    1.922779    2.311048
  H      1.855118    1.997338    0.978827
  H      5.973705    0.368140   -0.418503
  H      5.422656   -1.323857   -0.230608
  H      3.956969   -1.119426   -2.182829
  H      4.344798    0.599263   -2.350541
  H      5.590383   -0.627984   -2.647249
  H      0.568298   -2.001557   -0.670393
  H     -0.499813   -0.982004   -1.705743
  H     -2.771872    2.548858   -1.616278
  H     -3.077341    3.528755   -0.149456
  H     -0.450777    2.141830   -0.907927
  H     -0.752040    3.881855   -0.941383
  H     -0.726145    3.021126    0.607720
  H     -5.380929   -1.116411    1.559304
  H     -5.014032    0.622687    1.368038
  H     -5.800178   -1.265071   -0.910967
  H     -6.879962   -0.084781   -0.147633
  H     -5.468873    0.462094   -1.068040

 Total Charge           Charge          ....    0
 Multiplicity           Mult            ....    1
 Number of Electrons    NEL             ....  202
 Basis Dimension        Dim             ....  539

ORBITAL ENERGIES
----------------

  NO   OCC          E(Eh)            E(eV)
   0   2.0000     -88.579978     -2410.3837
   1   2.0000     -88.578423     -2410.3414
   2   2.0000     -88.531823     -2409.0734
   3   2.0000     -88.531450     -2409.0632
   4   2.0000     -76.921242     -2093.1334
   5   2.0000     -76.920972     -2093.1261
   6   2.0000     -18.997861      -516.9581
   7   2.0000     -18.996455      -516.9198
   8   2.0000     -18.996215      -516.9133
   9   2.0000     -18.995052      -516.8816
  10   2.0000     -10.101626      -274.8792
  11   2.0000     -10.092410      -274.6284
  12   2.0000     -10.091585      -274.6060
  13   2.0000     -10.091084      -274.5924
  14   2.0000     -10.089499      -274.5492
  15   2.0000     -10.019312      -272.6393
  16   2.0000     -10.019243      -272.6375
  17   2.0000     -10.018833      -272.6263
  18   2.0000     -10.018382      -272.6140
  19   2.0000      -7.874129      -214.2660
  20   2.0000      -7.872845      -214.2310
  21   2.0000      -7.826869      -212.9799
  22   2.0000      -7.826495      -212.9698
  23   2.0000      -6.599634      -179.5852
  24   2.0000      -6.599576      -179.5836
  25   2.0000      -5.820996      -158.3973
  26   2.0000      -5.819566      -158.3584
  27   2.0000      -5.817918      -158.3136
  28   2.0000      -5.816744      -158.2816
  29   2.0000      -5.811356      -158.1350
  30   2.0000      -5.810055      -158.0996
  31   2.0000      -5.774438      -157.1304
  32   2.0000      -5.773979      -157.1180
  33   2.0000      -5.767058      -156.9296
  34   2.0000      -5.766988      -156.9277
  35   2.0000      -5.766901      -156.9254
  36   2.0000      -5.766498      -156.9144
  37   2.0000      -4.745464      -129.1307
  38   2.0000      -4.745241      -129.1246
  39   2.0000      -4.744453      -129.1031
  40   2.0000      -4.744262      -129.0979
  41   2.0000      -4.743451      -129.0759
  42   2.0000      -4.743197      -129.0690
  43   2.0000      -1.055904       -28.7326
  44   2.0000      -1.054539       -28.6955
  45   2.0000      -1.014138       -27.5961
  46   2.0000      -1.012421       -27.5494
  47   2.0000      -0.802680       -21.8420
  48   2.0000      -0.758498       -20.6398
  49   2.0000      -0.746341       -20.3090
  50   2.0000      -0.726246       -19.7621
  51   2.0000      -0.725118       -19.7315
  52   2.0000      -0.711745       -19.3676
  53   2.0000      -0.691273       -18.8105
  54   2.0000      -0.675713       -18.3871
  55   2.0000      -0.631684       -17.1890
  56   2.0000      -0.619502       -16.8575
  57   2.0000      -0.605443       -16.4749
  58   2.0000      -0.600296       -16.3349
  59   2.0000      -0.586968       -15.9722
  60   2.0000      -0.528165       -14.3721
  61   2.0000      -0.517972       -14.0947
  62   2.0000      -0.492034       -13.3889
  63   2.0000      -0.488454       -13.2915
  64   2.0000      -0.480084       -13.0637
  65   2.0000      -0.463571       -12.6144
  66   2.0000      -0.452252       -12.3064
  67   2.0000      -0.447286       -12.1713
  68   2.0000      -0.444589       -12.0979
  69   2.0000      -0.433974       -11.8090
  70   2.0000      -0.428976       -11.6730
  71   2.0000      -0.419615       -11.4183
  72   2.0000      -0.407335       -11.0842
  73   2.0000      -0.399405       -10.8684
  74   2.0000      -0.390392       -10.6231
  75   2.0000      -0.389030       -10.5860
  76   2.0000      -0.380282       -10.3480
  77   2.0000      -0.370274       -10.0757
  78   2.0000      -0.361523        -9.8375
  79   2.0000      -0.360234        -9.8025
  80   2.0000      -0.357560        -9.7297
  81   2.0000      -0.351654        -9.5690
  82   2.0000      -0.349232        -9.5031
  83   2.0000      -0.347501        -9.4560
  84   2.0000      -0.345517        -9.4020
  85   2.0000      -0.331536        -9.0215
  86   2.0000      -0.324309        -8.8249
  87   2.0000      -0.316906        -8.6234
  88   2.0000      -0.308208        -8.3868
  89   2.0000      -0.306506        -8.3405
  90   2.0000      -0.302647        -8.2354
  91   2.0000      -0.290624        -7.9083
  92   2.0000      -0.284710        -7.7473
  93   2.0000      -0.280875        -7.6430
  94   2.0000      -0.275291        -7.4910
  95   2.0000      -0.248124        -6.7518
  96   2.0000      -0.242208        -6.5908
  97   2.0000      -0.235981        -6.4214
  98   2.0000      -0.228931        -6.2295
  99   2.0000      -0.228594        -6.2204
 100   2.0000      -0.220101        -5.9892
 101   0.0000      -0.049224        -1.3395
 102   0.0000      -0.037890        -1.0310
 103   0.0000      -0.013314        -0.3623
 104   0.0000      -0.003116        -0.0848
 105   0.0000       0.007432         0.2022

MULLIKEN ATOMIC CHARGES
-----------------------
   0 C :   -0.494451
   1 C :   -0.101271
   2 O :   -0.300598
   3 P :    0.657525
   4 S :   -0.496259
   5 O :   -0.311071
   6 C :   -0.153462
   7 C :   -0.488241
   8 S :   -0.146390
   9 C :   -0.263870
  10 S :   -0.112836
  11 P :    0.701476
  12 S :   -0.513275
  13 O :   -0.312253
  14 C :   -0.140658
  15 C :   -0.478403
  16 O :   -0.333323
  17 C :   -0.132908
  18 C :   -0.486089
  19 H :    0.167180
  20 H :    0.168310
  21 H :    0.172897
  22 H :    0.177489
  23 H :    0.171997
  24 H :    0.176292
  25 H :    0.179535
  26 H :    0.175097
  27 H :    0.169888
  28 H :    0.173565
  29 H :    0.227549
  30 H :    0.227802
  31 H :    0.174135
  32 H :    0.174849
  33 H :    0.160664
  34 H :    0.172817
  35 H :    0.175741
  36 H :    0.174129
  37 H :    0.175653
  38 H :    0.170905
  39 H :    0.172303
  40 H :    0.167560
Sum of atomic charges:   -0.0000000

LOEWDIN ATOMIC CHARGES
----------------------
   0 C :   -0.398078
   1 C :    0.028878
   2 O :   -0.675482
   3 P :    0.376289
   4 S :   -0.147370
   5 O :   -0.669004
   6 C :    0.029692
   7 C :   -0.410845
   8 S :    0.129368
   9 C :   -0.424989
  10 S :    0.166892
  11 P :    0.389873
  12 S :   -0.161193
  13 O :   -0.677183
  14 C :    0.026258
  15 C :   -0.406810
  16 O :   -0.679547
  17 C :    0.038044
  18 C :   -0.404847
  19 H :    0.163187
  20 H :    0.164439
  21 H :    0.170092
  22 H :    0.184652
  23 H :    0.182281
  24 H :    0.191910
  25 H :    0.181903
  26 H :    0.162170
  27 H :    0.163960
  28 H :    0.169156
  29 H :    0.195400
  30 H :    0.200657
  31 H :    0.182019
  32 H :    0.190468
  33 H :    0.161666
  34 H :    0.169455
  35 H :    0.166617
  36 H :    0.191866
  37 H :    0.183361
  38 H :    0.163713
  39 H :    0.168526
  40 H :    0.162558

  Mayer bond orders larger than 0.100000
B(  0-C ,  1-C ) :   0.9364 B(  0-C , 19-H ) :   0.9656 B(  0-C , 20-H ) :   0.9674
B(  0-C , 21-H ) :   0.9601 B(  1-C ,  2-O ) :   0.7248 B(  1-C , 22-H ) :   0.9359
B(  1-C , 23-H ) :   0.9441 B(  2-O ,  3-P ) :   1.1598 B(  3-P ,  4-S ) :   1.8252
B(  3-P ,  5-O ) :   1.0513 B(  3-P ,  8-S ) :   1.0151 B(  5-O ,  6-C ) :   0.8075
B(  6-C ,  7-C ) :   0.9037 B(  6-C , 24-H ) :   0.9506 B(  6-C , 25-H ) :   0.9672
B(  7-C , 26-H ) :   0.9642 B(  7-C , 27-H ) :   0.9648 B(  7-C , 28-H ) :   0.9503
B(  8-S ,  9-C ) :   0.9122 B(  9-C , 10-S ) :   0.9040 B(  9-C , 29-H ) :   0.9070
B(  9-C , 30-H ) :   0.8831 B( 10-S , 11-P ) :   1.0854 B( 11-P , 12-S ) :   1.7260
B( 11-P , 13-O ) :   1.0542 B( 11-P , 16-O ) :   1.1740 B( 13-O , 14-C ) :   0.7913
B( 14-C , 15-C ) :   0.9283 B( 14-C , 31-H ) :   0.9579 B( 14-C , 32-H ) :   0.9500
B( 15-C , 33-H ) :   0.9533 B( 15-C , 34-H ) :   0.9557 B( 15-C , 35-H ) :   0.9644
B( 16-O , 17-C ) :   0.7865 B( 17-C , 18-C ) :   0.9200 B( 17-C , 36-H ) :   0.9492
B( 17-C , 37-H ) :   0.9629 B( 18-C , 38-H ) :   0.9691 B( 18-C , 39-H ) :   0.9562
B( 18-C , 40-H ) :   0.9568

Dispersion correction           -0.021177055
FINAL SINGLE POINT ENERGY     -2932.470502333636

DIPOLE MOMENT
-------------

Method             : SCF
Type of density    : Electron Density
Multiplicity       :   1
Irrep              :   0
Energy             : -2932.4962353740447725 Eh
Relativity type    :
Basis              : AO
                                X                 Y                 Z
Electronic contribution:      3.563209680     -14.668933500      -0.165103431
Nuclear contribution   :     -3.822876838      17.699314442       0.362102678
                        -----------------------------------------
Total Dipole Moment    :     -0.259667158       3.030380943       0.196999247
                        -----------------------------------------
Magnitude (a.u.)       :      3.047858985
Magnitude (Debye)      :      7.747041873

Rotational constants in cm-1:             0.014223             0.004122             0.004000
Rotational constants in MHz :           426.390299           123.585707           119.917489

                             ****ORCA TERMINATED NORMALLY****
TOTAL RUN TIME: 0 days 0 hours 1 minutes 49 seconds 387 msec
