                         Program Version 6.0.0  -   RELEASE  -
|  1> ! pbe def2-sv(p) def2/J RI DEFGRID1 loosescf d4 GCP(DFT/SV(P)) printgap
|  2> %output
|  3>     printlevel normal
|  4> end
|  5> * xyz 0 1
|  6> C 2.7970476032 0.5045389118 -2.8884178566
|  7> C 1.9605001166 -0.7252975609 -2.6058555235
|  8> O 1.2805095008 -0.6413495245 -1.3329953025
|  9> P 2.0345823522 -0.5105577746 0.0585513998
| 10> S 2.5833612429 1.2980944135 0.6040376868
| 11> O 3.1993476692 -1.572605577 -0.1551312889
| 12> C 3.962035696 -2.2183010338 0.8825111578
| 13> C 4.5462329522 -1.2515152016 1.8903570149
| 14> S 0.7074677227 -1.4853249427 1.3848146975
| 15> C 0.0198569784 -0.0528123971 2.2659920116
| 16> S -1.7796097075 0.0810277304 2.1067581276
| 17> P -1.946261588 0.5102103018 0.0578223572
| 18> S -0.7225170602 1.8348216874 -0.7259267471
| 19> O -3.481532447 0.8938497167 -0.0872288643
| 20> C -3.9767923079 2.1968192465 0.2801665462
| 21> C -5.2966983189 2.414238805 -0.4321227813
| 22> O -1.8970603886 -0.942982761 -0.5622043062
| 23> C -1.81593529 -1.1713519671 -1.9837621157
| 24> C -3.1896937536 -1.1644523109 -2.6206851638
| 25> H 2.1864303145 1.4013409449 -2.798010957
| 26> H 3.6146607209 0.5732284559 -2.1717385901
| 27> H 3.2050325361 0.4448602111 -3.8923894307
| 28> H 2.5750356203 -1.6279389918 -2.6068639519
| 29> H 1.1459094322 -0.8264850588 -3.3252761517
| 30> H 3.3094700839 -2.9433796681 1.3761218374
| 31> H 4.7469253085 -2.7400577432 0.3316223379
| 32> H 5.1356269973 -0.4869577692 1.3898930884
| 33> H 3.7506564335 -0.7591999162 2.4472192847
| 34> H 5.1787083924 -1.7972468768 2.5831037734
| 35> H 0.505456936 0.8533694722 1.8885003144
| 36> H 0.2078999751 -0.1833085328 3.3287635856
| 37> H -4.1010055945 2.2170534012 1.3658866818
| 38> H -3.2337458736 2.9475240078 -0.0103277939
| 39> H -5.9910479153 1.6207769832 -0.1717291214
| 40> H -5.7106777751 3.3699597728 -0.1281917454
| 41> H -5.148459176 2.4157278662 -1.5084107298
| 42> H -1.1725551014 -0.4001979054 -2.4208017651
| 43> H -1.3330951739 -2.1464637338 -2.0706479353
| 44> H -3.6353688026 -0.1757639561 -2.5389576022
| 45> H -3.0983606143 -1.4299432004 -3.6693722025
| 46> H -3.8339977807 -1.8815708319 -2.1198833102
| 47> *
| 48>
| 49>                          ****END OF INPUT****

CARTESIAN COORDINATES (ANGSTROEM)
---------------------------------
  C      2.797048    0.504539   -2.888418
  C      1.960500   -0.725298   -2.605856
  O      1.280510   -0.641350   -1.332995
  P      2.034582   -0.510558    0.058551
  S      2.583361    1.298094    0.604038
  O      3.199348   -1.572606   -0.155131
  C      3.962036   -2.218301    0.882511
  C      4.546233   -1.251515    1.890357
  S      0.707468   -1.485325    1.384815
  C      0.019857   -0.052812    2.265992
  S     -1.779610    0.081028    2.106758
  P     -1.946262    0.510210    0.057822
  S     -0.722517    1.834822   -0.725927
  O     -3.481532    0.893850   -0.087229
  C     -3.976792    2.196819    0.280167
  C     -5.296698    2.414239   -0.432123
  O     -1.897060   -0.942983   -0.562204
  C     -1.815935   -1.171352   -1.983762
  C     -3.189694   -1.164452   -2.620685
  H      2.186430    1.401341   -2.798011
  H      3.614661    0.573228   -2.171739
  H      3.205033    0.444860   -3.892389
  H      2.575036   -1.627939   -2.606864
  H      1.145909   -0.826485   -3.325276
  H      3.309470   -2.943380    1.376122
  H      4.746925   -2.740058    0.331622
  H      5.135627   -0.486958    1.389893
  H      3.750656   -0.759200    2.447219
  H      5.178708   -1.797247    2.583104
  H      0.505457    0.853369    1.888500
  H      0.207900   -0.183309    3.328764
  H     -4.101006    2.217053    1.365887
  H     -3.233746    2.947524   -0.010328
  H     -5.991048    1.620777   -0.171729
  H     -5.710678    3.369960   -0.128192
  H     -5.148459    2.415728   -1.508411
  H     -1.172555   -0.400198   -2.420802
  H     -1.333095   -2.146464   -2.070648
  H     -3.635369   -0.175764   -2.538958
  H     -3.098361   -1.429943   -3.669372
  H     -3.833998   -1.881571   -2.119883

 Total Charge           Charge          ....    0
 Multiplicity           Mult            ....    1
 Number of Electrons    NEL             ....  202
 Basis Dimension        Dim             ....  334

ORBITAL ENERGIES
----------------

  NO   OCC          E(Eh)            E(eV)
   0   2.0000     -88.041772     -2395.7384
   1   2.0000     -88.039513     -2395.6769
   2   2.0000     -87.978455     -2394.0155
   3   2.0000     -87.976355     -2393.9583
   4   2.0000     -76.424599     -2079.6191
   5   2.0000     -76.419222     -2079.4727
   6   2.0000     -18.793394      -511.3942
   7   2.0000     -18.789378      -511.2850
   8   2.0000     -18.783871      -511.1351
   9   2.0000     -18.782265      -511.0914
  10   2.0000      -9.957721      -270.9634
  11   2.0000      -9.952268      -270.8150
  12   2.0000      -9.950453      -270.7656
  13   2.0000      -9.949429      -270.7377
  14   2.0000      -9.945395      -270.6280
  15   2.0000      -9.886754      -269.0323
  16   2.0000      -9.881993      -268.9027
  17   2.0000      -9.881191      -268.8809
  18   2.0000      -9.876703      -268.7588
  19   2.0000      -7.686852      -209.1699
  20   2.0000      -7.685356      -209.1292
  21   2.0000      -7.623523      -207.4466
  22   2.0000      -7.621247      -207.3847
  23   2.0000      -6.421404      -174.7353
  24   2.0000      -6.417050      -174.6168
  25   2.0000      -5.714630      -155.5030
  26   2.0000      -5.713346      -155.4680
  27   2.0000      -5.711322      -155.4130
  28   2.0000      -5.709673      -155.3681
  29   2.0000      -5.703948      -155.2123
  30   2.0000      -5.702290      -155.1672
  31   2.0000      -5.652520      -153.8129
  32   2.0000      -5.650005      -153.7445
  33   2.0000      -5.644442      -153.5931
  34   2.0000      -5.643276      -153.5613
  35   2.0000      -5.641992      -153.5264
  36   2.0000      -5.641439      -153.5114
  37   2.0000      -4.644367      -126.3797
  38   2.0000      -4.643203      -126.3480
  39   2.0000      -4.641573      -126.3036
  40   2.0000      -4.639542      -126.2484
  41   2.0000      -4.638846      -126.2294
  42   2.0000      -4.637460      -126.1917
  43   2.0000      -0.984536       -26.7906
  44   2.0000      -0.981973       -26.7209
  45   2.0000      -0.941094       -25.6085
  46   2.0000      -0.938383       -25.5347
  47   2.0000      -0.760916       -20.7056
  48   2.0000      -0.719033       -19.5659
  49   2.0000      -0.706550       -19.2262
  50   2.0000      -0.687576       -18.7099
  51   2.0000      -0.685886       -18.6639
  52   2.0000      -0.671731       -18.2787
  53   2.0000      -0.646967       -17.6049
  54   2.0000      -0.630024       -17.1438
  55   2.0000      -0.594871       -16.1873
  56   2.0000      -0.586897       -15.9703
  57   2.0000      -0.576901       -15.6983
  58   2.0000      -0.564437       -15.3591
  59   2.0000      -0.559078       -15.2133
  60   2.0000      -0.500971       -13.6321
  61   2.0000      -0.494330       -13.4514
  62   2.0000      -0.474340       -12.9075
  63   2.0000      -0.464151       -12.6302
  64   2.0000      -0.457138       -12.4393
  65   2.0000      -0.446746       -12.1566
  66   2.0000      -0.434036       -11.8107
  67   2.0000      -0.428028       -11.6472
  68   2.0000      -0.424770       -11.5586
  69   2.0000      -0.416349       -11.3294
  70   2.0000      -0.404793       -11.0150
  71   2.0000      -0.401333       -10.9208
  72   2.0000      -0.395223       -10.7546
  73   2.0000      -0.389038       -10.5863
  74   2.0000      -0.375789       -10.2257
  75   2.0000      -0.371234       -10.1018
  76   2.0000      -0.356535        -9.7018
  77   2.0000      -0.354364        -9.6427
  78   2.0000      -0.348838        -9.4924
  79   2.0000      -0.346582        -9.4310
  80   2.0000      -0.344467        -9.3734
  81   2.0000      -0.342516        -9.3203
  82   2.0000      -0.338667        -9.2156
  83   2.0000      -0.332970        -9.0606
  84   2.0000      -0.331788        -9.0284
  85   2.0000      -0.315334        -8.5807
  86   2.0000      -0.308791        -8.4026
  87   2.0000      -0.297908        -8.1065
  88   2.0000      -0.294951        -8.0260
  89   2.0000      -0.291358        -7.9282
  90   2.0000      -0.279138        -7.5957
  91   2.0000      -0.269977        -7.3465
  92   2.0000      -0.267706        -7.2846
  93   2.0000      -0.257798        -7.0151
  94   2.0000      -0.256765        -6.9869
  95   2.0000      -0.234127        -6.3709
  96   2.0000      -0.221080        -6.0159
  97   2.0000      -0.209732        -5.7071
  98   2.0000      -0.196109        -5.3364
  99   2.0000      -0.188913        -5.1406
 100   2.0000      -0.178276        -4.8511
 101   0.0000      -0.037066        -1.0086
 102   0.0000      -0.031286        -0.8513
 103   0.0000      -0.006362        -0.1731
 104   0.0000       0.013749         0.3741
 105   0.0000       0.018339         0.4990

MULLIKEN ATOMIC CHARGES
-----------------------
   0 C :   -0.315284
   1 C :    0.000060
   2 O :   -0.363866
   3 P :    0.629097
   4 S :   -0.301658
   5 O :   -0.393032
   6 C :   -0.001891
   7 C :   -0.307626
   8 S :   -0.094914
   9 C :   -0.358807
  10 S :   -0.093533
  11 P :    0.606724
  12 S :   -0.311610
  13 O :   -0.380769
  14 C :   -0.010112
  15 C :   -0.285236
  16 O :   -0.355584
  17 C :   -0.022971
  18 C :   -0.290070
  19 H :    0.133279
  20 H :    0.125366
  21 H :    0.105604
  22 H :    0.104902
  23 H :    0.101823
  24 H :    0.109994
  25 H :    0.105127
  26 H :    0.125694
  27 H :    0.120806
  28 H :    0.109455
  29 H :    0.209132
  30 H :    0.180560
  31 H :    0.101971
  32 H :    0.105188
  33 H :    0.116746
  34 H :    0.112117
  35 H :    0.120995
  36 H :    0.118094
  37 H :    0.103196
  38 H :    0.119956
  39 H :    0.106031
  40 H :    0.115048
Sum of atomic charges:    0.0000000

LOEWDIN ATOMIC CHARGES
----------------------
   0 C :   -0.367533
   1 C :   -0.110095
   2 O :   -0.241418
   3 P :    0.574204
   4 S :   -0.292364
   5 O :   -0.251025
   6 C :   -0.112556
   7 C :   -0.370217
   8 S :    0.081317
   9 C :   -0.480351
  10 S :    0.080170
  11 P :    0.557170
  12 S :   -0.308831
  13 O :   -0.250494
  14 C :   -0.121614
  15 C :   -0.350830
  16 O :   -0.234693
  17 C :   -0.118781
  18 C :   -0.360757
  19 H :    0.133015
  20 H :    0.121438
  21 H :    0.126912
  22 H :    0.110107
  23 H :    0.114252
  24 H :    0.109089
  25 H :    0.119327
  26 H :    0.128889
  27 H :    0.119667
  28 H :    0.129023
  29 H :    0.125953
  30 H :    0.136172
  31 H :    0.110166
  32 H :    0.107534
  33 H :    0.126782
  34 H :    0.130832
  35 H :    0.127156
  36 H :    0.107934
  37 H :    0.116939
  38 H :    0.123463
  39 H :    0.127542
  40 H :    0.126509

  Mayer bond orders larger than 0.100000
B(  0-C ,  1-C ) :   1.1715 B(  0-C , 19-H ) :   0.9429 B(  0-C , 20-H ) :   0.9346
B(  0-C , 21-H ) :   0.9358 B(  1-C ,  2-O ) :   0.9122 B(  1-C , 22-H ) :   0.9280
B(  1-C , 23-H ) :   0.9262 B(  2-O ,  3-P ) :   1.1151 B(  3-P ,  4-S ) :   1.6245
B(  3-P ,  5-O ) :   1.0726 B(  3-P ,  8-S ) :   0.9573 B(  4-S ,  8-S ) :   0.1289
B(  4-S , 29-H ) :   0.1049 B(  5-O ,  6-C ) :   0.9134 B(  6-C ,  7-C ) :   1.1667
B(  6-C , 24-H ) :   0.9280 B(  6-C , 25-H ) :   0.9346 B(  7-C , 26-H ) :   0.9424
B(  7-C , 27-H ) :   0.9338 B(  7-C , 28-H ) :   0.9336 B(  8-S ,  9-C ) :   1.0004
B(  9-C , 10-S ) :   1.0025 B(  9-C , 29-H ) :   0.8422 B(  9-C , 30-H ) :   0.9118
B( 10-S , 11-P ) :   0.9619 B( 10-S , 12-S ) :   0.1134 B( 11-P , 12-S ) :   1.6492
B( 11-P , 13-O ) :   1.0884 B( 11-P , 16-O ) :   1.1381 B( 13-O , 14-C ) :   0.9067
B( 14-C , 15-C ) :   1.1606 B( 14-C , 31-H ) :   0.9303 B( 14-C , 32-H ) :   0.9051
B( 15-C , 33-H ) :   0.9507 B( 15-C , 34-H ) :   0.9420 B( 15-C , 35-H ) :   0.9504
B( 16-O , 17-C ) :   0.9044 B( 17-C , 18-C ) :   1.1574 B( 17-C , 36-H ) :   0.9004
B( 17-C , 37-H ) :   0.9360 B( 18-C , 38-H ) :   0.9410 B( 18-C , 39-H ) :   0.9405
B( 18-C , 40-H ) :   0.9466

Dispersion correction           -0.066581132
FINAL SINGLE POINT ENERGY     -2929.514124052896

DIPOLE MOMENT
-------------

Method             : SCF
Type of density    : Electron Density
Multiplicity       :   1
Irrep              :   0
Energy             : -2929.6329381630248463 Eh
Relativity type    :
Basis              : AO
                                X                 Y                 Z
Electronic contribution:      1.577341299       0.525492118      13.637776834
Nuclear contribution   :     -1.706665677      -1.541795525     -14.044468395
                        -----------------------------------------
Total Dipole Moment    :     -0.129324378      -1.016303407      -0.406691561
                        -----------------------------------------
Magnitude (a.u.)       :      1.102268314
Magnitude (Debye)      :      2.801743395

Rotational constants in cm-1:             0.013220             0.005176             0.004708
Rotational constants in MHz :           396.319892           155.170497           141.127790

                             ****ORCA TERMINATED NORMALLY****
TOTAL RUN TIME: 0 days 0 hours 0 minutes 21 seconds 267 msec
