                         Program Version 6.0.0  -   RELEASE  -
|  1> ! pbe def2-sv(p) def2/J RI DEFGRID1 loosescf d4 GCP(DFT/SV(P)) printgap
|  2> %output
|  3>     printlevel normal
|  4> end
|  5> * xyz 0 1
|  6> C 3.8595320786 -1.9465398234 -2.4051970317
|  7> C 4.4895936545 -1.6957375767 -1.0507972358
|  8> O 3.512447595 -1.3841150542 -0.0393859041
|  9> P 2.6224674344 -0.0674847588 -0.0740048314
| 10> S 3.5131031506 1.5719011428 -0.6533508807
| 11> O 2.1243101779 0.0232800695 1.4179483231
| 12> C 1.5366289443 -1.0984148367 2.1249599537
| 13> C 0.6019255875 -0.5490183795 3.1822544005
| 14> S 0.9117198671 -0.646196925 -1.2177530887
| 15> C 0.2757411096 1.0284461013 -1.4558002602
| 16> S -0.4017511262 1.7380445933 0.0700521732
| 17> P -2.1782433038 0.5906086457 0.064275372
| 18> S -3.0574308087 0.4154741868 -1.683296738
| 19> O -2.8784158248 1.4131836391 1.2220128008
| 20> C -4.0466866124 0.9426311692 1.9302524139
| 21> C -5.3173825835 1.1722666768 1.1361815283
| 22> O -1.8364994416 -0.8018840008 0.76011211
| 23> C -1.9837926147 -2.0834712214 0.120726779
| 24> C -3.3215726817 -2.6986121388 0.4800050785
| 25> H 4.6200103229 -2.3033047949 -3.0923337099
| 26> H 3.0679243439 -2.6872553753 -2.325046622
| 27> H 3.4379798878 -1.0223102796 -2.7973313642
| 28> H 5.2027178134 -0.8677872515 -1.1054089686
| 29> H 4.9835903707 -2.5881401396 -0.6638978618
| 30> H 1.0054765959 -1.7263764344 1.4034840614
| 31> H 2.3547182464 -1.6704098621 2.566493032
| 32> H 0.18695328 -1.3721845124 3.7549366216
| 33> H 1.1445899636 0.1179329702 3.84591032
| 34> H -0.2075699825 0.0091990899 2.7170659718
| 35> H -0.5081798585 0.9718681316 -2.2124870664
| 36> H 1.0908696373 1.6786895478 -1.7745043243
| 37> H -3.9136441836 -0.1163897114 2.1654514352
| 38> H -4.0439491766 1.5276249736 2.8517420769
| 39> H -6.1718656669 0.8585209669 1.7274646879
| 40> H -5.4192518484 2.2255276783 0.8880863325
| 41> H -5.2968360355 0.6022890421 0.2091698373
| 42> H -1.8926512173 -1.9601414085 -0.9622328862
| 43> H -1.152087868 -2.6844470496 0.4902533417
| 44> H -3.4253286388 -2.7794180264 1.5586005622
| 45> H -4.1291701814 -2.08428753 0.0862496484
| 46> H -3.387463941 -3.6879597318 0.0391803233
| 47> *
| 48>
| 49>                          ****END OF INPUT****

CARTESIAN COORDINATES (ANGSTROEM)
---------------------------------
  C      3.859532   -1.946540   -2.405197
  C      4.489594   -1.695738   -1.050797
  O      3.512448   -1.384115   -0.039386
  P      2.622467   -0.067485   -0.074005
  S      3.513103    1.571901   -0.653351
  O      2.124310    0.023280    1.417948
  C      1.536629   -1.098415    2.124960
  C      0.601926   -0.549018    3.182254
  S      0.911720   -0.646197   -1.217753
  C      0.275741    1.028446   -1.455800
  S     -0.401751    1.738045    0.070052
  P     -2.178243    0.590609    0.064275
  S     -3.057431    0.415474   -1.683297
  O     -2.878416    1.413184    1.222013
  C     -4.046687    0.942631    1.930252
  C     -5.317383    1.172267    1.136182
  O     -1.836499   -0.801884    0.760112
  C     -1.983793   -2.083471    0.120727
  C     -3.321573   -2.698612    0.480005
  H      4.620010   -2.303305   -3.092334
  H      3.067924   -2.687255   -2.325047
  H      3.437980   -1.022310   -2.797331
  H      5.202718   -0.867787   -1.105409
  H      4.983590   -2.588140   -0.663898
  H      1.005477   -1.726376    1.403484
  H      2.354718   -1.670410    2.566493
  H      0.186953   -1.372185    3.754937
  H      1.144590    0.117933    3.845910
  H     -0.207570    0.009199    2.717066
  H     -0.508180    0.971868   -2.212487
  H      1.090870    1.678690   -1.774504
  H     -3.913644   -0.116390    2.165451
  H     -4.043949    1.527625    2.851742
  H     -6.171866    0.858521    1.727465
  H     -5.419252    2.225528    0.888086
  H     -5.296836    0.602289    0.209170
  H     -1.892651   -1.960141   -0.962233
  H     -1.152088   -2.684447    0.490253
  H     -3.425329   -2.779418    1.558601
  H     -4.129170   -2.084288    0.086250
  H     -3.387464   -3.687960    0.039180

 Total Charge           Charge          ....    0
 Multiplicity           Mult            ....    1
 Number of Electrons    NEL             ....  202
 Basis Dimension        Dim             ....  334

ORBITAL ENERGIES
----------------

  NO   OCC          E(Eh)            E(eV)
   0   2.0000     -88.042795     -2395.7663
   1   2.0000     -88.038885     -2395.6599
   2   2.0000     -87.992907     -2394.4087
   3   2.0000     -87.987344     -2394.2573
   4   2.0000     -76.430555     -2079.7811
   5   2.0000     -76.426875     -2079.6810
   6   2.0000     -18.799082      -511.5490
   7   2.0000     -18.798767      -511.5405
   8   2.0000     -18.796782      -511.4864
   9   2.0000     -18.790016      -511.3023
  10   2.0000      -9.962457      -271.0922
  11   2.0000      -9.956778      -270.9377
  12   2.0000      -9.956224      -270.9226
  13   2.0000      -9.954317      -270.8707
  14   2.0000      -9.950008      -270.7535
  15   2.0000      -9.892047      -269.1763
  16   2.0000      -9.887657      -269.0568
  17   2.0000      -9.886253      -269.0186
  18   2.0000      -9.882935      -268.9283
  19   2.0000      -7.687409      -209.1850
  20   2.0000      -7.684181      -209.0972
  21   2.0000      -7.637769      -207.8343
  22   2.0000      -7.632645      -207.6948
  23   2.0000      -6.428109      -174.9177
  24   2.0000      -6.424401      -174.8168
  25   2.0000      -5.715055      -155.5145
  26   2.0000      -5.712060      -155.4331
  27   2.0000      -5.712017      -155.4319
  28   2.0000      -5.708942      -155.3482
  29   2.0000      -5.704584      -155.2296
  30   2.0000      -5.700862      -155.1283
  31   2.0000      -5.666571      -154.1952
  32   2.0000      -5.661581      -154.0595
  33   2.0000      -5.658734      -153.9820
  34   2.0000      -5.657699      -153.9538
  35   2.0000      -5.653170      -153.8306
  36   2.0000      -5.652843      -153.8217
  37   2.0000      -4.650993      -126.5600
  38   2.0000      -4.649530      -126.5201
  39   2.0000      -4.648593      -126.4946
  40   2.0000      -4.647323      -126.4601
  41   2.0000      -4.646045      -126.4253
  42   2.0000      -4.644671      -126.3879
  43   2.0000      -0.992779       -27.0149
  44   2.0000      -0.989447       -26.9242
  45   2.0000      -0.950824       -25.8732
  46   2.0000      -0.945368       -25.7248
  47   2.0000      -0.764497       -20.8030
  48   2.0000      -0.726046       -19.7567
  49   2.0000      -0.712330       -19.3835
  50   2.0000      -0.694138       -18.8884
  51   2.0000      -0.690301       -18.7841
  52   2.0000      -0.676244       -18.4015
  53   2.0000      -0.653239       -17.7755
  54   2.0000      -0.638980       -17.3875
  55   2.0000      -0.601720       -16.3736
  56   2.0000      -0.592715       -16.1286
  57   2.0000      -0.583320       -15.8729
  58   2.0000      -0.570858       -15.5338
  59   2.0000      -0.558277       -15.1915
  60   2.0000      -0.508722       -13.8430
  61   2.0000      -0.502451       -13.6724
  62   2.0000      -0.483059       -13.1447
  63   2.0000      -0.475687       -12.9441
  64   2.0000      -0.462847       -12.5947
  65   2.0000      -0.448644       -12.2082
  66   2.0000      -0.442183       -12.0324
  67   2.0000      -0.439900       -11.9703
  68   2.0000      -0.432620       -11.7722
  69   2.0000      -0.418844       -11.3973
  70   2.0000      -0.411799       -11.2056
  71   2.0000      -0.399238       -10.8638
  72   2.0000      -0.391312       -10.6482
  73   2.0000      -0.384295       -10.4572
  74   2.0000      -0.380537       -10.3549
  75   2.0000      -0.375463       -10.2169
  76   2.0000      -0.365753        -9.9527
  77   2.0000      -0.363044        -9.8789
  78   2.0000      -0.357533        -9.7290
  79   2.0000      -0.356559        -9.7025
  80   2.0000      -0.353088        -9.6080
  81   2.0000      -0.346249        -9.4219
  82   2.0000      -0.344633        -9.3779
  83   2.0000      -0.340217        -9.2578
  84   2.0000      -0.337248        -9.1770
  85   2.0000      -0.324357        -8.8262
  86   2.0000      -0.310795        -8.4572
  87   2.0000      -0.302821        -8.2402
  88   2.0000      -0.299155        -8.1404
  89   2.0000      -0.297785        -8.1031
  90   2.0000      -0.296438        -8.0665
  91   2.0000      -0.283465        -7.7135
  92   2.0000      -0.273879        -7.4526
  93   2.0000      -0.266321        -7.2470
  94   2.0000      -0.259197        -7.0531
  95   2.0000      -0.234627        -6.3845
  96   2.0000      -0.219722        -5.9789
  97   2.0000      -0.214958        -5.8493
  98   2.0000      -0.206459        -5.6180
  99   2.0000      -0.202963        -5.5229
 100   2.0000      -0.200365        -5.4522
 101   0.0000      -0.046729        -1.2716
 102   0.0000      -0.024208        -0.6587
 103   0.0000      -0.002633        -0.0716
 104   0.0000      -0.000413        -0.0112
 105   0.0000       0.012929         0.3518

MULLIKEN ATOMIC CHARGES
-----------------------
   0 C :   -0.318597
   1 C :    0.000446
   2 O :   -0.385506
   3 P :    0.603679
   4 S :   -0.307868
   5 O :   -0.350823
   6 C :   -0.017636
   7 C :   -0.283311
   8 S :   -0.108477
   9 C :   -0.384163
  10 S :   -0.050356
  11 P :    0.638647
  12 S :   -0.325109
  13 O :   -0.376940
  14 C :   -0.018694
  15 C :   -0.308892
  16 O :   -0.382525
  17 C :   -0.017552
  18 C :   -0.296160
  19 H :    0.114866
  20 H :    0.116239
  21 H :    0.130647
  22 H :    0.114022
  23 H :    0.105115
  24 H :    0.105619
  25 H :    0.106086
  26 H :    0.100728
  27 H :    0.118048
  28 H :    0.129842
  29 H :    0.193160
  30 H :    0.195897
  31 H :    0.107762
  32 H :    0.112737
  33 H :    0.109959
  34 H :    0.123337
  35 H :    0.134790
  36 H :    0.111845
  37 H :    0.109472
  38 H :    0.116393
  39 H :    0.119393
  40 H :    0.113881
Sum of atomic charges:    0.0000000

LOEWDIN ATOMIC CHARGES
----------------------
   0 C :   -0.371114
   1 C :   -0.114884
   2 O :   -0.250174
   3 P :    0.571997
   4 S :   -0.305225
   5 O :   -0.233628
   6 C :   -0.112844
   7 C :   -0.353973
   8 S :    0.073103
   9 C :   -0.492483
  10 S :    0.105591
  11 P :    0.572172
  12 S :   -0.311074
  13 O :   -0.243112
  14 C :   -0.111707
  15 C :   -0.365068
  16 O :   -0.242257
  17 C :   -0.125926
  18 C :   -0.361399
  19 H :    0.132011
  20 H :    0.122649
  21 H :    0.122708
  22 H :    0.114205
  23 H :    0.118802
  24 H :    0.101432
  25 H :    0.114848
  26 H :    0.126118
  27 H :    0.128746
  28 H :    0.122103
  29 H :    0.127619
  30 H :    0.129321
  31 H :    0.109490
  32 H :    0.122771
  33 H :    0.129708
  34 H :    0.131167
  35 H :    0.122899
  36 H :    0.105074
  37 H :    0.112356
  38 H :    0.122356
  39 H :    0.123223
  40 H :    0.132398

  Mayer bond orders larger than 0.100000
B(  0-C ,  1-C ) :   1.1663 B(  0-C , 19-H ) :   0.9366 B(  0-C , 20-H ) :   0.9437
B(  0-C , 21-H ) :   0.9345 B(  1-C ,  2-O ) :   0.9058 B(  1-C , 22-H ) :   0.9198
B(  1-C , 23-H ) :   0.9346 B(  2-O ,  3-P ) :   1.0880 B(  3-P ,  4-S ) :   1.6423
B(  3-P ,  5-O ) :   1.1450 B(  3-P ,  8-S ) :   0.9384 B(  4-S ,  8-S ) :   0.1072
B(  5-O ,  6-C ) :   0.8879 B(  6-C ,  7-C ) :   1.1688 B(  6-C , 24-H ) :   0.9062
B(  6-C , 25-H ) :   0.9317 B(  7-C , 26-H ) :   0.9404 B(  7-C , 27-H ) :   0.9471
B(  7-C , 28-H ) :   0.9367 B(  8-S ,  9-C ) :   0.9966 B(  9-C , 10-S ) :   1.0077
B(  9-C , 29-H ) :   0.8690 B(  9-C , 30-H ) :   0.8718 B( 10-S , 11-P ) :   0.9705
B( 10-S , 12-S ) :   0.1072 B( 11-P , 12-S ) :   1.6024 B( 11-P , 13-O ) :   1.1203
B( 11-P , 16-O ) :   1.0687 B( 13-O , 14-C ) :   0.9058 B( 14-C , 15-C ) :   1.1675
B( 14-C , 31-H ) :   0.9197 B( 14-C , 32-H ) :   0.9349 B( 15-C , 33-H ) :   0.9383
B( 15-C , 34-H ) :   0.9455 B( 15-C , 35-H ) :   0.9330 B( 16-O , 17-C ) :   0.9040
B( 17-C , 18-C ) :   1.1666 B( 17-C , 36-H ) :   0.9027 B( 17-C , 37-H ) :   0.9244
B( 18-C , 38-H ) :   0.9427 B( 18-C , 39-H ) :   0.9380 B( 18-C , 40-H ) :   0.9390

Dispersion correction           -0.065952611
FINAL SINGLE POINT ENERGY     -2929.524039244882

DIPOLE MOMENT
-------------

Method             : SCF
Type of density    : Electron Density
Multiplicity       :   1
Irrep              :   0
Energy             : -2929.6438251937047426 Eh
Relativity type    :
Basis              : AO
                                X                 Y                 Z
Electronic contribution:     11.523822126      17.008867771      -8.038458950
Nuclear contribution   :    -12.094427682     -18.917126583       8.950790966
                        -----------------------------------------
Total Dipole Moment    :     -0.570605556      -1.908258812       0.912332017
                        -----------------------------------------
Magnitude (a.u.)       :      2.190751493
Magnitude (Debye)      :      5.568447764

Rotational constants in cm-1:             0.013879             0.004589             0.004564
Rotational constants in MHz :           416.080382           137.584675           136.836423

                             ****ORCA TERMINATED NORMALLY****
TOTAL RUN TIME: 0 days 0 hours 0 minutes 21 seconds 480 msec
