                         Program Version 6.0.0  -   RELEASE  -
|  1> ! wb97x-v def2-tzvp def2/J RIJCOSX DEFGRID2 scfconv7 GCP(DFT/TZ) printgap
|  2> %output
|  3>     printlevel normal
|  4> end
|  5> * xyz 0 1
|  6> C 5.5654174696598675 -1.5866148872274932 -0.9049290915893423
|  7> C 4.252893815016843 -1.2762282549639867 -1.5778286892330844
|  8> O 3.1591254840036744 -1.5356482773962798 -0.62679428423463
|  9> P 2.2069073841350084 -0.3448659458985363 -0.10970669445327862
| 10> S 3.060597828764262 1.3183070515898339 0.4376750750109305
| 11> O 1.3438680172705024 -1.1198425251858888 0.9978061423792964
| 12> C 1.723468238778044 -1.1183901814160502 2.41947190169623
| 13> C 2.928157948455566 -1.988900655373056 2.6788675534856825
| 14> S 0.8474748929225085 -0.20487336409204968 -1.728267165753154
| 15> C 0.0975104030467415 1.4402508466843589 -1.414969283364629
| 16> S -0.9437492790205326 1.605232125442532 0.0854616490981799
| 17> P -2.632834334994064 0.43188064075740756 -0.4600887641850897
| 18> S -3.1579835518566726 0.5373224257915091 -2.328525319898033
| 19> O -3.6824432022789515 0.903515044462586 0.6642104209073555
| 20> C -4.32630015366897 2.2246875471581973 0.6024856724491572
| 21> C -5.494915954170201 2.19605828489375 1.5519059539272517
| 22> O -2.3616363921289527 -1.0839058789167808 -0.018512242709924208
| 23> C -2.052387075128651 -1.4433073467621786 1.377962564362717
| 24> C -1.5739430704736774 -2.8713434455136495 1.3714198400391937
| 25> H 6.376937193532782 -1.45400877669254 -1.6277028488792427
| 26> H 5.739487077825333 -0.9139777270917633 -0.06013024572061768
| 27> H 5.5857241616764854 -2.620699307521205 -0.5491373246368753
| 28> H 4.061021708587836 -1.9335212244870825 -2.4295396113698957
| 29> H 4.207860072615784 -0.23610973531492682 -1.9148932726743924
| 30> H 1.8876669023620196 -0.0815614572366876 2.72875500477172
| 31> H 0.8321433902029169 -1.5032923800775844 2.919625673568884
| 32> H 3.826412867584497 -1.5904149169467525 2.1973632763103255
| 33> H 3.1078734939037256 -2.022546496954087 3.7584650363638694
| 34> H 2.7566187349542055 -3.0095423321454993 2.325021825739478
| 35> H -0.5024640712191338 1.6650405381873195 -2.3018296217638667
| 36> H 0.8902067118891094 2.186235599961629 -1.3083901369644622
| 37> H -3.5852082727446817 2.9759532215949576 0.8919470078105163
| 38> H -4.644723486342634 2.407110652943297 -0.42866908498115475
| 39> H -5.982692584668985 3.175495567356946 1.5393554994019145
| 40> H -6.2258077029629355 1.4412488606116327 1.2492160593860149
| 41> H -5.165336080035621 1.987999818823708 2.573657567822653
| 42> H -1.28512182784213 -0.758188460543514 1.753888343433761
| 43> H -2.967369357042849 -1.3216525392651117 1.96374874787804
| 44> H -1.3474467922412994 -3.173873835691112 2.398438956405721
| 45> H -2.346717265528923 -3.538624158412658 0.9793194202563983
| 46> H -0.6679957234573464 -2.979798536710691 0.7691536246837091
| 47> *
| 48>
| 49>                          ****END OF INPUT****

CARTESIAN COORDINATES (ANGSTROEM)
---------------------------------
  C      5.565417   -1.586615   -0.904929
  C      4.252894   -1.276228   -1.577829
  O      3.159125   -1.535648   -0.626794
  P      2.206907   -0.344866   -0.109707
  S      3.060598    1.318307    0.437675
  O      1.343868   -1.119843    0.997806
  C      1.723468   -1.118390    2.419472
  C      2.928158   -1.988901    2.678868
  S      0.847475   -0.204873   -1.728267
  C      0.097510    1.440251   -1.414969
  S     -0.943749    1.605232    0.085462
  P     -2.632834    0.431881   -0.460089
  S     -3.157984    0.537322   -2.328525
  O     -3.682443    0.903515    0.664210
  C     -4.326300    2.224688    0.602486
  C     -5.494916    2.196058    1.551906
  O     -2.361636   -1.083906   -0.018512
  C     -2.052387   -1.443307    1.377963
  C     -1.573943   -2.871343    1.371420
  H      6.376937   -1.454009   -1.627703
  H      5.739487   -0.913978   -0.060130
  H      5.585724   -2.620699   -0.549137
  H      4.061022   -1.933521   -2.429540
  H      4.207860   -0.236110   -1.914893
  H      1.887667   -0.081561    2.728755
  H      0.832143   -1.503292    2.919626
  H      3.826413   -1.590415    2.197363
  H      3.107873   -2.022546    3.758465
  H      2.756619   -3.009542    2.325022
  H     -0.502464    1.665041   -2.301830
  H      0.890207    2.186236   -1.308390
  H     -3.585208    2.975953    0.891947
  H     -4.644723    2.407111   -0.428669
  H     -5.982693    3.175496    1.539355
  H     -6.225808    1.441249    1.249216
  H     -5.165336    1.988000    2.573658
  H     -1.285122   -0.758188    1.753888
  H     -2.967369   -1.321653    1.963749
  H     -1.347447   -3.173874    2.398439
  H     -2.346717   -3.538624    0.979319
  H     -0.667996   -2.979799    0.769154

 Total Charge           Charge          ....    0
 Multiplicity           Mult            ....    1
 Number of Electrons    NEL             ....  202
 Basis Dimension        Dim             ....  757

ORBITAL ENERGIES
----------------

  NO   OCC          E(Eh)            E(eV)
   0   2.0000     -94.143544     -2561.7761
   1   2.0000     -94.142862     -2561.7575
   2   2.0000     -94.087866     -2560.2610
   3   2.0000     -94.077391     -2559.9759
   4   2.0000     -82.123091     -2234.6829
   5   2.0000     -82.116757     -2234.5105
   6   2.0000     -21.713438      -590.8527
   7   2.0000     -21.713155      -590.8450
   8   2.0000     -21.712744      -590.8338
   9   2.0000     -21.705795      -590.6447
  10   2.0000     -12.122825      -329.8788
  11   2.0000     -12.120781      -329.8232
  12   2.0000     -12.119332      -329.7838
  13   2.0000     -12.117758      -329.7410
  14   2.0000     -12.112653      -329.6020
  15   2.0000     -12.051791      -327.9459
  16   2.0000     -12.051461      -327.9369
  17   2.0000     -12.050359      -327.9069
  18   2.0000     -12.044328      -327.7428
  19   2.0000      -9.654817      -262.7209
  20   2.0000      -9.654314      -262.7072
  21   2.0000      -9.600773      -261.2503
  22   2.0000      -9.590170      -260.9618
  23   2.0000      -8.236314      -224.1215
  24   2.0000      -8.229926      -223.9477
  25   2.0000      -7.632490      -207.6906
  26   2.0000      -7.632079      -207.6794
  27   2.0000      -7.631579      -207.6658
  28   2.0000      -7.630919      -207.6479
  29   2.0000      -7.630157      -207.6271
  30   2.0000      -7.629319      -207.6043
  31   2.0000      -7.578384      -206.2183
  32   2.0000      -7.576671      -206.1717
  33   2.0000      -7.576515      -206.1674
  34   2.0000      -7.567749      -205.9289
  35   2.0000      -7.566098      -205.8840
  36   2.0000      -7.565910      -205.8789
  37   2.0000      -6.400539      -174.1675
  38   2.0000      -6.400382      -174.1632
  39   2.0000      -6.399903      -174.1502
  40   2.0000      -6.394297      -173.9977
  41   2.0000      -6.393945      -173.9881
  42   2.0000      -6.393373      -173.9725
  43   2.0000      -1.724539       -46.9271
  44   2.0000      -1.721017       -46.8313
  45   2.0000      -1.701173       -46.2913
  46   2.0000      -1.695391       -46.1339
  47   2.0000      -1.330184       -36.1962
  48   2.0000      -1.316267       -35.8175
  49   2.0000      -1.305302       -35.5191
  50   2.0000      -1.292441       -35.1691
  51   2.0000      -1.291393       -35.1406
  52   2.0000      -1.253284       -34.1036
  53   2.0000      -1.229437       -33.4547
  54   2.0000      -1.207323       -32.8529
  55   2.0000      -1.179131       -32.0858
  56   2.0000      -1.163286       -31.6546
  57   2.0000      -1.155572       -31.4447
  58   2.0000      -1.146271       -31.1916
  59   2.0000      -1.119827       -30.4720
  60   2.0000      -1.081941       -29.4411
  61   2.0000      -1.071347       -29.1528
  62   2.0000      -1.053961       -28.6797
  63   2.0000      -1.050351       -28.5815
  64   2.0000      -1.000681       -27.2299
  65   2.0000      -0.993108       -27.0238
  66   2.0000      -0.992336       -27.0028
  67   2.0000      -0.984555       -26.7911
  68   2.0000      -0.975685       -26.5497
  69   2.0000      -0.970556       -26.4102
  70   2.0000      -0.962891       -26.2016
  71   2.0000      -0.958940       -26.0941
  72   2.0000      -0.920783       -25.0558
  73   2.0000      -0.894692       -24.3458
  74   2.0000      -0.882439       -24.0124
  75   2.0000      -0.879407       -23.9299
  76   2.0000      -0.877362       -23.8742
  77   2.0000      -0.867123       -23.5956
  78   2.0000      -0.864379       -23.5209
  79   2.0000      -0.846539       -23.0355
  80   2.0000      -0.845367       -23.0036
  81   2.0000      -0.844395       -22.9772
  82   2.0000      -0.841666       -22.9029
  83   2.0000      -0.835005       -22.7216
  84   2.0000      -0.827960       -22.5299
  85   2.0000      -0.827274       -22.5113
  86   2.0000      -0.825269       -22.4567
  87   2.0000      -0.823925       -22.4201
  88   2.0000      -0.819658       -22.3040
  89   2.0000      -0.793419       -21.5900
  90   2.0000      -0.792823       -21.5738
  91   2.0000      -0.791276       -21.5317
  92   2.0000      -0.784423       -21.3452
  93   2.0000      -0.775668       -21.1070
  94   2.0000      -0.751510       -20.4496
  95   2.0000      -0.689561       -18.7639
  96   2.0000      -0.675332       -18.3767
  97   2.0000      -0.651272       -17.7220
  98   2.0000      -0.645164       -17.5558
  99   2.0000      -0.640363       -17.4252
 100   2.0000      -0.633061       -17.2265
 101   0.0000      -0.317169        -8.6306
 102   0.0000      -0.312897        -8.5144
 103   0.0000      -0.270582        -7.3629
 104   0.0000      -0.242211        -6.5909
 105   0.0000      -0.233290        -6.3481

MULLIKEN ATOMIC CHARGES
-----------------------
   0 C :   -0.331583
   1 C :   -0.039288
   2 O :   -0.314016
   3 P :    0.593676
   4 S :   -0.418614
   5 O :   -0.298734
   6 C :   -0.050524
   7 C :   -0.314856
   8 S :   -0.098891
   9 C :   -0.197360
  10 S :   -0.150351
  11 P :    0.617623
  12 S :   -0.404103
  13 O :   -0.309354
  14 C :   -0.058184
  15 C :   -0.316414
  16 O :   -0.277475
  17 C :   -0.045559
  18 C :   -0.335470
  19 H :    0.117360
  20 H :    0.128728
  21 H :    0.118120
  22 H :    0.118701
  23 H :    0.121143
  24 H :    0.135330
  25 H :    0.105964
  26 H :    0.125852
  27 H :    0.117496
  28 H :    0.118625
  29 H :    0.178081
  30 H :    0.173907
  31 H :    0.115773
  32 H :    0.125702
  33 H :    0.114000
  34 H :    0.124026
  35 H :    0.115065
  36 H :    0.107176
  37 H :    0.119476
  38 H :    0.103796
  39 H :    0.126330
  40 H :    0.138826
Sum of atomic charges:    0.0000000

LOEWDIN ATOMIC CHARGES
----------------------
   0 C :   -0.307333
   1 C :   -0.319038
   2 O :    0.027181
   3 P :   -0.035200
   4 S :   -0.118283
   5 O :    0.030923
   6 C :   -0.320225
   7 C :   -0.308694
   8 S :    0.364672
   9 C :   -0.705715
  10 S :    0.339841
  11 P :   -0.035724
  12 S :   -0.111609
  13 O :    0.026986
  14 C :   -0.319424
  15 C :   -0.303713
  16 O :    0.038643
  17 C :   -0.318401
  18 C :   -0.307718
  19 H :    0.126180
  20 H :    0.122427
  21 H :    0.121488
  22 H :    0.125220
  23 H :    0.121361
  24 H :    0.122898
  25 H :    0.123086
  26 H :    0.121480
  27 H :    0.126694
  28 H :    0.123184
  29 H :    0.115464
  30 H :    0.114313
  31 H :    0.118905
  32 H :    0.123083
  33 H :    0.126350
  34 H :    0.123778
  35 H :    0.120923
  36 H :    0.114806
  37 H :    0.120825
  38 H :    0.121973
  39 H :    0.123408
  40 H :    0.124985

  Mayer bond orders larger than 0.100000
B(  0-C ,  1-C ) :   1.0115 B(  0-C , 19-H ) :   0.9696 B(  0-C , 20-H ) :   0.9707
B(  0-C , 21-H ) :   0.9742 B(  1-C ,  2-O ) :   0.8650 B(  1-C , 22-H ) :   0.9652
B(  1-C , 23-H ) :   0.9621 B(  2-O ,  3-P ) :   1.1811 B(  3-P ,  4-S ) :   1.7906
B(  3-P ,  5-O ) :   1.2047 B(  3-P ,  8-S ) :   1.1065 B(  5-O ,  6-C ) :   0.8677
B(  6-C ,  7-C ) :   1.0078 B(  6-C , 24-H ) :   0.9704 B(  6-C , 25-H ) :   0.9648
B(  7-C , 26-H ) :   0.9705 B(  7-C , 27-H ) :   0.9680 B(  7-C , 28-H ) :   0.9698
B(  8-S ,  9-C ) :   1.0214 B(  9-C , 10-S ) :   1.0076 B(  9-C , 29-H ) :   0.9313
B(  9-C , 30-H ) :   0.9336 B( 10-S , 11-P ) :   1.0438 B( 11-P , 12-S ) :   1.8744
B( 11-P , 13-O ) :   1.1559 B( 11-P , 16-O ) :   1.2453 B( 13-O , 14-C ) :   0.8893
B( 14-C , 15-C ) :   1.0082 B( 14-C , 31-H ) :   0.9660 B( 14-C , 32-H ) :   0.9599
B( 15-C , 33-H ) :   0.9691 B( 15-C , 34-H ) :   0.9756 B( 15-C , 35-H ) :   0.9750
B( 16-O , 17-C ) :   0.8901 B( 17-C , 18-C ) :   1.0008 B( 17-C , 36-H ) :   0.9628
B( 17-C , 37-H ) :   0.9671 B( 18-C , 38-H ) :   0.9711 B( 18-C , 39-H ) :   0.9711
B( 18-C , 40-H ) :   0.9740

FINAL SINGLE POINT ENERGY     -2932.537931501521

DIPOLE MOMENT
-------------

Method             : SCF
Type of density    : Electron Density
Multiplicity       :   1
Irrep              :   0
Energy             : -2932.5678085710205778 Eh
Relativity type    :
Basis              : AO
                                X                 Y                 Z
Electronic contribution:     -5.350901059      10.356482848     -16.695618860
Nuclear contribution   :      5.905137755     -10.676650826      18.139499195
                        -----------------------------------------
Total Dipole Moment    :      0.554236696      -0.320167977       1.443880335
                        -----------------------------------------
Magnitude (a.u.)       :      1.579391107
Magnitude (Debye)      :      4.014493158

Rotational constants in cm-1:             0.013453             0.004304             0.004012
Rotational constants in MHz :           403.316577           129.028549           120.269886

                             ****ORCA TERMINATED NORMALLY****
TOTAL RUN TIME: 0 days 0 hours 15 minutes 26 seconds 230 msec
