                         Program Version 6.0.0  -   RELEASE  -
|  1> ! wb97x-v def2-tzvp def2/J RIJCOSX DEFGRID2 scfconv7 GCP(DFT/TZ) printgap
|  2> %output
|  3>     printlevel normal
|  4> end
|  5> %cpcm
|  6>     smd true
|  7>     smdsolvent "water"
|  8> end
|  9> * xyz 0 1
| 10> C 5.5654174696598675 -1.5866148872274932 -0.9049290915893423
| 11> C 4.252893815016843 -1.2762282549639867 -1.5778286892330844
| 12> O 3.1591254840036744 -1.5356482773962798 -0.62679428423463
| 13> P 2.2069073841350084 -0.3448659458985363 -0.10970669445327862
| 14> S 3.060597828764262 1.3183070515898339 0.4376750750109305
| 15> O 1.3438680172705024 -1.1198425251858888 0.9978061423792964
| 16> C 1.723468238778044 -1.1183901814160502 2.41947190169623
| 17> C 2.928157948455566 -1.988900655373056 2.6788675534856825
| 18> S 0.8474748929225085 -0.20487336409204968 -1.728267165753154
| 19> C 0.0975104030467415 1.4402508466843589 -1.414969283364629
| 20> S -0.9437492790205326 1.605232125442532 0.0854616490981799
| 21> P -2.632834334994064 0.43188064075740756 -0.4600887641850897
| 22> S -3.1579835518566726 0.5373224257915091 -2.328525319898033
| 23> O -3.6824432022789515 0.903515044462586 0.6642104209073555
| 24> C -4.32630015366897 2.2246875471581973 0.6024856724491572
| 25> C -5.494915954170201 2.19605828489375 1.5519059539272517
| 26> O -2.3616363921289527 -1.0839058789167808 -0.018512242709924208
| 27> C -2.052387075128651 -1.4433073467621786 1.377962564362717
| 28> C -1.5739430704736774 -2.8713434455136495 1.3714198400391937
| 29> H 6.376937193532782 -1.45400877669254 -1.6277028488792427
| 30> H 5.739487077825333 -0.9139777270917633 -0.06013024572061768
| 31> H 5.5857241616764854 -2.620699307521205 -0.5491373246368753
| 32> H 4.061021708587836 -1.9335212244870825 -2.4295396113698957
| 33> H 4.207860072615784 -0.23610973531492682 -1.9148932726743924
| 34> H 1.8876669023620196 -0.0815614572366876 2.72875500477172
| 35> H 0.8321433902029169 -1.5032923800775844 2.919625673568884
| 36> H 3.826412867584497 -1.5904149169467525 2.1973632763103255
| 37> H 3.1078734939037256 -2.022546496954087 3.7584650363638694
| 38> H 2.7566187349542055 -3.0095423321454993 2.325021825739478
| 39> H -0.5024640712191338 1.6650405381873195 -2.3018296217638667
| 40> H 0.8902067118891094 2.186235599961629 -1.3083901369644622
| 41> H -3.5852082727446817 2.9759532215949576 0.8919470078105163
| 42> H -4.644723486342634 2.407110652943297 -0.42866908498115475
| 43> H -5.982692584668985 3.175495567356946 1.5393554994019145
| 44> H -6.2258077029629355 1.4412488606116327 1.2492160593860149
| 45> H -5.165336080035621 1.987999818823708 2.573657567822653
| 46> H -1.28512182784213 -0.758188460543514 1.753888343433761
| 47> H -2.967369357042849 -1.3216525392651117 1.96374874787804
| 48> H -1.3474467922412994 -3.173873835691112 2.398438956405721
| 49> H -2.346717265528923 -3.538624158412658 0.9793194202563983
| 50> H -0.6679957234573464 -2.979798536710691 0.7691536246837091
| 51> *
| 52>
| 53>                          ****END OF INPUT****

CARTESIAN COORDINATES (ANGSTROEM)
---------------------------------
  C      5.565417   -1.586615   -0.904929
  C      4.252894   -1.276228   -1.577829
  O      3.159125   -1.535648   -0.626794
  P      2.206907   -0.344866   -0.109707
  S      3.060598    1.318307    0.437675
  O      1.343868   -1.119843    0.997806
  C      1.723468   -1.118390    2.419472
  C      2.928158   -1.988901    2.678868
  S      0.847475   -0.204873   -1.728267
  C      0.097510    1.440251   -1.414969
  S     -0.943749    1.605232    0.085462
  P     -2.632834    0.431881   -0.460089
  S     -3.157984    0.537322   -2.328525
  O     -3.682443    0.903515    0.664210
  C     -4.326300    2.224688    0.602486
  C     -5.494916    2.196058    1.551906
  O     -2.361636   -1.083906   -0.018512
  C     -2.052387   -1.443307    1.377963
  C     -1.573943   -2.871343    1.371420
  H      6.376937   -1.454009   -1.627703
  H      5.739487   -0.913978   -0.060130
  H      5.585724   -2.620699   -0.549137
  H      4.061022   -1.933521   -2.429540
  H      4.207860   -0.236110   -1.914893
  H      1.887667   -0.081561    2.728755
  H      0.832143   -1.503292    2.919626
  H      3.826413   -1.590415    2.197363
  H      3.107873   -2.022546    3.758465
  H      2.756619   -3.009542    2.325022
  H     -0.502464    1.665041   -2.301830
  H      0.890207    2.186236   -1.308390
  H     -3.585208    2.975953    0.891947
  H     -4.644723    2.407111   -0.428669
  H     -5.982693    3.175496    1.539355
  H     -6.225808    1.441249    1.249216
  H     -5.165336    1.988000    2.573658
  H     -1.285122   -0.758188    1.753888
  H     -2.967369   -1.321653    1.963749
  H     -1.347447   -3.173874    2.398439
  H     -2.346717   -3.538624    0.979319
  H     -0.667996   -2.979799    0.769154

 Total Charge           Charge          ....    0
 Multiplicity           Mult            ....    1
 Number of Electrons    NEL             ....  202
 Basis Dimension        Dim             ....  757

ORBITAL ENERGIES
----------------

  NO   OCC          E(Eh)            E(eV)
   0   2.0000     -94.148588     -2561.9133
   1   2.0000     -94.148483     -2561.9105
   2   2.0000     -94.092679     -2560.3920
   3   2.0000     -94.092012     -2560.3738
   4   2.0000     -82.126476     -2234.7750
   5   2.0000     -82.126282     -2234.7698
   6   2.0000     -21.715432      -590.9069
   7   2.0000     -21.713751      -590.8612
   8   2.0000     -21.712732      -590.8335
   9   2.0000     -21.712031      -590.8144
  10   2.0000     -12.123725      -329.9033
  11   2.0000     -12.107824      -329.4706
  12   2.0000     -12.106787      -329.4424
  13   2.0000     -12.105882      -329.4178
  14   2.0000     -12.105704      -329.4129
  15   2.0000     -12.035814      -327.5111
  16   2.0000     -12.035158      -327.4933
  17   2.0000     -12.034671      -327.4800
  18   2.0000     -12.034484      -327.4750
  19   2.0000      -9.659981      -262.8614
  20   2.0000      -9.659857      -262.8581
  21   2.0000      -9.605805      -261.3873
  22   2.0000      -9.605149      -261.3694
  23   2.0000      -8.239716      -224.2141
  24   2.0000      -8.239521      -224.2088
  25   2.0000      -7.637731      -207.8332
  26   2.0000      -7.637537      -207.8279
  27   2.0000      -7.636945      -207.8119
  28   2.0000      -7.636283      -207.7938
  29   2.0000      -7.635549      -207.7738
  30   2.0000      -7.634712      -207.7511
  31   2.0000      -7.583427      -206.3555
  32   2.0000      -7.582745      -206.3370
  33   2.0000      -7.581776      -206.3106
  34   2.0000      -7.581637      -206.3068
  35   2.0000      -7.581151      -206.2936
  36   2.0000      -7.580970      -206.2887
  37   2.0000      -6.404056      -174.2632
  38   2.0000      -6.403748      -174.2548
  39   2.0000      -6.403720      -174.2541
  40   2.0000      -6.403592      -174.2506
  41   2.0000      -6.403231      -174.2408
  42   2.0000      -6.403134      -174.2381
  43   2.0000      -1.726207       -46.9725
  44   2.0000      -1.723859       -46.9086
  45   2.0000      -1.701426       -46.2982
  46   2.0000      -1.700138       -46.2631
  47   2.0000      -1.332185       -36.2506
  48   2.0000      -1.312822       -35.7237
  49   2.0000      -1.300743       -35.3950
  50   2.0000      -1.284483       -34.9526
  51   2.0000      -1.280148       -34.8346
  52   2.0000      -1.253568       -34.1113
  53   2.0000      -1.232488       -33.5377
  54   2.0000      -1.214245       -33.0413
  55   2.0000      -1.174111       -31.9492
  56   2.0000      -1.161958       -31.6185
  57   2.0000      -1.146133       -31.1879
  58   2.0000      -1.144145       -31.1338
  59   2.0000      -1.120612       -30.4934
  60   2.0000      -1.079709       -29.3804
  61   2.0000      -1.066633       -29.0246
  62   2.0000      -1.054861       -28.7042
  63   2.0000      -1.044518       -28.4228
  64   2.0000      -0.997786       -27.1511
  65   2.0000      -0.993864       -27.0444
  66   2.0000      -0.989487       -26.9253
  67   2.0000      -0.985180       -26.8081
  68   2.0000      -0.972275       -26.4569
  69   2.0000      -0.971392       -26.4329
  70   2.0000      -0.961515       -26.1641
  71   2.0000      -0.958687       -26.0872
  72   2.0000      -0.922587       -25.1049
  73   2.0000      -0.891887       -24.2695
  74   2.0000      -0.875368       -23.8200
  75   2.0000      -0.869198       -23.6521
  76   2.0000      -0.867754       -23.6128
  77   2.0000      -0.862754       -23.4767
  78   2.0000      -0.861256       -23.4360
  79   2.0000      -0.842949       -22.9378
  80   2.0000      -0.838913       -22.8280
  81   2.0000      -0.835152       -22.7256
  82   2.0000      -0.832625       -22.6569
  83   2.0000      -0.829631       -22.5754
  84   2.0000      -0.827806       -22.5257
  85   2.0000      -0.811526       -22.0827
  86   2.0000      -0.811025       -22.0691
  87   2.0000      -0.810335       -22.0503
  88   2.0000      -0.809179       -22.0189
  89   2.0000      -0.786638       -21.4055
  90   2.0000      -0.778335       -21.1796
  91   2.0000      -0.777864       -21.1667
  92   2.0000      -0.776171       -21.1207
  93   2.0000      -0.775475       -21.1017
  94   2.0000      -0.757402       -20.6100
  95   2.0000      -0.695227       -18.9181
  96   2.0000      -0.681257       -18.5379
  97   2.0000      -0.657209       -17.8836
  98   2.0000      -0.656260       -17.8577
  99   2.0000      -0.650956       -17.7134
 100   2.0000      -0.648676       -17.6514
 101   0.0000      -0.322885        -8.7861
 102   0.0000      -0.318357        -8.6629
 103   0.0000      -0.274156        -7.4602
 104   0.0000      -0.246199        -6.6994
 105   0.0000      -0.236940        -6.4475

MULLIKEN ATOMIC CHARGES
-----------------------
   0 C :   -0.368375
   1 C :   -0.039608
   2 O :   -0.345604
   3 P :    0.634043
   4 S :   -0.461094
   5 O :   -0.326073
   6 C :   -0.049811
   7 C :   -0.366490
   8 S :   -0.132934
   9 C :   -0.200211
  10 S :   -0.150734
  11 P :    0.632205
  12 S :   -0.458361
  13 O :   -0.325760
  14 C :   -0.047121
  15 C :   -0.365002
  16 O :   -0.327369
  17 C :   -0.055808
  18 C :   -0.372043
  19 H :    0.141464
  20 H :    0.129171
  21 H :    0.133436
  22 H :    0.143478
  23 H :    0.130366
  24 H :    0.137009
  25 H :    0.146238
  26 H :    0.132937
  27 H :    0.144009
  28 H :    0.133393
  29 H :    0.197871
  30 H :    0.199021
  31 H :    0.137226
  32 H :    0.129573
  33 H :    0.137690
  34 H :    0.133140
  35 H :    0.133909
  36 H :    0.135955
  37 H :    0.143005
  38 H :    0.140053
  39 H :    0.138811
  40 H :    0.128396
Sum of atomic charges:    0.0000000

LOEWDIN ATOMIC CHARGES
----------------------
   0 C :   -0.309291
   1 C :   -0.313894
   2 O :    0.015316
   3 P :   -0.028769
   4 S :   -0.141769
   5 O :    0.021195
   6 C :   -0.312896
   7 C :   -0.312462
   8 S :    0.347062
   9 C :   -0.699251
  10 S :    0.344364
  11 P :   -0.034617
  12 S :   -0.152366
  13 O :    0.021587
  14 C :   -0.313728
  15 C :   -0.305259
  16 O :    0.015563
  17 C :   -0.311956
  18 C :   -0.310112
  19 H :    0.132966
  20 H :    0.121353
  21 H :    0.124859
  22 H :    0.132985
  23 H :    0.123871
  24 H :    0.123673
  25 H :    0.135170
  26 H :    0.120751
  27 H :    0.134379
  28 H :    0.125390
  29 H :    0.121110
  30 H :    0.121838
  31 H :    0.125807
  32 H :    0.124505
  33 H :    0.133608
  34 H :    0.124811
  35 H :    0.124974
  36 H :    0.121278
  37 H :    0.128680
  38 H :    0.133874
  39 H :    0.124791
  40 H :    0.120612

  Mayer bond orders larger than 0.100000
B(  0-C ,  1-C ) :   1.0133 B(  0-C , 19-H ) :   0.9659 B(  0-C , 20-H ) :   0.9691
B(  0-C , 21-H ) :   0.9714 B(  1-C ,  2-O ) :   0.8371 B(  1-C , 22-H ) :   0.9599
B(  1-C , 23-H ) :   0.9607 B(  2-O ,  3-P ) :   1.1851 B(  3-P ,  4-S ) :   1.7608
B(  3-P ,  5-O ) :   1.2162 B(  3-P ,  8-S ) :   1.1002 B(  5-O ,  6-C ) :   0.8390
B(  6-C ,  7-C ) :   1.0023 B(  6-C , 24-H ) :   0.9703 B(  6-C , 25-H ) :   0.9585
B(  7-C , 26-H ) :   0.9687 B(  7-C , 27-H ) :   0.9644 B(  7-C , 28-H ) :   0.9682
B(  8-S ,  9-C ) :   1.0056 B(  9-C , 10-S ) :   0.9980 B(  9-C , 29-H ) :   0.9277
B(  9-C , 30-H ) :   0.9291 B( 10-S , 11-P ) :   1.0616 B( 11-P , 12-S ) :   1.8424
B( 11-P , 13-O ) :   1.1751 B( 11-P , 16-O ) :   1.2413 B( 13-O , 14-C ) :   0.8612
B( 14-C , 15-C ) :   1.0145 B( 14-C , 31-H ) :   0.9613 B( 14-C , 32-H ) :   0.9577
B( 15-C , 33-H ) :   0.9647 B( 15-C , 34-H ) :   0.9728 B( 15-C , 35-H ) :   0.9717
B( 16-O , 17-C ) :   0.8511 B( 17-C , 18-C ) :   1.0044 B( 17-C , 36-H ) :   0.9620
B( 17-C , 37-H ) :   0.9631 B( 18-C , 38-H ) :   0.9666 B( 18-C , 39-H ) :   0.9672
B( 18-C , 40-H ) :   0.9736

FINAL SINGLE POINT ENERGY     -2932.551086606492

DIPOLE MOMENT
-------------

Method             : SCF
Type of density    : Electron Density
Multiplicity       :   1
Irrep              :   0
Energy             : -2932.5809636759922796 Eh
Relativity type    :
Basis              : AO
                                X                 Y                 Z
Electronic contribution:     -5.171914146      10.520966282     -16.090628557
Nuclear contribution   :      5.905137755     -10.676650826      18.139499195
                        -----------------------------------------
Total Dipole Moment    :      0.733223609      -0.155684543       2.048870638
                        -----------------------------------------
Magnitude (a.u.)       :      2.181679497
Magnitude (Debye)      :      5.545388583

Rotational constants in cm-1:             0.013453             0.004304             0.004012
Rotational constants in MHz :           403.316577           129.028549           120.269886

                             ****ORCA TERMINATED NORMALLY****
TOTAL RUN TIME: 0 days 0 hours 14 minutes 46 seconds 150 msec
