                         Program Version 6.0.0  -   RELEASE  -
|  1> ! pbe def2-sv(p) def2/J RI DEFGRID1 loosescf d4 GCP(DFT/SV(P)) printgap
|  2> %output
|  3>     printlevel normal
|  4> end
|  5> * xyz 0 1
|  6> C 5.6717033085 -0.3804934773 -0.8181912724
|  7> C 4.546802205 -1.2972866829 -1.2499612093
|  8> O 3.422867581 -1.232047347 -0.3477520584
|  9> P 2.5107428066 0.0576781438 -0.2210802792
| 10> S 2.1981781507 1.0164102557 -1.9093130385
| 11> O 3.2417496352 0.8887572062 0.9175523124
| 12> C 2.9597046685 2.275111837 1.1725389741
| 13> C 1.5829347615 2.4721276072 1.7730906105
| 14> S 0.8712899056 -0.8378931824 0.7450534561
| 15> C 0.0197408588 -1.3912249451 -0.7780921754
| 16> S -1.6859620713 -1.8418478109 -0.4459988014
| 17> P -2.4960362429 0.1103579201 -0.078960826
| 18> S -1.410062534 1.628320486 -0.6600053401
| 19> O -2.8880205419 0.094635603 1.4642687899
| 20> C -1.9389208397 0.2960009884 2.5274902261
| 21> C -2.722229995 0.5766384629 3.7938997271
| 22> O -3.9106500962 0.0972632788 -0.7580064073
| 23> C -4.9218827408 -0.9166678101 -0.5000128575
| 24> C -5.0574861207 -1.8347359435 -1.697699634
| 25> H 5.9405411727 -0.5775371553 0.2161718944
| 26> H 6.5348729809 -0.5445031344 -1.4556628042
| 27> H 5.3571403406 0.658369913 -0.9090125745
| 28> H 4.8434779359 -2.3464536695 -1.2195355144
| 29> H 4.1985729103 -1.033851158 -2.2539348274
| 30> H 3.7479244272 2.5791199767 1.8627668406
| 31> H 3.050185892 2.8286172148 0.2322150379
| 32> H 1.4530860448 1.8227417117 2.6356297934
| 33> H 1.4662146647 3.5073350505 2.0772470744
| 34> H 0.8162952051 2.240275521 1.0329763585
| 35> H 0.5072646588 -2.2846795147 -1.1613192169
| 36> H 0.0526163806 -0.5730337821 -1.5022053928
| 37> H -1.3266026488 -0.6057497137 2.6228386554
| 38> H -1.2903166935 1.136215944 2.2606134054
| 39> H -3.3285003819 1.4689157997 3.6663707254
| 40> H -3.3728425434 -0.2621650279 4.0226583291
| 41> H -2.0282846204 0.7277952602 4.6138900103
| 42> H -4.6524297419 -1.4704846939 0.4003131084
| 43> H -5.8386280067 -0.3512991556 -0.3262752253
| 44> H -5.2575851247 -1.2513867646 -2.5921766697
| 45> H -4.1439075693 -2.4053355106 -1.8451395343
| 46> H -5.8810722559 -2.5203189061 -1.5255499525
| 47> *
| 48>
| 49>                          ****END OF INPUT****

CARTESIAN COORDINATES (ANGSTROEM)
---------------------------------
  C      5.671703   -0.380493   -0.818191
  C      4.546802   -1.297287   -1.249961
  O      3.422868   -1.232047   -0.347752
  P      2.510743    0.057678   -0.221080
  S      2.198178    1.016410   -1.909313
  O      3.241750    0.888757    0.917552
  C      2.959705    2.275112    1.172539
  C      1.582935    2.472128    1.773091
  S      0.871290   -0.837893    0.745053
  C      0.019741   -1.391225   -0.778092
  S     -1.685962   -1.841848   -0.445999
  P     -2.496036    0.110358   -0.078961
  S     -1.410063    1.628320   -0.660005
  O     -2.888021    0.094636    1.464269
  C     -1.938921    0.296001    2.527490
  C     -2.722230    0.576638    3.793900
  O     -3.910650    0.097263   -0.758006
  C     -4.921883   -0.916668   -0.500013
  C     -5.057486   -1.834736   -1.697700
  H      5.940541   -0.577537    0.216172
  H      6.534873   -0.544503   -1.455663
  H      5.357140    0.658370   -0.909013
  H      4.843478   -2.346454   -1.219536
  H      4.198573   -1.033851   -2.253935
  H      3.747924    2.579120    1.862767
  H      3.050186    2.828617    0.232215
  H      1.453086    1.822742    2.635630
  H      1.466215    3.507335    2.077247
  H      0.816295    2.240276    1.032976
  H      0.507265   -2.284680   -1.161319
  H      0.052616   -0.573034   -1.502205
  H     -1.326603   -0.605750    2.622839
  H     -1.290317    1.136216    2.260613
  H     -3.328500    1.468916    3.666371
  H     -3.372843   -0.262165    4.022658
  H     -2.028285    0.727795    4.613890
  H     -4.652430   -1.470485    0.400313
  H     -5.838628   -0.351299   -0.326275
  H     -5.257585   -1.251387   -2.592177
  H     -4.143908   -2.405336   -1.845140
  H     -5.881072   -2.520319   -1.525550

 Total Charge           Charge          ....    0
 Multiplicity           Mult            ....    1
 Number of Electrons    NEL             ....  202
 Basis Dimension        Dim             ....  334

ORBITAL ENERGIES
----------------

  NO   OCC          E(Eh)            E(eV)
   0   2.0000     -88.046010     -2395.8537
   1   2.0000     -88.038336     -2395.6449
   2   2.0000     -87.984801     -2394.1882
   3   2.0000     -87.982950     -2394.1378
   4   2.0000     -76.425057     -2079.6315
   5   2.0000     -76.423363     -2079.5854
   6   2.0000     -18.794057      -511.4123
   7   2.0000     -18.792729      -511.3761
   8   2.0000     -18.789806      -511.2966
   9   2.0000     -18.786543      -511.2078
  10   2.0000      -9.960846      -271.0484
  11   2.0000      -9.952541      -270.8224
  12   2.0000      -9.950597      -270.7695
  13   2.0000      -9.950550      -270.7682
  14   2.0000      -9.949088      -270.7284
  15   2.0000      -9.889141      -269.0972
  16   2.0000      -9.887672      -269.0572
  17   2.0000      -9.882592      -268.9190
  18   2.0000      -9.879071      -268.8232
  19   2.0000      -7.690981      -209.2822
  20   2.0000      -7.683512      -209.0790
  21   2.0000      -7.629639      -207.6130
  22   2.0000      -7.627792      -207.5628
  23   2.0000      -6.422687      -174.7702
  24   2.0000      -6.421042      -174.7254
  25   2.0000      -5.718857      -155.6180
  26   2.0000      -5.715363      -155.5229
  27   2.0000      -5.711407      -155.4153
  28   2.0000      -5.708348      -155.3320
  29   2.0000      -5.708135      -155.3262
  30   2.0000      -5.700121      -155.1082
  31   2.0000      -5.658432      -153.9738
  32   2.0000      -5.656895      -153.9319
  33   2.0000      -5.650314      -153.7529
  34   2.0000      -5.649912      -153.7419
  35   2.0000      -5.648124      -153.6933
  36   2.0000      -5.648033      -153.6908
  37   2.0000      -4.645438      -126.4088
  38   2.0000      -4.644409      -126.3808
  39   2.0000      -4.643556      -126.3576
  40   2.0000      -4.642989      -126.3422
  41   2.0000      -4.642702      -126.3343
  42   2.0000      -4.641614      -126.3047
  43   2.0000      -0.988607       -26.9014
  44   2.0000      -0.984963       -26.8022
  45   2.0000      -0.944530       -25.7020
  46   2.0000      -0.943984       -25.6871
  47   2.0000      -0.762288       -20.7429
  48   2.0000      -0.722704       -19.6658
  49   2.0000      -0.710967       -19.3464
  50   2.0000      -0.692522       -18.8445
  51   2.0000      -0.685282       -18.6475
  52   2.0000      -0.673560       -18.3285
  53   2.0000      -0.648723       -17.6526
  54   2.0000      -0.634126       -17.2555
  55   2.0000      -0.599014       -16.3000
  56   2.0000      -0.585921       -15.9437
  57   2.0000      -0.574235       -15.6257
  58   2.0000      -0.570670       -15.5287
  59   2.0000      -0.560871       -15.2621
  60   2.0000      -0.508428       -13.8350
  61   2.0000      -0.491344       -13.3702
  62   2.0000      -0.480589       -13.0775
  63   2.0000      -0.471540       -12.8312
  64   2.0000      -0.452709       -12.3188
  65   2.0000      -0.447909       -12.1882
  66   2.0000      -0.438337       -11.9278
  67   2.0000      -0.436961       -11.8903
  68   2.0000      -0.433804       -11.8044
  69   2.0000      -0.417384       -11.3576
  70   2.0000      -0.408277       -11.1098
  71   2.0000      -0.393601       -10.7104
  72   2.0000      -0.391274       -10.6471
  73   2.0000      -0.385020       -10.4769
  74   2.0000      -0.382220       -10.4007
  75   2.0000      -0.378946       -10.3116
  76   2.0000      -0.364930        -9.9303
  77   2.0000      -0.355706        -9.6792
  78   2.0000      -0.354019        -9.6334
  79   2.0000      -0.352280        -9.5860
  80   2.0000      -0.347510        -9.4562
  81   2.0000      -0.345766        -9.4088
  82   2.0000      -0.340819        -9.2741
  83   2.0000      -0.339823        -9.2471
  84   2.0000      -0.332113        -9.0373
  85   2.0000      -0.313892        -8.5414
  86   2.0000      -0.310624        -8.4525
  87   2.0000      -0.302277        -8.2254
  88   2.0000      -0.297367        -8.0918
  89   2.0000      -0.292206        -7.9513
  90   2.0000      -0.281037        -7.6474
  91   2.0000      -0.276157        -7.5146
  92   2.0000      -0.271162        -7.3787
  93   2.0000      -0.263663        -7.1746
  94   2.0000      -0.258371        -7.0306
  95   2.0000      -0.233449        -6.3525
  96   2.0000      -0.219706        -5.9785
  97   2.0000      -0.208894        -5.6843
  98   2.0000      -0.202006        -5.4969
  99   2.0000      -0.195859        -5.3296
 100   2.0000      -0.193073        -5.2538
 101   0.0000      -0.046312        -1.2602
 102   0.0000      -0.032312        -0.8792
 103   0.0000      -0.009987        -0.2718
 104   0.0000       0.009228         0.2511
 105   0.0000       0.014353         0.3906

MULLIKEN ATOMIC CHARGES
-----------------------
   0 C :   -0.306890
   1 C :   -0.003848
   2 O :   -0.370221
   3 P :    0.613816
   4 S :   -0.320793
   5 O :   -0.371625
   6 C :    0.005178
   7 C :   -0.361608
   8 S :   -0.100166
   9 C :   -0.339365
  10 S :   -0.127410
  11 P :    0.595680
  12 S :   -0.281812
  13 O :   -0.383159
  14 C :   -0.032796
  15 C :   -0.271561
  16 O :   -0.354872
  17 C :   -0.022100
  18 C :   -0.288495
  19 H :    0.117273
  20 H :    0.111295
  21 H :    0.122251
  22 H :    0.103653
  23 H :    0.109100
  24 H :    0.103042
  25 H :    0.111256
  26 H :    0.112185
  27 H :    0.112379
  28 H :    0.172286
  29 H :    0.180446
  30 H :    0.209766
  31 H :    0.108087
  32 H :    0.121447
  33 H :    0.118364
  34 H :    0.112533
  35 H :    0.110415
  36 H :    0.110241
  37 H :    0.115225
  38 H :    0.124358
  39 H :    0.125412
  40 H :    0.111033
Sum of atomic charges:   -0.0000000

LOEWDIN ATOMIC CHARGES
----------------------
   0 C :   -0.364476
   1 C :   -0.118769
   2 O :   -0.246751
   3 P :    0.571300
   4 S :   -0.308744
   5 O :   -0.241794
   6 C :   -0.117604
   7 C :   -0.377199
   8 S :    0.081050
   9 C :   -0.477161
  10 S :    0.063468
  11 P :    0.561563
  12 S :   -0.278441
  13 O :   -0.252744
  14 C :   -0.122659
  15 C :   -0.349786
  16 O :   -0.234990
  17 C :   -0.111661
  18 C :   -0.359191
  19 H :    0.126630
  20 H :    0.129890
  21 H :    0.122857
  22 H :    0.118071
  23 H :    0.109594
  24 H :    0.117530
  25 H :    0.111692
  26 H :    0.120458
  27 H :    0.131320
  28 H :    0.122914
  29 H :    0.133823
  30 H :    0.124110
  31 H :    0.102920
  32 H :    0.111847
  33 H :    0.128206
  34 H :    0.125040
  35 H :    0.130222
  36 H :    0.110046
  37 H :    0.123991
  38 H :    0.131554
  39 H :    0.121512
  40 H :    0.130361

  Mayer bond orders larger than 0.100000
B(  0-C ,  1-C ) :   1.1647 B(  0-C , 19-H ) :   0.9463 B(  0-C , 20-H ) :   0.9388
B(  0-C , 21-H ) :   0.9376 B(  1-C ,  2-O ) :   0.9114 B(  1-C , 22-H ) :   0.9349
B(  1-C , 23-H ) :   0.9153 B(  2-O ,  3-P ) :   1.1187 B(  3-P ,  4-S ) :   1.6066
B(  3-P ,  5-O ) :   1.1111 B(  3-P ,  8-S ) :   0.9646 B(  4-S ,  8-S ) :   0.1154
B(  5-O ,  6-C ) :   0.9058 B(  6-C ,  7-C ) :   1.1640 B(  6-C , 24-H ) :   0.9330
B(  6-C , 25-H ) :   0.9153 B(  7-C , 26-H ) :   0.9430 B(  7-C , 27-H ) :   0.9366
B(  7-C , 28-H ) :   0.9135 B(  8-S ,  9-C ) :   0.9760 B(  9-C , 10-S ) :   1.0271
B(  9-C , 29-H ) :   0.9051 B(  9-C , 30-H ) :   0.8549 B( 10-S , 11-P ) :   0.9115
B( 10-S , 12-S ) :   0.1146 B( 11-P , 12-S ) :   1.6754 B( 11-P , 13-O ) :   1.0812
B( 11-P , 16-O ) :   1.1540 B( 13-O , 14-C ) :   0.9047 B( 14-C , 15-C ) :   1.1575
B( 14-C , 31-H ) :   0.9207 B( 14-C , 32-H ) :   0.9122 B( 15-C , 33-H ) :   0.9503
B( 15-C , 34-H ) :   0.9508 B( 15-C , 35-H ) :   0.9422 B( 16-O , 17-C ) :   0.8866
B( 17-C , 18-C ) :   1.1638 B( 17-C , 36-H ) :   0.9196 B( 17-C , 37-H ) :   0.9347
B( 18-C , 38-H ) :   0.9459 B( 18-C , 39-H ) :   0.9392 B( 18-C , 40-H ) :   0.9392

Dispersion correction           -0.063788941
FINAL SINGLE POINT ENERGY     -2929.517567979094

DIPOLE MOMENT
-------------

Method             : SCF
Type of density    : Electron Density
Multiplicity       :   1
Irrep              :   0
Energy             : -2929.6375816681852484 Eh
Relativity type    :
Basis              : AO
                                X                 Y                 Z
Electronic contribution:     -0.880950923      -1.366912075      -9.500122526
Nuclear contribution   :      0.781234276       0.545305538      10.534570450
                        -----------------------------------------
Total Dipole Moment    :     -0.099716647      -0.821606537       1.034447924
                        -----------------------------------------
Magnitude (a.u.)       :      1.324787990
Magnitude (Debye)      :      3.367343463

Rotational constants in cm-1:             0.013427             0.004481             0.004046
Rotational constants in MHz :           402.520671           134.331972           121.294557

                             ****ORCA TERMINATED NORMALLY****
TOTAL RUN TIME: 0 days 0 hours 0 minutes 20 seconds 730 msec
