                         Program Version 6.0.1  -  RELEASE   -
|  1> ! pbe def2-sv(p) def2/J RI DEFGRID1 loosescf d4 GCP(DFT/SV(P)) printgap
|  2> %output
|  3>     printlevel normal
|  4> end
|  5> * xyz 0 1
|  6> C 5.3649669386 -1.9034650601 -1.4704748085
|  7> C 4.6156100994 -0.6204486474 -1.1479353643
|  8> O 3.1930506404 -0.8038281467 -1.2829743823
|  9> C 2.5229790038 -1.2823083099 -0.2527586391
| 10> O 3.0148007071 -1.5813711515 0.8108190756
| 11> C 1.043388586 -1.4207382736 -0.5709972348
| 12> C 0.4719369858 -0.0928225243 -1.0697721464
| 13> H 1.0115097325 0.2278603779 -1.9649609474
| 14> C 0.5713146383 0.9845259583 -0.0083956239
| 15> O -0.411756063 1.5427707604 0.4400058768
| 16> O 1.8007563534 1.2129265324 0.3568612297
| 17> C 2.0375486577 2.1909931532 1.3959844303
| 18> C 2.1119733311 3.5917341761 0.8129801317
| 19> S -1.2744165145 -0.2335863299 -1.5653007154
| 20> P -2.2617178089 -0.1295367737 0.2990131855
| 21> S -1.5285749795 -0.7427910052 2.0107118926
| 22> O -3.0654686192 1.2405588732 0.4652643057
| 23> C -3.6404645969 1.9164655587 -0.6659211964
| 24> O -3.4004895985 -1.1541605289 -0.2428228872
| 25> C -4.4573027287 -1.5792828609 0.6181423011
| 26> H 6.4327615998 -1.7160958424 -1.4273900146
| 27> H 5.1131540947 -2.6750154303 -0.7464153226
| 28> H 5.1016821543 -2.2513204578 -2.4654382376
| 29> H 4.8561957092 0.1695914973 -1.8591001016
| 30> H 4.8282208325 -0.2948303411 -0.1261116433
| 31> H 0.5264661093 -1.7551995656 0.3315899756
| 32> H 0.9216535814 -2.1699585757 -1.3546791719
| 33> H 1.2345928921 2.1109783996 2.1340421214
| 34> H 2.985663315 1.8844390458 1.8379157526
| 35> H 2.8725148334 3.6364303037 0.038700375
| 36> H 1.1510332553 3.8727792105 0.3884041313
| 37> H 2.3639248872 4.2903725845 1.6037897865
| 38> H -4.0487125108 1.197032742 -1.3772554324
| 39> H -2.8738670547 2.5223698398 -1.147559216
| 40> H -4.4263740465 2.548071443 -0.2588559263
| 41> H -4.0437231005 -2.0559238146 1.5088997822
| 42> H -5.0376334735 -2.2926232186 0.038668291
| 43> H -5.075101831 -0.731087584 0.9169535824
| 44> *
| 45>
| 46>                          ****END OF INPUT****

CARTESIAN COORDINATES (ANGSTROEM)
---------------------------------
  C      5.364967   -1.903465   -1.470475
  C      4.615610   -0.620449   -1.147935
  O      3.193051   -0.803828   -1.282974
  C      2.522979   -1.282308   -0.252759
  O      3.014801   -1.581371    0.810819
  C      1.043389   -1.420738   -0.570997
  C      0.471937   -0.092823   -1.069772
  H      1.011510    0.227860   -1.964961
  C      0.571315    0.984526   -0.008396
  O     -0.411756    1.542771    0.440006
  O      1.800756    1.212927    0.356861
  C      2.037549    2.190993    1.395984
  C      2.111973    3.591734    0.812980
  S     -1.274417   -0.233586   -1.565301
  P     -2.261718   -0.129537    0.299013
  S     -1.528575   -0.742791    2.010712
  O     -3.065469    1.240559    0.465264
  C     -3.640465    1.916466   -0.665921
  O     -3.400490   -1.154161   -0.242823
  C     -4.457303   -1.579283    0.618142
  H      6.432762   -1.716096   -1.427390
  H      5.113154   -2.675015   -0.746415
  H      5.101682   -2.251320   -2.465438
  H      4.856196    0.169591   -1.859100
  H      4.828221   -0.294830   -0.126112
  H      0.526466   -1.755200    0.331590
  H      0.921654   -2.169959   -1.354679
  H      1.234593    2.110978    2.134042
  H      2.985663    1.884439    1.837916
  H      2.872515    3.636430    0.038700
  H      1.151033    3.872779    0.388404
  H      2.363925    4.290373    1.603790
  H     -4.048713    1.197033   -1.377255
  H     -2.873867    2.522370   -1.147559
  H     -4.426374    2.548071   -0.258856
  H     -4.043723   -2.055924    1.508900
  H     -5.037633   -2.292623    0.038668
  H     -5.075102   -0.731088    0.916954

 Total Charge           Charge          ....    0
 Multiplicity           Mult            ....    1
 Number of Electrons    NEL             ....  174
 Basis Dimension        Dim             ....  316

ORBITAL ENERGIES
----------------

  NO   OCC          E(Eh)            E(eV)
   0   2.0000     -88.036709     -2395.6007
   1   2.0000     -87.969724     -2393.7779
   2   2.0000     -76.416091     -2079.3875
   3   2.0000     -18.825649      -512.2720
   4   2.0000     -18.803038      -511.6567
   5   2.0000     -18.779627      -511.0196
   6   2.0000     -18.771970      -510.8113
   7   2.0000     -18.758660      -510.4491
   8   2.0000     -18.737513      -509.8736
   9   2.0000     -10.029427      -272.9146
  10   2.0000     -10.009207      -272.3644
  11   2.0000      -9.958058      -270.9725
  12   2.0000      -9.953453      -270.8472
  13   2.0000      -9.951606      -270.7970
  14   2.0000      -9.942297      -270.5437
  15   2.0000      -9.930910      -270.2338
  16   2.0000      -9.906278      -269.5635
  17   2.0000      -9.895906      -269.2813
  18   2.0000      -9.889622      -269.1103
  19   2.0000      -7.681933      -209.0360
  20   2.0000      -7.614998      -207.2146
  21   2.0000      -6.412365      -174.4893
  22   2.0000      -5.710062      -155.3787
  23   2.0000      -5.706569      -155.2836
  24   2.0000      -5.698430      -155.0622
  25   2.0000      -5.644396      -153.5918
  26   2.0000      -5.635884      -153.3602
  27   2.0000      -5.634349      -153.3184
  28   2.0000      -4.635338      -126.1340
  29   2.0000      -4.634309      -126.1060
  30   2.0000      -4.632683      -126.0617
  31   2.0000      -1.034947       -28.1623
  32   2.0000      -1.010855       -27.5068
  33   2.0000      -0.969004       -26.3680
  34   2.0000      -0.938821       -25.5466
  35   2.0000      -0.924231       -25.1496
  36   2.0000      -0.914439       -24.8831
  37   2.0000      -0.769217       -20.9315
  38   2.0000      -0.715963       -19.4824
  39   2.0000      -0.711970       -19.3737
  40   2.0000      -0.686812       -18.6891
  41   2.0000      -0.656056       -17.8522
  42   2.0000      -0.631510       -17.1843
  43   2.0000      -0.621772       -16.9193
  44   2.0000      -0.608359       -16.5543
  45   2.0000      -0.595955       -16.2168
  46   2.0000      -0.569262       -15.4904
  47   2.0000      -0.514777       -14.0078
  48   2.0000      -0.506476       -13.7819
  49   2.0000      -0.500028       -13.6065
  50   2.0000      -0.485962       -13.2237
  51   2.0000      -0.464892       -12.6504
  52   2.0000      -0.463726       -12.6186
  53   2.0000      -0.451506       -12.2861
  54   2.0000      -0.439636       -11.9631
  55   2.0000      -0.430272       -11.7083
  56   2.0000      -0.422001       -11.4832
  57   2.0000      -0.418820       -11.3967
  58   2.0000      -0.417549       -11.3621
  59   2.0000      -0.404887       -11.0175
  60   2.0000      -0.402391       -10.9496
  61   2.0000      -0.394469       -10.7340
  62   2.0000      -0.391524       -10.6539
  63   2.0000      -0.387749       -10.5512
  64   2.0000      -0.372040       -10.1237
  65   2.0000      -0.369182       -10.0460
  66   2.0000      -0.361902        -9.8479
  67   2.0000      -0.354068        -9.6347
  68   2.0000      -0.350915        -9.5489
  69   2.0000      -0.341373        -9.2892
  70   2.0000      -0.339919        -9.2497
  71   2.0000      -0.328367        -8.9353
  72   2.0000      -0.326704        -8.8901
  73   2.0000      -0.314941        -8.5700
  74   2.0000      -0.310318        -8.4442
  75   2.0000      -0.303850        -8.2682
  76   2.0000      -0.296440        -8.0665
  77   2.0000      -0.281044        -7.6476
  78   2.0000      -0.272366        -7.4115
  79   2.0000      -0.260766        -7.0958
  80   2.0000      -0.259928        -7.0730
  81   2.0000      -0.256340        -6.9754
  82   2.0000      -0.240472        -6.5436
  83   2.0000      -0.226247        -6.1565
  84   2.0000      -0.210984        -5.7412
  85   2.0000      -0.191297        -5.2054
  86   2.0000      -0.181717        -4.9448
  87   0.0000      -0.045977        -1.2511
  88   0.0000      -0.039155        -1.0655
  89   0.0000      -0.019091        -0.5195
  90   0.0000       0.008061         0.2193
  91   0.0000       0.030906         0.8410

MULLIKEN ATOMIC CHARGES
-----------------------
   0 C :   -0.304877
   1 C :   -0.009871
   2 O :   -0.244722
   3 C :    0.106046
   4 O :   -0.191642
   5 C :   -0.042665
   6 C :   -0.331029
   7 H :    0.156454
   8 C :    0.223891
   9 O :   -0.189788
  10 O :   -0.217979
  11 C :   -0.008901
  12 C :   -0.310089
  13 S :   -0.063226
  14 P :    0.622770
  15 S :   -0.328058
  16 O :   -0.374454
  17 C :   -0.104053
  18 O :   -0.403043
  19 C :   -0.102161
  20 H :    0.113002
  21 H :    0.130259
  22 H :    0.113601
  23 H :    0.099278
  24 H :    0.106315
  25 H :    0.124000
  26 H :    0.121737
  27 H :    0.128574
  28 H :    0.115157
  29 H :    0.113989
  30 H :    0.129644
  31 H :    0.120755
  32 H :    0.113889
  33 H :    0.119413
  34 H :    0.126124
  35 H :    0.119381
  36 H :    0.118777
  37 H :    0.103502
Sum of atomic charges:   -0.0000000

LOEWDIN ATOMIC CHARGES
----------------------
   0 C :   -0.356138
   1 C :   -0.110172
   2 O :   -0.066009
   3 C :    0.022172
   4 O :   -0.158973
   5 C :   -0.248429
   6 C :   -0.268929
   7 H :    0.149861
   8 C :    0.025296
   9 O :   -0.151354
  10 O :   -0.027213
  11 C :   -0.103312
  12 C :   -0.355728
  13 S :    0.119706
  14 P :    0.588863
  15 S :   -0.320724
  16 O :   -0.249825
  17 C :   -0.213270
  18 O :   -0.283944
  19 C :   -0.219215
  20 H :    0.130728
  21 H :    0.132137
  22 H :    0.124723
  23 H :    0.116036
  24 H :    0.118971
  25 H :    0.137310
  26 H :    0.144494
  27 H :    0.130367
  28 H :    0.123880
  29 H :    0.124948
  30 H :    0.131301
  31 H :    0.134977
  32 H :    0.107040
  33 H :    0.113553
  34 H :    0.122632
  35 H :    0.110252
  36 H :    0.118374
  37 H :    0.105617

  Mayer bond orders larger than 0.100000
B(  0-C ,  1-C ) :   1.1751 B(  0-C , 20-H ) :   0.9441 B(  0-C , 21-H ) :   0.9454
B(  0-C , 22-H ) :   0.9487 B(  1-C ,  2-O ) :   0.9173 B(  1-C , 23-H ) :   0.9372
B(  1-C , 24-H ) :   0.9136 B(  2-O ,  3-C ) :   1.1904 B(  3-C ,  4-O ) :   2.0701
B(  3-C ,  5-C ) :   1.0174 B(  5-C ,  6-C ) :   1.0227 B(  5-C , 25-H ) :   0.8780
B(  5-C , 26-H ) :   0.8866 B(  6-C ,  7-H ) :   0.8651 B(  6-C ,  8-C ) :   0.8988
B(  6-C , 13-S ) :   1.0402 B(  8-C ,  9-O ) :   1.9451 B(  8-C , 10-O ) :   1.2725
B(  9-O , 14-P ) :   0.1225 B( 10-O , 11-C ) :   0.8908 B( 11-C , 12-C ) :   1.1730
B( 11-C , 27-H ) :   0.9149 B( 11-C , 28-H ) :   0.9345 B( 12-C , 29-H ) :   0.9478
B( 12-C , 30-H ) :   0.9452 B( 12-C , 31-H ) :   0.9437 B( 13-S , 14-P ) :   0.9362
B( 13-S , 15-S ) :   0.1078 B( 14-P , 15-S ) :   1.6046 B( 14-P , 16-O ) :   1.0859
B( 14-P , 18-O ) :   1.0320 B( 16-O , 17-C ) :   0.9308 B( 17-C , 32-H ) :   0.9397
B( 17-C , 33-H ) :   0.9497 B( 17-C , 34-H ) :   0.9577 B( 18-O , 19-C ) :   0.9445
B( 19-C , 35-H ) :   0.9376 B( 19-C , 36-H ) :   0.9593 B( 19-C , 37-H ) :   0.9481

Dispersion correction           -0.051658937
FINAL SINGLE POINT ENERGY     -1979.009043753622

DIPOLE MOMENT
-------------

Method             : SCF
Type of density    : Electron Density
Multiplicity       :   1
Irrep              :   0
Energy             : -1979.1401886104536061 Eh
Relativity type    :
Basis              : AO
                                X                 Y                 Z
Electronic contribution:    -14.485001683      -5.102300749       2.616112574
Nuclear contribution   :     15.153666906       6.265652900      -3.957850615
                        -----------------------------------------
Total Dipole Moment    :      0.668665223       1.163352151      -1.341738040
                        -----------------------------------------
Magnitude (a.u.)       :      1.897567490
Magnitude (Debye)      :      4.823233250

Rotational constants in cm-1:             0.016355             0.005942             0.005279
Rotational constants in MHz :           490.319629           178.146656           158.262446

                             ****ORCA TERMINATED NORMALLY****
TOTAL RUN TIME: 0 days 0 hours 0 minutes 32 seconds 887 msec
