                         Program Version 6.0.1  -  RELEASE   -
|  1> ! pbe def2-sv(p) def2/J RI DEFGRID1 loosescf d4 GCP(DFT/SV(P)) printgap
|  2> %output
|  3>     printlevel normal
|  4> end
|  5> * xyz 0 1
|  6> C 4.8007560327 -3.4296292868 0.2699202417
|  7> C 4.5070833503 -1.9956327049 -0.1278053965
|  8> O 3.1959108096 -1.9522530438 -0.729082171
|  9> C 2.4706012011 -0.8679167244 -0.6014217753
| 10> O 2.8352837311 0.1469605833 -0.0375120504
| 11> C 1.0994805153 -1.0316407737 -1.2124957363
| 12> C 0.4431833501 0.3294620399 -1.4094547969
| 13> H 0.780025288 0.8192550836 -2.3242066345
| 14> C 0.6773815974 1.2569789476 -0.2318139372
| 15> O 0.2477798546 1.008514368 0.8792592297
| 16> O 1.2501243951 2.3759983258 -0.5906592009
| 17> C 1.4988539467 3.3701566403 0.4257503961
| 18> C 0.2369744137 4.1522656383 0.7532956747
| 19> S -1.3661920617 0.1942879839 -1.5492810707
| 20> P -1.9900857886 -0.2761189724 0.4434800758
| 21> S -1.095644048 -1.6750962497 1.4877912978
| 22> O -2.328926145 1.0693505353 1.2095157257
| 23> C -3.2744197639 2.0239256151 0.6877678993
| 24> O -3.4897297087 -0.7197543769 0.0694498802
| 25> C -3.7684719716 -1.9770307013 -0.552471138
| 26> H 4.7455385022 -4.0737735507 -0.6021650537
| 27> H 5.7964917169 -3.4856558852 0.6969142855
| 28> H 4.0769304138 -3.7712767069 1.0044756479
| 29> H 5.2208059415 -1.6343362175 -0.8734974404
| 30> H 4.5179598654 -1.3193831832 0.732212188
| 31> H 0.5246367258 -1.6312267632 -0.4951101733
| 32> H 1.1583523147 -1.5875471094 -2.1467365258
| 33> H 1.8875614048 2.8608288646 1.3118040641
| 34> H 2.2664291231 4.0069551146 -0.0131490157
| 35> H -0.501208539 3.4931923216 1.205398782
| 36> H 0.4800271001 4.941412621 1.4569566927
| 37> H -0.1774358162 4.5903828425 -0.1506315368
| 38> H -3.2020648976 2.8849559694 1.3477478426
| 39> H -4.2765994909 1.6005653596 0.7119664665
| 40> H -3.01064128 2.2956497272 -0.3349903951
| 41> H -3.2031206544 -2.770478484 -0.0605792802
| 42> H -3.5084933924 -1.9315095624 -1.6094177636
| 43> H -4.8360665911 -2.137056774 -0.4257157395
| 44> *
| 45>
| 46>                          ****END OF INPUT****

CARTESIAN COORDINATES (ANGSTROEM)
---------------------------------
  C      4.800756   -3.429629    0.269920
  C      4.507083   -1.995633   -0.127805
  O      3.195911   -1.952253   -0.729082
  C      2.470601   -0.867917   -0.601422
  O      2.835284    0.146961   -0.037512
  C      1.099481   -1.031641   -1.212496
  C      0.443183    0.329462   -1.409455
  H      0.780025    0.819255   -2.324207
  C      0.677382    1.256979   -0.231814
  O      0.247780    1.008514    0.879259
  O      1.250124    2.375998   -0.590659
  C      1.498854    3.370157    0.425750
  C      0.236974    4.152266    0.753296
  S     -1.366192    0.194288   -1.549281
  P     -1.990086   -0.276119    0.443480
  S     -1.095644   -1.675096    1.487791
  O     -2.328926    1.069351    1.209516
  C     -3.274420    2.023926    0.687768
  O     -3.489730   -0.719754    0.069450
  C     -3.768472   -1.977031   -0.552471
  H      4.745539   -4.073774   -0.602165
  H      5.796492   -3.485656    0.696914
  H      4.076930   -3.771277    1.004476
  H      5.220806   -1.634336   -0.873497
  H      4.517960   -1.319383    0.732212
  H      0.524637   -1.631227   -0.495110
  H      1.158352   -1.587547   -2.146737
  H      1.887561    2.860829    1.311804
  H      2.266429    4.006955   -0.013149
  H     -0.501209    3.493192    1.205399
  H      0.480027    4.941413    1.456957
  H     -0.177436    4.590383   -0.150632
  H     -3.202065    2.884956    1.347748
  H     -4.276599    1.600565    0.711966
  H     -3.010641    2.295650   -0.334990
  H     -3.203121   -2.770478   -0.060579
  H     -3.508493   -1.931510   -1.609418
  H     -4.836067   -2.137057   -0.425716

 Total Charge           Charge          ....    0
 Multiplicity           Mult            ....    1
 Number of Electrons    NEL             ....  174
 Basis Dimension        Dim             ....  316

ORBITAL ENERGIES
----------------

  NO   OCC          E(Eh)            E(eV)
   0   2.0000     -88.038894     -2395.6601
   1   2.0000     -87.970522     -2393.7996
   2   2.0000     -76.420201     -2079.4994
   3   2.0000     -18.806621      -511.7542
   4   2.0000     -18.801120      -511.6045
   5   2.0000     -18.782846      -511.1072
   6   2.0000     -18.781746      -511.0773
   7   2.0000     -18.746321      -510.1133
   8   2.0000     -18.730695      -509.6881
   9   2.0000     -10.014459      -272.5073
  10   2.0000     -10.012185      -272.4454
  11   2.0000      -9.951121      -270.7838
  12   2.0000      -9.944687      -270.6087
  13   2.0000      -9.944679      -270.6085
  14   2.0000      -9.942317      -270.5442
  15   2.0000      -9.935882      -270.3691
  16   2.0000      -9.905124      -269.5321
  17   2.0000      -9.890567      -269.1360
  18   2.0000      -9.883546      -268.9450
  19   2.0000      -7.683416      -209.0764
  20   2.0000      -7.615725      -207.2344
  21   2.0000      -6.415934      -174.5864
  22   2.0000      -5.711279      -155.4118
  23   2.0000      -5.707734      -155.3153
  24   2.0000      -5.700676      -155.1233
  25   2.0000      -5.645064      -153.6100
  26   2.0000      -5.636501      -153.3770
  27   2.0000      -5.635240      -153.3427
  28   2.0000      -4.639031      -126.2345
  29   2.0000      -4.637945      -126.2049
  30   2.0000      -4.636070      -126.1539
  31   2.0000      -1.016920       -27.6718
  32   2.0000      -1.009634       -27.4735
  33   2.0000      -0.977558       -26.6007
  34   2.0000      -0.931598       -25.3501
  35   2.0000      -0.922466       -25.1016
  36   2.0000      -0.912737       -24.8368
  37   2.0000      -0.761532       -20.7223
  38   2.0000      -0.716562       -19.4986
  39   2.0000      -0.701271       -19.0826
  40   2.0000      -0.686898       -18.6915
  41   2.0000      -0.658733       -17.9250
  42   2.0000      -0.629176       -17.1207
  43   2.0000      -0.618923       -16.8418
  44   2.0000      -0.609219       -16.5777
  45   2.0000      -0.593164       -16.1408
  46   2.0000      -0.557601       -15.1731
  47   2.0000      -0.512268       -13.9395
  48   2.0000      -0.509515       -13.8646
  49   2.0000      -0.492274       -13.3954
  50   2.0000      -0.478360       -13.0168
  51   2.0000      -0.466727       -12.7003
  52   2.0000      -0.458594       -12.4790
  53   2.0000      -0.437644       -11.9089
  54   2.0000      -0.436235       -11.8706
  55   2.0000      -0.430104       -11.7037
  56   2.0000      -0.425858       -11.5882
  57   2.0000      -0.422644       -11.5007
  58   2.0000      -0.414558       -11.2807
  59   2.0000      -0.406340       -11.0571
  60   2.0000      -0.401955       -10.9378
  61   2.0000      -0.396414       -10.7870
  62   2.0000      -0.386873       -10.5274
  63   2.0000      -0.380237       -10.3468
  64   2.0000      -0.371353       -10.1050
  65   2.0000      -0.364527        -9.9193
  66   2.0000      -0.359234        -9.7753
  67   2.0000      -0.350462        -9.5366
  68   2.0000      -0.348241        -9.4761
  69   2.0000      -0.334511        -9.1025
  70   2.0000      -0.332653        -9.0520
  71   2.0000      -0.327901        -8.9226
  72   2.0000      -0.320275        -8.7151
  73   2.0000      -0.307896        -8.3783
  74   2.0000      -0.300092        -8.1659
  75   2.0000      -0.296186        -8.0596
  76   2.0000      -0.290701        -7.9104
  77   2.0000      -0.285603        -7.7717
  78   2.0000      -0.269093        -7.3224
  79   2.0000      -0.263650        -7.1743
  80   2.0000      -0.253444        -6.8966
  81   2.0000      -0.246905        -6.7186
  82   2.0000      -0.234507        -6.3813
  83   2.0000      -0.230513        -6.2726
  84   2.0000      -0.221773        -6.0347
  85   2.0000      -0.189549        -5.1579
  86   2.0000      -0.178233        -4.8500
  87   0.0000      -0.047060        -1.2806
  88   0.0000      -0.025607        -0.6968
  89   0.0000      -0.013250        -0.3605
  90   0.0000       0.017385         0.4731
  91   0.0000       0.029692         0.8080

MULLIKEN ATOMIC CHARGES
-----------------------
   0 C :   -0.281444
   1 C :   -0.031355
   2 O :   -0.226493
   3 C :    0.132549
   4 O :   -0.208299
   5 C :   -0.070745
   6 C :   -0.283688
   7 H :    0.126594
   8 C :    0.196069
   9 O :   -0.198614
  10 O :   -0.216697
  11 C :    0.000565
  12 C :   -0.329053
  13 S :   -0.102215
  14 P :    0.620238
  15 S :   -0.299508
  16 O :   -0.360022
  17 C :   -0.105905
  18 O :   -0.400481
  19 C :   -0.098892
  20 H :    0.115800
  21 H :    0.113156
  22 H :    0.123023
  23 H :    0.105893
  24 H :    0.120646
  25 H :    0.142679
  26 H :    0.115496
  27 H :    0.117131
  28 H :    0.101563
  29 H :    0.146602
  30 H :    0.111543
  31 H :    0.109117
  32 H :    0.130304
  33 H :    0.126971
  34 H :    0.111608
  35 H :    0.115064
  36 H :    0.110783
  37 H :    0.120017
Sum of atomic charges:   -0.0000000

LOEWDIN ATOMIC CHARGES
----------------------
   0 C :   -0.350481
   1 C :   -0.106949
   2 O :   -0.054047
   3 C :    0.045159
   4 O :   -0.154868
   5 C :   -0.265342
   6 C :   -0.258348
   7 H :    0.139290
   8 C :    0.007554
   9 O :   -0.165568
  10 O :   -0.042733
  11 C :   -0.102834
  12 C :   -0.361957
  13 S :    0.096885
  14 P :    0.588198
  15 S :   -0.300538
  16 O :   -0.234474
  17 C :   -0.211700
  18 O :   -0.267250
  19 C :   -0.220233
  20 H :    0.126846
  21 H :    0.131179
  22 H :    0.130456
  23 H :    0.117184
  24 H :    0.122468
  25 H :    0.142075
  26 H :    0.141148
  27 H :    0.126004
  28 H :    0.118080
  29 H :    0.133333
  30 H :    0.130401
  31 H :    0.122574
  32 H :    0.122028
  33 H :    0.116165
  34 H :    0.106031
  35 H :    0.108127
  36 H :    0.106323
  37 H :    0.119816

  Mayer bond orders larger than 0.100000
B(  0-C ,  1-C ) :   1.1612 B(  0-C , 20-H ) :   0.9484 B(  0-C , 21-H ) :   0.9437
B(  0-C , 22-H ) :   0.9512 B(  1-C ,  2-O ) :   0.9000 B(  1-C , 23-H ) :   0.9364
B(  1-C , 24-H ) :   0.9178 B(  2-O ,  3-C ) :   1.2514 B(  3-C ,  4-O ) :   1.9755
B(  3-C ,  5-C ) :   1.0181 B(  4-O ,  8-C ) :   0.1213 B(  5-C ,  6-C ) :   1.0093
B(  5-C , 25-H ) :   0.8268 B(  5-C , 26-H ) :   0.9026 B(  6-C ,  7-H ) :   0.8829
B(  6-C ,  8-C ) :   0.8991 B(  6-C , 13-S ) :   1.0128 B(  8-C ,  9-O ) :   1.9383
B(  8-C , 10-O ) :   1.2629 B(  9-O , 14-P ) :   0.1122 B( 10-O , 11-C ) :   0.9119
B( 11-C , 12-C ) :   1.1707 B( 11-C , 27-H ) :   0.9180 B( 11-C , 28-H ) :   0.9395
B( 12-C , 29-H ) :   0.9344 B( 12-C , 30-H ) :   0.9423 B( 12-C , 31-H ) :   0.9473
B( 13-S , 14-P ) :   0.9388 B( 13-S , 15-S ) :   0.1149 B( 14-P , 15-S ) :   1.6144
B( 14-P , 16-O ) :   1.1075 B( 14-P , 18-O ) :   1.0343 B( 15-S , 25-H ) :   0.1159
B( 16-O , 17-C ) :   0.9221 B( 17-C , 32-H ) :   0.9533 B( 17-C , 33-H ) :   0.9479
B( 17-C , 34-H ) :   0.9374 B( 18-O , 19-C ) :   0.9378 B( 19-C , 35-H ) :   0.9286
B( 19-C , 36-H ) :   0.9487 B( 19-C , 37-H ) :   0.9588

Dispersion correction           -0.051735111
FINAL SINGLE POINT ENERGY     -1979.009139893812

DIPOLE MOMENT
-------------

Method             : SCF
Type of density    : Electron Density
Multiplicity       :   1
Irrep              :   0
Energy             : -1979.1411037542125086 Eh
Relativity type    :
Basis              : AO
                                X                 Y                 Z
Electronic contribution:     -9.660393506      -2.801852331      -0.244950729
Nuclear contribution   :     10.073552342       3.274282014      -0.916169988
                        -----------------------------------------
Total Dipole Moment    :      0.413158836       0.472429683      -1.161120717
                        -----------------------------------------
Magnitude (a.u.)       :      1.319883081
Magnitude (Debye)      :      3.354876175

Rotational constants in cm-1:             0.012702             0.007148             0.005403
Rotational constants in MHz :           380.792424           214.288732           161.975508

                             ****ORCA TERMINATED NORMALLY****
TOTAL RUN TIME: 0 days 0 hours 0 minutes 43 seconds 193 msec
