                         Program Version 6.0.0  -   RELEASE  -
|  1> ! wb97x-v def2-tzvp def2/J RIJCOSX DEFGRID2 scfconv7 GCP(DFT/TZ) printgap
|  2> %output
|  3>     printlevel normal
|  4> end
|  5> * xyz 0 1
|  6> C -1.4465618762938641 0.05258702673729728 -0.0028515264933665933
|  7> C 0.037935445759803996 -0.08574122369220315 -0.004932518324300435
|  8> O 0.6543130304728296 -1.1372377973460628 -0.0021885792195035707
|  9> O 0.6628922694380697 1.1165634367533 0.001112887513686931
| 10> H -1.760818090396156 0.48952042669245727 0.9507897132029922
| 11> H -1.7631194103500973 0.735732099023297 -0.7953250655457589
| 12> H -1.9136120855758791 -0.9226450590511083 -0.1308691606468659
| 13> H 1.623188579777114 0.9613279612576224 0.01414469754833609
| 14> *
| 15>
| 16>                          ****END OF INPUT****

CARTESIAN COORDINATES (ANGSTROEM)
---------------------------------
  C     -1.446562    0.052587   -0.002852
  C      0.037935   -0.085741   -0.004933
  O      0.654313   -1.137238   -0.002189
  O      0.662892    1.116563    0.001113
  H     -1.760818    0.489520    0.950790
  H     -1.763119    0.735732   -0.795325
  H     -1.913612   -0.922645   -0.130869
  H      1.623189    0.961328    0.014145

 Total Charge           Charge          ....    0
 Multiplicity           Mult            ....    1
 Number of Electrons    NEL             ....   32
 Basis Dimension        Dim             ....  148

ORBITAL ENERGIES
----------------

  NO   OCC          E(Eh)            E(eV)
   0   2.0000     -21.725945      -591.1930
   1   2.0000     -21.663737      -589.5002
   2   2.0000     -12.189866      -331.7031
   3   2.0000     -12.064580      -328.2939
   4   2.0000      -1.766998       -48.0825
   5   2.0000      -1.699197       -46.2375
   6   2.0000      -1.290936       -35.1282
   7   2.0000      -1.175318       -31.9820
   8   2.0000      -1.091822       -29.7100
   9   2.0000      -1.030652       -28.0455
  10   2.0000      -0.982997       -26.7487
  11   2.0000      -0.954786       -25.9810
  12   2.0000      -0.902645       -24.5622
  13   2.0000      -0.863250       -23.4902
  14   2.0000      -0.846822       -23.0432
  15   2.0000      -0.844014       -22.9668
  16   0.0000      -0.310067        -8.4374
  17   0.0000      -0.128780        -3.5043
  18   0.0000      -0.063796        -1.7360
  19   0.0000      -0.018605        -0.5063
  20   0.0000       0.011469         0.3121

MULLIKEN ATOMIC CHARGES
-----------------------
   0 C :   -0.322071
   1 C :    0.298018
   2 O :   -0.339643
   3 O :   -0.377782
   4 H :    0.135423
   5 H :    0.135760
   6 H :    0.140342
   7 H :    0.329954
Sum of atomic charges:    0.0000000

LOEWDIN ATOMIC CHARGES
----------------------
   0 C :   -0.255165
   1 C :   -0.512038
   2 O :    0.073684
   3 O :    0.084532
   4 H :    0.140532
   5 H :    0.137044
   6 H :    0.135086
   7 H :    0.196325

  Mayer bond orders larger than 0.100000
B(  0-C ,  1-C ) :   0.9864 B(  0-C ,  4-H ) :   0.9487 B(  0-C ,  5-H ) :   0.9541
B(  0-C ,  6-H ) :   0.9789 B(  1-C ,  2-O ) :   2.0971 B(  1-C ,  3-O ) :   1.1968
B(  3-O ,  7-H ) :   0.8642

FINAL SINGLE POINT ENERGY      -229.105314582863

DIPOLE MOMENT
-------------

Method             : SCF
Type of density    : Electron Density
Multiplicity       :   1
Irrep              :   0
Energy             :  -229.1102440454625935 Eh
Relativity type    :
Basis              : AO
                                X                 Y                 Z
Electronic contribution:      3.243136591      -0.501531500      -0.025942710
Nuclear contribution   :     -3.578592895       1.151158699       0.040842240
                        -----------------------------------------
Total Dipole Moment    :     -0.335456304       0.649627199       0.014899531
                        -----------------------------------------
Magnitude (a.u.)       :      0.731278624
Magnitude (Debye)      :      1.858762543

Rotational constants in cm-1:             0.375491             0.316846             0.177512
Rotational constants in MHz :         11256.946194          9498.816605          5321.670900

                             ****ORCA TERMINATED NORMALLY****
TOTAL RUN TIME: 0 days 0 hours 0 minutes 44 seconds 881 msec
