                         Program Version 6.0.0  -   RELEASE  -
|  1> ! wb97x-v def2-tzvp def2/J RIJCOSX DEFGRID2 scfconv7 GCP(DFT/TZ) printgap
|  2> %output
|  3>     printlevel normal
|  4> end
|  5> %cpcm
|  6>     smd true
|  7>     smdsolvent "water"
|  8> end
|  9> * xyz 0 1
| 10> C -1.4465618762938641 0.05258702673729728 -0.0028515264933665933
| 11> C 0.037935445759803996 -0.08574122369220315 -0.004932518324300435
| 12> O 0.6543130304728296 -1.1372377973460628 -0.0021885792195035707
| 13> O 0.6628922694380697 1.1165634367533 0.001112887513686931
| 14> H -1.760818090396156 0.48952042669245727 0.9507897132029922
| 15> H -1.7631194103500973 0.735732099023297 -0.7953250655457589
| 16> H -1.9136120855758791 -0.9226450590511083 -0.1308691606468659
| 17> H 1.623188579777114 0.9613279612576224 0.01414469754833609
| 18> *
| 19>
| 20>                          ****END OF INPUT****

CARTESIAN COORDINATES (ANGSTROEM)
---------------------------------
  C     -1.446562    0.052587   -0.002852
  C      0.037935   -0.085741   -0.004933
  O      0.654313   -1.137238   -0.002189
  O      0.662892    1.116563    0.001113
  H     -1.760818    0.489520    0.950790
  H     -1.763119    0.735732   -0.795325
  H     -1.913612   -0.922645   -0.130869
  H      1.623189    0.961328    0.014145

 Total Charge           Charge          ....    0
 Multiplicity           Mult            ....    1
 Number of Electrons    NEL             ....   32
 Basis Dimension        Dim             ....  148

ORBITAL ENERGIES
----------------

  NO   OCC          E(Eh)            E(eV)
   0   2.0000     -21.721005      -591.0586
   1   2.0000     -21.671262      -589.7050
   2   2.0000     -12.193547      -331.8033
   3   2.0000     -12.048591      -327.8588
   4   2.0000      -1.766255       -48.0622
   5   2.0000      -1.704081       -46.3704
   6   2.0000      -1.281913       -34.8826
   7   2.0000      -1.167208       -31.7614
   8   2.0000      -1.101835       -29.9825
   9   2.0000      -1.029804       -28.0224
  10   2.0000      -0.980709       -26.6865
  11   2.0000      -0.954243       -25.9663
  12   2.0000      -0.910241       -24.7689
  13   2.0000      -0.862372       -23.4663
  14   2.0000      -0.834816       -22.7165
  15   2.0000      -0.830001       -22.5855
  16   0.0000      -0.307783        -8.3752
  17   0.0000      -0.123199        -3.3524
  18   0.0000      -0.035111        -0.9554
  19   0.0000      -0.007977        -0.2171
  20   0.0000       0.027869         0.7583

MULLIKEN ATOMIC CHARGES
-----------------------
   0 C :   -0.363740
   1 C :    0.381238
   2 O :   -0.461301
   3 O :   -0.417373
   4 H :    0.167232
   5 H :    0.163389
   6 H :    0.149634
   7 H :    0.380922
Sum of atomic charges:    0.0000000

LOEWDIN ATOMIC CHARGES
----------------------
   0 C :   -0.251221
   1 C :   -0.492025
   2 O :    0.006571
   3 O :    0.083011
   4 H :    0.150763
   5 H :    0.146218
   6 H :    0.138046
   7 H :    0.218637

  Mayer bond orders larger than 0.100000
B(  0-C ,  1-C ) :   0.9989 B(  0-C ,  4-H ) :   0.9385 B(  0-C ,  5-H ) :   0.9460
B(  0-C ,  6-H ) :   0.9720 B(  1-C ,  2-O ) :   1.9701 B(  1-C ,  3-O ) :   1.2179
B(  3-O ,  7-H ) :   0.8297

FINAL SINGLE POINT ENERGY      -229.115774276120

DIPOLE MOMENT
-------------

Method             : SCF
Type of density    : Electron Density
Multiplicity       :   1
Irrep              :   0
Energy             :  -229.1207037387195271 Eh
Relativity type    :
Basis              : AO
                                X                 Y                 Z
Electronic contribution:      3.138775794      -0.238171659      -0.018154883
Nuclear contribution   :     -3.578592895       1.151158699       0.040842240
                        -----------------------------------------
Total Dipole Moment    :     -0.439817100       0.912987039       0.022687358
                        -----------------------------------------
Magnitude (a.u.)       :      1.013656318
Magnitude (Debye)      :      2.576509603

Rotational constants in cm-1:             0.375491             0.316846             0.177512
Rotational constants in MHz :         11256.946194          9498.816605          5321.670900

                             ****ORCA TERMINATED NORMALLY****
TOTAL RUN TIME: 0 days 0 hours 0 minutes 53 seconds 167 msec
