                         Program Version 6.0.0  -   RELEASE  -
|  1> ! r2scan-3c def2/J RI DEFGRID2 scfconv6 printgap
|  2> %output
|  3>     printlevel normal
|  4> end
|  5> * xyz 0 1
|  6> C 4.5394497137 -1.724170373 -0.8225479445
|  7> C 4.6553580814 -0.3043632231 -0.306422074
|  8> O 3.5110042577 0.0891658091 0.4697483442
|  9> P 2.0705217434 0.3049832281 -0.1708426474
| 10> S 2.0921864004 1.1073006449 -1.9629413787
| 11> O 1.340527643 1.0976131331 0.9911316767
| 12> C 1.3747405798 2.533127201 1.0914982012
| 13> C 2.7640753119 3.0529021196 1.39190218
| 14> S 1.1794248701 -1.5848955269 0.0501580654
| 15> C -0.0482718396 -1.5583729659 -1.3053002989
| 16> S -1.7364252012 -1.8046936289 -0.7193263794
| 17> P -2.0127272901 0.0918009286 0.1982739333
| 18> S -1.3440861055 1.6146194563 -0.8389483104
| 19> O -1.3625989259 0.0239223931 1.630124246
| 20> C -1.3779798469 -1.1050829556 2.5419878065
| 21> C -2.7664505932 -1.6509548415 2.7905091485
| 22> O -3.5641591809 0.1697296838 0.5240622798
| 23> C -4.5518913758 0.5381026041 -0.4540776459
| 24> C -5.0605671065 -0.6694396956 -1.2166071406
| 25> H 4.3108251824 -2.405845503 -0.0072317021
| 26> H 3.7462713524 -1.7851708314 -1.566447334
| 27> H 5.4774188581 -2.0141959808 -1.2849840127
| 28> H 4.7647209541 0.397694779 -1.1393715672
| 29> H 5.4903642156 -0.1939644983 0.3867118818
| 30> H 0.9911992327 2.9538491874 0.1554188104
| 31> H 0.671264357 2.7514586677 1.8968722473
| 32> H 3.4201505159 2.8710313404 0.5415037831
| 33> H 2.7128556314 4.1216409702 1.5752043917
| 34> H 3.1705275203 2.5512491392 2.2662890813
| 35> H 0.165458276 -2.3920882065 -1.9687804226
| 36> H 0.0308344891 -0.6027082336 -1.83100735
| 37> H -0.7188305628 -1.8779445946 2.1357519904
| 38> H -0.9365553991 -0.6903807223 3.4494655816
| 39> H -2.7096836194 -2.4116787917 3.5631081438
| 40> H -3.4327870616 -0.8560536035 3.114975548
| 41> H -3.165315947 -2.0982573532 1.8823931544
| 42> H -5.348410451 1.0009511816 0.1311856486
| 43> H -4.1175163236 1.2821560431 -1.1304285077
| 44> H -4.2664214817 -1.1061639713 -1.8174996785
| 45> H -5.428927752 -1.4204495812 -0.5236204968
| 46> H -5.8687857667 -0.3587876018 -1.8709352719
| 47> *
| 48>
| 49>                          ****END OF INPUT****

CARTESIAN COORDINATES (ANGSTROEM)
---------------------------------
  C      4.539450   -1.724170   -0.822548
  C      4.655358   -0.304363   -0.306422
  O      3.511004    0.089166    0.469748
  P      2.070522    0.304983   -0.170843
  S      2.092186    1.107301   -1.962941
  O      1.340528    1.097613    0.991132
  C      1.374741    2.533127    1.091498
  C      2.764075    3.052902    1.391902
  S      1.179425   -1.584896    0.050158
  C     -0.048272   -1.558373   -1.305300
  S     -1.736425   -1.804694   -0.719326
  P     -2.012727    0.091801    0.198274
  S     -1.344086    1.614619   -0.838948
  O     -1.362599    0.023922    1.630124
  C     -1.377980   -1.105083    2.541988
  C     -2.766451   -1.650955    2.790509
  O     -3.564159    0.169730    0.524062
  C     -4.551891    0.538103   -0.454078
  C     -5.060567   -0.669440   -1.216607
  H      4.310825   -2.405846   -0.007232
  H      3.746271   -1.785171   -1.566447
  H      5.477419   -2.014196   -1.284984
  H      4.764721    0.397695   -1.139372
  H      5.490364   -0.193964    0.386712
  H      0.991199    2.953849    0.155419
  H      0.671264    2.751459    1.896872
  H      3.420151    2.871031    0.541504
  H      2.712856    4.121641    1.575204
  H      3.170528    2.551249    2.266289
  H      0.165458   -2.392088   -1.968780
  H      0.030834   -0.602708   -1.831007
  H     -0.718831   -1.877945    2.135752
  H     -0.936555   -0.690381    3.449466
  H     -2.709684   -2.411679    3.563108
  H     -3.432787   -0.856054    3.114976
  H     -3.165316   -2.098257    1.882393
  H     -5.348410    1.000951    0.131186
  H     -4.117516    1.282156   -1.130429
  H     -4.266421   -1.106164   -1.817500
  H     -5.428928   -1.420450   -0.523620
  H     -5.868786   -0.358788   -1.870935

 Total Charge           Charge          ....    0
 Multiplicity           Mult            ....    1
 Number of Electrons    NEL             ....  202
 Basis Dimension        Dim             ....  539

ORBITAL ENERGIES
----------------

  NO   OCC          E(Eh)            E(eV)
   0   2.0000     -88.578181     -2410.3348
   1   2.0000     -88.572969     -2410.1930
   2   2.0000     -88.514838     -2408.6112
   3   2.0000     -88.510721     -2408.4992
   4   2.0000     -76.911600     -2092.8710
   5   2.0000     -76.908188     -2092.7782
   6   2.0000     -18.991623      -516.7883
   7   2.0000     -18.987844      -516.6855
   8   2.0000     -18.986552      -516.6503
   9   2.0000     -18.978043      -516.4188
  10   2.0000     -10.106937      -275.0237
  11   2.0000     -10.098939      -274.8061
  12   2.0000     -10.097174      -274.7581
  13   2.0000     -10.094303      -274.6799
  14   2.0000     -10.083821      -274.3947
  15   2.0000     -10.031226      -272.9635
  16   2.0000     -10.030028      -272.9309
  17   2.0000     -10.025548      -272.8090
  18   2.0000     -10.019916      -272.6558
  19   2.0000      -7.872731      -214.2279
  20   2.0000      -7.867776      -214.0931
  21   2.0000      -7.809489      -212.5070
  22   2.0000      -7.805641      -212.4023
  23   2.0000      -6.589880      -179.3198
  24   2.0000      -6.586621      -179.2311
  25   2.0000      -5.819577      -158.3587
  26   2.0000      -5.816337      -158.2706
  27   2.0000      -5.814587      -158.2230
  28   2.0000      -5.811654      -158.1431
  29   2.0000      -5.810076      -158.1002
  30   2.0000      -5.804832      -157.9575
  31   2.0000      -5.757126      -156.6594
  32   2.0000      -5.753413      -156.5583
  33   2.0000      -5.750005      -156.4656
  34   2.0000      -5.749290      -156.4461
  35   2.0000      -5.745814      -156.3515
  36   2.0000      -5.745597      -156.3457
  37   2.0000      -4.735604      -128.8623
  38   2.0000      -4.735035      -128.8469
  39   2.0000      -4.733200      -128.7969
  40   2.0000      -4.731911      -128.7619
  41   2.0000      -4.731437      -128.7490
  42   2.0000      -4.730662      -128.7279
  43   2.0000      -1.048220       -28.5235
  44   2.0000      -1.042199       -28.3597
  45   2.0000      -1.008552       -27.4441
  46   2.0000      -1.001825       -27.2610
  47   2.0000      -0.799977       -21.7685
  48   2.0000      -0.755889       -20.5688
  49   2.0000      -0.746090       -20.3022
  50   2.0000      -0.734417       -19.9845
  51   2.0000      -0.725362       -19.7381
  52   2.0000      -0.710340       -19.3293
  53   2.0000      -0.683459       -18.5979
  54   2.0000      -0.661950       -18.0126
  55   2.0000      -0.631161       -17.1748
  56   2.0000      -0.623219       -16.9587
  57   2.0000      -0.606778       -16.5113
  58   2.0000      -0.598515       -16.2864
  59   2.0000      -0.590995       -16.0818
  60   2.0000      -0.519916       -14.1476
  61   2.0000      -0.510348       -13.8873
  62   2.0000      -0.491440       -13.3728
  63   2.0000      -0.484094       -13.1729
  64   2.0000      -0.467593       -12.7239
  65   2.0000      -0.464160       -12.6304
  66   2.0000      -0.458275       -12.4703
  67   2.0000      -0.452164       -12.3040
  68   2.0000      -0.447047       -12.1648
  69   2.0000      -0.430242       -11.7075
  70   2.0000      -0.426076       -11.5941
  71   2.0000      -0.412750       -11.2315
  72   2.0000      -0.404067       -10.9952
  73   2.0000      -0.401356       -10.9215
  74   2.0000      -0.396763       -10.7965
  75   2.0000      -0.393566       -10.7095
  76   2.0000      -0.381512       -10.3815
  77   2.0000      -0.373655       -10.1677
  78   2.0000      -0.367062        -9.9883
  79   2.0000      -0.365417        -9.9435
  80   2.0000      -0.361275        -9.8308
  81   2.0000      -0.357097        -9.7171
  82   2.0000      -0.350211        -9.5297
  83   2.0000      -0.347720        -9.4620
  84   2.0000      -0.345744        -9.4082
  85   2.0000      -0.328413        -8.9366
  86   2.0000      -0.320516        -8.7217
  87   2.0000      -0.307994        -8.3810
  88   2.0000      -0.304815        -8.2944
  89   2.0000      -0.303585        -8.2610
  90   2.0000      -0.289337        -7.8732
  91   2.0000      -0.286119        -7.7857
  92   2.0000      -0.278475        -7.5777
  93   2.0000      -0.276095        -7.5129
  94   2.0000      -0.272124        -7.4049
  95   2.0000      -0.249924        -6.8008
  96   2.0000      -0.231272        -6.2932
  97   2.0000      -0.225738        -6.1427
  98   2.0000      -0.214624        -5.8402
  99   2.0000      -0.205041        -5.5795
 100   2.0000      -0.197506        -5.3744
 101   0.0000      -0.042698        -1.1619
 102   0.0000      -0.031242        -0.8501
 103   0.0000      -0.009480        -0.2580
 104   0.0000       0.016554         0.4505
 105   0.0000       0.020945         0.5699

MULLIKEN ATOMIC CHARGES
-----------------------
   0 C :   -0.446567
   1 C :   -0.157073
   2 O :   -0.297452
   3 P :    0.653522
   4 S :   -0.460120
   5 O :   -0.265508
   6 C :   -0.155826
   7 C :   -0.448765
   8 S :   -0.137349
   9 C :   -0.219927
  10 S :   -0.172179
  11 P :    0.673324
  12 S :   -0.435845
  13 O :   -0.257045
  14 C :   -0.133437
  15 C :   -0.442509
  16 O :   -0.276340
  17 C :   -0.175122
  18 C :   -0.448404
  19 H :    0.153853
  20 H :    0.173759
  21 H :    0.146536
  22 H :    0.173092
  23 H :    0.146987
  24 H :    0.181675
  25 H :    0.156385
  26 H :    0.164298
  27 H :    0.145900
  28 H :    0.154526
  29 H :    0.196598
  30 H :    0.220485
  31 H :    0.167103
  32 H :    0.153194
  33 H :    0.149508
  34 H :    0.161897
  35 H :    0.158916
  36 H :    0.148564
  37 H :    0.178960
  38 H :    0.166601
  39 H :    0.155219
  40 H :    0.148564
Sum of atomic charges:   -0.0000000

LOEWDIN ATOMIC CHARGES
----------------------
   0 C :   -0.408285
   1 C :    0.017645
   2 O :   -0.668035
   3 P :    0.371900
   4 S :   -0.124101
   5 O :   -0.669554
   6 C :    0.012093
   7 C :   -0.400804
   8 S :    0.166058
   9 C :   -0.412279
  10 S :    0.125062
  11 P :    0.382626
  12 S :   -0.078716
  13 O :   -0.648216
  14 C :    0.020882
  15 C :   -0.401335
  16 O :   -0.667803
  17 C :    0.020586
  18 C :   -0.403890
  19 H :    0.159925
  20 H :    0.164128
  21 H :    0.158146
  22 H :    0.179775
  23 H :    0.178688
  24 H :    0.184362
  25 H :    0.183333
  26 H :    0.163501
  27 H :    0.158509
  28 H :    0.160267
  29 H :    0.180160
  30 H :    0.203457
  31 H :    0.178271
  32 H :    0.183474
  33 H :    0.159624
  34 H :    0.164308
  35 H :    0.162557
  36 H :    0.179028
  37 H :    0.183081
  38 H :    0.163462
  39 H :    0.158091
  40 H :    0.160020

  Mayer bond orders larger than 0.100000
B(  0-C ,  1-C ) :   0.9210 B(  0-C , 19-H ) :   0.9678 B(  0-C , 20-H ) :   0.9658
B(  0-C , 21-H ) :   0.9595 B(  1-C ,  2-O ) :   0.8226 B(  1-C , 22-H ) :   0.9672
B(  1-C , 23-H ) :   0.9591 B(  2-O ,  3-P ) :   1.0529 B(  3-P ,  4-S ) :   1.7616
B(  3-P ,  5-O ) :   1.1691 B(  3-P ,  8-S ) :   1.1215 B(  5-O ,  6-C ) :   0.8066
B(  6-C ,  7-C ) :   0.9082 B(  6-C , 24-H ) :   0.9638 B(  6-C , 25-H ) :   0.9631
B(  7-C , 26-H ) :   0.9632 B(  7-C , 27-H ) :   0.9613 B(  7-C , 28-H ) :   0.9733
B(  8-S ,  9-C ) :   0.8871 B(  9-C , 10-S ) :   0.9096 B(  9-C , 29-H ) :   0.9134
B(  9-C , 30-H ) :   0.9052 B( 10-S , 11-P ) :   0.9913 B( 11-P , 12-S ) :   1.8231
B( 11-P , 13-O ) :   1.1575 B( 11-P , 16-O ) :   1.0520 B( 13-O , 14-C ) :   0.8084
B( 14-C , 15-C ) :   0.9157 B( 14-C , 31-H ) :   0.9616 B( 14-C , 32-H ) :   0.9583
B( 15-C , 33-H ) :   0.9571 B( 15-C , 34-H ) :   0.9697 B( 15-C , 35-H ) :   0.9625
B( 16-O , 17-C ) :   0.7898 B( 17-C , 18-C ) :   0.9362 B( 17-C , 36-H ) :   0.9625
B( 17-C , 37-H ) :   0.9613 B( 18-C , 38-H ) :   0.9583 B( 18-C , 39-H ) :   0.9752
B( 18-C , 40-H ) :   0.9628

Dispersion correction           -0.022412654
FINAL SINGLE POINT ENERGY     -2932.456720935597

DIPOLE MOMENT
-------------

Method             : SCF
Type of density    : Electron Density
Multiplicity       :   1
Irrep              :   0
Energy             : -2932.4810165166027218 Eh
Relativity type    :
Basis              : AO
                                X                 Y                 Z
Electronic contribution:      0.744763899       1.504541174      -6.635429816
Nuclear contribution   :     -1.035244969      -2.457220801       7.596017008
                        -----------------------------------------
Total Dipole Moment    :     -0.290481069      -0.952679627       0.960587192
                        -----------------------------------------
Magnitude (a.u.)       :      1.383728831
Magnitude (Debye)      :      3.517159174

Rotational constants in cm-1:             0.013352             0.005193             0.004961
Rotational constants in MHz :           400.289453           155.682696           148.721534

                             ****ORCA TERMINATED NORMALLY****
TOTAL RUN TIME: 0 days 0 hours 1 minutes 22 seconds 802 msec
