                         Program Version 6.0.0  -   RELEASE  -
|  1> ! r2scan-3c def2/J RI DEFGRID2 scfconv6 printgap
|  2> %output
|  3>     printlevel normal
|  4> end
|  5> %cpcm
|  6>     smd true
|  7>     smdsolvent "water"
|  8> end
|  9> * xyz 0 1
| 10> C 4.5394497137 -1.724170373 -0.8225479445
| 11> C 4.6553580814 -0.3043632231 -0.306422074
| 12> O 3.5110042577 0.0891658091 0.4697483442
| 13> P 2.0705217434 0.3049832281 -0.1708426474
| 14> S 2.0921864004 1.1073006449 -1.9629413787
| 15> O 1.340527643 1.0976131331 0.9911316767
| 16> C 1.3747405798 2.533127201 1.0914982012
| 17> C 2.7640753119 3.0529021196 1.39190218
| 18> S 1.1794248701 -1.5848955269 0.0501580654
| 19> C -0.0482718396 -1.5583729659 -1.3053002989
| 20> S -1.7364252012 -1.8046936289 -0.7193263794
| 21> P -2.0127272901 0.0918009286 0.1982739333
| 22> S -1.3440861055 1.6146194563 -0.8389483104
| 23> O -1.3625989259 0.0239223931 1.630124246
| 24> C -1.3779798469 -1.1050829556 2.5419878065
| 25> C -2.7664505932 -1.6509548415 2.7905091485
| 26> O -3.5641591809 0.1697296838 0.5240622798
| 27> C -4.5518913758 0.5381026041 -0.4540776459
| 28> C -5.0605671065 -0.6694396956 -1.2166071406
| 29> H 4.3108251824 -2.405845503 -0.0072317021
| 30> H 3.7462713524 -1.7851708314 -1.566447334
| 31> H 5.4774188581 -2.0141959808 -1.2849840127
| 32> H 4.7647209541 0.397694779 -1.1393715672
| 33> H 5.4903642156 -0.1939644983 0.3867118818
| 34> H 0.9911992327 2.9538491874 0.1554188104
| 35> H 0.671264357 2.7514586677 1.8968722473
| 36> H 3.4201505159 2.8710313404 0.5415037831
| 37> H 2.7128556314 4.1216409702 1.5752043917
| 38> H 3.1705275203 2.5512491392 2.2662890813
| 39> H 0.165458276 -2.3920882065 -1.9687804226
| 40> H 0.0308344891 -0.6027082336 -1.83100735
| 41> H -0.7188305628 -1.8779445946 2.1357519904
| 42> H -0.9365553991 -0.6903807223 3.4494655816
| 43> H -2.7096836194 -2.4116787917 3.5631081438
| 44> H -3.4327870616 -0.8560536035 3.114975548
| 45> H -3.165315947 -2.0982573532 1.8823931544
| 46> H -5.348410451 1.0009511816 0.1311856486
| 47> H -4.1175163236 1.2821560431 -1.1304285077
| 48> H -4.2664214817 -1.1061639713 -1.8174996785
| 49> H -5.428927752 -1.4204495812 -0.5236204968
| 50> H -5.8687857667 -0.3587876018 -1.8709352719
| 51> *
| 52>
| 53>                          ****END OF INPUT****

CARTESIAN COORDINATES (ANGSTROEM)
---------------------------------
  C      4.539450   -1.724170   -0.822548
  C      4.655358   -0.304363   -0.306422
  O      3.511004    0.089166    0.469748
  P      2.070522    0.304983   -0.170843
  S      2.092186    1.107301   -1.962941
  O      1.340528    1.097613    0.991132
  C      1.374741    2.533127    1.091498
  C      2.764075    3.052902    1.391902
  S      1.179425   -1.584896    0.050158
  C     -0.048272   -1.558373   -1.305300
  S     -1.736425   -1.804694   -0.719326
  P     -2.012727    0.091801    0.198274
  S     -1.344086    1.614619   -0.838948
  O     -1.362599    0.023922    1.630124
  C     -1.377980   -1.105083    2.541988
  C     -2.766451   -1.650955    2.790509
  O     -3.564159    0.169730    0.524062
  C     -4.551891    0.538103   -0.454078
  C     -5.060567   -0.669440   -1.216607
  H      4.310825   -2.405846   -0.007232
  H      3.746271   -1.785171   -1.566447
  H      5.477419   -2.014196   -1.284984
  H      4.764721    0.397695   -1.139372
  H      5.490364   -0.193964    0.386712
  H      0.991199    2.953849    0.155419
  H      0.671264    2.751459    1.896872
  H      3.420151    2.871031    0.541504
  H      2.712856    4.121641    1.575204
  H      3.170528    2.551249    2.266289
  H      0.165458   -2.392088   -1.968780
  H      0.030834   -0.602708   -1.831007
  H     -0.718831   -1.877945    2.135752
  H     -0.936555   -0.690381    3.449466
  H     -2.709684   -2.411679    3.563108
  H     -3.432787   -0.856054    3.114976
  H     -3.165316   -2.098257    1.882393
  H     -5.348410    1.000951    0.131186
  H     -4.117516    1.282156   -1.130429
  H     -4.266421   -1.106164   -1.817500
  H     -5.428928   -1.420450   -0.523620
  H     -5.868786   -0.358788   -1.870935

 Total Charge           Charge          ....    0
 Multiplicity           Mult            ....    1
 Number of Electrons    NEL             ....  202
 Basis Dimension        Dim             ....  539

ORBITAL ENERGIES
----------------

  NO   OCC          E(Eh)            E(eV)
   0   2.0000     -88.580901     -2410.4088
   1   2.0000     -88.577258     -2410.3097
   2   2.0000     -88.525625     -2408.9047
   3   2.0000     -88.521470     -2408.7917
   4   2.0000     -76.918470     -2093.0580
   5   2.0000     -76.917011     -2093.0183
   6   2.0000     -18.994335      -516.8621
   7   2.0000     -18.993878      -516.8497
   8   2.0000     -18.992273      -516.8060
   9   2.0000     -18.988342      -516.6990
  10   2.0000     -10.105866      -274.9946
  11   2.0000     -10.091721      -274.6097
  12   2.0000     -10.088956      -274.5344
  13   2.0000     -10.088006      -274.5086
  14   2.0000     -10.085732      -274.4467
  15   2.0000     -10.019896      -272.6552
  16   2.0000     -10.017983      -272.6032
  17   2.0000     -10.017353      -272.5860
  18   2.0000     -10.017263      -272.5836
  19   2.0000      -7.875345      -214.2990
  20   2.0000      -7.872002      -214.2081
  21   2.0000      -7.820605      -212.8095
  22   2.0000      -7.816736      -212.7042
  23   2.0000      -6.596817      -179.5085
  24   2.0000      -6.595505      -179.4728
  25   2.0000      -5.822227      -158.4309
  26   2.0000      -5.818971      -158.3422
  27   2.0000      -5.818833      -158.3385
  28   2.0000      -5.815887      -158.2583
  29   2.0000      -5.812651      -158.1703
  30   2.0000      -5.809044      -158.0721
  31   2.0000      -5.768175      -156.9600
  32   2.0000      -5.764393      -156.8571
  33   2.0000      -5.761107      -156.7677
  34   2.0000      -5.760425      -156.7491
  35   2.0000      -5.757004      -156.6560
  36   2.0000      -5.756642      -156.6462
  37   2.0000      -4.742513      -129.0504
  38   2.0000      -4.741918      -129.0341
  39   2.0000      -4.740777      -129.0031
  40   2.0000      -4.740320      -128.9907
  41   2.0000      -4.740252      -128.9888
  42   2.0000      -4.739592      -128.9709
  43   2.0000      -1.052387       -28.6369
  44   2.0000      -1.049559       -28.5599
  45   2.0000      -1.012341       -27.5472
  46   2.0000      -1.009260       -27.4634
  47   2.0000      -0.801839       -21.8191
  48   2.0000      -0.755358       -20.5543
  49   2.0000      -0.744261       -20.2524
  50   2.0000      -0.726045       -19.7567
  51   2.0000      -0.722174       -19.6513
  52   2.0000      -0.711391       -19.3579
  53   2.0000      -0.688596       -18.7377
  54   2.0000      -0.669266       -18.2116
  55   2.0000      -0.633454       -17.2371
  56   2.0000      -0.622527       -16.9398
  57   2.0000      -0.601843       -16.3770
  58   2.0000      -0.597702       -16.2643
  59   2.0000      -0.590229       -16.0609
  60   2.0000      -0.518567       -14.1109
  61   2.0000      -0.511003       -13.9051
  62   2.0000      -0.489420       -13.3178
  63   2.0000      -0.486463       -13.2373
  64   2.0000      -0.469770       -12.7831
  65   2.0000      -0.465668       -12.6715
  66   2.0000      -0.454974       -12.3805
  67   2.0000      -0.451751       -12.2928
  68   2.0000      -0.444286       -12.0896
  69   2.0000      -0.430990       -11.7278
  70   2.0000      -0.421929       -11.4813
  71   2.0000      -0.409318       -11.1381
  72   2.0000      -0.405252       -11.0275
  73   2.0000      -0.402689       -10.9577
  74   2.0000      -0.396693       -10.7946
  75   2.0000      -0.394173       -10.7260
  76   2.0000      -0.378190       -10.2911
  77   2.0000      -0.370421       -10.0797
  78   2.0000      -0.363753        -9.8982
  79   2.0000      -0.359548        -9.7838
  80   2.0000      -0.353865        -9.6292
  81   2.0000      -0.353271        -9.6130
  82   2.0000      -0.350184        -9.5290
  83   2.0000      -0.345955        -9.4139
  84   2.0000      -0.341713        -9.2985
  85   2.0000      -0.324816        -8.8387
  86   2.0000      -0.322670        -8.7803
  87   2.0000      -0.307448        -8.3661
  88   2.0000      -0.303534        -8.2596
  89   2.0000      -0.300040        -8.1645
  90   2.0000      -0.294813        -8.0223
  91   2.0000      -0.287995        -7.8367
  92   2.0000      -0.283456        -7.7132
  93   2.0000      -0.278488        -7.5781
  94   2.0000      -0.275680        -7.5016
  95   2.0000      -0.253427        -6.8961
  96   2.0000      -0.238248        -6.4831
  97   2.0000      -0.237168        -6.4537
  98   2.0000      -0.225201        -6.1280
  99   2.0000      -0.214434        -5.8350
 100   2.0000      -0.209186        -5.6922
 101   0.0000      -0.046948        -1.2775
 102   0.0000      -0.037328        -1.0157
 103   0.0000      -0.013333        -0.3628
 104   0.0000       0.011624         0.3163
 105   0.0000       0.014374         0.3911

MULLIKEN ATOMIC CHARGES
-----------------------
   0 C :   -0.480455
   1 C :   -0.157682
   2 O :   -0.324732
   3 P :    0.693112
   4 S :   -0.516895
   5 O :   -0.295972
   6 C :   -0.154862
   7 C :   -0.492498
   8 S :   -0.134136
   9 C :   -0.218683
  10 S :   -0.165983
  11 P :    0.686771
  12 S :   -0.490198
  13 O :   -0.293980
  14 C :   -0.127622
  15 C :   -0.480964
  16 O :   -0.298918
  17 C :   -0.165908
  18 C :   -0.479035
  19 H :    0.166357
  20 H :    0.172082
  21 H :    0.171308
  22 H :    0.177340
  23 H :    0.173841
  24 H :    0.181000
  25 H :    0.177140
  26 H :    0.168462
  27 H :    0.170740
  28 H :    0.169214
  29 H :    0.238425
  30 H :    0.212756
  31 H :    0.174401
  32 H :    0.178402
  33 H :    0.175810
  34 H :    0.171126
  35 H :    0.165162
  36 H :    0.174091
  37 H :    0.175250
  38 H :    0.162667
  39 H :    0.172112
  40 H :    0.170953
Sum of atomic charges:   -0.0000000

LOEWDIN ATOMIC CHARGES
----------------------
   0 C :   -0.410702
   1 C :    0.023238
   2 O :   -0.680176
   3 P :    0.376900
   4 S :   -0.158645
   5 O :   -0.689764
   6 C :    0.012374
   7 C :   -0.403067
   8 S :    0.171308
   9 C :   -0.405935
  10 S :    0.137589
  11 P :    0.383836
  12 S :   -0.118727
  13 O :   -0.671552
  14 C :    0.025964
  15 C :   -0.402061
  16 O :   -0.677233
  17 C :    0.025080
  18 C :   -0.405387
  19 H :    0.163208
  20 H :    0.161103
  21 H :    0.167261
  22 H :    0.181160
  23 H :    0.190056
  24 H :    0.183151
  25 H :    0.190339
  26 H :    0.162929
  27 H :    0.167962
  28 H :    0.164176
  29 H :    0.197009
  30 H :    0.200235
  31 H :    0.181443
  32 H :    0.193571
  33 H :    0.170051
  34 H :    0.166103
  35 H :    0.162853
  36 H :    0.189692
  37 H :    0.181853
  38 H :    0.160845
  39 H :    0.163591
  40 H :    0.168369

  Mayer bond orders larger than 0.100000
B(  0-C ,  1-C ) :   0.9097 B(  0-C , 19-H ) :   0.9652 B(  0-C , 20-H ) :   0.9659
B(  0-C , 21-H ) :   0.9543 B(  1-C ,  2-O ) :   0.8095 B(  1-C , 22-H ) :   0.9654
B(  1-C , 23-H ) :   0.9492 B(  2-O ,  3-P ) :   1.0626 B(  3-P ,  4-S ) :   1.7048
B(  3-P ,  5-O ) :   1.1658 B(  3-P ,  8-S ) :   1.1477 B(  5-O ,  6-C ) :   0.7912
B(  6-C ,  7-C ) :   0.9061 B(  6-C , 24-H ) :   0.9604 B(  6-C , 25-H ) :   0.9517
B(  7-C , 26-H ) :   0.9620 B(  7-C , 27-H ) :   0.9546 B(  7-C , 28-H ) :   0.9715
B(  8-S ,  9-C ) :   0.8809 B(  9-C , 10-S ) :   0.9036 B(  9-C , 29-H ) :   0.8971
B(  9-C , 30-H ) :   0.9099 B( 10-S , 11-P ) :   1.0162 B( 11-P , 12-S ) :   1.7965
B( 11-P , 13-O ) :   1.1541 B( 11-P , 16-O ) :   1.0601 B( 13-O , 14-C ) :   0.7970
B( 14-C , 15-C ) :   0.9107 B( 14-C , 31-H ) :   0.9537 B( 14-C , 32-H ) :   0.9464
B( 15-C , 33-H ) :   0.9503 B( 15-C , 34-H ) :   0.9687 B( 15-C , 35-H ) :   0.9600
B( 16-O , 17-C ) :   0.7804 B( 17-C , 18-C ) :   0.9334 B( 17-C , 36-H ) :   0.9527
B( 17-C , 37-H ) :   0.9588 B( 18-C , 38-H ) :   0.9578 B( 18-C , 39-H ) :   0.9716
B( 18-C , 40-H ) :   0.9577

Dispersion correction           -0.022412654
FINAL SINGLE POINT ENERGY     -2932.465872465221

DIPOLE MOMENT
-------------

Method             : SCF
Type of density    : Electron Density
Multiplicity       :   1
Irrep              :   0
Energy             : -2932.4901680462266995 Eh
Relativity type    :
Basis              : AO
                                X                 Y                 Z
Electronic contribution:      0.686825306       0.906182186      -6.394239932
Nuclear contribution   :     -1.035244969      -2.457220801       7.596017008
                        -----------------------------------------
Total Dipole Moment    :     -0.348419663      -1.551038615       1.201777076
                        -----------------------------------------
Magnitude (a.u.)       :      1.992833457
Magnitude (Debye)      :      5.065380096

Rotational constants in cm-1:             0.013352             0.005193             0.004961
Rotational constants in MHz :           400.289453           155.682696           148.721534

                             ****ORCA TERMINATED NORMALLY****
TOTAL RUN TIME: 0 days 0 hours 1 minutes 57 seconds 782 msec
