                         Program Version 6.0.1  -  RELEASE   -
|  1> ! pbe def2-sv(p) def2/J RI DEFGRID1 loosescf d4 GCP(DFT/SV(P)) printgap
|  2> %output
|  3>     printlevel normal
|  4> end
|  5> * xyz 0 1
|  6> C 2.8445854992 -3.2921460061 0.0100835002
|  7> C 3.3003247786 -1.8420516015 -0.0100248101
|  8> O 2.3060006535 -1.0033301222 -0.629679258
|  9> C 2.2962738717 -0.9169650118 -1.9493221009
| 10> O 3.1133862819 -1.4429713572 -2.6710893852
| 11> C 1.1487478451 -0.0768396306 -2.4704833822
| 12> C 0.2413081754 0.4528371402 -1.3709352339
| 13> H -0.5289873468 1.1051057836 -1.8020672764
| 14> C 1.0218752764 1.2929642627 -0.3756482406
| 15> O 1.9366636168 2.0128173149 -0.7029389683
| 16> O 0.5466589451 1.1819647043 0.8469141751
| 17> C 1.1560033221 1.9561951706 1.8988589666
| 18> C 2.3268041998 1.2056133238 2.5098138186
| 19> S -0.6384551767 -0.9076534865 -0.5317584681
| 20> P -2.0623984455 0.2639002955 0.5287579824
| 21> S -2.4276357614 2.0562947273 -0.1730777178
| 22> O -3.339577932 -0.7059235285 0.5370988832
| 23> C -4.0697825696 -0.9817953096 -0.6622949341
| 24> O -1.7128264201 0.2573734419 2.0686709003
| 25> C -1.4264578178 -0.9617630972 2.7818336417
| 26> H 3.5628385634 -3.8855691141 0.5658146146
| 27> H 1.8679063738 -3.3705050914 0.4799832882
| 28> H 2.7781446324 -3.6751369541 -1.0053446049
| 29> H 4.2385759951 -1.7349752936 -0.5616159963
| 30> H 3.4064924156 -1.4429179148 0.9990000609
| 31> H 0.5842747316 -0.6827162644 -3.1808282284
| 32> H 1.5829556327 0.7657948614 -3.0141829452
| 33> H 1.4774762394 2.9126643232 1.4773992959
| 34> H 0.351425131 2.1119903241 2.6187524677
| 35> H 2.7226964909 1.7804215433 3.3404054337
| 36> H 2.0029684403 0.2322696059 2.8681920942
| 37> H 3.1095723998 1.0736570327 1.7660285508
| 38> H -3.4797793268 -1.6237858513 -1.3161729803
| 39> H -4.3149700125 -0.0504703393 -1.1753504189
| 40> H -4.9769841751 -1.4886545401 -0.3435701255
| 41> H -0.6086871067 -1.4919811568 2.2939479417
| 42> H -2.3132604374 -1.5917087696 2.8123351374
| 43> H -1.1416840066 -0.6469421686 3.7824108197
| 44> *
| 45>
| 46>                          ****END OF INPUT****

CARTESIAN COORDINATES (ANGSTROEM)
---------------------------------
  C      2.844585   -3.292146    0.010084
  C      3.300325   -1.842052   -0.010025
  O      2.306001   -1.003330   -0.629679
  C      2.296274   -0.916965   -1.949322
  O      3.113386   -1.442971   -2.671089
  C      1.148748   -0.076840   -2.470483
  C      0.241308    0.452837   -1.370935
  H     -0.528987    1.105106   -1.802067
  C      1.021875    1.292964   -0.375648
  O      1.936664    2.012817   -0.702939
  O      0.546659    1.181965    0.846914
  C      1.156003    1.956195    1.898859
  C      2.326804    1.205613    2.509814
  S     -0.638455   -0.907653   -0.531758
  P     -2.062398    0.263900    0.528758
  S     -2.427636    2.056295   -0.173078
  O     -3.339578   -0.705924    0.537099
  C     -4.069783   -0.981795   -0.662295
  O     -1.712826    0.257373    2.068671
  C     -1.426458   -0.961763    2.781834
  H      3.562839   -3.885569    0.565815
  H      1.867906   -3.370505    0.479983
  H      2.778145   -3.675137   -1.005345
  H      4.238576   -1.734975   -0.561616
  H      3.406492   -1.442918    0.999000
  H      0.584275   -0.682716   -3.180828
  H      1.582956    0.765795   -3.014183
  H      1.477476    2.912664    1.477399
  H      0.351425    2.111990    2.618752
  H      2.722696    1.780422    3.340405
  H      2.002968    0.232270    2.868192
  H      3.109572    1.073657    1.766029
  H     -3.479779   -1.623786   -1.316173
  H     -4.314970   -0.050470   -1.175350
  H     -4.976984   -1.488655   -0.343570
  H     -0.608687   -1.491981    2.293948
  H     -2.313260   -1.591709    2.812335
  H     -1.141684   -0.646942    3.782411

 Total Charge           Charge          ....    0
 Multiplicity           Mult            ....    1
 Number of Electrons    NEL             ....  174
 Basis Dimension        Dim             ....  316

ORBITAL ENERGIES
----------------

  NO   OCC          E(Eh)            E(eV)
   0   2.0000     -88.043417     -2395.7832
   1   2.0000     -87.984145     -2394.1703
   2   2.0000     -76.428105     -2079.7145
   3   2.0000     -18.812591      -511.9166
   4   2.0000     -18.809528      -511.8333
   5   2.0000     -18.798781      -511.5408
   6   2.0000     -18.793672      -511.4018
   7   2.0000     -18.740878      -509.9652
   8   2.0000     -18.737790      -509.8812
   9   2.0000     -10.016852      -272.5724
  10   2.0000     -10.015654      -272.5398
  11   2.0000      -9.956179      -270.9214
  12   2.0000      -9.954323      -270.8709
  13   2.0000      -9.949835      -270.7488
  14   2.0000      -9.947064      -270.6734
  15   2.0000      -9.946230      -270.6507
  16   2.0000      -9.917466      -269.8680
  17   2.0000      -9.893176      -269.2070
  18   2.0000      -9.891663      -269.1658
  19   2.0000      -7.687769      -209.1948
  20   2.0000      -7.629400      -207.6065
  21   2.0000      -6.425026      -174.8338
  22   2.0000      -5.715475      -155.5260
  23   2.0000      -5.712463      -155.4440
  24   2.0000      -5.704868      -155.2373
  25   2.0000      -5.658550      -153.9770
  26   2.0000      -5.649870      -153.7408
  27   2.0000      -5.649437      -153.7290
  28   2.0000      -4.647764      -126.4721
  29   2.0000      -4.646925      -126.4493
  30   2.0000      -4.645332      -126.4059
  31   2.0000      -1.019860       -27.7518
  32   2.0000      -1.014719       -27.6119
  33   2.0000      -0.990549       -26.9542
  34   2.0000      -0.945838       -25.7376
  35   2.0000      -0.921562       -25.0770
  36   2.0000      -0.918317       -24.9887
  37   2.0000      -0.770797       -20.9745
  38   2.0000      -0.717561       -19.5258
  39   2.0000      -0.705200       -19.1895
  40   2.0000      -0.696988       -18.9660
  41   2.0000      -0.663560       -18.0564
  42   2.0000      -0.639889       -17.4123
  43   2.0000      -0.624914       -17.0048
  44   2.0000      -0.618739       -16.8367
  45   2.0000      -0.603492       -16.4219
  46   2.0000      -0.573735       -15.6121
  47   2.0000      -0.519140       -14.1265
  48   2.0000      -0.507110       -13.7992
  49   2.0000      -0.500950       -13.6315
  50   2.0000      -0.484793       -13.1919
  51   2.0000      -0.477887       -13.0040
  52   2.0000      -0.470674       -12.8077
  53   2.0000      -0.446724       -12.1560
  54   2.0000      -0.436677       -11.8826
  55   2.0000      -0.435991       -11.8639
  56   2.0000      -0.430614       -11.7176
  57   2.0000      -0.422661       -11.5012
  58   2.0000      -0.417946       -11.3729
  59   2.0000      -0.407353       -11.0846
  60   2.0000      -0.405974       -11.0471
  61   2.0000      -0.402396       -10.9497
  62   2.0000      -0.400286       -10.8923
  63   2.0000      -0.391613       -10.6563
  64   2.0000      -0.378983       -10.3127
  65   2.0000      -0.375252       -10.2111
  66   2.0000      -0.363230        -9.8840
  67   2.0000      -0.358389        -9.7523
  68   2.0000      -0.349300        -9.5049
  69   2.0000      -0.344232        -9.3670
  70   2.0000      -0.337517        -9.1843
  71   2.0000      -0.333034        -9.0623
  72   2.0000      -0.326435        -8.8827
  73   2.0000      -0.321392        -8.7455
  74   2.0000      -0.309456        -8.4207
  75   2.0000      -0.305032        -8.3003
  76   2.0000      -0.299604        -8.1527
  77   2.0000      -0.296263        -8.0617
  78   2.0000      -0.274219        -7.4619
  79   2.0000      -0.269981        -7.3466
  80   2.0000      -0.265373        -7.2212
  81   2.0000      -0.259401        -7.0587
  82   2.0000      -0.244491        -6.6529
  83   2.0000      -0.226295        -6.1578
  84   2.0000      -0.212762        -5.7895
  85   2.0000      -0.203203        -5.5294
  86   2.0000      -0.200437        -5.4542
  87   0.0000      -0.043274        -1.1775
  88   0.0000      -0.026695        -0.7264
  89   0.0000      -0.023087        -0.6282
  90   0.0000       0.002240         0.0610
  91   0.0000       0.013717         0.3733

MULLIKEN ATOMIC CHARGES
-----------------------
   0 C :   -0.308886
   1 C :   -0.016479
   2 O :   -0.236489
   3 C :    0.115337
   4 O :   -0.201474
   5 C :   -0.097524
   6 C :   -0.319590
   7 H :    0.158757
   8 C :    0.242142
   9 O :   -0.201054
  10 O :   -0.231482
  11 C :   -0.006958
  12 C :   -0.318368
  13 S :   -0.101639
  14 P :    0.623774
  15 S :   -0.320447
  16 O :   -0.390857
  17 C :   -0.099135
  18 O :   -0.363235
  19 C :   -0.113368
  20 H :    0.113980
  21 H :    0.115444
  22 H :    0.129507
  23 H :    0.114780
  24 H :    0.104642
  25 H :    0.133308
  26 H :    0.147844
  27 H :    0.114301
  28 H :    0.111861
  29 H :    0.115734
  30 H :    0.113041
  31 H :    0.134733
  32 H :    0.112724
  33 H :    0.118522
  34 H :    0.125240
  35 H :    0.123573
  36 H :    0.127942
  37 H :    0.129798
Sum of atomic charges:   -0.0000000

LOEWDIN ATOMIC CHARGES
----------------------
   0 C :   -0.356356
   1 C :   -0.108988
   2 O :   -0.053177
   3 C :    0.036065
   4 O :   -0.162431
   5 C :   -0.245102
   6 C :   -0.277528
   7 H :    0.144189
   8 C :    0.019239
   9 O :   -0.163116
  10 O :   -0.053656
  11 C :   -0.106839
  12 C :   -0.356059
  13 S :    0.090831
  14 P :    0.577905
  15 S :   -0.314978
  16 O :   -0.262890
  17 C :   -0.217069
  18 O :   -0.235842
  19 C :   -0.212134
  20 H :    0.131147
  21 H :    0.123589
  22 H :    0.131629
  23 H :    0.123262
  24 H :    0.116505
  25 H :    0.149013
  26 H :    0.162824
  27 H :    0.123260
  28 H :    0.120712
  29 H :    0.132164
  30 H :    0.120866
  31 H :    0.130195
  32 H :    0.107294
  33 H :    0.112198
  34 H :    0.122374
  35 H :    0.108620
  36 H :    0.117810
  37 H :    0.124474

  Mayer bond orders larger than 0.100000
B(  0-C ,  1-C ) :   1.1743 B(  0-C , 20-H ) :   0.9437 B(  0-C , 21-H ) :   0.9473
B(  0-C , 22-H ) :   0.9446 B(  1-C ,  2-O ) :   0.9119 B(  1-C , 23-H ) :   0.9160
B(  1-C , 24-H ) :   0.9291 B(  2-O ,  3-C ) :   1.2134 B(  3-C ,  4-O ) :   2.0520
B(  3-C ,  5-C ) :   1.0144 B(  5-C ,  6-C ) :   1.0662 B(  5-C , 25-H ) :   0.8979
B(  5-C , 26-H ) :   0.8750 B(  6-C ,  7-H ) :   0.8311 B(  6-C ,  8-C ) :   0.8671
B(  6-C , 13-S ) :   1.0197 B(  8-C ,  9-O ) :   2.0607 B(  8-C , 10-O ) :   1.2401
B( 10-O , 11-C ) :   0.9036 B( 11-C , 12-C ) :   1.1758 B( 11-C , 27-H ) :   0.9162
B( 11-C , 28-H ) :   0.9302 B( 12-C , 29-H ) :   0.9422 B( 12-C , 30-H ) :   0.9458
B( 12-C , 31-H ) :   0.9389 B( 13-S , 14-P ) :   0.9558 B( 13-S , 15-S ) :   0.1141
B( 14-P , 15-S ) :   1.6362 B( 14-P , 16-O ) :   1.0668 B( 14-P , 18-O ) :   1.1145
B( 16-O , 17-C ) :   0.9332 B( 17-C , 32-H ) :   0.9458 B( 17-C , 33-H ) :   0.9359
B( 17-C , 34-H ) :   0.9585 B( 18-O , 19-C ) :   0.9192 B( 19-C , 35-H ) :   0.9352
B( 19-C , 36-H ) :   0.9473 B( 19-C , 37-H ) :   0.9588

Dispersion correction           -0.054088411
FINAL SINGLE POINT ENERGY     -1979.022271494096

DIPOLE MOMENT
-------------

Method             : SCF
Type of density    : Electron Density
Multiplicity       :   1
Irrep              :   0
Energy             : -1979.1513575372314335 Eh
Relativity type    :
Basis              : AO
                                X                 Y                 Z
Electronic contribution:    -11.829655139       9.850299739      -8.162553931
Nuclear contribution   :     11.656581387     -11.244456994       9.489230484
                        -----------------------------------------
Total Dipole Moment    :     -0.173073753      -1.394157255       1.326676553
                        -----------------------------------------
Magnitude (a.u.)       :      1.932278358
Magnitude (Debye)      :      4.911461266

Rotational constants in cm-1:             0.013831             0.007344             0.006849
Rotational constants in MHz :           414.634331           220.179839           205.328013

                             ****ORCA TERMINATED NORMALLY****
TOTAL RUN TIME: 0 days 0 hours 0 minutes 32 seconds 176 msec
