                         Program Version 6.0.1  -  RELEASE   -
|  1> ! pbe def2-sv(p) def2/J RI DEFGRID1 loosescf d4 GCP(DFT/SV(P)) printgap
|  2> %output
|  3>     printlevel normal
|  4> end
|  5> * xyz 0 1
|  6> C 2.1892199535 -3.8108580531 0.683687726
|  7> C 2.8078698486 -2.426397432 0.651761781
|  8> O 2.3631466138 -1.7526651951 -0.5414485373
|  9> C 2.0783914118 -0.4745879033 -0.4976090771
| 10> O 2.1606456087 0.2325871405 0.4883166082
| 11> C 1.6561542451 0.0620282253 -1.8525865333
| 12> C 0.391811766 0.9184366498 -1.7332210747
| 13> H 0.3193902309 1.5939214272 -2.5883149007
| 14> C 0.3934489675 1.7349840989 -0.4558009215
| 15> O -0.4073348267 1.5388931684 0.444377097
| 16> O 1.2706461437 2.6907267763 -0.4777318552
| 17> C 1.4369336131 3.4873805002 0.715726946
| 18> C 2.4437638753 4.5769258302 0.409117578
| 19> S -1.1401587144 -0.0730634351 -1.7860528645
| 20> P -1.7175168505 -0.4923190905 0.2124397084
| 21> S -0.5153743853 -1.2310087278 1.5836909354
| 22> O -2.8424199596 0.5402785598 0.6600619701
| 23> C -2.7951294948 1.3460646949 1.8372540503
| 24> O -2.7978675511 -1.614250122 -0.2091740122
| 25> C -2.4044464978 -2.919166224 -0.633852086
| 26> H 2.5982638159 -4.3655021454 1.5211375243
| 27> H 1.1125770276 -3.7294769585 0.8088119499
| 28> H 2.40479138 -4.3361163629 -0.2415598803
| 29> H 3.8987201694 -2.4771173423 0.6005547326
| 30> H 2.5064863092 -1.8337889396 1.5205833744
| 31> H 1.4929429265 -0.7616263865 -2.5455197822
| 32> H 2.4718887479 0.6914918212 -2.2148965165
| 33> H 0.4616350107 3.8949957402 0.9982004774
| 34> H 1.7811300675 2.8172730561 1.5095957088
| 35> H 2.0850288364 5.1994155962 -0.4049118758
| 36> H 2.5853469709 5.188882609 1.293494541
| 37> H 3.393294364 4.1344817008 0.1248675741
| 38> H -1.9904605777 1.0159095687 2.496806755
| 39> H -3.75865349 1.2308282587 2.3299592906
| 40> H -2.6294056455 2.38231512 1.54761127
| 41> H -1.6616438084 -3.3268046647 0.0554825072
| 42> H -1.9954611765 -2.8821160968 -1.6438639716
| 43> H -3.3100738852 -3.519994641 -0.6106865726
| 44> *
| 45>
| 46>                          ****END OF INPUT****

CARTESIAN COORDINATES (ANGSTROEM)
---------------------------------
  C      2.189220   -3.810858    0.683688
  C      2.807870   -2.426397    0.651762
  O      2.363147   -1.752665   -0.541449
  C      2.078391   -0.474588   -0.497609
  O      2.160646    0.232587    0.488317
  C      1.656154    0.062028   -1.852587
  C      0.391812    0.918437   -1.733221
  H      0.319390    1.593921   -2.588315
  C      0.393449    1.734984   -0.455801
  O     -0.407335    1.538893    0.444377
  O      1.270646    2.690727   -0.477732
  C      1.436934    3.487381    0.715727
  C      2.443764    4.576926    0.409118
  S     -1.140159   -0.073063   -1.786053
  P     -1.717517   -0.492319    0.212440
  S     -0.515374   -1.231009    1.583691
  O     -2.842420    0.540279    0.660062
  C     -2.795129    1.346065    1.837254
  O     -2.797868   -1.614250   -0.209174
  C     -2.404446   -2.919166   -0.633852
  H      2.598264   -4.365502    1.521138
  H      1.112577   -3.729477    0.808812
  H      2.404791   -4.336116   -0.241560
  H      3.898720   -2.477117    0.600555
  H      2.506486   -1.833789    1.520583
  H      1.492943   -0.761626   -2.545520
  H      2.471889    0.691492   -2.214897
  H      0.461635    3.894996    0.998200
  H      1.781130    2.817273    1.509596
  H      2.085029    5.199416   -0.404912
  H      2.585347    5.188883    1.293495
  H      3.393294    4.134482    0.124868
  H     -1.990461    1.015910    2.496807
  H     -3.758653    1.230828    2.329959
  H     -2.629406    2.382315    1.547611
  H     -1.661644   -3.326805    0.055483
  H     -1.995461   -2.882116   -1.643864
  H     -3.310074   -3.519995   -0.610687

 Total Charge           Charge          ....    0
 Multiplicity           Mult            ....    1
 Number of Electrons    NEL             ....  174
 Basis Dimension        Dim             ....  316

ORBITAL ENERGIES
----------------

  NO   OCC          E(Eh)            E(eV)
   0   2.0000     -88.032394     -2395.4832
   1   2.0000     -87.963236     -2393.6013
   2   2.0000     -76.414833     -2079.3533
   3   2.0000     -18.818207      -512.0695
   4   2.0000     -18.806499      -511.7509
   5   2.0000     -18.770619      -510.7745
   6   2.0000     -18.765184      -510.6266
   7   2.0000     -18.759588      -510.4743
   8   2.0000     -18.739579      -509.9299
   9   2.0000     -10.030511      -272.9441
  10   2.0000     -10.014674      -272.5131
  11   2.0000      -9.954913      -270.8869
  12   2.0000      -9.954805      -270.8840
  13   2.0000      -9.941953      -270.5343
  14   2.0000      -9.926661      -270.1182
  15   2.0000      -9.925554      -270.0881
  16   2.0000      -9.918365      -269.8924
  17   2.0000      -9.894867      -269.2530
  18   2.0000      -9.879485      -268.8345
  19   2.0000      -7.677525      -208.9161
  20   2.0000      -7.608371      -207.0343
  21   2.0000      -6.409676      -174.4161
  22   2.0000      -5.705788      -155.2624
  23   2.0000      -5.701680      -155.1506
  24   2.0000      -5.694423      -154.9531
  25   2.0000      -5.637419      -153.4020
  26   2.0000      -5.629252      -153.1797
  27   2.0000      -5.628039      -153.1467
  28   2.0000      -4.632238      -126.0496
  29   2.0000      -4.631850      -126.0390
  30   2.0000      -4.630326      -125.9976
  31   2.0000      -1.031236       -28.0614
  32   2.0000      -1.012467       -27.5506
  33   2.0000      -0.963767       -26.2254
  34   2.0000      -0.935791       -25.4642
  35   2.0000      -0.918780       -25.0013
  36   2.0000      -0.917650       -24.9705
  37   2.0000      -0.767422       -20.8826
  38   2.0000      -0.717041       -19.5117
  39   2.0000      -0.708459       -19.2781
  40   2.0000      -0.684544       -18.6274
  41   2.0000      -0.652896       -17.7662
  42   2.0000      -0.623654       -16.9705
  43   2.0000      -0.613115       -16.6837
  44   2.0000      -0.604407       -16.4468
  45   2.0000      -0.588911       -16.0251
  46   2.0000      -0.560571       -15.2539
  47   2.0000      -0.519930       -14.1480
  48   2.0000      -0.505646       -13.7593
  49   2.0000      -0.499500       -13.5921
  50   2.0000      -0.489947       -13.3321
  51   2.0000      -0.461862       -12.5679
  52   2.0000      -0.459528       -12.5044
  53   2.0000      -0.449129       -12.2214
  54   2.0000      -0.446101       -12.1390
  55   2.0000      -0.427989       -11.6462
  56   2.0000      -0.420498       -11.4423
  57   2.0000      -0.413094       -11.2409
  58   2.0000      -0.407123       -11.0784
  59   2.0000      -0.401723       -10.9314
  60   2.0000      -0.397902       -10.8275
  61   2.0000      -0.394329       -10.7302
  62   2.0000      -0.382653       -10.4125
  63   2.0000      -0.378517       -10.3000
  64   2.0000      -0.370314       -10.0768
  65   2.0000      -0.365936        -9.9576
  66   2.0000      -0.361077        -9.8254
  67   2.0000      -0.356107        -9.6902
  68   2.0000      -0.349809        -9.5188
  69   2.0000      -0.341773        -9.3001
  70   2.0000      -0.336788        -9.1645
  71   2.0000      -0.328184        -8.9303
  72   2.0000      -0.317626        -8.6431
  73   2.0000      -0.314579        -8.5601
  74   2.0000      -0.297594        -8.0979
  75   2.0000      -0.293872        -7.9967
  76   2.0000      -0.285557        -7.7704
  77   2.0000      -0.279519        -7.6061
  78   2.0000      -0.271093        -7.3768
  79   2.0000      -0.257946        -7.0191
  80   2.0000      -0.256872        -6.9898
  81   2.0000      -0.240790        -6.5522
  82   2.0000      -0.236842        -6.4448
  83   2.0000      -0.228042        -6.2053
  84   2.0000      -0.220322        -5.9953
  85   2.0000      -0.184942        -5.0325
  86   2.0000      -0.173963        -4.7338
  87   0.0000      -0.041977        -1.1422
  88   0.0000      -0.030642        -0.8338
  89   0.0000      -0.026789        -0.7290
  90   0.0000       0.005048         0.1374
  91   0.0000       0.033434         0.9098

MULLIKEN ATOMIC CHARGES
-----------------------
   0 C :   -0.299924
   1 C :   -0.026418
   2 O :   -0.218181
   3 C :    0.107025
   4 O :   -0.200331
   5 C :   -0.035727
   6 C :   -0.290528
   7 H :    0.145546
   8 C :    0.229545
   9 O :   -0.211342
  10 O :   -0.217869
  11 C :   -0.031935
  12 C :   -0.276879
  13 S :   -0.106069
  14 P :    0.634197
  15 S :   -0.347784
  16 O :   -0.373362
  17 C :   -0.083743
  18 O :   -0.382626
  19 C :   -0.107292
  20 H :    0.107660
  21 H :    0.137083
  22 H :    0.107393
  23 H :    0.099556
  24 H :    0.130638
  25 H :    0.117345
  26 H :    0.124038
  27 H :    0.109708
  28 H :    0.128769
  29 H :    0.114771
  30 H :    0.115360
  31 H :    0.120271
  32 H :    0.119401
  33 H :    0.116017
  34 H :    0.104823
  35 H :    0.117755
  36 H :    0.105468
  37 H :    0.117639
Sum of atomic charges:    0.0000000

LOEWDIN ATOMIC CHARGES
----------------------
   0 C :   -0.355187
   1 C :   -0.109959
   2 O :   -0.042777
   3 C :    0.029582
   4 O :   -0.155999
   5 C :   -0.246428
   6 C :   -0.260591
   7 H :    0.147960
   8 C :    0.029503
   9 O :   -0.148597
  10 O :   -0.036013
  11 C :   -0.102182
  12 C :   -0.350293
  13 S :    0.099354
  14 P :    0.581383
  15 S :   -0.332152
  16 O :   -0.243792
  17 C :   -0.209464
  18 O :   -0.265713
  19 C :   -0.223471
  20 H :    0.129512
  21 H :    0.126473
  22 H :    0.122690
  23 H :    0.114125
  24 H :    0.123810
  25 H :    0.136623
  26 H :    0.148612
  27 H :    0.117492
  28 H :    0.128792
  29 H :    0.126363
  30 H :    0.133338
  31 H :    0.129307
  32 H :    0.110095
  33 H :    0.115437
  34 H :    0.108341
  35 H :    0.103245
  36 H :    0.101802
  37 H :    0.118780

  Mayer bond orders larger than 0.100000
B(  0-C ,  1-C ) :   1.1699 B(  0-C , 20-H ) :   0.9422 B(  0-C , 21-H ) :   0.9365
B(  0-C , 22-H ) :   0.9479 B(  1-C ,  2-O ) :   0.8956 B(  1-C , 23-H ) :   0.9349
B(  1-C , 24-H ) :   0.9071 B(  2-O ,  3-C ) :   1.2691 B(  2-O ,  4-O ) :   0.1025
B(  3-C ,  4-O ) :   1.9613 B(  3-C ,  5-C ) :   1.0010 B(  4-O ,  8-C ) :   0.1200
B(  5-C ,  6-C ) :   1.0204 B(  5-C , 25-H ) :   0.9044 B(  5-C , 26-H ) :   0.8769
B(  6-C ,  7-H ) :   0.8770 B(  6-C ,  8-C ) :   0.9164 B(  6-C , 13-S ) :   1.0311
B(  8-C ,  9-O ) :   1.8743 B(  8-C , 10-O ) :   1.2771 B(  9-O , 14-P ) :   0.1585
B( 10-O , 11-C ) :   0.8894 B( 11-C , 12-C ) :   1.1565 B( 11-C , 27-H ) :   0.9310
B( 11-C , 28-H ) :   0.9249 B( 12-C , 29-H ) :   0.9507 B( 12-C , 30-H ) :   0.9427
B( 12-C , 31-H ) :   0.9490 B( 13-S , 14-P ) :   0.9367 B( 13-S , 15-S ) :   0.1143
B( 14-P , 15-S ) :   1.5691 B( 14-P , 16-O ) :   1.1204 B( 14-P , 18-O ) :   1.0497
B( 16-O , 17-C ) :   0.9321 B( 17-C , 32-H ) :   0.9317 B( 17-C , 33-H ) :   0.9545
B( 17-C , 34-H ) :   0.9570 B( 18-O , 19-C ) :   0.9510 B( 19-C , 35-H ) :   0.9281
B( 19-C , 36-H ) :   0.9453 B( 19-C , 37-H ) :   0.9588

Dispersion correction           -0.053654588
FINAL SINGLE POINT ENERGY     -1979.008954757033

DIPOLE MOMENT
-------------

Method             : SCF
Type of density    : Electron Density
Multiplicity       :   1
Irrep              :   0
Energy             : -1979.1387143298529736 Eh
Relativity type    :
Basis              : AO
                                X                 Y                 Z
Electronic contribution:    -11.431882907      -0.590627324      -4.716007446
Nuclear contribution   :     12.617121879       1.362140805       4.097015719
                        -----------------------------------------
Total Dipole Moment    :      1.185238972       0.771513481      -0.618991727
                        -----------------------------------------
Magnitude (a.u.)       :      1.543753617
Magnitude (Debye)      :      3.923909856

Rotational constants in cm-1:             0.011256             0.009237             0.006666
Rotational constants in MHz :           337.448684           276.911366           199.832385

                             ****ORCA TERMINATED NORMALLY****
TOTAL RUN TIME: 0 days 0 hours 0 minutes 33 seconds 674 msec
