                         Program Version 6.0.0  -   RELEASE  -
|  1> ! pbe def2-sv(p) def2/J RI DEFGRID1 loosescf d4 GCP(DFT/SV(P)) printgap
|  2> %output
|  3>     printlevel normal
|  4> end
|  5> * xyz 0 1
|  6> C 4.4517916728 0.8698312239 -1.9414897176
|  7> C 2.9673270109 0.5743236376 -1.9749650569
|  8> O 2.3202810452 1.0539921775 -0.7705086454
|  9> P 2.019396647 0.1670421819 0.4853838761
| 10> S 0.970749195 1.0917497371 1.8502128979
| 11> O 3.4882069863 -0.2343611199 0.9579060248
| 12> C 3.6995020243 -1.0203653465 2.1470162308
| 13> C 5.1716138281 -0.9479706396 2.4984858603
| 14> S 1.2352922599 -1.7036734358 -0.1831888774
| 15> C -0.2762496963 -1.8167418336 0.8246230992
| 16> S -1.7976819322 -1.9445333325 -0.1471516676
| 17> P -2.0637231858 0.0646660819 -0.7048393211
| 18> S -0.6787421951 1.0061600624 -1.7186898576
| 19> O -2.3749113119 0.7005059848 0.7298647402
| 20> C -2.2500670189 2.1073894296 0.9834087942
| 21> C -3.4130376432 2.8783325595 0.3951866017
| 22> O -3.3940197577 0.0314549231 -1.5635908589
| 23> C -4.5152899565 -0.8636254264 -1.3709975625
| 24> C -5.2256546927 -0.6322097391 -0.054115299
| 25> H 4.9237492531 0.3334369998 -1.1226938559
| 26> H 4.8947460135 0.5563002565 -2.881513006
| 27> H 4.6148220329 1.9351820129 -1.8041973893
| 28> H 2.7748865174 -0.4974936277 -2.0781662646
| 29> H 2.4606017327 1.1108189516 -2.7798711763
| 30> H 3.075365824 -0.6118728337 2.9488077886
| 31> H 3.3886250594 -2.0477595432 1.9364966825
| 32> H 5.3516619057 -1.5306394972 3.3958104351
| 33> H 5.7696445277 -1.3472658937 1.6845338021
| 34> H 5.4615305522 0.0837927896 2.6761916553
| 35> H -0.3267020669 -0.9440820804 1.4822609714
| 36> H -0.2220268339 -2.7416542152 1.3929533717
| 37> H -2.2082891778 2.1832528929 2.0710874865
| 38> H -1.3004185552 2.4586247171 0.5652475936
| 39> H -3.4314900055 2.7420604917 -0.6861139127
| 40> H -4.3504921354 2.5259875519 0.8165731087
| 41> H -3.2922578247 3.9338762512 0.6173394397
| 42> H -5.1608757764 -0.6402938712 -2.2220560949
| 43> H -4.1508195908 -1.891257124 -1.4434076398
| 44> H -4.5529540792 -0.8293959607 0.7777205623
| 45> H -5.5781179878 0.3938920213 0.0096824053
| 46> H -6.0749082404 -1.3051866575 0.0108181808
| 47> *
| 48>
| 49>                          ****END OF INPUT****

CARTESIAN COORDINATES (ANGSTROEM)
---------------------------------
  C      4.451792    0.869831   -1.941490
  C      2.967327    0.574324   -1.974965
  O      2.320281    1.053992   -0.770509
  P      2.019397    0.167042    0.485384
  S      0.970749    1.091750    1.850213
  O      3.488207   -0.234361    0.957906
  C      3.699502   -1.020365    2.147016
  C      5.171614   -0.947971    2.498486
  S      1.235292   -1.703673   -0.183189
  C     -0.276250   -1.816742    0.824623
  S     -1.797682   -1.944533   -0.147152
  P     -2.063723    0.064666   -0.704839
  S     -0.678742    1.006160   -1.718690
  O     -2.374911    0.700506    0.729865
  C     -2.250067    2.107389    0.983409
  C     -3.413038    2.878333    0.395187
  O     -3.394020    0.031455   -1.563591
  C     -4.515290   -0.863625   -1.370998
  C     -5.225655   -0.632210   -0.054115
  H      4.923749    0.333437   -1.122694
  H      4.894746    0.556300   -2.881513
  H      4.614822    1.935182   -1.804197
  H      2.774887   -0.497494   -2.078166
  H      2.460602    1.110819   -2.779871
  H      3.075366   -0.611873    2.948808
  H      3.388625   -2.047760    1.936497
  H      5.351662   -1.530639    3.395810
  H      5.769645   -1.347266    1.684534
  H      5.461531    0.083793    2.676192
  H     -0.326702   -0.944082    1.482261
  H     -0.222027   -2.741654    1.392953
  H     -2.208289    2.183253    2.071087
  H     -1.300419    2.458625    0.565248
  H     -3.431490    2.742060   -0.686114
  H     -4.350492    2.525988    0.816573
  H     -3.292258    3.933876    0.617339
  H     -5.160876   -0.640294   -2.222056
  H     -4.150820   -1.891257   -1.443408
  H     -4.552954   -0.829396    0.777721
  H     -5.578118    0.393892    0.009682
  H     -6.074908   -1.305187    0.010818

 Total Charge           Charge          ....    0
 Multiplicity           Mult            ....    1
 Number of Electrons    NEL             ....  202
 Basis Dimension        Dim             ....  334

ORBITAL ENERGIES
----------------

  NO   OCC          E(Eh)            E(eV)
   0   2.0000     -88.042555     -2395.7597
   1   2.0000     -88.039769     -2395.6839
   2   2.0000     -87.984344     -2394.1757
   3   2.0000     -87.972254     -2393.8467
   4   2.0000     -76.423265     -2079.5828
   5   2.0000     -76.418328     -2079.4484
   6   2.0000     -18.788605      -511.2639
   7   2.0000     -18.788156      -511.2517
   8   2.0000     -18.787563      -511.2356
   9   2.0000     -18.781671      -511.0752
  10   2.0000      -9.958065      -270.9727
  11   2.0000      -9.956171      -270.9212
  12   2.0000      -9.953380      -270.8452
  13   2.0000      -9.950734      -270.7732
  14   2.0000      -9.935909      -270.3698
  15   2.0000      -9.888316      -269.0748
  16   2.0000      -9.887949      -269.0648
  17   2.0000      -9.883715      -268.9496
  18   2.0000      -9.876379      -268.7499
  19   2.0000      -7.688143      -209.2050
  20   2.0000      -7.684665      -209.1104
  21   2.0000      -7.629354      -207.6053
  22   2.0000      -7.617307      -207.2775
  23   2.0000      -6.420798      -174.7188
  24   2.0000      -6.416091      -174.5907
  25   2.0000      -5.715984      -155.5398
  26   2.0000      -5.712535      -155.4460
  27   2.0000      -5.712502      -155.4451
  28   2.0000      -5.709161      -155.3542
  29   2.0000      -5.705178      -155.2458
  30   2.0000      -5.701716      -155.1516
  31   2.0000      -5.658181      -153.9669
  32   2.0000      -5.650127      -153.7478
  33   2.0000      -5.649353      -153.7267
  34   2.0000      -5.646397      -153.6463
  35   2.0000      -5.638062      -153.4195
  36   2.0000      -5.637115      -153.3937
  37   2.0000      -4.643435      -126.3543
  38   2.0000      -4.642549      -126.3302
  39   2.0000      -4.641199      -126.2934
  40   2.0000      -4.638998      -126.2335
  41   2.0000      -4.637799      -126.2009
  42   2.0000      -4.636289      -126.1598
  43   2.0000      -0.985326       -26.8121
  44   2.0000      -0.977411       -26.5967
  45   2.0000      -0.941816       -25.6281
  46   2.0000      -0.939329       -25.5604
  47   2.0000      -0.760365       -20.6906
  48   2.0000      -0.719663       -19.5830
  49   2.0000      -0.709313       -19.3014
  50   2.0000      -0.690030       -18.7767
  51   2.0000      -0.687503       -18.7079
  52   2.0000      -0.670570       -18.2471
  53   2.0000      -0.646386       -17.5890
  54   2.0000      -0.633875       -17.2486
  55   2.0000      -0.591171       -16.0866
  56   2.0000      -0.585641       -15.9361
  57   2.0000      -0.575406       -15.6576
  58   2.0000      -0.566100       -15.4044
  59   2.0000      -0.561412       -15.2768
  60   2.0000      -0.507308       -13.8046
  61   2.0000      -0.490602       -13.3499
  62   2.0000      -0.479067       -13.0361
  63   2.0000      -0.470595       -12.8055
  64   2.0000      -0.450495       -12.2586
  65   2.0000      -0.446262       -12.1434
  66   2.0000      -0.438520       -11.9327
  67   2.0000      -0.434139       -11.8135
  68   2.0000      -0.426660       -11.6100
  69   2.0000      -0.417027       -11.3479
  70   2.0000      -0.407288       -11.0829
  71   2.0000      -0.394781       -10.7425
  72   2.0000      -0.387660       -10.5488
  73   2.0000      -0.383891       -10.4462
  74   2.0000      -0.380944       -10.3660
  75   2.0000      -0.364573        -9.9205
  76   2.0000      -0.363182        -9.8827
  77   2.0000      -0.355238        -9.6665
  78   2.0000      -0.351561        -9.5665
  79   2.0000      -0.351386        -9.5617
  80   2.0000      -0.345280        -9.3956
  81   2.0000      -0.344201        -9.3662
  82   2.0000      -0.340987        -9.2787
  83   2.0000      -0.336060        -9.1447
  84   2.0000      -0.334678        -9.1070
  85   2.0000      -0.314100        -8.5471
  86   2.0000      -0.309754        -8.4288
  87   2.0000      -0.302037        -8.2188
  88   2.0000      -0.298440        -8.1210
  89   2.0000      -0.285668        -7.7734
  90   2.0000      -0.277390        -7.5482
  91   2.0000      -0.270101        -7.3498
  92   2.0000      -0.265697        -7.2300
  93   2.0000      -0.258283        -7.0282
  94   2.0000      -0.256204        -6.9717
  95   2.0000      -0.238529        -6.4907
  96   2.0000      -0.219111        -5.9623
  97   2.0000      -0.204048        -5.5524
  98   2.0000      -0.201485        -5.4827
  99   2.0000      -0.188974        -5.1422
 100   2.0000      -0.182765        -4.9733
 101   0.0000      -0.037344        -1.0162
 102   0.0000      -0.028500        -0.7755
 103   0.0000      -0.011059        -0.3009
 104   0.0000       0.005649         0.1537
 105   0.0000       0.022023         0.5993

MULLIKEN ATOMIC CHARGES
-----------------------
   0 C :   -0.289079
   1 C :   -0.017573
   2 O :   -0.340840
   3 P :    0.611082
   4 S :   -0.309223
   5 O :   -0.381752
   6 C :   -0.006153
   7 C :   -0.282407
   8 S :   -0.108381
   9 C :   -0.334155
  10 S :   -0.115442
  11 P :    0.620687
  12 S :   -0.314017
  13 O :   -0.383887
  14 C :   -0.020872
  15 C :   -0.307795
  16 O :   -0.370483
  17 C :   -0.028010
  18 C :   -0.314271
  19 H :    0.120816
  20 H :    0.109998
  21 H :    0.120582
  22 H :    0.110366
  23 H :    0.119649
  24 H :    0.100845
  25 H :    0.094700
  26 H :    0.111077
  27 H :    0.116149
  28 H :    0.121942
  29 H :    0.200648
  30 H :    0.179593
  31 H :    0.101124
  32 H :    0.131563
  33 H :    0.124705
  34 H :    0.113110
  35 H :    0.110675
  36 H :    0.114222
  37 H :    0.123734
  38 H :    0.129388
  39 H :    0.125586
  40 H :    0.112097
Sum of atomic charges:    0.0000000

LOEWDIN ATOMIC CHARGES
----------------------
   0 C :   -0.360017
   1 C :   -0.109734
   2 O :   -0.219540
   3 P :    0.573077
   4 S :   -0.290221
   5 O :   -0.252715
   6 C :   -0.124539
   7 C :   -0.350399
   8 S :    0.063745
   9 C :   -0.477719
  10 S :    0.079465
  11 P :    0.563707
  12 S :   -0.310266
  13 O :   -0.248994
  14 C :   -0.129016
  15 C :   -0.364670
  16 O :   -0.243080
  17 C :   -0.116699
  18 C :   -0.367818
  19 H :    0.124946
  20 H :    0.129582
  21 H :    0.129498
  22 H :    0.106255
  23 H :    0.124111
  24 H :    0.106785
  25 H :    0.103779
  26 H :    0.130364
  27 H :    0.125428
  28 H :    0.129386
  29 H :    0.123625
  30 H :    0.136377
  31 H :    0.115745
  32 H :    0.109683
  33 H :    0.124580
  34 H :    0.119554
  35 H :    0.130366
  36 H :    0.123929
  37 H :    0.109032
  38 H :    0.124140
  39 H :    0.127156
  40 H :    0.131114

  Mayer bond orders larger than 0.100000
B(  0-C ,  1-C ) :   1.1629 B(  0-C , 19-H ) :   0.9403 B(  0-C , 20-H ) :   0.9397
B(  0-C , 21-H ) :   0.9467 B(  1-C ,  2-O ) :   0.8886 B(  1-C , 22-H ) :   0.9165
B(  1-C , 23-H ) :   0.9326 B(  2-O ,  3-P ) :   1.1646 B(  3-P ,  4-S ) :   1.6241
B(  3-P ,  5-O ) :   1.0691 B(  3-P ,  8-S ) :   0.9470 B(  4-S ,  8-S ) :   0.1159
B(  4-S , 29-H ) :   0.1173 B(  5-O ,  6-C ) :   0.9111 B(  6-C ,  7-C ) :   1.1604
B(  6-C , 24-H ) :   0.9104 B(  6-C , 25-H ) :   0.9216 B(  7-C , 26-H ) :   0.9423
B(  7-C , 27-H ) :   0.9512 B(  7-C , 28-H ) :   0.9512 B(  8-S ,  9-C ) :   1.0035
B(  9-C , 10-S ) :   1.0021 B(  9-C , 29-H ) :   0.8430 B(  9-C , 30-H ) :   0.9128
B( 10-S , 11-P ) :   0.9596 B( 10-S , 12-S ) :   0.1066 B( 11-P , 12-S ) :   1.6604
B( 11-P , 13-O ) :   1.0739 B( 11-P , 16-O ) :   1.1112 B( 13-O , 14-C ) :   0.9013
B( 14-C , 15-C ) :   1.1560 B( 14-C , 31-H ) :   0.9349 B( 14-C , 32-H ) :   0.9018
B( 15-C , 33-H ) :   0.9381 B( 15-C , 34-H ) :   0.9405 B( 15-C , 35-H ) :   0.9399
B( 16-O , 17-C ) :   0.9072 B( 17-C , 18-C ) :   1.1635 B( 17-C , 36-H ) :   0.9343
B( 17-C , 37-H ) :   0.9200 B( 18-C , 38-H ) :   0.9350 B( 18-C , 39-H ) :   0.9401
B( 18-C , 40-H ) :   0.9357

Dispersion correction           -0.065917873
FINAL SINGLE POINT ENERGY     -2929.515154823494

DIPOLE MOMENT
-------------

Method             : SCF
Type of density    : Electron Density
Multiplicity       :   1
Irrep              :   0
Energy             : -2929.6346242409340448 Eh
Relativity type    :
Basis              : AO
                                X                 Y                 Z
Electronic contribution:     -2.030979389      -4.415190285      -4.836547953
Nuclear contribution   :      1.986545320       3.491852059       5.227908460
                        -----------------------------------------
Total Dipole Moment    :     -0.044434069      -0.923338226       0.391360507
                        -----------------------------------------
Magnitude (a.u.)       :      1.003838091
Magnitude (Debye)      :      2.551553652

Rotational constants in cm-1:             0.013991             0.004651             0.004556
Rotational constants in MHz :           419.428738           139.421622           136.595573

                             ****ORCA TERMINATED NORMALLY****
TOTAL RUN TIME: 0 days 0 hours 0 minutes 21 seconds 59 msec
