                         Program Version 6.0.1  -  RELEASE   -
|  1> ! r2scan-3c def2/J RI DEFGRID2 scfconv6 printgap
|  2> %output
|  3>     printlevel normal
|  4> end
|  5> * xyz 0 1
|  6> C 2.9461142554 -4.5081043368 -1.2832917529
|  7> C 3.7814848936 -3.2866296945 -1.6322653576
|  8> O 3.4870243443 -2.1953803658 -0.7383808477
|  9> C 2.4784532258 -1.3992118373 -1.0321303024
| 10> O 1.7908563008 -1.4909527951 -2.0238502149
| 11> C 2.3047911807 -0.3285882951 0.0303739455
| 12> C 0.8969546192 0.2435498338 -0.0240648982
| 13> H 0.6435817643 0.4865919616 -1.0642845744
| 14> C 0.7057181205 1.5007893089 0.8014388745
| 15> O -0.2551998109 1.6596684531 1.5263606736
| 16> O 1.6682183591 2.3635922871 0.6185617048
| 17> C 1.5483204365 3.6624179571 1.2403780727
| 18> C 0.7565832935 4.6041182956 0.3486546998
| 19> S -0.3201799107 -0.9896645152 0.551541551
| 20> P -2.0764193159 0.1670394205 0.2467941463
| 21> S -1.9932266676 1.6388053635 -1.040472203
| 22> O -3.1014337265 -0.9872973502 -0.2131015016
| 23> C -2.9787812586 -1.6201905155 -1.4880660182
| 24> O -2.7401084991 0.5472204356 1.6263409751
| 25> C -2.9144696463 -0.4063798652 2.6923406071
| 26> H 3.1150443948 -4.794287204 -0.2490288412
| 27> H 1.8897566873 -4.2884265894 -1.4205833983
| 28> H 3.2232066141 -5.331127154 -1.9336330294
| 29> H 3.5839660081 -2.9618672569 -2.6577018858
| 30> H 4.8452690575 -3.4769075818 -1.4903749159
| 31> H 3.0214355551 0.4712871248 -0.1694344751
| 32> H 2.5234242875 -0.7612721496 1.0063312758
| 33> H 1.0595160818 3.5409104854 2.2104658847
| 34> H 2.5774897507 3.9980760669 1.3653397056
| 35> H 0.6932562695 5.5793269343 0.8194976553
| 36> H 1.2394925063 4.7014847082 -0.619593937
| 37> H -0.2506935469 4.2194573511 0.1956914192
| 38> H -2.9450387736 -0.867818679 -2.277976383
| 39> H -3.8628676778 -2.243490128 -1.592832702
| 40> H -2.0732460941 -2.2271283876 -1.5204888275
| 41> H -1.9490248385 -0.8264805174 2.9744361588
| 42> H -3.5917462039 -1.1974418158 2.3751464286
| 43> H -3.3386941708 0.1657417276 3.5132148197
| 44> *
| 45>
| 46>                          ****END OF INPUT****

CARTESIAN COORDINATES (ANGSTROEM)
---------------------------------
  C      2.946114   -4.508104   -1.283292
  C      3.781485   -3.286630   -1.632265
  O      3.487024   -2.195380   -0.738381
  C      2.478453   -1.399212   -1.032130
  O      1.790856   -1.490953   -2.023850
  C      2.304791   -0.328588    0.030374
  C      0.896955    0.243550   -0.024065
  H      0.643582    0.486592   -1.064285
  C      0.705718    1.500789    0.801439
  O     -0.255200    1.659668    1.526361
  O      1.668218    2.363592    0.618562
  C      1.548320    3.662418    1.240378
  C      0.756583    4.604118    0.348655
  S     -0.320180   -0.989665    0.551542
  P     -2.076419    0.167039    0.246794
  S     -1.993227    1.638805   -1.040472
  O     -3.101434   -0.987297   -0.213102
  C     -2.978781   -1.620191   -1.488066
  O     -2.740108    0.547220    1.626341
  C     -2.914470   -0.406380    2.692341
  H      3.115044   -4.794287   -0.249029
  H      1.889757   -4.288427   -1.420583
  H      3.223207   -5.331127   -1.933633
  H      3.583966   -2.961867   -2.657702
  H      4.845269   -3.476908   -1.490375
  H      3.021436    0.471287   -0.169434
  H      2.523424   -0.761272    1.006331
  H      1.059516    3.540910    2.210466
  H      2.577490    3.998076    1.365340
  H      0.693256    5.579327    0.819498
  H      1.239493    4.701485   -0.619594
  H     -0.250694    4.219457    0.195691
  H     -2.945039   -0.867819   -2.277976
  H     -3.862868   -2.243490   -1.592833
  H     -2.073246   -2.227128   -1.520489
  H     -1.949025   -0.826481    2.974436
  H     -3.591746   -1.197442    2.375146
  H     -3.338694    0.165742    3.513215

 Total Charge           Charge          ....    0
 Multiplicity           Mult            ....    1
 Number of Electrons    NEL             ....  174
 Basis Dimension        Dim             ....  510

ORBITAL ENERGIES
----------------

  NO   OCC          E(Eh)            E(eV)
   0   2.0000     -88.568130     -2410.0613
   1   2.0000     -88.505919     -2408.3685
   2   2.0000     -76.904215     -2092.6701
   3   2.0000     -19.012698      -517.3618
   4   2.0000     -19.009077      -517.2633
   5   2.0000     -18.980340      -516.4813
   6   2.0000     -18.976128      -516.3667
   7   2.0000     -18.940934      -515.4090
   8   2.0000     -18.938596      -515.3454
   9   2.0000     -10.166505      -276.6447
  10   2.0000     -10.165896      -276.6281
  11   2.0000     -10.099999      -274.8349
  12   2.0000     -10.098833      -274.8032
  13   2.0000     -10.092131      -274.6208
  14   2.0000     -10.087755      -274.5018
  15   2.0000     -10.077530      -274.2235
  16   2.0000     -10.067206      -273.9426
  17   2.0000     -10.035151      -273.0704
  18   2.0000     -10.027511      -272.8624
  19   2.0000      -7.862464      -213.9485
  20   2.0000      -7.800887      -212.2729
  21   2.0000      -6.582016      -179.1058
  22   2.0000      -5.809295      -158.0789
  23   2.0000      -5.806477      -158.0023
  24   2.0000      -5.799473      -157.8117
  25   2.0000      -5.748817      -156.4333
  26   2.0000      -5.741280      -156.2282
  27   2.0000      -5.740451      -156.2056
  28   2.0000      -4.727706      -128.6474
  29   2.0000      -4.727207      -128.6339
  30   2.0000      -4.725480      -128.5869
  31   2.0000      -1.090388       -29.6710
  32   2.0000      -1.085743       -29.5446
  33   2.0000      -1.037328       -28.2271
  34   2.0000      -0.994963       -27.0743
  35   2.0000      -0.990834       -26.9620
  36   2.0000      -0.990460       -26.9518
  37   2.0000      -0.810304       -22.0495
  38   2.0000      -0.758238       -20.6327
  39   2.0000      -0.747720       -20.3465
  40   2.0000      -0.725745       -19.7485
  41   2.0000      -0.695384       -18.9224
  42   2.0000      -0.663954       -18.0671
  43   2.0000      -0.658619       -17.9219
  44   2.0000      -0.645429       -17.5630
  45   2.0000      -0.632382       -17.2080
  46   2.0000      -0.596650       -16.2357
  47   2.0000      -0.535881       -14.5821
  48   2.0000      -0.532877       -14.5003
  49   2.0000      -0.523293       -14.2395
  50   2.0000      -0.502462       -13.6727
  51   2.0000      -0.485399       -13.2084
  52   2.0000      -0.481637       -13.1060
  53   2.0000      -0.471216       -12.8224
  54   2.0000      -0.460719       -12.5368
  55   2.0000      -0.453595       -12.3429
  56   2.0000      -0.447107       -12.1664
  57   2.0000      -0.438845       -11.9416
  58   2.0000      -0.434320       -11.8185
  59   2.0000      -0.424036       -11.5386
  60   2.0000      -0.420482       -11.4419
  61   2.0000      -0.417339       -11.3564
  62   2.0000      -0.408168       -11.1068
  63   2.0000      -0.403819       -10.9885
  64   2.0000      -0.392845       -10.6899
  65   2.0000      -0.385835       -10.4991
  66   2.0000      -0.378390       -10.2965
  67   2.0000      -0.369346       -10.0504
  68   2.0000      -0.361824        -9.8457
  69   2.0000      -0.352509        -9.5922
  70   2.0000      -0.348278        -9.4771
  71   2.0000      -0.345768        -9.4088
  72   2.0000      -0.340580        -9.2677
  73   2.0000      -0.326395        -8.8817
  74   2.0000      -0.316764        -8.6196
  75   2.0000      -0.316380        -8.6091
  76   2.0000      -0.308256        -8.3881
  77   2.0000      -0.302858        -8.2412
  78   2.0000      -0.284905        -7.7527
  79   2.0000      -0.283206        -7.7064
  80   2.0000      -0.276987        -7.5372
  81   2.0000      -0.265012        -7.2113
  82   2.0000      -0.251877        -6.8539
  83   2.0000      -0.248028        -6.7492
  84   2.0000      -0.228143        -6.2081
  85   2.0000      -0.208072        -5.6619
  86   2.0000      -0.200653        -5.4600
  87   0.0000      -0.041908        -1.1404
  88   0.0000      -0.030318        -0.8250
  89   0.0000      -0.016595        -0.4516
  90   0.0000       0.010249         0.2789
  91   0.0000       0.028191         0.7671

MULLIKEN ATOMIC CHARGES
-----------------------
   0 C :   -0.465092
   1 C :   -0.139477
   2 O :   -0.171974
   3 C :    0.382482
   4 O :   -0.417057
   5 C :   -0.434078
   6 C :   -0.039891
   7 H :    0.261277
   8 C :    0.365830
   9 O :   -0.402441
  10 O :   -0.172100
  11 C :   -0.134266
  12 C :   -0.468080
  13 S :   -0.218240
  14 P :    0.817236
  15 S :   -0.469338
  16 O :   -0.364102
  17 C :   -0.295992
  18 O :   -0.302496
  19 C :   -0.298412
  20 H :    0.153614
  21 H :    0.173282
  22 H :    0.149228
  23 H :    0.169300
  24 H :    0.150439
  25 H :    0.204020
  26 H :    0.190801
  27 H :    0.169370
  28 H :    0.148620
  29 H :    0.147322
  30 H :    0.152656
  31 H :    0.190819
  32 H :    0.173800
  33 H :    0.146757
  34 H :    0.158149
  35 H :    0.165931
  36 H :    0.166979
  37 H :    0.155126
Sum of atomic charges:    0.0000000

LOEWDIN ATOMIC CHARGES
----------------------
   0 C :   -0.387632
   1 C :    0.030600
   2 O :   -0.584109
   3 C :    0.354533
   4 O :   -0.433254
   5 C :   -0.202115
   6 C :   -0.197863
   7 H :    0.223619
   8 C :    0.347801
   9 O :   -0.453285
  10 O :   -0.580853
  11 C :    0.035393
  12 C :   -0.387329
  13 S :    0.206545
  14 P :    0.409817
  15 S :   -0.087602
  16 O :   -0.693666
  17 C :   -0.064547
  18 O :   -0.638931
  19 C :   -0.050893
  20 H :    0.158020
  21 H :    0.166246
  22 H :    0.160368
  23 H :    0.188707
  24 H :    0.179045
  25 H :    0.205316
  26 H :    0.191234
  27 H :    0.189886
  28 H :    0.178301
  29 H :    0.159618
  30 H :    0.158330
  31 H :    0.174290
  32 H :    0.176102
  33 H :    0.174253
  34 H :    0.169169
  35 H :    0.172701
  36 H :    0.171865
  37 H :    0.180319

  Mayer bond orders larger than 0.100000
B(  0-C ,  1-C ) :   0.9413 B(  0-C , 20-H ) :   0.9732 B(  0-C , 21-H ) :   0.9696
B(  0-C , 22-H ) :   0.9642 B(  1-C ,  2-O ) :   0.8044 B(  1-C , 23-H ) :   0.9662
B(  1-C , 24-H ) :   0.9611 B(  2-O ,  3-C ) :   1.0979 B(  3-C ,  4-O ) :   1.8386
B(  3-C ,  5-C ) :   0.9525 B(  5-C ,  6-C ) :   0.8916 B(  5-C , 25-H ) :   0.9219
B(  5-C , 26-H ) :   0.9697 B(  6-C ,  7-H ) :   0.9079 B(  6-C ,  8-C ) :   0.8891
B(  6-C , 13-S ) :   0.8869 B(  8-C ,  9-O ) :   1.8360 B(  8-C , 10-O ) :   1.1426
B( 10-O , 11-C ) :   0.7907 B( 11-C , 12-C ) :   0.9459 B( 11-C , 27-H ) :   0.9666
B( 11-C , 28-H ) :   0.9613 B( 12-C , 29-H ) :   0.9646 B( 12-C , 30-H ) :   0.9722
B( 12-C , 31-H ) :   0.9599 B( 13-S , 14-P ) :   0.9779 B( 14-P , 15-S ) :   1.7699
B( 14-P , 16-O ) :   1.0072 B( 14-P , 18-O ) :   1.1932 B( 16-O , 17-C ) :   0.8410
B( 17-C , 32-H ) :   0.9585 B( 17-C , 33-H ) :   0.9692 B( 17-C , 34-H ) :   0.9543
B( 18-O , 19-C ) :   0.7963 B( 19-C , 35-H ) :   0.9589 B( 19-C , 36-H ) :   0.9633
B( 19-C , 37-H ) :   0.9654

Dispersion correction           -0.016648471
FINAL SINGLE POINT ENERGY     -1981.449081587334

DIPOLE MOMENT
-------------

Method             : SCF
Type of density    : Electron Density
Multiplicity       :   1
Irrep              :   0
Energy             : -1981.4699558598495059 Eh
Relativity type    :
Basis              : AO
                                X                 Y                 Z
Electronic contribution:    -10.133214272       4.730158377       1.429997975
Nuclear contribution   :     11.695697538      -5.623508348      -0.697251507
                        -----------------------------------------
Total Dipole Moment    :      1.562483266      -0.893349971       0.732746468
                        -----------------------------------------
Magnitude (a.u.)       :      1.943282150
Magnitude (Debye)      :      4.939430682

Rotational constants in cm-1:             0.011194             0.007018             0.005160
Rotational constants in MHz :           335.574458           210.408477           154.688903

                             ****ORCA TERMINATED NORMALLY****
TOTAL RUN TIME: 0 days 0 hours 1 minutes 10 seconds 647 msec
