                         Program Version 6.0.1  -  RELEASE   -
|  1> ! r2scan-3c def2/J RI DEFGRID2 scfconv6 printgap
|  2> %output
|  3>     printlevel normal
|  4> end
|  5> %cpcm
|  6>     smd true
|  7>     smdsolvent "water"
|  8> end
|  9> * xyz 0 1
| 10> C 2.9461142554 -4.5081043368 -1.2832917529
| 11> C 3.7814848936 -3.2866296945 -1.6322653576
| 12> O 3.4870243443 -2.1953803658 -0.7383808477
| 13> C 2.4784532258 -1.3992118373 -1.0321303024
| 14> O 1.7908563008 -1.4909527951 -2.0238502149
| 15> C 2.3047911807 -0.3285882951 0.0303739455
| 16> C 0.8969546192 0.2435498338 -0.0240648982
| 17> H 0.6435817643 0.4865919616 -1.0642845744
| 18> C 0.7057181205 1.5007893089 0.8014388745
| 19> O -0.2551998109 1.6596684531 1.5263606736
| 20> O 1.6682183591 2.3635922871 0.6185617048
| 21> C 1.5483204365 3.6624179571 1.2403780727
| 22> C 0.7565832935 4.6041182956 0.3486546998
| 23> S -0.3201799107 -0.9896645152 0.551541551
| 24> P -2.0764193159 0.1670394205 0.2467941463
| 25> S -1.9932266676 1.6388053635 -1.040472203
| 26> O -3.1014337265 -0.9872973502 -0.2131015016
| 27> C -2.9787812586 -1.6201905155 -1.4880660182
| 28> O -2.7401084991 0.5472204356 1.6263409751
| 29> C -2.9144696463 -0.4063798652 2.6923406071
| 30> H 3.1150443948 -4.794287204 -0.2490288412
| 31> H 1.8897566873 -4.2884265894 -1.4205833983
| 32> H 3.2232066141 -5.331127154 -1.9336330294
| 33> H 3.5839660081 -2.9618672569 -2.6577018858
| 34> H 4.8452690575 -3.4769075818 -1.4903749159
| 35> H 3.0214355551 0.4712871248 -0.1694344751
| 36> H 2.5234242875 -0.7612721496 1.0063312758
| 37> H 1.0595160818 3.5409104854 2.2104658847
| 38> H 2.5774897507 3.9980760669 1.3653397056
| 39> H 0.6932562695 5.5793269343 0.8194976553
| 40> H 1.2394925063 4.7014847082 -0.619593937
| 41> H -0.2506935469 4.2194573511 0.1956914192
| 42> H -2.9450387736 -0.867818679 -2.277976383
| 43> H -3.8628676778 -2.243490128 -1.592832702
| 44> H -2.0732460941 -2.2271283876 -1.5204888275
| 45> H -1.9490248385 -0.8264805174 2.9744361588
| 46> H -3.5917462039 -1.1974418158 2.3751464286
| 47> H -3.3386941708 0.1657417276 3.5132148197
| 48> *
| 49>
| 50>                          ****END OF INPUT****

CARTESIAN COORDINATES (ANGSTROEM)
---------------------------------
  C      2.946114   -4.508104   -1.283292
  C      3.781485   -3.286630   -1.632265
  O      3.487024   -2.195380   -0.738381
  C      2.478453   -1.399212   -1.032130
  O      1.790856   -1.490953   -2.023850
  C      2.304791   -0.328588    0.030374
  C      0.896955    0.243550   -0.024065
  H      0.643582    0.486592   -1.064285
  C      0.705718    1.500789    0.801439
  O     -0.255200    1.659668    1.526361
  O      1.668218    2.363592    0.618562
  C      1.548320    3.662418    1.240378
  C      0.756583    4.604118    0.348655
  S     -0.320180   -0.989665    0.551542
  P     -2.076419    0.167039    0.246794
  S     -1.993227    1.638805   -1.040472
  O     -3.101434   -0.987297   -0.213102
  C     -2.978781   -1.620191   -1.488066
  O     -2.740108    0.547220    1.626341
  C     -2.914470   -0.406380    2.692341
  H      3.115044   -4.794287   -0.249029
  H      1.889757   -4.288427   -1.420583
  H      3.223207   -5.331127   -1.933633
  H      3.583966   -2.961867   -2.657702
  H      4.845269   -3.476908   -1.490375
  H      3.021436    0.471287   -0.169434
  H      2.523424   -0.761272    1.006331
  H      1.059516    3.540910    2.210466
  H      2.577490    3.998076    1.365340
  H      0.693256    5.579327    0.819498
  H      1.239493    4.701485   -0.619594
  H     -0.250694    4.219457    0.195691
  H     -2.945039   -0.867819   -2.277976
  H     -3.862868   -2.243490   -1.592833
  H     -2.073246   -2.227128   -1.520489
  H     -1.949025   -0.826481    2.974436
  H     -3.591746   -1.197442    2.375146
  H     -3.338694    0.165742    3.513215

 Total Charge           Charge          ....    0
 Multiplicity           Mult            ....    1
 Number of Electrons    NEL             ....  174
 Basis Dimension        Dim             ....  510

ORBITAL ENERGIES
----------------

  NO   OCC          E(Eh)            E(eV)
   0   2.0000     -88.577934     -2410.3281
   1   2.0000     -88.525114     -2408.8908
   2   2.0000     -76.919456     -2093.0848
   3   2.0000     -19.015264      -517.4316
   4   2.0000     -19.008733      -517.2539
   5   2.0000     -18.995118      -516.8834
   6   2.0000     -18.988526      -516.7041
   7   2.0000     -18.951591      -515.6990
   8   2.0000     -18.950390      -515.6663
   9   2.0000     -10.175950      -276.9017
  10   2.0000     -10.172216      -276.8001
  11   2.0000     -10.096718      -274.7457
  12   2.0000     -10.089090      -274.5381
  13   2.0000     -10.086267      -274.4613
  14   2.0000     -10.084526      -274.4139
  15   2.0000     -10.078476      -274.2493
  16   2.0000     -10.060626      -273.7636
  17   2.0000     -10.020115      -272.6612
  18   2.0000     -10.019554      -272.6459
  19   2.0000      -7.872202      -214.2135
  20   2.0000      -7.820404      -212.8040
  21   2.0000      -6.597403      -179.5245
  22   2.0000      -5.819031      -158.3439
  23   2.0000      -5.816210      -158.2671
  24   2.0000      -5.809228      -158.0771
  25   2.0000      -5.768203      -156.9608
  26   2.0000      -5.760855      -156.7608
  27   2.0000      -5.759975      -156.7369
  28   2.0000      -4.743081      -129.0658
  29   2.0000      -4.742511      -129.0503
  30   2.0000      -4.740971      -129.0084
  31   2.0000      -1.094902       -29.7938
  32   2.0000      -1.087088       -29.5812
  33   2.0000      -1.050963       -28.5982
  34   2.0000      -1.007351       -27.4114
  35   2.0000      -1.001889       -27.2628
  36   2.0000      -0.997812       -27.1518
  37   2.0000      -0.812718       -22.1152
  38   2.0000      -0.751018       -20.4363
  39   2.0000      -0.745789       -20.2939
  40   2.0000      -0.728557       -19.8251
  41   2.0000      -0.696138       -18.9429
  42   2.0000      -0.666887       -18.1469
  43   2.0000      -0.660120       -17.9628
  44   2.0000      -0.656189       -17.8558
  45   2.0000      -0.625428       -17.0187
  46   2.0000      -0.594782       -16.1849
  47   2.0000      -0.538634       -14.6570
  48   2.0000      -0.527187       -14.3455
  49   2.0000      -0.523583       -14.2474
  50   2.0000      -0.503798       -13.7090
  51   2.0000      -0.489543       -13.3211
  52   2.0000      -0.487097       -13.2546
  53   2.0000      -0.475100       -12.9281
  54   2.0000      -0.463568       -12.6143
  55   2.0000      -0.457795       -12.4572
  56   2.0000      -0.451445       -12.2844
  57   2.0000      -0.445725       -12.1288
  58   2.0000      -0.437225       -11.8975
  59   2.0000      -0.427497       -11.6328
  60   2.0000      -0.422452       -11.4955
  61   2.0000      -0.415911       -11.3175
  62   2.0000      -0.409045       -11.1307
  63   2.0000      -0.399561       -10.8726
  64   2.0000      -0.394743       -10.7415
  65   2.0000      -0.382945       -10.4205
  66   2.0000      -0.373428       -10.1615
  67   2.0000      -0.367475        -9.9995
  68   2.0000      -0.358030        -9.7425
  69   2.0000      -0.351986        -9.5780
  70   2.0000      -0.349731        -9.5167
  71   2.0000      -0.342176        -9.3111
  72   2.0000      -0.340044        -9.2531
  73   2.0000      -0.330820        -9.0021
  74   2.0000      -0.318783        -8.6745
  75   2.0000      -0.312627        -8.5070
  76   2.0000      -0.309729        -8.4281
  77   2.0000      -0.307731        -8.3738
  78   2.0000      -0.290124        -7.8947
  79   2.0000      -0.286363        -7.7923
  80   2.0000      -0.284134        -7.7317
  81   2.0000      -0.276019        -7.5108
  82   2.0000      -0.263953        -7.1825
  83   2.0000      -0.258959        -7.0466
  84   2.0000      -0.240384        -6.5412
  85   2.0000      -0.227734        -6.1970
  86   2.0000      -0.220370        -5.9966
  87   0.0000      -0.051199        -1.3932
  88   0.0000      -0.038766        -1.0549
  89   0.0000      -0.021936        -0.5969
  90   0.0000       0.001691         0.0460
  91   0.0000       0.015940         0.4337

MULLIKEN ATOMIC CHARGES
-----------------------
   0 C :   -0.494709
   1 C :   -0.142935
   2 O :   -0.183309
   3 C :    0.414646
   4 O :   -0.488389
   5 C :   -0.443574
   6 C :   -0.030542
   7 H :    0.261307
   8 C :    0.379898
   9 O :   -0.457920
  10 O :   -0.175793
  11 C :   -0.131977
  12 C :   -0.503267
  13 S :   -0.213863
  14 P :    0.817558
  15 S :   -0.514874
  16 O :   -0.392230
  17 C :   -0.308989
  18 O :   -0.352264
  19 C :   -0.302135
  20 H :    0.167594
  21 H :    0.169818
  22 H :    0.172097
  23 H :    0.174871
  24 H :    0.176771
  25 H :    0.236481
  26 H :    0.221443
  27 H :    0.178382
  28 H :    0.179632
  29 H :    0.173656
  30 H :    0.170729
  31 H :    0.171245
  32 H :    0.175704
  33 H :    0.177492
  34 H :    0.171488
  35 H :    0.178730
  36 H :    0.185068
  37 H :    0.182159
Sum of atomic charges:   -0.0000000

LOEWDIN ATOMIC CHARGES
----------------------
   0 C :   -0.390980
   1 C :    0.036164
   2 O :   -0.582235
   3 C :    0.365808
   4 O :   -0.485871
   5 C :   -0.193337
   6 C :   -0.193556
   7 H :    0.223540
   8 C :    0.356678
   9 O :   -0.496291
  10 O :   -0.573064
  11 C :    0.042946
  12 C :   -0.391678
  13 S :    0.214592
  14 P :    0.404992
  15 S :   -0.125718
  16 O :   -0.706897
  17 C :   -0.061078
  18 O :   -0.670687
  19 C :   -0.043050
  20 H :    0.162569
  21 H :    0.163133
  22 H :    0.168761
  23 H :    0.190484
  24 H :    0.190529
  25 H :    0.219420
  26 H :    0.203891
  27 H :    0.192616
  28 H :    0.192068
  29 H :    0.169378
  30 H :    0.163178
  31 H :    0.164084
  32 H :    0.176041
  33 H :    0.187398
  34 H :    0.174289
  35 H :    0.179235
  36 H :    0.180969
  37 H :    0.191677

  Mayer bond orders larger than 0.100000
B(  0-C ,  1-C ) :   0.9357 B(  0-C , 20-H ) :   0.9697 B(  0-C , 21-H ) :   0.9688
B(  0-C , 22-H ) :   0.9591 B(  1-C ,  2-O ) :   0.7868 B(  1-C , 23-H ) :   0.9630
B(  1-C , 24-H ) :   0.9514 B(  2-O ,  3-C ) :   1.1202 B(  3-C ,  4-O ) :   1.7876
B(  3-C ,  5-C ) :   0.9462 B(  5-C ,  6-C ) :   0.8968 B(  5-C , 25-H ) :   0.9096
B(  5-C , 26-H ) :   0.9614 B(  6-C ,  7-H ) :   0.8983 B(  6-C ,  8-C ) :   0.9032
B(  6-C , 13-S ) :   0.8764 B(  8-C ,  9-O ) :   1.7967 B(  8-C , 10-O ) :   1.1651
B( 10-O , 11-C ) :   0.7742 B( 11-C , 12-C ) :   0.9307 B( 11-C , 27-H ) :   0.9640
B( 11-C , 28-H ) :   0.9507 B( 12-C , 29-H ) :   0.9588 B( 12-C , 30-H ) :   0.9699
B( 12-C , 31-H ) :   0.9660 B( 13-S , 14-P ) :   0.9984 B( 14-P , 15-S ) :   1.7697
B( 14-P , 16-O ) :   1.0049 B( 14-P , 18-O ) :   1.1824 B( 16-O , 17-C ) :   0.8320
B( 17-C , 32-H ) :   0.9553 B( 17-C , 33-H ) :   0.9584 B( 17-C , 34-H ) :   0.9495
B( 18-O , 19-C ) :   0.7894 B( 19-C , 35-H ) :   0.9489 B( 19-C , 36-H ) :   0.9535
B( 19-C , 37-H ) :   0.9544

Dispersion correction           -0.016648471
FINAL SINGLE POINT ENERGY     -1981.463783568705

DIPOLE MOMENT
-------------

Method             : SCF
Type of density    : Electron Density
Multiplicity       :   1
Irrep              :   0
Energy             : -1981.4846578412207236 Eh
Relativity type    :
Basis              : AO
                                X                 Y                 Z
Electronic contribution:     -9.270666410       4.317583533       1.748831310
Nuclear contribution   :     11.695697538      -5.623508348      -0.697251507
                        -----------------------------------------
Total Dipole Moment    :      2.425031128      -1.305924814       1.051579803
                        -----------------------------------------
Magnitude (a.u.)       :      2.948225852
Magnitude (Debye)      :      7.493794575

Rotational constants in cm-1:             0.011194             0.007018             0.005160
Rotational constants in MHz :           335.574458           210.408477           154.688903

                             ****ORCA TERMINATED NORMALLY****
TOTAL RUN TIME: 0 days 0 hours 1 minutes 40 seconds 827 msec
