                         Program Version 6.0.0  -   RELEASE  -
|  1> ! r2scan-3c def2/J RI DEFGRID2 scfconv6 printgap
|  2> %output
|  3>     printlevel normal
|  4> end
|  5> * xyz 0 1
|  6> C 5.1230483379 -1.9137993107 -1.3549199949
|  7> C 4.1250828831 -0.9141562253 -1.9024975352
|  8> O 3.8439731529 0.1309895557 -0.9401382492
|  9> P 2.6939104055 0.0778499435 0.1371507567
| 10> S 2.6417462875 1.7202892235 1.1934184945
| 11> O 3.0256960135 -1.2483834738 0.9509435688
| 12> C 2.4791246461 -1.51050566 2.2550101359
| 13> C 1.0522746828 -2.0156504223 2.1803073339
| 14> S 0.9456952397 -0.4158780434 -1.0034804798
| 15> C 0.1926952323 1.2298158022 -1.0306284367
| 16> S -0.8463866367 1.563767216 0.4194052305
| 17> P -2.4067536478 0.2466699326 -0.1251202182
| 18> S -2.852527676 0.1282189306 -2.0349841499
| 19> O -3.6142562151 0.6402025074 0.8293743451
| 20> C -4.6028707343 1.6168811621 0.461280938
| 21> C -4.0261865912 3.0164036039 0.3932227773
| 22> O -1.8783338335 -1.0835074924 0.5509948906
| 23> C -2.325043791 -2.3906497836 0.1341477192
| 24> C -3.7816450665 -2.622550845 0.4759132588
| 25> H 4.699813148 -2.4480964397 -0.5091112103
| 26> H 5.3770907315 -2.6231421325 -2.1364834394
| 27> H 6.0237478356 -1.3998449258 -1.030486645
| 28> H 3.1850143902 -1.4012814098 -2.1777222078
| 29> H 4.5302558421 -0.3792458595 -2.7633328216
| 30> H 3.1465035673 -2.2655400891 2.6737321063
| 31> H 2.5394275056 -0.5931126612 2.8496091071
| 32> H 0.73621158 -2.3403401471 3.1665352279
| 33> H 0.3823588272 -1.2267552251 1.8424340634
| 34> H 0.9893370931 -2.8508374377 1.4870100882
| 35> H -0.4225148089 1.2770013232 -1.9292592448
| 36> H 0.9709741694 1.9902533963 -1.0358751029
| 37> H -5.0286660493 1.330470124 -0.505946613
| 38> H -5.3599813513 1.5307178959 1.2417993477
| 39> H -3.3205021919 3.0895570507 -0.4335060245
| 40> H -4.8286122156 3.7297556652 0.2347402576
| 41> H -3.5055709865 3.2563700343 1.3171268629
| 42> H -2.1572335429 -2.4846623511 -0.9434286055
| 43> H -1.6684118977 -3.0743146639 0.6731913507
| 44> H -3.9532325908 -2.4360160946 1.5327431466
| 45> H -4.4102276213 -1.9500954846 -0.1067744145
| 46> H -4.0487133677 -3.6477634243 0.2395745303
| 47> *
| 48>
| 49>                          ****END OF INPUT****

CARTESIAN COORDINATES (ANGSTROEM)
---------------------------------
  C      5.123048   -1.913799   -1.354920
  C      4.125083   -0.914156   -1.902498
  O      3.843973    0.130990   -0.940138
  P      2.693910    0.077850    0.137151
  S      2.641746    1.720289    1.193418
  O      3.025696   -1.248383    0.950944
  C      2.479125   -1.510506    2.255010
  C      1.052275   -2.015650    2.180307
  S      0.945695   -0.415878   -1.003480
  C      0.192695    1.229816   -1.030628
  S     -0.846387    1.563767    0.419405
  P     -2.406754    0.246670   -0.125120
  S     -2.852528    0.128219   -2.034984
  O     -3.614256    0.640203    0.829374
  C     -4.602871    1.616881    0.461281
  C     -4.026187    3.016404    0.393223
  O     -1.878334   -1.083507    0.550995
  C     -2.325044   -2.390650    0.134148
  C     -3.781645   -2.622551    0.475913
  H      4.699813   -2.448096   -0.509111
  H      5.377091   -2.623142   -2.136483
  H      6.023748   -1.399845   -1.030487
  H      3.185014   -1.401281   -2.177722
  H      4.530256   -0.379246   -2.763333
  H      3.146504   -2.265540    2.673732
  H      2.539428   -0.593113    2.849609
  H      0.736212   -2.340340    3.166535
  H      0.382359   -1.226755    1.842434
  H      0.989337   -2.850837    1.487010
  H     -0.422515    1.277001   -1.929259
  H      0.970974    1.990253   -1.035875
  H     -5.028666    1.330470   -0.505947
  H     -5.359981    1.530718    1.241799
  H     -3.320502    3.089557   -0.433506
  H     -4.828612    3.729756    0.234740
  H     -3.505571    3.256370    1.317127
  H     -2.157234   -2.484662   -0.943429
  H     -1.668412   -3.074315    0.673191
  H     -3.953233   -2.436016    1.532743
  H     -4.410228   -1.950095   -0.106774
  H     -4.048713   -3.647763    0.239575

 Total Charge           Charge          ....    0
 Multiplicity           Mult            ....    1
 Number of Electrons    NEL             ....  202
 Basis Dimension        Dim             ....  539

ORBITAL ENERGIES
----------------

  NO   OCC          E(Eh)            E(eV)
   0   2.0000     -88.573095     -2410.1964
   1   2.0000     -88.572752     -2410.1871
   2   2.0000     -88.522600     -2408.8224
   3   2.0000     -88.520454     -2408.7640
   4   2.0000     -76.914068     -2092.9382
   5   2.0000     -76.913465     -2092.9218
   6   2.0000     -18.994574      -516.8686
   7   2.0000     -18.994227      -516.8592
   8   2.0000     -18.990355      -516.7538
   9   2.0000     -18.990090      -516.7466
  10   2.0000     -10.103076      -274.9187
  11   2.0000     -10.102719      -274.9090
  12   2.0000     -10.099773      -274.8288
  13   2.0000     -10.098567      -274.7960
  14   2.0000     -10.098322      -274.7893
  15   2.0000     -10.031436      -272.9693
  16   2.0000     -10.030104      -272.9330
  17   2.0000     -10.028572      -272.8913
  18   2.0000     -10.026116      -272.8245
  19   2.0000      -7.867110      -214.0750
  20   2.0000      -7.866992      -214.0717
  21   2.0000      -7.817394      -212.7221
  22   2.0000      -7.815232      -212.6633
  23   2.0000      -6.592435      -179.3893
  24   2.0000      -6.592230      -179.3837
  25   2.0000      -5.814012      -158.2073
  26   2.0000      -5.813831      -158.2024
  27   2.0000      -5.811047      -158.1266
  28   2.0000      -5.810928      -158.1234
  29   2.0000      -5.804174      -157.9396
  30   2.0000      -5.804068      -157.9367
  31   2.0000      -5.764912      -156.8712
  32   2.0000      -5.763021      -156.8198
  33   2.0000      -5.757681      -156.6745
  34   2.0000      -5.757517      -156.6700
  35   2.0000      -5.755406      -156.6125
  36   2.0000      -5.755196      -156.6069
  37   2.0000      -4.738162      -128.9319
  38   2.0000      -4.737634      -128.9176
  39   2.0000      -4.737378      -128.9106
  40   2.0000      -4.737066      -128.9021
  41   2.0000      -4.736095      -128.8757
  42   2.0000      -4.735966      -128.8722
  43   2.0000      -1.051204       -28.6047
  44   2.0000      -1.051068       -28.6010
  45   2.0000      -1.012615       -27.5546
  46   2.0000      -1.011484       -27.5239
  47   2.0000      -0.799157       -21.7462
  48   2.0000      -0.758800       -20.6480
  49   2.0000      -0.749856       -20.4046
  50   2.0000      -0.734047       -19.9744
  51   2.0000      -0.732361       -19.9285
  52   2.0000      -0.710931       -19.3454
  53   2.0000      -0.685938       -18.6653
  54   2.0000      -0.669671       -18.2227
  55   2.0000      -0.634225       -17.2581
  56   2.0000      -0.624657       -16.9978
  57   2.0000      -0.608905       -16.5691
  58   2.0000      -0.606738       -16.5102
  59   2.0000      -0.588365       -16.0102
  60   2.0000      -0.526664       -14.3313
  61   2.0000      -0.517816       -14.0905
  62   2.0000      -0.497029       -13.5249
  63   2.0000      -0.493599       -13.4315
  64   2.0000      -0.474779       -12.9194
  65   2.0000      -0.467312       -12.7162
  66   2.0000      -0.459277       -12.4976
  67   2.0000      -0.455890       -12.4054
  68   2.0000      -0.446875       -12.1601
  69   2.0000      -0.436469       -11.8769
  70   2.0000      -0.424249       -11.5444
  71   2.0000      -0.413017       -11.2388
  72   2.0000      -0.411014       -11.1843
  73   2.0000      -0.405007       -11.0208
  74   2.0000      -0.397296       -10.8110
  75   2.0000      -0.388849       -10.5811
  76   2.0000      -0.381934       -10.3929
  77   2.0000      -0.374144       -10.1810
  78   2.0000      -0.370640       -10.0856
  79   2.0000      -0.367115        -9.9897
  80   2.0000      -0.364714        -9.9244
  81   2.0000      -0.363064        -9.8795
  82   2.0000      -0.360976        -9.8227
  83   2.0000      -0.354283        -9.6405
  84   2.0000      -0.347421        -9.4538
  85   2.0000      -0.330975        -9.0063
  86   2.0000      -0.327310        -8.9065
  87   2.0000      -0.311197        -8.4681
  88   2.0000      -0.310332        -8.4446
  89   2.0000      -0.306209        -8.3324
  90   2.0000      -0.299806        -8.1581
  91   2.0000      -0.290577        -7.9070
  92   2.0000      -0.287594        -7.8258
  93   2.0000      -0.279922        -7.6171
  94   2.0000      -0.274295        -7.4639
  95   2.0000      -0.244002        -6.6396
  96   2.0000      -0.230527        -6.2730
  97   2.0000      -0.226085        -6.1521
  98   2.0000      -0.219369        -5.9693
  99   2.0000      -0.216970        -5.9041
 100   2.0000      -0.211690        -5.7604
 101   0.0000      -0.043319        -1.1788
 102   0.0000      -0.028774        -0.7830
 103   0.0000      -0.007793        -0.2120
 104   0.0000       0.006103         0.1661
 105   0.0000       0.015284         0.4159

MULLIKEN ATOMIC CHARGES
-----------------------
   0 C :   -0.445223
   1 C :   -0.124396
   2 O :   -0.263288
   3 P :    0.639153
   4 S :   -0.427216
   5 O :   -0.276627
   6 C :   -0.172617
   7 C :   -0.446263
   8 S :   -0.163486
   9 C :   -0.254305
  10 S :   -0.081340
  11 P :    0.685528
  12 S :   -0.494509
  13 O :   -0.306402
  14 C :   -0.150819
  15 C :   -0.453215
  16 O :   -0.281941
  17 C :   -0.146246
  18 C :   -0.444221
  19 H :    0.163782
  20 H :    0.146078
  21 H :    0.157211
  22 H :    0.156769
  23 H :    0.153919
  24 H :    0.147055
  25 H :    0.176382
  26 H :    0.145715
  27 H :    0.192953
  28 H :    0.145440
  29 H :    0.219654
  30 H :    0.204799
  31 H :    0.170536
  32 H :    0.148571
  33 H :    0.177152
  34 H :    0.147960
  35 H :    0.157691
  36 H :    0.172991
  37 H :    0.150363
  38 H :    0.157223
  39 H :    0.168213
  40 H :    0.146975
Sum of atomic charges:    0.0000000

LOEWDIN ATOMIC CHARGES
----------------------
   0 C :   -0.394700
   1 C :    0.022562
   2 O :   -0.654101
   3 P :    0.388782
   4 S :   -0.087260
   5 O :   -0.673828
   6 C :    0.022372
   7 C :   -0.408567
   8 S :    0.137394
   9 C :   -0.423013
  10 S :    0.170350
  11 P :    0.376175
  12 S :   -0.140023
  13 O :   -0.660733
  14 C :    0.020122
  15 C :   -0.406395
  16 O :   -0.681665
  17 C :    0.018762
  18 C :   -0.399061
  19 H :    0.166450
  20 H :    0.158319
  21 H :    0.162246
  22 H :    0.175563
  23 H :    0.181457
  24 H :    0.178059
  25 H :    0.182612
  26 H :    0.159052
  27 H :    0.175964
  28 H :    0.157722
  29 H :    0.191935
  30 H :    0.191484
  31 H :    0.179163
  32 H :    0.179710
  33 H :    0.165835
  34 H :    0.159458
  35 H :    0.161273
  36 H :    0.180636
  37 H :    0.180128
  38 H :    0.161357
  39 H :    0.165071
  40 H :    0.159334

  Mayer bond orders larger than 0.100000
B(  0-C ,  1-C ) :   0.9421 B(  0-C , 19-H ) :   0.9642 B(  0-C , 20-H ) :   0.9656
B(  0-C , 21-H ) :   0.9706 B(  1-C ,  2-O ) :   0.7625 B(  1-C , 22-H ) :   0.9641
B(  1-C , 23-H ) :   0.9633 B(  2-O ,  3-P ) :   1.1784 B(  3-P ,  4-S ) :   1.8350
B(  3-P ,  5-O ) :   1.0461 B(  3-P ,  8-S ) :   0.9939 B(  5-O ,  6-C ) :   0.8028
B(  6-C ,  7-C ) :   0.9315 B(  6-C , 24-H ) :   0.9655 B(  6-C , 25-H ) :   0.9641
B(  7-C , 26-H ) :   0.9580 B(  7-C , 27-H ) :   0.9518 B(  7-C , 28-H ) :   0.9684
B(  8-S ,  9-C ) :   0.8878 B(  9-C , 10-S ) :   0.9248 B(  9-C , 29-H ) :   0.9083
B(  9-C , 30-H ) :   0.9102 B( 10-S , 11-P ) :   1.1038 B( 11-P , 12-S ) :   1.7307
B( 11-P , 13-O ) :   1.0616 B( 11-P , 16-O ) :   1.1452 B( 13-O , 14-C ) :   0.8143
B( 14-C , 15-C ) :   0.9231 B( 14-C , 31-H ) :   0.9667 B( 14-C , 32-H ) :   0.9582
B( 15-C , 33-H ) :   0.9618 B( 15-C , 34-H ) :   0.9586 B( 15-C , 35-H ) :   0.9682
B( 16-O , 17-C ) :   0.7880 B( 17-C , 18-C ) :   0.9231 B( 17-C , 36-H ) :   0.9648
B( 17-C , 37-H ) :   0.9609 B( 18-C , 38-H ) :   0.9720 B( 18-C , 39-H ) :   0.9600
B( 18-C , 40-H ) :   0.9619

Dispersion correction           -0.021221147
FINAL SINGLE POINT ENERGY     -2932.461962002181

DIPOLE MOMENT
-------------

Method             : SCF
Type of density    : Electron Density
Multiplicity       :   1
Irrep              :   0
Energy             : -2932.4871931383463561 Eh
Relativity type    :
Basis              : AO
                                X                 Y                 Z
Electronic contribution:      5.588274620      13.055519119      -3.334761784
Nuclear contribution   :     -5.977316554     -14.394448282       3.509758384
                        -----------------------------------------
Total Dipole Moment    :     -0.389041933      -1.338929162       0.174996600
                        -----------------------------------------
Magnitude (a.u.)       :      1.405243302
Magnitude (Debye)      :      3.571844614

Rotational constants in cm-1:             0.013221             0.004490             0.004242
Rotational constants in MHz :           396.345013           134.614610           127.167255

                             ****ORCA TERMINATED NORMALLY****
TOTAL RUN TIME: 0 days 0 hours 1 minutes 18 seconds 528 msec
