                         Program Version 6.0.0  -   RELEASE  -
|  1> ! r2scan-3c def2/J RI DEFGRID2 scfconv6 printgap
|  2> %output
|  3>     printlevel normal
|  4> end
|  5> %cpcm
|  6>     smd true
|  7>     smdsolvent "water"
|  8> end
|  9> * xyz 0 1
| 10> C 5.1230483379 -1.9137993107 -1.3549199949
| 11> C 4.1250828831 -0.9141562253 -1.9024975352
| 12> O 3.8439731529 0.1309895557 -0.9401382492
| 13> P 2.6939104055 0.0778499435 0.1371507567
| 14> S 2.6417462875 1.7202892235 1.1934184945
| 15> O 3.0256960135 -1.2483834738 0.9509435688
| 16> C 2.4791246461 -1.51050566 2.2550101359
| 17> C 1.0522746828 -2.0156504223 2.1803073339
| 18> S 0.9456952397 -0.4158780434 -1.0034804798
| 19> C 0.1926952323 1.2298158022 -1.0306284367
| 20> S -0.8463866367 1.563767216 0.4194052305
| 21> P -2.4067536478 0.2466699326 -0.1251202182
| 22> S -2.852527676 0.1282189306 -2.0349841499
| 23> O -3.6142562151 0.6402025074 0.8293743451
| 24> C -4.6028707343 1.6168811621 0.461280938
| 25> C -4.0261865912 3.0164036039 0.3932227773
| 26> O -1.8783338335 -1.0835074924 0.5509948906
| 27> C -2.325043791 -2.3906497836 0.1341477192
| 28> C -3.7816450665 -2.622550845 0.4759132588
| 29> H 4.699813148 -2.4480964397 -0.5091112103
| 30> H 5.3770907315 -2.6231421325 -2.1364834394
| 31> H 6.0237478356 -1.3998449258 -1.030486645
| 32> H 3.1850143902 -1.4012814098 -2.1777222078
| 33> H 4.5302558421 -0.3792458595 -2.7633328216
| 34> H 3.1465035673 -2.2655400891 2.6737321063
| 35> H 2.5394275056 -0.5931126612 2.8496091071
| 36> H 0.73621158 -2.3403401471 3.1665352279
| 37> H 0.3823588272 -1.2267552251 1.8424340634
| 38> H 0.9893370931 -2.8508374377 1.4870100882
| 39> H -0.4225148089 1.2770013232 -1.9292592448
| 40> H 0.9709741694 1.9902533963 -1.0358751029
| 41> H -5.0286660493 1.330470124 -0.505946613
| 42> H -5.3599813513 1.5307178959 1.2417993477
| 43> H -3.3205021919 3.0895570507 -0.4335060245
| 44> H -4.8286122156 3.7297556652 0.2347402576
| 45> H -3.5055709865 3.2563700343 1.3171268629
| 46> H -2.1572335429 -2.4846623511 -0.9434286055
| 47> H -1.6684118977 -3.0743146639 0.6731913507
| 48> H -3.9532325908 -2.4360160946 1.5327431466
| 49> H -4.4102276213 -1.9500954846 -0.1067744145
| 50> H -4.0487133677 -3.6477634243 0.2395745303
| 51> *
| 52>
| 53>                          ****END OF INPUT****

CARTESIAN COORDINATES (ANGSTROEM)
---------------------------------
  C      5.123048   -1.913799   -1.354920
  C      4.125083   -0.914156   -1.902498
  O      3.843973    0.130990   -0.940138
  P      2.693910    0.077850    0.137151
  S      2.641746    1.720289    1.193418
  O      3.025696   -1.248383    0.950944
  C      2.479125   -1.510506    2.255010
  C      1.052275   -2.015650    2.180307
  S      0.945695   -0.415878   -1.003480
  C      0.192695    1.229816   -1.030628
  S     -0.846387    1.563767    0.419405
  P     -2.406754    0.246670   -0.125120
  S     -2.852528    0.128219   -2.034984
  O     -3.614256    0.640203    0.829374
  C     -4.602871    1.616881    0.461281
  C     -4.026187    3.016404    0.393223
  O     -1.878334   -1.083507    0.550995
  C     -2.325044   -2.390650    0.134148
  C     -3.781645   -2.622551    0.475913
  H      4.699813   -2.448096   -0.509111
  H      5.377091   -2.623142   -2.136483
  H      6.023748   -1.399845   -1.030487
  H      3.185014   -1.401281   -2.177722
  H      4.530256   -0.379246   -2.763333
  H      3.146504   -2.265540    2.673732
  H      2.539428   -0.593113    2.849609
  H      0.736212   -2.340340    3.166535
  H      0.382359   -1.226755    1.842434
  H      0.989337   -2.850837    1.487010
  H     -0.422515    1.277001   -1.929259
  H      0.970974    1.990253   -1.035875
  H     -5.028666    1.330470   -0.505947
  H     -5.359981    1.530718    1.241799
  H     -3.320502    3.089557   -0.433506
  H     -4.828612    3.729756    0.234740
  H     -3.505571    3.256370    1.317127
  H     -2.157234   -2.484662   -0.943429
  H     -1.668412   -3.074315    0.673191
  H     -3.953233   -2.436016    1.532743
  H     -4.410228   -1.950095   -0.106774
  H     -4.048713   -3.647763    0.239575

 Total Charge           Charge          ....    0
 Multiplicity           Mult            ....    1
 Number of Electrons    NEL             ....  202
 Basis Dimension        Dim             ....  539

ORBITAL ENERGIES
----------------

  NO   OCC          E(Eh)            E(eV)
   0   2.0000     -88.577794     -2410.3243
   1   2.0000     -88.576463     -2410.2881
   2   2.0000     -88.531313     -2409.0595
   3   2.0000     -88.528826     -2408.9918
   4   2.0000     -76.920647     -2093.1172
   5   2.0000     -76.917982     -2093.0447
   6   2.0000     -18.996206      -516.9130
   7   2.0000     -18.996123      -516.9108
   8   2.0000     -18.994561      -516.8683
   9   2.0000     -18.992044      -516.7998
  10   2.0000     -10.103729      -274.9364
  11   2.0000     -10.092393      -274.6280
  12   2.0000     -10.090037      -274.5639
  13   2.0000     -10.089628      -274.5527
  14   2.0000     -10.089045      -274.5369
  15   2.0000     -10.018700      -272.6227
  16   2.0000     -10.018641      -272.6211
  17   2.0000     -10.018152      -272.6078
  18   2.0000     -10.016504      -272.5629
  19   2.0000      -7.871926      -214.2060
  20   2.0000      -7.870677      -214.1720
  21   2.0000      -7.826447      -212.9685
  22   2.0000      -7.823877      -212.8985
  23   2.0000      -6.599066      -179.5697
  24   2.0000      -6.596779      -179.5075
  25   2.0000      -5.818791      -158.3374
  26   2.0000      -5.817545      -158.3034
  27   2.0000      -5.815841      -158.2571
  28   2.0000      -5.814628      -158.2241
  29   2.0000      -5.809046      -158.0722
  30   2.0000      -5.807717      -158.0360
  31   2.0000      -5.774116      -157.1217
  32   2.0000      -5.771355      -157.0466
  33   2.0000      -5.766631      -156.9180
  34   2.0000      -5.766453      -156.9132
  35   2.0000      -5.764152      -156.8506
  36   2.0000      -5.764003      -156.8465
  37   2.0000      -4.744742      -129.1110
  38   2.0000      -4.743973      -129.0901
  39   2.0000      -4.742718      -129.0559
  40   2.0000      -4.742128      -129.0399
  41   2.0000      -4.741619      -129.0260
  42   2.0000      -4.740723      -129.0016
  43   2.0000      -1.053698       -28.6726
  44   2.0000      -1.052772       -28.6474
  45   2.0000      -1.013518       -27.5792
  46   2.0000      -1.013466       -27.5778
  47   2.0000      -0.801916       -21.8212
  48   2.0000      -0.755888       -20.5688
  49   2.0000      -0.744136       -20.2490
  50   2.0000      -0.725395       -19.7390
  51   2.0000      -0.723661       -19.6918
  52   2.0000      -0.710075       -19.3221
  53   2.0000      -0.689393       -18.7593
  54   2.0000      -0.675738       -18.3878
  55   2.0000      -0.632630       -17.2147
  56   2.0000      -0.621746       -16.9186
  57   2.0000      -0.602509       -16.3951
  58   2.0000      -0.599605       -16.3161
  59   2.0000      -0.587309       -15.9815
  60   2.0000      -0.523429       -14.2432
  61   2.0000      -0.513698       -13.9784
  62   2.0000      -0.493647       -13.4328
  63   2.0000      -0.489883       -13.3304
  64   2.0000      -0.474802       -12.9200
  65   2.0000      -0.463241       -12.6054
  66   2.0000      -0.454513       -12.3679
  67   2.0000      -0.452483       -12.3127
  68   2.0000      -0.440569       -11.9885
  69   2.0000      -0.433133       -11.7861
  70   2.0000      -0.420843       -11.4517
  71   2.0000      -0.407172       -11.0797
  72   2.0000      -0.405969       -11.0470
  73   2.0000      -0.404022       -10.9940
  74   2.0000      -0.396196       -10.7810
  75   2.0000      -0.387492       -10.5442
  76   2.0000      -0.379745       -10.3334
  77   2.0000      -0.370014       -10.0686
  78   2.0000      -0.365077        -9.9343
  79   2.0000      -0.362546        -9.8654
  80   2.0000      -0.356928        -9.7125
  81   2.0000      -0.354260        -9.6399
  82   2.0000      -0.351995        -9.5783
  83   2.0000      -0.347447        -9.4545
  84   2.0000      -0.342838        -9.3291
  85   2.0000      -0.329299        -8.9607
  86   2.0000      -0.323831        -8.8119
  87   2.0000      -0.306990        -8.3536
  88   2.0000      -0.305131        -8.3030
  89   2.0000      -0.301990        -8.2176
  90   2.0000      -0.297455        -8.0942
  91   2.0000      -0.289356        -7.8738
  92   2.0000      -0.286647        -7.8001
  93   2.0000      -0.279950        -7.6178
  94   2.0000      -0.276007        -7.5105
  95   2.0000      -0.248584        -6.7643
  96   2.0000      -0.238501        -6.4899
  97   2.0000      -0.234217        -6.3734
  98   2.0000      -0.228850        -6.2273
  99   2.0000      -0.223794        -6.0897
 100   2.0000      -0.220200        -5.9919
 101   0.0000      -0.048968        -1.3325
 102   0.0000      -0.035546        -0.9672
 103   0.0000      -0.010227        -0.2783
 104   0.0000       0.000696         0.0189
 105   0.0000       0.011782         0.3206

MULLIKEN ATOMIC CHARGES
-----------------------
   0 C :   -0.488762
   1 C :   -0.108289
   2 O :   -0.302478
   3 P :    0.667183
   4 S :   -0.486706
   5 O :   -0.293869
   6 C :   -0.161748
   7 C :   -0.480542
   8 S :   -0.166157
   9 C :   -0.262319
  10 S :   -0.105472
  11 P :    0.722690
  12 S :   -0.537078
  13 O :   -0.331144
  14 C :   -0.152166
  15 C :   -0.488751
  16 O :   -0.307217
  17 C :   -0.144167
  18 C :   -0.485204
  19 H :    0.168743
  20 H :    0.170689
  21 H :    0.166864
  22 H :    0.166706
  23 H :    0.177316
  24 H :    0.174973
  25 H :    0.176040
  26 H :    0.170419
  27 H :    0.172705
  28 H :    0.169324
  29 H :    0.237072
  30 H :    0.225428
  31 H :    0.177803
  32 H :    0.175673
  33 H :    0.172878
  34 H :    0.172957
  35 H :    0.169295
  36 H :    0.177155
  37 H :    0.179027
  38 H :    0.170312
  39 H :    0.168475
  40 H :    0.172339
Sum of atomic charges:    0.0000000

LOEWDIN ATOMIC CHARGES
----------------------
   0 C :   -0.397219
   1 C :    0.029847
   2 O :   -0.675365
   3 P :    0.393429
   4 S :   -0.131020
   5 O :   -0.677608
   6 C :    0.027438
   7 C :   -0.409838
   8 S :    0.141517
   9 C :   -0.417645
  10 S :    0.155367
  11 P :    0.381400
  12 S :   -0.165073
  13 O :   -0.672269
  14 C :    0.025789
  15 C :   -0.409869
  16 O :   -0.694178
  17 C :    0.023460
  18 C :   -0.402346
  19 H :    0.166208
  20 H :    0.168453
  21 H :    0.163793
  22 H :    0.181309
  23 H :    0.191162
  24 H :    0.190195
  25 H :    0.182129
  26 H :    0.167966
  27 H :    0.167074
  28 H :    0.164726
  29 H :    0.197021
  30 H :    0.198157
  31 H :    0.181601
  32 H :    0.191154
  33 H :    0.161683
  34 H :    0.168525
  35 H :    0.163637
  36 H :    0.181996
  37 H :    0.191473
  38 H :    0.164380
  39 H :    0.162724
  40 H :    0.168819

  Mayer bond orders larger than 0.100000
B(  0-C ,  1-C ) :   0.9316 B(  0-C , 19-H ) :   0.9639 B(  0-C , 20-H ) :   0.9589
B(  0-C , 21-H ) :   0.9698 B(  1-C ,  2-O ) :   0.7544 B(  1-C , 22-H ) :   0.9548
B(  1-C , 23-H ) :   0.9538 B(  2-O ,  3-P ) :   1.1827 B(  3-P ,  4-S ) :   1.8060
B(  3-P ,  5-O ) :   1.0582 B(  3-P ,  8-S ) :   1.0037 B(  5-O ,  6-C ) :   0.7902
B(  6-C ,  7-C ) :   0.9211 B(  6-C , 24-H ) :   0.9545 B(  6-C , 25-H ) :   0.9614
B(  7-C , 26-H ) :   0.9534 B(  7-C , 27-H ) :   0.9577 B(  7-C , 28-H ) :   0.9659
B(  8-S ,  9-C ) :   0.8803 B(  9-C , 10-S ) :   0.9133 B(  9-C , 29-H ) :   0.9053
B(  9-C , 30-H ) :   0.9038 B( 10-S , 11-P ) :   1.1099 B( 11-P , 12-S ) :   1.6931
B( 11-P , 13-O ) :   1.0700 B( 11-P , 16-O ) :   1.1552 B( 13-O , 14-C ) :   0.8027
B( 14-C , 15-C ) :   0.9090 B( 14-C , 31-H ) :   0.9655 B( 14-C , 32-H ) :   0.9486
B( 15-C , 33-H ) :   0.9633 B( 15-C , 34-H ) :   0.9532 B( 15-C , 35-H ) :   0.9658
B( 16-O , 17-C ) :   0.7759 B( 17-C , 18-C ) :   0.9111 B( 17-C , 36-H ) :   0.9606
B( 17-C , 37-H ) :   0.9508 B( 18-C , 38-H ) :   0.9711 B( 18-C , 39-H ) :   0.9594
B( 18-C , 40-H ) :   0.9558

Dispersion correction           -0.021221147
FINAL SINGLE POINT ENERGY     -2932.470624119833

DIPOLE MOMENT
-------------

Method             : SCF
Type of density    : Electron Density
Multiplicity       :   1
Irrep              :   0
Energy             : -2932.4958552559983218 Eh
Relativity type    :
Basis              : AO
                                X                 Y                 Z
Electronic contribution:      5.398599495      12.465002408      -3.424284634
Nuclear contribution   :     -5.977316554     -14.394448282       3.509758384
                        -----------------------------------------
Total Dipole Moment    :     -0.578717059      -1.929445874       0.085473750
                        -----------------------------------------
Magnitude (a.u.)       :      2.016179699
Magnitude (Debye)      :      5.124721525

Rotational constants in cm-1:             0.013221             0.004490             0.004242
Rotational constants in MHz :           396.345013           134.614610           127.167255

                             ****ORCA TERMINATED NORMALLY****
TOTAL RUN TIME: 0 days 0 hours 1 minutes 53 seconds 591 msec
