                         Program Version 6.0.0  -   RELEASE  -
|  1> ! pbe def2-sv(p) def2/J RI DEFGRID1 loosescf d4 GCP(DFT/SV(P)) printgap
|  2> %output
|  3>     printlevel normal
|  4> end
|  5> * xyz 0 1
|  6> C 4.9021951535 0.4685575312 -1.2596936065
|  7> C 4.5424179808 0.5926071553 0.2063386564
|  8> O 3.3895729286 -0.1966349467 0.547342296
|  9> P 1.9332205828 0.1599976863 0.018042259
| 10> S 1.5633038276 2.0800340768 0.025165302
| 11> O 1.0028837359 -0.6936370108 0.9719253686
| 12> C 1.368337409 -2.0354665421 1.398875768
| 13> C 1.9888288209 -2.0038570151 2.7791226516
| 14> S 1.8696040324 -0.8950687632 -1.8385474637
| 15> C 0.0800994169 -1.1240625781 -2.0417192487
| 16> S -0.8901342629 0.4010059895 -1.8737750793
| 17> P -1.8614923632 0.0439039284 -0.0290245186
| 18> S -1.998795406 -1.8526151692 0.4654757718
| 19> O -3.273959986 0.7440160166 -0.2389977375
| 20> C -4.3104550912 0.1226362044 -1.0256565213
| 21> C -5.6240570759 0.7966658896 -0.6857075427
| 22> O -1.1670968163 1.0465989828 0.9702901895
| 23> C -1.8341876938 1.7049641679 2.0698842397
| 24> C -2.3380946507 0.7144702417 3.0981396553
| 25> H 5.8371169564 0.987319329 -1.445165597
| 26> H 5.0056649058 -0.5769585045 -1.5385477068
| 27> H 4.1217388695 0.9183596169 -1.8723282275
| 28> H 4.3355030654 1.6356985926 0.4658316344
| 29> H 5.3292749623 0.1967031616 0.8497950285
| 30> H 0.4264629713 -2.5895481302 1.4001752014
| 31> H 2.0531879582 -2.4670799294 0.6649364709
| 32> H 1.3085046473 -1.5319803471 3.4830949553
| 33> H 2.1831395824 -3.0228664219 3.0988391346
| 34> H 2.9212841492 -1.4460678342 2.7628547661
| 35> H -0.2962225589 -1.8525884414 -1.3170541316
| 36> H -0.0487607925 -1.4850310059 -3.0593196033
| 37> H -4.0569824217 0.2492140491 -2.0814179791
| 38> H -4.3332207047 -0.9464711344 -0.7883079794
| 39> H -6.4123678266 0.3588194558 -1.2889791328
| 40> H -5.8584658442 0.6568383307 0.3658685161
| 41> H -5.5599746712 1.8606638274 -0.8948201328
| 42> H -1.0570499953 2.3550762405 2.4764470722
| 43> H -2.6495971111 2.3088259138 1.6665518145
| 44> H -1.5192363475 0.0941674344 3.4555417274
| 45> H -2.7752058314 1.2518461181 3.9337954707
| 46> H -3.0936942333 0.0668593399 2.6542854884
| 47> *
| 48>
| 49>                          ****END OF INPUT****

CARTESIAN COORDINATES (ANGSTROEM)
---------------------------------
  C      4.902195    0.468558   -1.259694
  C      4.542418    0.592607    0.206339
  O      3.389573   -0.196635    0.547342
  P      1.933221    0.159998    0.018042
  S      1.563304    2.080034    0.025165
  O      1.002884   -0.693637    0.971925
  C      1.368337   -2.035467    1.398876
  C      1.988829   -2.003857    2.779123
  S      1.869604   -0.895069   -1.838547
  C      0.080099   -1.124063   -2.041719
  S     -0.890134    0.401006   -1.873775
  P     -1.861492    0.043904   -0.029025
  S     -1.998795   -1.852615    0.465476
  O     -3.273960    0.744016   -0.238998
  C     -4.310455    0.122636   -1.025657
  C     -5.624057    0.796666   -0.685708
  O     -1.167097    1.046599    0.970290
  C     -1.834188    1.704964    2.069884
  C     -2.338095    0.714470    3.098140
  H      5.837117    0.987319   -1.445166
  H      5.005665   -0.576959   -1.538548
  H      4.121739    0.918360   -1.872328
  H      4.335503    1.635699    0.465832
  H      5.329275    0.196703    0.849795
  H      0.426463   -2.589548    1.400175
  H      2.053188   -2.467080    0.664936
  H      1.308505   -1.531980    3.483095
  H      2.183140   -3.022866    3.098839
  H      2.921284   -1.446068    2.762855
  H     -0.296223   -1.852588   -1.317054
  H     -0.048761   -1.485031   -3.059320
  H     -4.056982    0.249214   -2.081418
  H     -4.333221   -0.946471   -0.788308
  H     -6.412368    0.358819   -1.288979
  H     -5.858466    0.656838    0.365869
  H     -5.559975    1.860664   -0.894820
  H     -1.057050    2.355076    2.476447
  H     -2.649597    2.308826    1.666552
  H     -1.519236    0.094167    3.455542
  H     -2.775206    1.251846    3.933795
  H     -3.093694    0.066859    2.654285

 Total Charge           Charge          ....    0
 Multiplicity           Mult            ....    1
 Number of Electrons    NEL             ....  202
 Basis Dimension        Dim             ....  334

ORBITAL ENERGIES
----------------

  NO   OCC          E(Eh)            E(eV)
   0   2.0000     -88.040622     -2395.7071
   1   2.0000     -88.034786     -2395.5483
   2   2.0000     -87.986662     -2394.2388
   3   2.0000     -87.975319     -2393.9301
   4   2.0000     -76.425184     -2079.6350
   5   2.0000     -76.419836     -2079.4895
   6   2.0000     -18.794178      -511.4156
   7   2.0000     -18.789132      -511.2783
   8   2.0000     -18.785958      -511.1919
   9   2.0000     -18.782142      -511.0881
  10   2.0000      -9.952115      -270.8108
  11   2.0000      -9.951913      -270.8053
  12   2.0000      -9.949680      -270.7446
  13   2.0000      -9.949283      -270.7338
  14   2.0000      -9.943479      -270.5758
  15   2.0000      -9.889529      -269.1078
  16   2.0000      -9.882729      -268.9227
  17   2.0000      -9.881031      -268.8765
  18   2.0000      -9.879699      -268.8403
  19   2.0000      -7.685527      -209.1338
  20   2.0000      -7.679906      -208.9809
  21   2.0000      -7.631542      -207.6648
  22   2.0000      -7.620529      -207.3651
  23   2.0000      -6.422411      -174.7627
  24   2.0000      -6.417125      -174.6189
  25   2.0000      -5.713342      -155.4679
  26   2.0000      -5.710127      -155.3804
  27   2.0000      -5.707824      -155.3178
  28   2.0000      -5.704340      -155.2230
  29   2.0000      -5.702460      -155.1718
  30   2.0000      -5.696939      -155.0216
  31   2.0000      -5.660177      -154.0213
  32   2.0000      -5.652488      -153.8120
  33   2.0000      -5.651608      -153.7881
  34   2.0000      -5.649628      -153.7342
  35   2.0000      -5.640982      -153.4989
  36   2.0000      -5.640648      -153.4898
  37   2.0000      -4.645366      -126.4068
  38   2.0000      -4.643851      -126.3656
  39   2.0000      -4.642873      -126.3390
  40   2.0000      -4.640326      -126.2697
  41   2.0000      -4.638905      -126.2310
  42   2.0000      -4.637027      -126.1799
  43   2.0000      -0.986547       -26.8453
  44   2.0000      -0.983251       -26.7556
  45   2.0000      -0.941403       -25.6169
  46   2.0000      -0.938687       -25.5430
  47   2.0000      -0.757806       -20.6210
  48   2.0000      -0.717342       -19.5199
  49   2.0000      -0.705186       -19.1891
  50   2.0000      -0.689034       -18.7496
  51   2.0000      -0.686314       -18.6756
  52   2.0000      -0.670458       -18.2441
  53   2.0000      -0.646338       -17.5878
  54   2.0000      -0.635174       -17.2840
  55   2.0000      -0.593637       -16.1537
  56   2.0000      -0.586234       -15.9523
  57   2.0000      -0.571121       -15.5410
  58   2.0000      -0.568110       -15.4591
  59   2.0000      -0.558960       -15.2101
  60   2.0000      -0.505130       -13.7453
  61   2.0000      -0.494974       -13.4689
  62   2.0000      -0.472374       -12.8540
  63   2.0000      -0.468866       -12.7585
  64   2.0000      -0.450074       -12.2471
  65   2.0000      -0.447364       -12.1734
  66   2.0000      -0.437450       -11.9036
  67   2.0000      -0.432034       -11.7562
  68   2.0000      -0.419945       -11.4273
  69   2.0000      -0.416216       -11.3258
  70   2.0000      -0.407213       -11.0808
  71   2.0000      -0.402676       -10.9574
  72   2.0000      -0.386355       -10.5132
  73   2.0000      -0.385414       -10.4876
  74   2.0000      -0.376442       -10.2435
  75   2.0000      -0.367419        -9.9980
  76   2.0000      -0.359492        -9.7823
  77   2.0000      -0.357417        -9.7258
  78   2.0000      -0.353259        -9.6127
  79   2.0000      -0.350607        -9.5405
  80   2.0000      -0.344482        -9.3738
  81   2.0000      -0.341881        -9.3030
  82   2.0000      -0.339547        -9.2395
  83   2.0000      -0.333215        -9.0673
  84   2.0000      -0.330981        -9.0064
  85   2.0000      -0.315533        -8.5861
  86   2.0000      -0.312200        -8.4954
  87   2.0000      -0.303303        -8.2533
  88   2.0000      -0.294683        -8.0187
  89   2.0000      -0.289311        -7.8726
  90   2.0000      -0.281662        -7.6644
  91   2.0000      -0.269769        -7.3408
  92   2.0000      -0.262064        -7.1311
  93   2.0000      -0.257971        -7.0197
  94   2.0000      -0.253959        -6.9106
  95   2.0000      -0.237289        -6.4570
  96   2.0000      -0.221782        -6.0350
  97   2.0000      -0.206091        -5.6080
  98   2.0000      -0.198498        -5.4014
  99   2.0000      -0.189350        -5.1525
 100   2.0000      -0.183639        -4.9971
 101   0.0000      -0.042097        -1.1455
 102   0.0000      -0.030884        -0.8404
 103   0.0000      -0.008341        -0.2270
 104   0.0000       0.010446         0.2843
 105   0.0000       0.015665         0.4263

MULLIKEN ATOMIC CHARGES
-----------------------
   0 C :   -0.326305
   1 C :   -0.000057
   2 O :   -0.381310
   3 P :    0.590645
   4 S :   -0.290654
   5 O :   -0.359352
   6 C :   -0.020945
   7 C :   -0.288281
   8 S :   -0.111910
   9 C :   -0.348706
  10 S :   -0.080916
  11 P :    0.649990
  12 S :   -0.340814
  13 O :   -0.389735
  14 C :   -0.008364
  15 C :   -0.282833
  16 O :   -0.346161
  17 C :    0.005807
  18 C :   -0.320044
  19 H :    0.115233
  20 H :    0.119508
  21 H :    0.133283
  22 H :    0.111170
  23 H :    0.102114
  24 H :    0.120257
  25 H :    0.098575
  26 H :    0.118604
  27 H :    0.106843
  28 H :    0.117246
  29 H :    0.196887
  30 H :    0.178765
  31 H :    0.100778
  32 H :    0.106125
  33 H :    0.112805
  34 H :    0.117386
  35 H :    0.117658
  36 H :    0.110433
  37 H :    0.107913
  38 H :    0.126584
  39 H :    0.109038
  40 H :    0.122738
Sum of atomic charges:    0.0000000

LOEWDIN ATOMIC CHARGES
----------------------
   0 C :   -0.372902
   1 C :   -0.120578
   2 O :   -0.246949
   3 P :    0.564524
   4 S :   -0.299724
   5 O :   -0.235919
   6 C :   -0.124718
   7 C :   -0.356933
   8 S :    0.057291
   9 C :   -0.484111
  10 S :    0.096805
  11 P :    0.576267
  12 S :   -0.304512
  13 O :   -0.250341
  14 C :   -0.122417
  15 C :   -0.350910
  16 O :   -0.223324
  17 C :   -0.107158
  18 C :   -0.366011
  19 H :    0.132455
  20 H :    0.123969
  21 H :    0.123084
  22 H :    0.110511
  23 H :    0.116960
  24 H :    0.110309
  25 H :    0.104564
  26 H :    0.126118
  27 H :    0.129025
  28 H :    0.123800
  29 H :    0.119401
  30 H :    0.137832
  31 H :    0.109163
  32 H :    0.106993
  33 H :    0.131437
  34 H :    0.126710
  35 H :    0.127075
  36 H :    0.122265
  37 H :    0.112241
  38 H :    0.128918
  39 H :    0.128578
  40 H :    0.120212

  Mayer bond orders larger than 0.100000
B(  0-C ,  1-C ) :   1.1661 B(  0-C , 19-H ) :   0.9379 B(  0-C , 20-H ) :   0.9431
B(  0-C , 21-H ) :   0.9311 B(  1-C ,  2-O ) :   0.9097 B(  1-C , 22-H ) :   0.9123
B(  1-C , 23-H ) :   0.9325 B(  2-O ,  3-P ) :   1.0629 B(  3-P ,  4-S ) :   1.6723
B(  3-P ,  5-O ) :   1.1131 B(  3-P ,  8-S ) :   0.9501 B(  4-S ,  8-S ) :   0.1108
B(  5-O ,  6-C ) :   0.8868 B(  6-C ,  7-C ) :   1.1693 B(  6-C , 24-H ) :   0.9065
B(  6-C , 25-H ) :   0.9119 B(  7-C , 26-H ) :   0.9469 B(  7-C , 27-H ) :   0.9399
B(  7-C , 28-H ) :   0.9434 B(  8-S ,  9-C ) :   0.9847 B(  9-C , 10-S ) :   1.0141
B(  9-C , 29-H ) :   0.8498 B(  9-C , 30-H ) :   0.9126 B( 10-S , 11-P ) :   0.9696
B( 10-S , 12-S ) :   0.1258 B( 11-P , 12-S ) :   1.5770 B( 11-P , 13-O ) :   1.0735
B( 11-P , 16-O ) :   1.1557 B( 12-S , 29-H ) :   0.1153 B( 13-O , 14-C ) :   0.9053
B( 14-C , 15-C ) :   1.1591 B( 14-C , 31-H ) :   0.9269 B( 14-C , 32-H ) :   0.9077
B( 15-C , 33-H ) :   0.9420 B( 15-C , 34-H ) :   0.9519 B( 15-C , 35-H ) :   0.9505
B( 16-O , 17-C ) :   0.9043 B( 17-C , 18-C ) :   1.1666 B( 17-C , 36-H ) :   0.9292
B( 17-C , 37-H ) :   0.9289 B( 18-C , 38-H ) :   0.9446 B( 18-C , 39-H ) :   0.9370
B( 18-C , 40-H ) :   0.9356

Dispersion correction           -0.067974449
FINAL SINGLE POINT ENERGY     -2929.512439086123

DIPOLE MOMENT
-------------

Method             : SCF
Type of density    : Electron Density
Multiplicity       :   1
Irrep              :   0
Energy             : -2929.6315167479137926 Eh
Relativity type    :
Basis              : AO
                                X                 Y                 Z
Electronic contribution:      3.721873516       2.614871006     -12.102063446
Nuclear contribution   :     -3.963555434      -2.955197801      12.325202759
                        -----------------------------------------
Total Dipole Moment    :     -0.241681918      -0.340326795       0.223139313
                        -----------------------------------------
Magnitude (a.u.)       :      0.473311345
Magnitude (Debye)      :      1.203061831

Rotational constants in cm-1:             0.013254             0.005388             0.005055
Rotational constants in MHz :           397.349846           161.539461           151.555053

                             ****ORCA TERMINATED NORMALLY****
TOTAL RUN TIME: 0 days 0 hours 0 minutes 21 seconds 420 msec
