                         Program Version 6.0.0  -   RELEASE  -
|  1> ! r2scan-3c def2/J RI DEFGRID2 scfconv6 printgap
|  2> %output
|  3>     printlevel normal
|  4> end
|  5> * xyz 0 1
|  6> C 3.3846917857 -1.9506278429 2.1300673592
|  7> C 1.9848387387 -1.91886918 1.5515307465
|  8> O 1.6560223528 -0.6074795545 1.0539755648
|  9> P 2.3033770911 -0.0318884391 -0.2919127978
| 10> S 2.8969834974 -1.3677844911 -1.5852397847
| 11> O 3.4819629696 0.9327971895 0.1404289336
| 12> C 3.3081606597 1.9961914772 1.1105228877
| 13> C 4.6402346515 2.7008353826 1.2576711213
| 14> S 0.7631274163 1.2926547618 -0.9026634175
| 15> C -0.1713112544 0.0529388244 -1.8354424097
| 16> S -1.021707243 -1.1377484789 -0.777509207
| 17> P -2.5531889856 0.2069880104 -0.1284856862
| 18> S -3.2107876756 1.4603198827 -1.475483191
| 19> O -1.9584726287 0.9478194996 1.1281728408
| 20> C -1.5254751554 0.2473134438 2.3223391791
| 21> C -0.5149698312 1.1246651451 3.030467637
| 22> O -3.6352606711 -0.7485188682 0.5384310287
| 23> C -4.7101998622 -1.3504952638 -0.2068739754
| 24> C -4.2136871049 -2.3382543167 -1.2422475945
| 25> H 4.1078031556 -1.7146939312 1.3492407652
| 26> H 3.4822290564 -1.2257732427 2.9340187641
| 27> H 3.5940416055 -2.943736868 2.514670059
| 28> H 1.226188416 -2.1169798095 2.3097773824
| 29> H 1.8874628057 -2.637439713 0.7320449483
| 30> H 2.5335937963 2.6744837722 0.7414582618
| 31> H 2.9817666413 1.5532176891 2.0546220273
| 32> H 4.5393426498 3.5064117645 1.9777268048
| 33> H 5.3973156678 2.0017359155 1.6008975154
| 34> H 4.9519511084 3.1101092056 0.3011144419
| 35> H 0.5123487875 -0.5132985423 -2.4685507699
| 36> H -0.9077615985 0.5979828423 -2.4273256124
| 37> H -2.4092950161 0.067046445 2.9368850179
| 38> H -1.0895408277 -0.7113930521 2.0253075467
| 39> H -0.952330977 2.0957119606 3.243239137
| 40> H -0.2171366876 0.6495682225 3.9595539342
| 41> H 0.358548156 1.2664124937 2.3992763039
| 42> H -5.3129227805 -1.8390166671 0.5600579773
| 43> H -5.2870203923 -0.5520407072 -0.6830859753
| 44> H -3.54575544 -3.0644583241 -0.785685187
| 45> H -5.0622324253 -2.8537090655 -1.6805105508
| 46> H -3.6762408873 -1.8135022123 -2.030788348
| 47> *
| 48>
| 49>                          ****END OF INPUT****

CARTESIAN COORDINATES (ANGSTROEM)
---------------------------------
  C      3.384692   -1.950628    2.130067
  C      1.984839   -1.918869    1.551531
  O      1.656022   -0.607480    1.053976
  P      2.303377   -0.031888   -0.291913
  S      2.896983   -1.367784   -1.585240
  O      3.481963    0.932797    0.140429
  C      3.308161    1.996191    1.110523
  C      4.640235    2.700835    1.257671
  S      0.763127    1.292655   -0.902663
  C     -0.171311    0.052939   -1.835442
  S     -1.021707   -1.137748   -0.777509
  P     -2.553189    0.206988   -0.128486
  S     -3.210788    1.460320   -1.475483
  O     -1.958473    0.947819    1.128173
  C     -1.525475    0.247313    2.322339
  C     -0.514970    1.124665    3.030468
  O     -3.635261   -0.748519    0.538431
  C     -4.710200   -1.350495   -0.206874
  C     -4.213687   -2.338254   -1.242248
  H      4.107803   -1.714694    1.349241
  H      3.482229   -1.225773    2.934019
  H      3.594042   -2.943737    2.514670
  H      1.226188   -2.116980    2.309777
  H      1.887463   -2.637440    0.732045
  H      2.533594    2.674484    0.741458
  H      2.981767    1.553218    2.054622
  H      4.539343    3.506412    1.977727
  H      5.397316    2.001736    1.600898
  H      4.951951    3.110109    0.301114
  H      0.512349   -0.513299   -2.468551
  H     -0.907762    0.597983   -2.427326
  H     -2.409295    0.067046    2.936885
  H     -1.089541   -0.711393    2.025308
  H     -0.952331    2.095712    3.243239
  H     -0.217137    0.649568    3.959554
  H      0.358548    1.266412    2.399276
  H     -5.312923   -1.839017    0.560058
  H     -5.287020   -0.552041   -0.683086
  H     -3.545755   -3.064458   -0.785685
  H     -5.062232   -2.853709   -1.680511
  H     -3.676241   -1.813502   -2.030788

 Total Charge           Charge          ....    0
 Multiplicity           Mult            ....    1
 Number of Electrons    NEL             ....  202
 Basis Dimension        Dim             ....  539

ORBITAL ENERGIES
----------------

  NO   OCC          E(Eh)            E(eV)
   0   2.0000     -88.574034     -2410.2220
   1   2.0000     -88.573292     -2410.2018
   2   2.0000     -88.523279     -2408.8409
   3   2.0000     -88.521093     -2408.7814
   4   2.0000     -76.915908     -2092.9883
   5   2.0000     -76.913870     -2092.9328
   6   2.0000     -18.997212      -516.9404
   7   2.0000     -18.995872      -516.9040
   8   2.0000     -18.993633      -516.8430
   9   2.0000     -18.989960      -516.7431
  10   2.0000     -10.110614      -275.1238
  11   2.0000     -10.102180      -274.8943
  12   2.0000     -10.101781      -274.8834
  13   2.0000     -10.101714      -274.8816
  14   2.0000     -10.101672      -274.8805
  15   2.0000     -10.040329      -273.2112
  16   2.0000     -10.034874      -273.0628
  17   2.0000     -10.032979      -273.0112
  18   2.0000     -10.029911      -272.9278
  19   2.0000      -7.868353      -214.1088
  20   2.0000      -7.867627      -214.0890
  21   2.0000      -7.818116      -212.7418
  22   2.0000      -7.815858      -212.6803
  23   2.0000      -6.594468      -179.4446
  24   2.0000      -6.592432      -179.3892
  25   2.0000      -5.815163      -158.2386
  26   2.0000      -5.814423      -158.2185
  27   2.0000      -5.812334      -158.1616
  28   2.0000      -5.811492      -158.1388
  29   2.0000      -5.805405      -157.9731
  30   2.0000      -5.804815      -157.9571
  31   2.0000      -5.765877      -156.8975
  32   2.0000      -5.763546      -156.8341
  33   2.0000      -5.758439      -156.6951
  34   2.0000      -5.757933      -156.6813
  35   2.0000      -5.756069      -156.6306
  36   2.0000      -5.755889      -156.6257
  37   2.0000      -4.740353      -128.9916
  38   2.0000      -4.739088      -128.9572
  39   2.0000      -4.738318      -128.9362
  40   2.0000      -4.738131      -128.9311
  41   2.0000      -4.737254      -128.9072
  42   2.0000      -4.735918      -128.8709
  43   2.0000      -1.052591       -28.6425
  44   2.0000      -1.052019       -28.6269
  45   2.0000      -1.014224       -27.5984
  46   2.0000      -1.010932       -27.5089
  47   2.0000      -0.801680       -21.8148
  48   2.0000      -0.763655       -20.7801
  49   2.0000      -0.754903       -20.5420
  50   2.0000      -0.740364       -20.1463
  51   2.0000      -0.735296       -20.0084
  52   2.0000      -0.712318       -19.3832
  53   2.0000      -0.687246       -18.7009
  54   2.0000      -0.670736       -18.2517
  55   2.0000      -0.629756       -17.1365
  56   2.0000      -0.622381       -16.9358
  57   2.0000      -0.612416       -16.6647
  58   2.0000      -0.606652       -16.5078
  59   2.0000      -0.592018       -16.1096
  60   2.0000      -0.536650       -14.6030
  61   2.0000      -0.528301       -14.3758
  62   2.0000      -0.504816       -13.7368
  63   2.0000      -0.495532       -13.4841
  64   2.0000      -0.480203       -13.0670
  65   2.0000      -0.467020       -12.7083
  66   2.0000      -0.465005       -12.6534
  67   2.0000      -0.457943       -12.4613
  68   2.0000      -0.449679       -12.2364
  69   2.0000      -0.435517       -11.8510
  70   2.0000      -0.426632       -11.6092
  71   2.0000      -0.414872       -11.2892
  72   2.0000      -0.410274       -11.1641
  73   2.0000      -0.407298       -11.0831
  74   2.0000      -0.392691       -10.6857
  75   2.0000      -0.389457       -10.5977
  76   2.0000      -0.382620       -10.4116
  77   2.0000      -0.378073       -10.2879
  78   2.0000      -0.376876       -10.2553
  79   2.0000      -0.371735       -10.1154
  80   2.0000      -0.366862        -9.9828
  81   2.0000      -0.360913        -9.8209
  82   2.0000      -0.358820        -9.7640
  83   2.0000      -0.355185        -9.6651
  84   2.0000      -0.352152        -9.5825
  85   2.0000      -0.337029        -9.1710
  86   2.0000      -0.334545        -9.1034
  87   2.0000      -0.326589        -8.8869
  88   2.0000      -0.319444        -8.6925
  89   2.0000      -0.311460        -8.4752
  90   2.0000      -0.301311        -8.1991
  91   2.0000      -0.289815        -7.8863
  92   2.0000      -0.289210        -7.8698
  93   2.0000      -0.282625        -7.6906
  94   2.0000      -0.273376        -7.4389
  95   2.0000      -0.244642        -6.6570
  96   2.0000      -0.230815        -6.2808
  97   2.0000      -0.227913        -6.2018
  98   2.0000      -0.219441        -5.9713
  99   2.0000      -0.216529        -5.8921
 100   2.0000      -0.214088        -5.8256
 101   0.0000      -0.045912        -1.2493
 102   0.0000      -0.025229        -0.6865
 103   0.0000      -0.003674        -0.1000
 104   0.0000       0.002442         0.0664
 105   0.0000       0.013635         0.3710

MULLIKEN ATOMIC CHARGES
-----------------------
   0 C :   -0.453744
   1 C :   -0.145122
   2 O :   -0.267224
   3 P :    0.640914
   4 S :   -0.450462
   5 O :   -0.274994
   6 C :   -0.125942
   7 C :   -0.450807
   8 S :   -0.139963
   9 C :   -0.239029
  10 S :   -0.164522
  11 P :    0.646403
  12 S :   -0.445086
  13 O :   -0.260444
  14 C :   -0.094068
  15 C :   -0.468165
  16 O :   -0.291608
  17 C :   -0.164714
  18 C :   -0.445203
  19 H :    0.179083
  20 H :    0.147374
  21 H :    0.150055
  22 H :    0.147533
  23 H :    0.178582
  24 H :    0.154117
  25 H :    0.155882
  26 H :    0.147644
  27 H :    0.157036
  28 H :    0.161431
  29 H :    0.216338
  30 H :    0.218586
  31 H :    0.155221
  32 H :    0.152311
  33 H :    0.156704
  34 H :    0.142936
  35 H :    0.168916
  36 H :    0.147731
  37 H :    0.173751
  38 H :    0.153511
  39 H :    0.148184
  40 H :    0.180852
Sum of atomic charges:    0.0000000

LOEWDIN ATOMIC CHARGES
----------------------
   0 C :   -0.399321
   1 C :    0.011398
   2 O :   -0.703230
   3 P :    0.377460
   4 S :   -0.100086
   5 O :   -0.662116
   6 C :    0.020622
   7 C :   -0.381585
   8 S :    0.161224
   9 C :   -0.424985
  10 S :    0.143466
  11 P :    0.380523
  12 S :   -0.103656
  13 O :   -0.652920
  14 C :    0.024584
  15 C :   -0.391492
  16 O :   -0.666102
  17 C :    0.023125
  18 C :   -0.408521
  19 H :    0.168724
  20 H :    0.154829
  21 H :    0.161051
  22 H :    0.176610
  23 H :    0.183062
  24 H :    0.175632
  25 H :    0.172316
  26 H :    0.160474
  27 H :    0.162017
  28 H :    0.164427
  29 H :    0.192888
  30 H :    0.194144
  31 H :    0.173817
  32 H :    0.176453
  33 H :    0.162162
  34 H :    0.158843
  35 H :    0.167665
  36 H :    0.179458
  37 H :    0.180333
  38 H :    0.159906
  39 H :    0.159691
  40 H :    0.167111

  Mayer bond orders larger than 0.100000
B(  0-C ,  1-C ) :   0.9174 B(  0-C , 19-H ) :   0.9589 B(  0-C , 20-H ) :   0.9769
B(  0-C , 21-H ) :   0.9627 B(  1-C ,  2-O ) :   0.7638 B(  1-C , 22-H ) :   0.9642
B(  1-C , 23-H ) :   0.9548 B(  2-O ,  3-P ) :   1.0186 B(  3-P ,  4-S ) :   1.8378
B(  3-P ,  5-O ) :   1.1358 B(  3-P ,  8-S ) :   1.0700 B(  5-O ,  6-C ) :   0.7381
B(  6-C ,  7-C ) :   0.9622 B(  6-C , 24-H ) :   0.9354 B(  6-C , 25-H ) :   0.9487
B(  7-C , 26-H ) :   0.9629 B(  7-C , 27-H ) :   0.9743 B(  7-C , 28-H ) :   0.9695
B(  8-S ,  9-C ) :   0.9193 B(  9-C , 10-S ) :   0.9081 B(  9-C , 29-H ) :   0.9058
B(  9-C , 30-H ) :   0.9027 B( 10-S , 11-P ) :   1.0034 B( 11-P , 12-S ) :   1.8396
B( 11-P , 13-O ) :   1.1602 B( 11-P , 16-O ) :   1.0369 B( 13-O , 14-C ) :   0.7385
B( 14-C , 15-C ) :   0.9415 B( 14-C , 31-H ) :   0.9459 B( 14-C , 32-H ) :   0.9529
B( 15-C , 33-H ) :   0.9695 B( 15-C , 34-H ) :   0.9677 B( 15-C , 35-H ) :   0.9661
B( 16-O , 17-C ) :   0.8191 B( 17-C , 18-C ) :   0.9186 B( 17-C , 36-H ) :   0.9615
B( 17-C , 37-H ) :   0.9686 B( 18-C , 38-H ) :   0.9677 B( 18-C , 39-H ) :   0.9561
B( 18-C , 40-H ) :   0.9625

Dispersion correction           -0.021622673
FINAL SINGLE POINT ENERGY     -2932.463213596191

DIPOLE MOMENT
-------------

Method             : SCF
Type of density    : Electron Density
Multiplicity       :   1
Irrep              :   0
Energy             : -2932.4880741120159655 Eh
Relativity type    :
Basis              : AO
                                X                 Y                 Z
Electronic contribution:     -6.850156038       3.760998832     -18.696092493
Nuclear contribution   :      6.905638093      -4.343245684      20.785920783
                        -----------------------------------------
Total Dipole Moment    :      0.055482055      -0.582246852       2.089828289
                        -----------------------------------------
Magnitude (a.u.)       :      2.170131778
Magnitude (Debye)      :      5.516036613

Rotational constants in cm-1:             0.012666             0.004770             0.004627
Rotational constants in MHz :           379.712408           143.012033           138.726105

                             ****ORCA TERMINATED NORMALLY****
TOTAL RUN TIME: 0 days 0 hours 1 minutes 20 seconds 690 msec
