                         Program Version 6.0.0  -   RELEASE  -
|  1> ! r2scan-3c def2/J RI DEFGRID2 scfconv6 printgap
|  2> %output
|  3>     printlevel normal
|  4> end
|  5> %cpcm
|  6>     smd true
|  7>     smdsolvent "water"
|  8> end
|  9> * xyz 0 1
| 10> C 3.3846917857 -1.9506278429 2.1300673592
| 11> C 1.9848387387 -1.91886918 1.5515307465
| 12> O 1.6560223528 -0.6074795545 1.0539755648
| 13> P 2.3033770911 -0.0318884391 -0.2919127978
| 14> S 2.8969834974 -1.3677844911 -1.5852397847
| 15> O 3.4819629696 0.9327971895 0.1404289336
| 16> C 3.3081606597 1.9961914772 1.1105228877
| 17> C 4.6402346515 2.7008353826 1.2576711213
| 18> S 0.7631274163 1.2926547618 -0.9026634175
| 19> C -0.1713112544 0.0529388244 -1.8354424097
| 20> S -1.021707243 -1.1377484789 -0.777509207
| 21> P -2.5531889856 0.2069880104 -0.1284856862
| 22> S -3.2107876756 1.4603198827 -1.475483191
| 23> O -1.9584726287 0.9478194996 1.1281728408
| 24> C -1.5254751554 0.2473134438 2.3223391791
| 25> C -0.5149698312 1.1246651451 3.030467637
| 26> O -3.6352606711 -0.7485188682 0.5384310287
| 27> C -4.7101998622 -1.3504952638 -0.2068739754
| 28> C -4.2136871049 -2.3382543167 -1.2422475945
| 29> H 4.1078031556 -1.7146939312 1.3492407652
| 30> H 3.4822290564 -1.2257732427 2.9340187641
| 31> H 3.5940416055 -2.943736868 2.514670059
| 32> H 1.226188416 -2.1169798095 2.3097773824
| 33> H 1.8874628057 -2.637439713 0.7320449483
| 34> H 2.5335937963 2.6744837722 0.7414582618
| 35> H 2.9817666413 1.5532176891 2.0546220273
| 36> H 4.5393426498 3.5064117645 1.9777268048
| 37> H 5.3973156678 2.0017359155 1.6008975154
| 38> H 4.9519511084 3.1101092056 0.3011144419
| 39> H 0.5123487875 -0.5132985423 -2.4685507699
| 40> H -0.9077615985 0.5979828423 -2.4273256124
| 41> H -2.4092950161 0.067046445 2.9368850179
| 42> H -1.0895408277 -0.7113930521 2.0253075467
| 43> H -0.952330977 2.0957119606 3.243239137
| 44> H -0.2171366876 0.6495682225 3.9595539342
| 45> H 0.358548156 1.2664124937 2.3992763039
| 46> H -5.3129227805 -1.8390166671 0.5600579773
| 47> H -5.2870203923 -0.5520407072 -0.6830859753
| 48> H -3.54575544 -3.0644583241 -0.785685187
| 49> H -5.0622324253 -2.8537090655 -1.6805105508
| 50> H -3.6762408873 -1.8135022123 -2.030788348
| 51> *
| 52>
| 53>                          ****END OF INPUT****

CARTESIAN COORDINATES (ANGSTROEM)
---------------------------------
  C      3.384692   -1.950628    2.130067
  C      1.984839   -1.918869    1.551531
  O      1.656022   -0.607480    1.053976
  P      2.303377   -0.031888   -0.291913
  S      2.896983   -1.367784   -1.585240
  O      3.481963    0.932797    0.140429
  C      3.308161    1.996191    1.110523
  C      4.640235    2.700835    1.257671
  S      0.763127    1.292655   -0.902663
  C     -0.171311    0.052939   -1.835442
  S     -1.021707   -1.137748   -0.777509
  P     -2.553189    0.206988   -0.128486
  S     -3.210788    1.460320   -1.475483
  O     -1.958473    0.947819    1.128173
  C     -1.525475    0.247313    2.322339
  C     -0.514970    1.124665    3.030468
  O     -3.635261   -0.748519    0.538431
  C     -4.710200   -1.350495   -0.206874
  C     -4.213687   -2.338254   -1.242248
  H      4.107803   -1.714694    1.349241
  H      3.482229   -1.225773    2.934019
  H      3.594042   -2.943737    2.514670
  H      1.226188   -2.116980    2.309777
  H      1.887463   -2.637440    0.732045
  H      2.533594    2.674484    0.741458
  H      2.981767    1.553218    2.054622
  H      4.539343    3.506412    1.977727
  H      5.397316    2.001736    1.600898
  H      4.951951    3.110109    0.301114
  H      0.512349   -0.513299   -2.468551
  H     -0.907762    0.597983   -2.427326
  H     -2.409295    0.067046    2.936885
  H     -1.089541   -0.711393    2.025308
  H     -0.952331    2.095712    3.243239
  H     -0.217137    0.649568    3.959554
  H      0.358548    1.266412    2.399276
  H     -5.312923   -1.839017    0.560058
  H     -5.287020   -0.552041   -0.683086
  H     -3.545755   -3.064458   -0.785685
  H     -5.062232   -2.853709   -1.680511
  H     -3.676241   -1.813502   -2.030788

 Total Charge           Charge          ....    0
 Multiplicity           Mult            ....    1
 Number of Electrons    NEL             ....  202
 Basis Dimension        Dim             ....  539

ORBITAL ENERGIES
----------------

  NO   OCC          E(Eh)            E(eV)
   0   2.0000     -88.578898     -2410.3543
   1   2.0000     -88.576966     -2410.3018
   2   2.0000     -88.531819     -2409.0733
   3   2.0000     -88.531705     -2409.0702
   4   2.0000     -76.920343     -2093.1090
   5   2.0000     -76.920214     -2093.1054
   6   2.0000     -18.997188      -516.9398
   7   2.0000     -18.996970      -516.9338
   8   2.0000     -18.994176      -516.8578
   9   2.0000     -18.991077      -516.7735
  10   2.0000     -10.103388      -274.9272
  11   2.0000     -10.094614      -274.6884
  12   2.0000     -10.091787      -274.6115
  13   2.0000     -10.091223      -274.5961
  14   2.0000     -10.087838      -274.5040
  15   2.0000     -10.021323      -272.6941
  16   2.0000     -10.018934      -272.6290
  17   2.0000     -10.018833      -272.6263
  18   2.0000     -10.018447      -272.6158
  19   2.0000      -7.873270      -214.2426
  20   2.0000      -7.871278      -214.1884
  21   2.0000      -7.827014      -212.9839
  22   2.0000      -7.826829      -212.9788
  23   2.0000      -6.598944      -179.5664
  24   2.0000      -6.598753      -179.5612
  25   2.0000      -5.820021      -158.3708
  26   2.0000      -5.818101      -158.3186
  27   2.0000      -5.817221      -158.2946
  28   2.0000      -5.815172      -158.2389
  29   2.0000      -5.810414      -158.1094
  30   2.0000      -5.808414      -158.0550
  31   2.0000      -5.774668      -157.1367
  32   2.0000      -5.774401      -157.1294
  33   2.0000      -5.767295      -156.9361
  34   2.0000      -5.767011      -156.9283
  35   2.0000      -5.766935      -156.9263
  36   2.0000      -5.766911      -156.9256
  37   2.0000      -4.744768      -129.1117
  38   2.0000      -4.744548      -129.1057
  39   2.0000      -4.743731      -129.0835
  40   2.0000      -4.743357      -129.0733
  41   2.0000      -4.742575      -129.0520
  42   2.0000      -4.742563      -129.0517
  43   2.0000      -1.054921       -28.7059
  44   2.0000      -1.050284       -28.5797
  45   2.0000      -1.012792       -27.5595
  46   2.0000      -1.011414       -27.5220
  47   2.0000      -0.804722       -21.8976
  48   2.0000      -0.758078       -20.6284
  49   2.0000      -0.747222       -20.3329
  50   2.0000      -0.726847       -19.7785
  51   2.0000      -0.725711       -19.7476
  52   2.0000      -0.710371       -19.3302
  53   2.0000      -0.690202       -18.7814
  54   2.0000      -0.676900       -18.4194
  55   2.0000      -0.627098       -17.0642
  56   2.0000      -0.615192       -16.7402
  57   2.0000      -0.600515       -16.3409
  58   2.0000      -0.599058       -16.3012
  59   2.0000      -0.589988       -16.0544
  60   2.0000      -0.531022       -14.4498
  61   2.0000      -0.523092       -14.2340
  62   2.0000      -0.497360       -13.5339
  63   2.0000      -0.491278       -13.3684
  64   2.0000      -0.478927       -13.0323
  65   2.0000      -0.460474       -12.5301
  66   2.0000      -0.453027       -12.3275
  67   2.0000      -0.451672       -12.2906
  68   2.0000      -0.443644       -12.0722
  69   2.0000      -0.432480       -11.7684
  70   2.0000      -0.419713       -11.4210
  71   2.0000      -0.408808       -11.1242
  72   2.0000      -0.406025       -11.0485
  73   2.0000      -0.403055       -10.9677
  74   2.0000      -0.389995       -10.6123
  75   2.0000      -0.386206       -10.5092
  76   2.0000      -0.380123       -10.3437
  77   2.0000      -0.372298       -10.1307
  78   2.0000      -0.360537        -9.8107
  79   2.0000      -0.359278        -9.7764
  80   2.0000      -0.354622        -9.6497
  81   2.0000      -0.353692        -9.6245
  82   2.0000      -0.351029        -9.5520
  83   2.0000      -0.346835        -9.4378
  84   2.0000      -0.345049        -9.3893
  85   2.0000      -0.330135        -8.9834
  86   2.0000      -0.326672        -8.8892
  87   2.0000      -0.319301        -8.6886
  88   2.0000      -0.316433        -8.6106
  89   2.0000      -0.306795        -8.3483
  90   2.0000      -0.297756        -8.1023
  91   2.0000      -0.285679        -7.7737
  92   2.0000      -0.283943        -7.7265
  93   2.0000      -0.280887        -7.6433
  94   2.0000      -0.274529        -7.4703
  95   2.0000      -0.248831        -6.7710
  96   2.0000      -0.239434        -6.5153
  97   2.0000      -0.237910        -6.4739
  98   2.0000      -0.230070        -6.2605
  99   2.0000      -0.226480        -6.1628
 100   2.0000      -0.221404        -6.0247
 101   0.0000      -0.051633        -1.4050
 102   0.0000      -0.031934        -0.8690
 103   0.0000      -0.007461        -0.2030
 104   0.0000      -0.001997        -0.0544
 105   0.0000       0.014564         0.3963

MULLIKEN ATOMIC CHARGES
-----------------------
   0 C :   -0.486833
   1 C :   -0.138686
   2 O :   -0.276874
   3 P :    0.655809
   4 S :   -0.504211
   5 O :   -0.306986
   6 C :   -0.107607
   7 C :   -0.498467
   8 S :   -0.164041
   9 C :   -0.246016
  10 S :   -0.160552
  11 P :    0.662951
  12 S :   -0.500231
  13 O :   -0.291498
  14 C :   -0.099414
  15 C :   -0.505744
  16 O :   -0.310350
  17 C :   -0.157891
  18 C :   -0.482797
  19 H :    0.168914
  20 H :    0.169946
  21 H :    0.171894
  22 H :    0.180755
  23 H :    0.176022
  24 H :    0.164498
  25 H :    0.182156
  26 H :    0.171622
  27 H :    0.169561
  28 H :    0.167678
  29 H :    0.234067
  30 H :    0.231968
  31 H :    0.176281
  32 H :    0.170874
  33 H :    0.167386
  34 H :    0.173199
  35 H :    0.170912
  36 H :    0.176029
  37 H :    0.179413
  38 H :    0.168937
  39 H :    0.173014
  40 H :    0.174313
Sum of atomic charges:    0.0000000

LOEWDIN ATOMIC CHARGES
----------------------
   0 C :   -0.401630
   1 C :    0.018012
   2 O :   -0.701979
   3 P :    0.380102
   4 S :   -0.140314
   5 O :   -0.680391
   6 C :    0.029844
   7 C :   -0.386115
   8 S :    0.148420
   9 C :   -0.422651
  10 S :    0.149044
  11 P :    0.383065
  12 S :   -0.145153
  13 O :   -0.675469
  14 C :    0.030165
  15 C :   -0.393984
  16 O :   -0.671159
  17 C :    0.029078
  18 C :   -0.411204
  19 H :    0.163097
  20 H :    0.163017
  21 H :    0.168562
  22 H :    0.190054
  23 H :    0.181760
  24 H :    0.180934
  25 H :    0.184053
  26 H :    0.170353
  27 H :    0.164717
  28 H :    0.164321
  29 H :    0.197232
  30 H :    0.197697
  31 H :    0.183374
  32 H :    0.182933
  33 H :    0.164418
  34 H :    0.171065
  35 H :    0.166701
  36 H :    0.191686
  37 H :    0.181815
  38 H :    0.163791
  39 H :    0.168756
  40 H :    0.161986

  Mayer bond orders larger than 0.100000
B(  0-C ,  1-C ) :   0.9114 B(  0-C , 19-H ) :   0.9609 B(  0-C , 20-H ) :   0.9715
B(  0-C , 21-H ) :   0.9583 B(  1-C ,  2-O ) :   0.7484 B(  1-C , 22-H ) :   0.9534
B(  1-C , 23-H ) :   0.9533 B(  2-O ,  3-P ) :   1.0376 B(  3-P ,  4-S ) :   1.8135
B(  3-P ,  5-O ) :   1.1468 B(  3-P ,  8-S ) :   1.0771 B(  5-O ,  6-C ) :   0.7344
B(  6-C ,  7-C ) :   0.9479 B(  6-C , 24-H ) :   0.9280 B(  6-C , 25-H ) :   0.9384
B(  7-C , 26-H ) :   0.9564 B(  7-C , 27-H ) :   0.9726 B(  7-C , 28-H ) :   0.9688
B(  8-S ,  9-C ) :   0.9013 B(  9-C , 10-S ) :   0.8983 B(  9-C , 29-H ) :   0.9028
B(  9-C , 30-H ) :   0.8998 B( 10-S , 11-P ) :   1.0140 B( 11-P , 12-S ) :   1.8147
B( 11-P , 13-O ) :   1.1680 B( 11-P , 16-O ) :   1.0499 B( 13-O , 14-C ) :   0.7245
B( 14-C , 15-C ) :   0.9320 B( 14-C , 31-H ) :   0.9351 B( 14-C , 32-H ) :   0.9452
B( 15-C , 33-H ) :   0.9685 B( 15-C , 34-H ) :   0.9604 B( 15-C , 35-H ) :   0.9647
B( 16-O , 17-C ) :   0.8067 B( 17-C , 18-C ) :   0.9062 B( 17-C , 36-H ) :   0.9505
B( 17-C , 37-H ) :   0.9672 B( 18-C , 38-H ) :   0.9647 B( 18-C , 39-H ) :   0.9508
B( 18-C , 40-H ) :   0.9645

Dispersion correction           -0.021622673
FINAL SINGLE POINT ENERGY     -2932.474983333585

DIPOLE MOMENT
-------------

Method             : SCF
Type of density    : Electron Density
Multiplicity       :   1
Irrep              :   0
Energy             : -2932.4998438494094444 Eh
Relativity type    :
Basis              : AO
                                X                 Y                 Z
Electronic contribution:     -7.000617162       3.360838179     -17.814691498
Nuclear contribution   :      6.905638093      -4.343245684      20.785920783
                        -----------------------------------------
Total Dipole Moment    :     -0.094979069      -0.982407505       2.971229284
                        -----------------------------------------
Magnitude (a.u.)       :      3.130870325
Magnitude (Debye)      :      7.958039930

Rotational constants in cm-1:             0.012666             0.004770             0.004627
Rotational constants in MHz :           379.712408           143.012033           138.726105

                             ****ORCA TERMINATED NORMALLY****
TOTAL RUN TIME: 0 days 0 hours 1 minutes 51 seconds 294 msec
