                         Program Version 6.0.0  -   RELEASE  -
|  1> ! pbe def2-sv(p) def2/J RI DEFGRID1 loosescf d4 GCP(DFT/SV(P)) printgap
|  2> %output
|  3>     printlevel normal
|  4> end
|  5> * xyz 0 1
|  6> C 4.9182429477 -1.3940773907 -1.817034543
|  7> C 4.8820594198 -0.0042803641 -1.2159893502
|  8> O 3.8651123347 0.1106768432 -0.2049984524
|  9> P 2.3174447537 0.0583643333 -0.5595723924
| 10> S 1.8497843444 1.0039952733 -2.2192142472
| 11> O 1.658941294 0.5852069189 0.7813745312
| 12> C 1.7001124234 1.9792710145 1.1584058038
| 13> C 0.8527360635 2.1380502222 2.4031009761
| 14> S 1.7759209179 -1.9676746967 -0.4121561783
| 15> C -0.0093972348 -1.7470493895 -0.610043258
| 16> S -0.8292789767 -1.4130472816 0.9848470884
| 17> P -2.1001880145 0.1311864736 0.3304715768
| 18> S -1.3618365445 1.6337491338 -0.6810674007
| 19> O -2.8387437843 0.6347103678 1.6368272489
| 20> C -3.5700382625 -0.2497404005 2.5243850479
| 21> C -2.7428942917 -0.580610097 3.7497799532
| 22> O -3.128444488 -0.7758432541 -0.5015537682
| 23> C -3.9793295918 -0.2196943938 -1.5206648074
| 24> C -5.0881874771 0.6219445122 -0.9225374638
| 25> H 5.7612582088 -1.4720147806 -2.4958983073
| 26> H 5.0108299953 -2.1422661319 -1.0340602298
| 27> H 3.9984813583 -1.5792781283 -2.3710560872
| 28> H 4.6858051327 0.7452882671 -1.9895127178
| 29> H 5.8058766056 0.2354788338 -0.6881481651
| 30> H 2.7420002856 2.253163152 1.3406487918
| 31> H 1.3090496784 2.5751011548 0.3262338768
| 32> H 1.2131431012 1.4736602025 3.1830807379
| 33> H 0.9075428384 3.1670984355 2.7424713203
| 34> H -0.1842401966 1.8925447621 2.180255383
| 35> H -0.4001971871 -2.6764879569 -1.0149440064
| 36> H -0.1905636902 -0.9071281201 -1.2861407503
| 37> H -4.4650735234 0.3144568503 2.7922594662
| 38> H -3.8481104269 -1.1533196935 1.9770712097
| 39> H -1.8533908792 -1.1405905546 3.4685651669
| 40> H -2.4393827639 0.3334196967 4.2525236758
| 41> H -3.340630847 -1.1811894854 4.4281264661
| 42> H -3.3643995452 0.3812127072 -2.1987027718
| 43> H -4.3679308639 -1.0922675388 -2.0474771396
| 44> H -5.7313761013 0.9862042229 -1.7174539397
| 45> H -5.6769332716 0.0333249544 -0.2238614359
| 46> H -4.6585334663 1.4750020504 -0.3976336448
| 47> *
| 48>
| 49>                          ****END OF INPUT****

CARTESIAN COORDINATES (ANGSTROEM)
---------------------------------
  C      4.918243   -1.394077   -1.817035
  C      4.882059   -0.004280   -1.215989
  O      3.865112    0.110677   -0.204998
  P      2.317445    0.058364   -0.559572
  S      1.849784    1.003995   -2.219214
  O      1.658941    0.585207    0.781375
  C      1.700112    1.979271    1.158406
  C      0.852736    2.138050    2.403101
  S      1.775921   -1.967675   -0.412156
  C     -0.009397   -1.747049   -0.610043
  S     -0.829279   -1.413047    0.984847
  P     -2.100188    0.131186    0.330472
  S     -1.361837    1.633749   -0.681067
  O     -2.838744    0.634710    1.636827
  C     -3.570038   -0.249740    2.524385
  C     -2.742894   -0.580610    3.749780
  O     -3.128444   -0.775843   -0.501554
  C     -3.979330   -0.219694   -1.520665
  C     -5.088187    0.621945   -0.922537
  H      5.761258   -1.472015   -2.495898
  H      5.010830   -2.142266   -1.034060
  H      3.998481   -1.579278   -2.371056
  H      4.685805    0.745288   -1.989513
  H      5.805877    0.235479   -0.688148
  H      2.742000    2.253163    1.340649
  H      1.309050    2.575101    0.326234
  H      1.213143    1.473660    3.183081
  H      0.907543    3.167098    2.742471
  H     -0.184240    1.892545    2.180255
  H     -0.400197   -2.676488   -1.014944
  H     -0.190564   -0.907128   -1.286141
  H     -4.465074    0.314457    2.792259
  H     -3.848110   -1.153320    1.977071
  H     -1.853391   -1.140591    3.468565
  H     -2.439383    0.333420    4.252524
  H     -3.340631   -1.181189    4.428126
  H     -3.364400    0.381213   -2.198703
  H     -4.367931   -1.092268   -2.047477
  H     -5.731376    0.986204   -1.717454
  H     -5.676933    0.033325   -0.223861
  H     -4.658533    1.475002   -0.397634

 Total Charge           Charge          ....    0
 Multiplicity           Mult            ....    1
 Number of Electrons    NEL             ....  202
 Basis Dimension        Dim             ....  334

ORBITAL ENERGIES
----------------

  NO   OCC          E(Eh)            E(eV)
   0   2.0000     -88.041960     -2395.7435
   1   2.0000     -88.039590     -2395.6790
   2   2.0000     -87.982991     -2394.1389
   3   2.0000     -87.976368     -2393.9587
   4   2.0000     -76.424517     -2079.6168
   5   2.0000     -76.418832     -2079.4621
   6   2.0000     -18.799341      -511.5561
   7   2.0000     -18.791159      -511.3334
   8   2.0000     -18.789704      -511.2938
   9   2.0000     -18.779613      -511.0192
  10   2.0000      -9.962119      -271.0830
  11   2.0000      -9.956503      -270.9302
  12   2.0000      -9.949962      -270.7522
  13   2.0000      -9.948783      -270.7201
  14   2.0000      -9.938335      -270.4359
  15   2.0000      -9.892549      -269.1899
  16   2.0000      -9.886544      -269.0265
  17   2.0000      -9.882899      -268.9274
  18   2.0000      -9.872346      -268.6402
  19   2.0000      -7.687671      -209.1921
  20   2.0000      -7.685039      -209.1206
  21   2.0000      -7.627976      -207.5678
  22   2.0000      -7.621346      -207.3874
  23   2.0000      -6.422211      -174.7572
  24   2.0000      -6.416686      -174.6069
  25   2.0000      -5.715632      -155.5302
  26   2.0000      -5.713010      -155.4589
  27   2.0000      -5.712244      -155.4381
  28   2.0000      -5.709669      -155.3680
  29   2.0000      -5.704367      -155.2237
  30   2.0000      -5.701723      -155.1518
  31   2.0000      -5.657026      -153.9355
  32   2.0000      -5.650196      -153.7497
  33   2.0000      -5.648523      -153.7041
  34   2.0000      -5.648042      -153.6910
  35   2.0000      -5.642004      -153.5267
  36   2.0000      -5.641587      -153.5154
  37   2.0000      -4.645325      -126.4057
  38   2.0000      -4.643578      -126.3582
  39   2.0000      -4.642532      -126.3297
  40   2.0000      -4.639339      -126.2428
  41   2.0000      -4.638366      -126.2164
  42   2.0000      -4.637080      -126.1814
  43   2.0000      -0.987215       -26.8635
  44   2.0000      -0.980615       -26.6839
  45   2.0000      -0.946707       -25.7612
  46   2.0000      -0.937832       -25.5197
  47   2.0000      -0.763076       -20.7644
  48   2.0000      -0.722978       -19.6732
  49   2.0000      -0.707051       -19.2398
  50   2.0000      -0.694251       -18.8915
  51   2.0000      -0.682267       -18.5654
  52   2.0000      -0.671313       -18.2674
  53   2.0000      -0.648847       -17.6560
  54   2.0000      -0.629765       -17.1368
  55   2.0000      -0.595872       -16.2145
  56   2.0000      -0.585683       -15.9373
  57   2.0000      -0.581912       -15.8346
  58   2.0000      -0.565251       -15.3813
  59   2.0000      -0.552438       -15.0326
  60   2.0000      -0.503183       -13.6923
  61   2.0000      -0.495992       -13.4966
  62   2.0000      -0.480254       -13.0684
  63   2.0000      -0.468168       -12.7395
  64   2.0000      -0.455217       -12.3871
  65   2.0000      -0.449268       -12.2252
  66   2.0000      -0.438015       -11.9190
  67   2.0000      -0.432860       -11.7787
  68   2.0000      -0.420976       -11.4553
  69   2.0000      -0.418652       -11.3921
  70   2.0000      -0.411827       -11.2064
  71   2.0000      -0.401131       -10.9153
  72   2.0000      -0.388458       -10.5705
  73   2.0000      -0.382671       -10.4130
  74   2.0000      -0.378989       -10.3128
  75   2.0000      -0.370556       -10.0833
  76   2.0000      -0.365216        -9.9380
  77   2.0000      -0.359756        -9.7894
  78   2.0000      -0.356584        -9.7031
  79   2.0000      -0.350386        -9.5345
  80   2.0000      -0.347155        -9.4466
  81   2.0000      -0.343968        -9.3598
  82   2.0000      -0.340224        -9.2580
  83   2.0000      -0.332808        -9.0562
  84   2.0000      -0.324573        -8.8321
  85   2.0000      -0.317958        -8.6521
  86   2.0000      -0.309419        -8.4197
  87   2.0000      -0.306547        -8.3416
  88   2.0000      -0.292899        -7.9702
  89   2.0000      -0.282068        -7.6755
  90   2.0000      -0.278705        -7.5840
  91   2.0000      -0.273867        -7.4523
  92   2.0000      -0.269998        -7.3470
  93   2.0000      -0.264667        -7.2019
  94   2.0000      -0.256225        -6.9722
  95   2.0000      -0.233560        -6.3555
  96   2.0000      -0.218574        -5.9477
  97   2.0000      -0.211923        -5.7667
  98   2.0000      -0.199288        -5.4229
  99   2.0000      -0.191673        -5.2157
 100   2.0000      -0.183482        -4.9928
 101   0.0000      -0.038630        -1.0512
 102   0.0000      -0.028159        -0.7663
 103   0.0000      -0.018409        -0.5009
 104   0.0000       0.015088         0.4106
 105   0.0000       0.024076         0.6551

MULLIKEN ATOMIC CHARGES
-----------------------
   0 C :   -0.324771
   1 C :   -0.002658
   2 O :   -0.375274
   3 P :    0.608197
   4 S :   -0.317992
   5 O :   -0.366682
   6 C :   -0.002328
   7 C :   -0.290968
   8 S :   -0.079345
   9 C :   -0.344218
  10 S :   -0.088013
  11 P :    0.592538
  12 S :   -0.280952
  13 O :   -0.369171
  14 C :   -0.035133
  15 C :   -0.296652
  16 O :   -0.387886
  17 C :   -0.008537
  18 C :   -0.316762
  19 H :    0.115023
  20 H :    0.118655
  21 H :    0.129457
  22 H :    0.111693
  23 H :    0.104024
  24 H :    0.095789
  25 H :    0.114934
  26 H :    0.108206
  27 H :    0.103307
  28 H :    0.127944
  29 H :    0.186808
  30 H :    0.194945
  31 H :    0.112606
  32 H :    0.112509
  33 H :    0.137120
  34 H :    0.125333
  35 H :    0.113267
  36 H :    0.116029
  37 H :    0.103047
  38 H :    0.114955
  39 H :    0.110608
  40 H :    0.130347
Sum of atomic charges:   -0.0000000

LOEWDIN ATOMIC CHARGES
----------------------
   0 C :   -0.371070
   1 C :   -0.121127
   2 O :   -0.244268
   3 P :    0.571362
   4 S :   -0.320489
   5 O :   -0.241489
   6 C :   -0.116732
   7 C :   -0.355059
   8 S :    0.090467
   9 C :   -0.471461
  10 S :    0.081431
  11 P :    0.562196
  12 S :   -0.278694
  13 O :   -0.240728
  14 C :   -0.119407
  15 C :   -0.359827
  16 O :   -0.260608
  17 C :   -0.123113
  18 C :   -0.365845
  19 H :    0.132267
  20 H :    0.124345
  21 H :    0.122064
  22 H :    0.110548
  23 H :    0.118040
  24 H :    0.107427
  25 H :    0.109911
  26 H :    0.123122
  27 H :    0.127727
  28 H :    0.120488
  29 H :    0.137108
  30 H :    0.126743
  31 H :    0.121475
  32 H :    0.110800
  33 H :    0.121539
  34 H :    0.130790
  35 H :    0.132095
  36 H :    0.111293
  37 H :    0.117159
  38 H :    0.132034
  39 H :    0.121542
  40 H :    0.125944

  Mayer bond orders larger than 0.100000
B(  0-C ,  1-C ) :   1.1636 B(  0-C , 19-H ) :   0.9385 B(  0-C , 20-H ) :   0.9450
B(  0-C , 21-H ) :   0.9327 B(  1-C ,  2-O ) :   0.9088 B(  1-C , 22-H ) :   0.9123
B(  1-C , 23-H ) :   0.9328 B(  2-O ,  3-P ) :   1.1019 B(  3-P ,  4-S ) :   1.6333
B(  3-P ,  5-O ) :   1.1353 B(  3-P ,  8-S ) :   0.9511 B(  4-S ,  8-S ) :   0.1117
B(  5-O ,  6-C ) :   0.8931 B(  6-C ,  7-C ) :   1.1658 B(  6-C , 24-H ) :   0.9294
B(  6-C , 25-H ) :   0.9099 B(  7-C , 26-H ) :   0.9489 B(  7-C , 27-H ) :   0.9406
B(  7-C , 28-H ) :   0.9359 B(  8-S ,  9-C ) :   1.0193 B(  9-C , 10-S ) :   0.9715
B(  9-C , 29-H ) :   0.9120 B(  9-C , 30-H ) :   0.8512 B( 10-S , 11-P ) :   0.9794
B( 10-S , 12-S ) :   0.1083 B( 11-P , 12-S ) :   1.6319 B( 11-P , 13-O ) :   1.0986
B( 11-P , 16-O ) :   1.0562 B( 13-O , 14-C ) :   0.8980 B( 14-C , 15-C ) :   1.1688
B( 14-C , 31-H ) :   0.9324 B( 14-C , 32-H ) :   0.9145 B( 15-C , 33-H ) :   0.9346
B( 15-C , 34-H ) :   0.9448 B( 15-C , 35-H ) :   0.9384 B( 16-O , 17-C ) :   0.9117
B( 17-C , 18-C ) :   1.1626 B( 17-C , 36-H ) :   0.9115 B( 17-C , 37-H ) :   0.9341
B( 18-C , 38-H ) :   0.9398 B( 18-C , 39-H ) :   0.9469 B( 18-C , 40-H ) :   0.9356

Dispersion correction           -0.065865516
FINAL SINGLE POINT ENERGY     -2929.516995596002

DIPOLE MOMENT
-------------

Method             : SCF
Type of density    : Electron Density
Multiplicity       :   1
Irrep              :   0
Energy             : -2929.6364187382064301 Eh
Relativity type    :
Basis              : AO
                                X                 Y                 Z
Electronic contribution:      8.042101037      -2.962894940      -8.142148077
Nuclear contribution   :     -8.767166848       2.225876964       8.953328428
                        -----------------------------------------
Total Dipole Moment    :     -0.725065811      -0.737017976       0.811180351
                        -----------------------------------------
Magnitude (a.u.)       :      1.314126892
Magnitude (Debye)      :      3.340245106

Rotational constants in cm-1:             0.013542             0.004767             0.004584
Rotational constants in MHz :           405.967193           142.898085           137.410035

                             ****ORCA TERMINATED NORMALLY****
TOTAL RUN TIME: 0 days 0 hours 0 minutes 20 seconds 921 msec
