                         Program Version 6.0.0  -   RELEASE  -
|  1> ! pbe def2-sv(p) def2/J RI DEFGRID1 loosescf d4 GCP(DFT/SV(P)) printgap
|  2> %output
|  3>     printlevel normal
|  4> end
|  5> * xyz 0 1
|  6> C 3.255093391 -1.1440808459 -2.3601091405
|  7> C 1.8140605552 -0.6974969698 -2.2495570256
|  8> O 1.5822996797 0.2579009734 -1.1837236298
|  9> P 1.9806388904 0.1274192527 0.3320808369
| 10> S 0.990412245 1.4544270488 1.3810424476
| 11> O 3.5562410317 0.2920013563 0.2984798991
| 12> C 4.4617562373 -0.1281771075 1.3371042301
| 13> C 4.1260295879 0.4650690771 2.6891025972
| 14> S 1.675454974 -1.8888076557 0.9261236941
| 15> C -0.0928546457 -1.7370492967 1.2557083105
| 16> S -1.0972658659 -1.6868446962 -0.2685290132
| 17> P -2.016522529 0.2239028863 -0.3025199046
| 18> S -1.2965068039 1.6892471363 -1.3973454305
| 19> O -2.1867071399 0.4530802609 1.2532832628
| 20> C -2.4657664665 1.7521550291 1.8121801052
| 21> C -3.8335690967 2.2575126484 1.4087527274
| 22> O -3.5027866488 -0.1608344878 -0.7330465981
| 23> C -3.9171695226 -0.1934387636 -2.1057844898
| 24> C -3.2695980834 -1.339353788 -2.856525893
| 25> H 3.3635946554 -1.7432875718 -3.2590175225
| 26> H 3.9132956343 -0.2812448791 -2.4216766244
| 27> H 3.5355801823 -1.7468587722 -1.4987832816
| 28> H 1.1503496501 -1.5518132155 -2.0834431586
| 29> H 1.4893667871 -0.150457263 -3.1366721552
| 30> H 4.4453916713 -1.2206430379 1.3804700489
| 31> H 5.4343862057 0.2159379832 0.9813788925
| 32> H 4.8890864424 0.1807059025 3.4063941043
| 33> H 4.0762713533 1.5497266108 2.6261498131
| 34> H 3.1600627076 0.0981985394 3.0329253995
| 35> H -0.2761035925 -0.8317907059 1.8352638648
| 36> H -0.3856458796 -2.6306310497 1.7998356039
| 37> H -2.3884755596 1.5915176261 2.8884737234
| 38> H -1.6778394384 2.4424831163 1.4930083601
| 39> H -4.5931488768 1.5201678613 1.6550953934
| 40> H -4.0406312503 3.1846840514 1.933724244
| 41> H -3.856489035 2.4451806395 0.3358144868
| 42> H -5.0011470198 -0.3018195343 -2.0542594162
| 43> H -3.6571971172 0.7647428044 -2.5685718134
| 44> H -2.1900175126 -1.1875756951 -2.8904312514
| 45> H -3.4725271047 -2.2831763242 -2.357285113
| 46> H -3.653873444 -1.3733816272 -3.8707198741
| 47> *
| 48>
| 49>                          ****END OF INPUT****

CARTESIAN COORDINATES (ANGSTROEM)
---------------------------------
  C      3.255093   -1.144081   -2.360109
  C      1.814061   -0.697497   -2.249557
  O      1.582300    0.257901   -1.183724
  P      1.980639    0.127419    0.332081
  S      0.990412    1.454427    1.381042
  O      3.556241    0.292001    0.298480
  C      4.461756   -0.128177    1.337104
  C      4.126030    0.465069    2.689103
  S      1.675455   -1.888808    0.926124
  C     -0.092855   -1.737049    1.255708
  S     -1.097266   -1.686845   -0.268529
  P     -2.016523    0.223903   -0.302520
  S     -1.296507    1.689247   -1.397345
  O     -2.186707    0.453080    1.253283
  C     -2.465766    1.752155    1.812180
  C     -3.833569    2.257513    1.408753
  O     -3.502787   -0.160834   -0.733047
  C     -3.917170   -0.193439   -2.105784
  C     -3.269598   -1.339354   -2.856526
  H      3.363595   -1.743288   -3.259018
  H      3.913296   -0.281245   -2.421677
  H      3.535580   -1.746859   -1.498783
  H      1.150350   -1.551813   -2.083443
  H      1.489367   -0.150457   -3.136672
  H      4.445392   -1.220643    1.380470
  H      5.434386    0.215938    0.981379
  H      4.889086    0.180706    3.406394
  H      4.076271    1.549727    2.626150
  H      3.160063    0.098199    3.032925
  H     -0.276104   -0.831791    1.835264
  H     -0.385646   -2.630631    1.799836
  H     -2.388476    1.591518    2.888474
  H     -1.677839    2.442483    1.493008
  H     -4.593149    1.520168    1.655095
  H     -4.040631    3.184684    1.933724
  H     -3.856489    2.445181    0.335814
  H     -5.001147   -0.301820   -2.054259
  H     -3.657197    0.764743   -2.568572
  H     -2.190018   -1.187576   -2.890431
  H     -3.472527   -2.283176   -2.357285
  H     -3.653873   -1.373382   -3.870720

 Total Charge           Charge          ....    0
 Multiplicity           Mult            ....    1
 Number of Electrons    NEL             ....  202
 Basis Dimension        Dim             ....  334

ORBITAL ENERGIES
----------------

  NO   OCC          E(Eh)            E(eV)
   0   2.0000     -88.047287     -2395.8885
   1   2.0000     -88.038069     -2395.6376
   2   2.0000     -87.977309     -2393.9843
   3   2.0000     -87.975233     -2393.9278
   4   2.0000     -76.424341     -2079.6120
   5   2.0000     -76.418531     -2079.4539
   6   2.0000     -18.792725      -511.3760
   7   2.0000     -18.785137      -511.1696
   8   2.0000     -18.783092      -511.1139
   9   2.0000     -18.780793      -511.0514
  10   2.0000      -9.959838      -271.0210
  11   2.0000      -9.957773      -270.9648
  12   2.0000      -9.948087      -270.7012
  13   2.0000      -9.945527      -270.6316
  14   2.0000      -9.943599      -270.5791
  15   2.0000      -9.885419      -268.9959
  16   2.0000      -9.883378      -268.9404
  17   2.0000      -9.883150      -268.9342
  18   2.0000      -9.876806      -268.7616
  19   2.0000      -7.692340      -209.3192
  20   2.0000      -7.683130      -209.0686
  21   2.0000      -7.622317      -207.4138
  22   2.0000      -7.620073      -207.3527
  23   2.0000      -6.421350      -174.7338
  24   2.0000      -6.416003      -174.5883
  25   2.0000      -5.719986      -155.6487
  26   2.0000      -5.716693      -155.5591
  27   2.0000      -5.711409      -155.4153
  28   2.0000      -5.709718      -155.3693
  29   2.0000      -5.707364      -155.3053
  30   2.0000      -5.699928      -155.1029
  31   2.0000      -5.651310      -153.7800
  32   2.0000      -5.649064      -153.7188
  33   2.0000      -5.643031      -153.5547
  34   2.0000      -5.642250      -153.5334
  35   2.0000      -5.640978      -153.4988
  36   2.0000      -5.639938      -153.4705
  37   2.0000      -4.644016      -126.3701
  38   2.0000      -4.643687      -126.3612
  39   2.0000      -4.641259      -126.2951
  40   2.0000      -4.638536      -126.2210
  41   2.0000      -4.637862      -126.2026
  42   2.0000      -4.636408      -126.1631
  43   2.0000      -0.984408       -26.7871
  44   2.0000      -0.979550       -26.6549
  45   2.0000      -0.941253       -25.6128
  46   2.0000      -0.938972       -25.5507
  47   2.0000      -0.762143       -20.7390
  48   2.0000      -0.717385       -19.5210
  49   2.0000      -0.706942       -19.2369
  50   2.0000      -0.689735       -18.7687
  51   2.0000      -0.682712       -18.5775
  52   2.0000      -0.671848       -18.2819
  53   2.0000      -0.648724       -17.6527
  54   2.0000      -0.631501       -17.1840
  55   2.0000      -0.595075       -16.1928
  56   2.0000      -0.587318       -15.9817
  57   2.0000      -0.576088       -15.6761
  58   2.0000      -0.568051       -15.4575
  59   2.0000      -0.564376       -15.3575
  60   2.0000      -0.493540       -13.4299
  61   2.0000      -0.485657       -13.2154
  62   2.0000      -0.469037       -12.7631
  63   2.0000      -0.466584       -12.6964
  64   2.0000      -0.453499       -12.3403
  65   2.0000      -0.447561       -12.1788
  66   2.0000      -0.436393       -11.8749
  67   2.0000      -0.433362       -11.7924
  68   2.0000      -0.428496       -11.6600
  69   2.0000      -0.415480       -11.3058
  70   2.0000      -0.411548       -11.1988
  71   2.0000      -0.399809       -10.8794
  72   2.0000      -0.390843       -10.6354
  73   2.0000      -0.388494       -10.5715
  74   2.0000      -0.384040       -10.4503
  75   2.0000      -0.374053       -10.1785
  76   2.0000      -0.358870        -9.7654
  77   2.0000      -0.351850        -9.5743
  78   2.0000      -0.350026        -9.5247
  79   2.0000      -0.347303        -9.4506
  80   2.0000      -0.345434        -9.3997
  81   2.0000      -0.342485        -9.3195
  82   2.0000      -0.340443        -9.2639
  83   2.0000      -0.337072        -9.1722
  84   2.0000      -0.325866        -8.8673
  85   2.0000      -0.317781        -8.6473
  86   2.0000      -0.306505        -8.3404
  87   2.0000      -0.295370        -8.0374
  88   2.0000      -0.289982        -7.8908
  89   2.0000      -0.282156        -7.6779
  90   2.0000      -0.277448        -7.5497
  91   2.0000      -0.271396        -7.3851
  92   2.0000      -0.266649        -7.2559
  93   2.0000      -0.262814        -7.1515
  94   2.0000      -0.253959        -6.9106
  95   2.0000      -0.240261        -6.5378
  96   2.0000      -0.218300        -5.9402
  97   2.0000      -0.206851        -5.6287
  98   2.0000      -0.196786        -5.3548
  99   2.0000      -0.188901        -5.1403
 100   2.0000      -0.174991        -4.7618
 101   0.0000      -0.044847        -1.2203
 102   0.0000      -0.026270        -0.7148
 103   0.0000      -0.022168        -0.6032
 104   0.0000       0.001205         0.0328
 105   0.0000       0.024177         0.6579

MULLIKEN ATOMIC CHARGES
-----------------------
   0 C :   -0.310158
   1 C :   -0.001469
   2 O :   -0.337597
   3 P :    0.598225
   4 S :   -0.307658
   5 O :   -0.371001
   6 C :   -0.013533
   7 C :   -0.304646
   8 S :   -0.124964
   9 C :   -0.337539
  10 S :   -0.116926
  11 P :    0.614308
  12 S :   -0.302247
  13 O :   -0.372398
  14 C :   -0.006454
  15 C :   -0.302601
  16 O :   -0.371317
  17 C :   -0.001598
  18 C :   -0.324284
  19 H :    0.112456
  20 H :    0.123673
  21 H :    0.110814
  22 H :    0.115400
  23 H :    0.111751
  24 H :    0.110410
  25 H :    0.110554
  26 H :    0.109575
  27 H :    0.128509
  28 H :    0.122822
  29 H :    0.209757
  30 H :    0.182853
  31 H :    0.101477
  32 H :    0.127638
  33 H :    0.113901
  34 H :    0.110241
  35 H :    0.123304
  36 H :    0.102570
  37 H :    0.106974
  38 H :    0.123846
  39 H :    0.121365
  40 H :    0.113966
Sum of atomic charges:   -0.0000000

LOEWDIN ATOMIC CHARGES
----------------------
   0 C :   -0.367273
   1 C :   -0.114237
   2 O :   -0.221471
   3 P :    0.569453
   4 S :   -0.296465
   5 O :   -0.239467
   6 C :   -0.113990
   7 C :   -0.369285
   8 S :    0.059037
   9 C :   -0.474841
  10 S :    0.077294
  11 P :    0.568960
  12 S :   -0.302265
  13 O :   -0.236421
  14 C :   -0.117522
  15 C :   -0.365804
  16 O :   -0.246388
  17 C :   -0.124506
  18 C :   -0.370715
  19 H :    0.130840
  20 H :    0.128460
  21 H :    0.114971
  22 H :    0.103525
  23 H :    0.123533
  24 H :    0.106438
  25 H :    0.122010
  26 H :    0.129237
  27 H :    0.131416
  28 H :    0.120243
  29 H :    0.131584
  30 H :    0.138215
  31 H :    0.117587
  32 H :    0.111843
  33 H :    0.125120
  34 H :    0.129878
  35 H :    0.122568
  36 H :    0.117688
  37 H :    0.106641
  38 H :    0.117647
  39 H :    0.125102
  40 H :    0.131359

  Mayer bond orders larger than 0.100000
B(  0-C ,  1-C ) :   1.1656 B(  0-C , 19-H ) :   0.9366 B(  0-C , 20-H ) :   0.9427
B(  0-C , 21-H ) :   0.9407 B(  1-C ,  2-O ) :   0.8987 B(  1-C , 22-H ) :   0.9115
B(  1-C , 23-H ) :   0.9336 B(  2-O ,  3-P ) :   1.1651 B(  3-P ,  4-S ) :   1.6279
B(  3-P ,  5-O ) :   1.0984 B(  3-P ,  8-S ) :   0.9231 B(  4-S ,  8-S ) :   0.1061
B(  5-O ,  6-C ) :   0.9122 B(  6-C ,  7-C ) :   1.1669 B(  6-C , 24-H ) :   0.9259
B(  6-C , 25-H ) :   0.9338 B(  7-C , 26-H ) :   0.9346 B(  7-C , 27-H ) :   0.9425
B(  7-C , 28-H ) :   0.9325 B(  8-S ,  9-C ) :   1.0064 B(  9-C , 10-S ) :   0.9980
B(  9-C , 29-H ) :   0.8564 B(  9-C , 30-H ) :   0.9099 B( 10-S , 11-P ) :   0.9365
B( 10-S , 12-S ) :   0.1033 B( 11-P , 12-S ) :   1.6326 B( 11-P , 13-O ) :   1.1251
B( 11-P , 16-O ) :   1.0797 B( 13-O , 14-C ) :   0.8932 B( 14-C , 15-C ) :   1.1641
B( 14-C , 31-H ) :   0.9362 B( 14-C , 32-H ) :   0.9118 B( 15-C , 33-H ) :   0.9449
B( 15-C , 34-H ) :   0.9389 B( 15-C , 35-H ) :   0.9343 B( 16-O , 17-C ) :   0.9196
B( 17-C , 18-C ) :   1.1644 B( 17-C , 36-H ) :   0.9319 B( 17-C , 37-H ) :   0.9083
B( 18-C , 38-H ) :   0.9319 B( 18-C , 39-H ) :   0.9432 B( 18-C , 40-H ) :   0.9390

Dispersion correction           -0.069148916
FINAL SINGLE POINT ENERGY     -2929.508718334469

DIPOLE MOMENT
-------------

Method             : SCF
Type of density    : Electron Density
Multiplicity       :   1
Irrep              :   0
Energy             : -2929.6260902310573329 Eh
Relativity type    :
Basis              : AO
                                X                 Y                 Z
Electronic contribution:      0.068020569       0.393549916       2.734377821
Nuclear contribution   :      0.263975157      -1.517311983      -2.651300693
                        -----------------------------------------
Total Dipole Moment    :      0.331995725      -1.123762067       0.083077127
                        -----------------------------------------
Magnitude (a.u.)       :      1.174718755
Magnitude (Debye)      :      2.985897783

Rotational constants in cm-1:             0.012738             0.005673             0.004954
Rotational constants in MHz :           381.879917           170.060479           148.519077

                             ****ORCA TERMINATED NORMALLY****
TOTAL RUN TIME: 0 days 0 hours 0 minutes 21 seconds 846 msec
