                         Program Version 6.0.0  -   RELEASE  -
|  1> ! r2scan-3c def2/J RI DEFGRID2 scfconv6 printgap
|  2> %output
|  3>     printlevel normal
|  4> end
|  5> * xyz 0 1
|  6> C 5.0335712388 -2.3559012019 -1.3975001936
|  7> C 4.0559943598 -1.2075673373 -1.5449218975
|  8> O 3.0364343606 -1.3608961678 -0.5360771368
|  9> P 2.0997946887 -0.1534388737 -0.1086866187
| 10> S 3.0301691306 1.5276383976 0.2926656831
| 11> O 1.2644242419 -0.8141180542 1.0582871982
| 12> C 1.5480930731 -0.5624420527 2.4493265497
| 13> C 2.8147685893 -1.2671692038 2.8854019687
| 14> S 0.675615819 -0.0870940334 -1.6711473243
| 15> C 0.0359811115 1.5723606455 -1.3054854311
| 16> S -0.6714690307 1.7112294841 0.3541216807
| 17> P -2.2265198116 0.2884724434 0.0756029272
| 18> S -3.0365982263 0.2363749026 -1.7120707897
| 19> O -3.1731401798 0.5536783774 1.3188188819
| 20> C -3.688669664 1.8356525705 1.7234380259
| 21> C -4.3952097422 2.5674163811 0.6009460342
| 22> O -1.5819474704 -1.0747789194 0.5570369912
| 23> C -1.6993087016 -2.3133898077 -0.1636313433
| 24> C -2.9724527743 -3.0338956246 0.2287172622
| 25> H 5.5088167089 -2.3214284528 -0.4213647889
| 26> H 4.510773447 -3.3020875746 -1.5017932403
| 27> H 5.793052348 -2.2770169914 -2.1683276813
| 28> H 3.5708985655 -1.2184252798 -2.5247907062
| 29> H 4.5471619406 -0.2394733964 -1.3993510926
| 30> H 1.6316940775 0.5193468928 2.5984026311
| 31> H 0.6657194095 -0.938760424 2.9691133101
| 32> H 3.666638635 -0.8525192369 2.3472971215
| 33> H 2.9627906588 -1.1193748581 3.9504718359
| 34> H 2.7469139516 -2.3302435316 2.6706251096
| 35> H -0.7320001728 1.774053011 -2.051841641
| 36> H 0.847365119 2.2973440302 -1.3573347142
| 37> H -4.376555167 1.5893176247 2.5343588236
| 38> H -2.8569922475 2.4310186584 2.1110365871
| 39> H -5.1712075922 1.9401808982 0.1684922435
| 40> H -4.8425754946 3.476695241 0.9893612222
| 41> H -3.6858242532 2.828525216 -0.183235766
| 42> H -1.684673393 -2.1068705931 -1.2394120676
| 43> H -0.805493985 -2.8758326587 0.1119543832
| 44> H -3.8340396872 -2.4328154745 -0.0586243885
| 45> H -3.0190219953 -3.9900826482 -0.2824786427
| 46> H -2.9983111838 -3.1927409635 1.3031217412
| 47> *
| 48>
| 49>                          ****END OF INPUT****

CARTESIAN COORDINATES (ANGSTROEM)
---------------------------------
  C      5.033571   -2.355901   -1.397500
  C      4.055994   -1.207567   -1.544922
  O      3.036434   -1.360896   -0.536077
  P      2.099795   -0.153439   -0.108687
  S      3.030169    1.527638    0.292666
  O      1.264424   -0.814118    1.058287
  C      1.548093   -0.562442    2.449327
  C      2.814769   -1.267169    2.885402
  S      0.675616   -0.087094   -1.671147
  C      0.035981    1.572361   -1.305485
  S     -0.671469    1.711229    0.354122
  P     -2.226520    0.288472    0.075603
  S     -3.036598    0.236375   -1.712071
  O     -3.173140    0.553678    1.318819
  C     -3.688670    1.835653    1.723438
  C     -4.395210    2.567416    0.600946
  O     -1.581947   -1.074779    0.557037
  C     -1.699309   -2.313390   -0.163631
  C     -2.972453   -3.033896    0.228717
  H      5.508817   -2.321428   -0.421365
  H      4.510773   -3.302088   -1.501793
  H      5.793052   -2.277017   -2.168328
  H      3.570899   -1.218425   -2.524791
  H      4.547162   -0.239473   -1.399351
  H      1.631694    0.519347    2.598403
  H      0.665719   -0.938760    2.969113
  H      3.666639   -0.852519    2.347297
  H      2.962791   -1.119375    3.950472
  H      2.746914   -2.330244    2.670625
  H     -0.732000    1.774053   -2.051842
  H      0.847365    2.297344   -1.357335
  H     -4.376555    1.589318    2.534359
  H     -2.856992    2.431019    2.111037
  H     -5.171208    1.940181    0.168492
  H     -4.842575    3.476695    0.989361
  H     -3.685824    2.828525   -0.183236
  H     -1.684673   -2.106871   -1.239412
  H     -0.805494   -2.875833    0.111954
  H     -3.834040   -2.432815   -0.058624
  H     -3.019022   -3.990083   -0.282479
  H     -2.998311   -3.192741    1.303122

 Total Charge           Charge          ....    0
 Multiplicity           Mult            ....    1
 Number of Electrons    NEL             ....  202
 Basis Dimension        Dim             ....  539

ORBITAL ENERGIES
----------------

  NO   OCC          E(Eh)            E(eV)
   0   2.0000     -88.574927     -2410.2463
   1   2.0000     -88.574922     -2410.2462
   2   2.0000     -88.520955     -2408.7776
   3   2.0000     -88.518026     -2408.6980
   4   2.0000     -76.913182     -2092.9141
   5   2.0000     -76.912564     -2092.8973
   6   2.0000     -18.993351      -516.8354
   7   2.0000     -18.991440      -516.7833
   8   2.0000     -18.987725      -516.6823
   9   2.0000     -18.982585      -516.5424
  10   2.0000     -10.105835      -274.9937
  11   2.0000     -10.103505      -274.9304
  12   2.0000     -10.099728      -274.8276
  13   2.0000     -10.095128      -274.7024
  14   2.0000     -10.089020      -274.5362
  15   2.0000     -10.034538      -273.0537
  16   2.0000     -10.027507      -272.8623
  17   2.0000     -10.027262      -272.8557
  18   2.0000     -10.022496      -272.7260
  19   2.0000      -7.869224      -214.1325
  20   2.0000      -7.869198      -214.1318
  21   2.0000      -7.815761      -212.6777
  22   2.0000      -7.812917      -212.6003
  23   2.0000      -6.591841      -179.3731
  24   2.0000      -6.590775      -179.3441
  25   2.0000      -5.816053      -158.2629
  26   2.0000      -5.816050      -158.2628
  27   2.0000      -5.813081      -158.1820
  28   2.0000      -5.813041      -158.1809
  29   2.0000      -5.806441      -158.0013
  30   2.0000      -5.806330      -157.9983
  31   2.0000      -5.763344      -156.8286
  32   2.0000      -5.760595      -156.7538
  33   2.0000      -5.756051      -156.6301
  34   2.0000      -5.755813      -156.6236
  35   2.0000      -5.753203      -156.5526
  36   2.0000      -5.752876      -156.5437
  37   2.0000      -4.737152      -128.9044
  38   2.0000      -4.736791      -128.8946
  39   2.0000      -4.736214      -128.8789
  40   2.0000      -4.735846      -128.8689
  41   2.0000      -4.735709      -128.8652
  42   2.0000      -4.734471      -128.8315
  43   2.0000      -1.050187       -28.5771
  44   2.0000      -1.047439       -28.5023
  45   2.0000      -1.010882       -27.5075
  46   2.0000      -1.006408       -27.3857
  47   2.0000      -0.802374       -21.8337
  48   2.0000      -0.758433       -20.6380
  49   2.0000      -0.749187       -20.3864
  50   2.0000      -0.732135       -19.9224
  51   2.0000      -0.727072       -19.7846
  52   2.0000      -0.708589       -19.2817
  53   2.0000      -0.685241       -18.6464
  54   2.0000      -0.669548       -18.2193
  55   2.0000      -0.630265       -17.1504
  56   2.0000      -0.625560       -17.0223
  57   2.0000      -0.603373       -16.4186
  58   2.0000      -0.599577       -16.3153
  59   2.0000      -0.593592       -16.1524
  60   2.0000      -0.529914       -14.4197
  61   2.0000      -0.517188       -14.0734
  62   2.0000      -0.496188       -13.5020
  63   2.0000      -0.487077       -13.2540
  64   2.0000      -0.474806       -12.9201
  65   2.0000      -0.462739       -12.5918
  66   2.0000      -0.454223       -12.3600
  67   2.0000      -0.452482       -12.3126
  68   2.0000      -0.445241       -12.1156
  69   2.0000      -0.435151       -11.8411
  70   2.0000      -0.425755       -11.5854
  71   2.0000      -0.411924       -11.2090
  72   2.0000      -0.401646       -10.9293
  73   2.0000      -0.399825       -10.8798
  74   2.0000      -0.398574       -10.8458
  75   2.0000      -0.390438       -10.6244
  76   2.0000      -0.387909       -10.5555
  77   2.0000      -0.373948       -10.1756
  78   2.0000      -0.369704       -10.0602
  79   2.0000      -0.362619        -9.8674
  80   2.0000      -0.359707        -9.7881
  81   2.0000      -0.359552        -9.7839
  82   2.0000      -0.357154        -9.7186
  83   2.0000      -0.353688        -9.6243
  84   2.0000      -0.344808        -9.3827
  85   2.0000      -0.333079        -9.0635
  86   2.0000      -0.322576        -8.7777
  87   2.0000      -0.316711        -8.6181
  88   2.0000      -0.310396        -8.4463
  89   2.0000      -0.300335        -8.1725
  90   2.0000      -0.296502        -8.0682
  91   2.0000      -0.291917        -7.9435
  92   2.0000      -0.285214        -7.7611
  93   2.0000      -0.278384        -7.5752
  94   2.0000      -0.267768        -7.2863
  95   2.0000      -0.245588        -6.6828
  96   2.0000      -0.230538        -6.2733
  97   2.0000      -0.226750        -6.1702
  98   2.0000      -0.220528        -6.0009
  99   2.0000      -0.211692        -5.7604
 100   2.0000      -0.210451        -5.7267
 101   0.0000      -0.047917        -1.3039
 102   0.0000      -0.024854        -0.6763
 103   0.0000      -0.001038        -0.0282
 104   0.0000       0.002949         0.0802
 105   0.0000       0.012425         0.3381

MULLIKEN ATOMIC CHARGES
-----------------------
   0 C :   -0.439723
   1 C :   -0.156415
   2 O :   -0.287197
   3 P :    0.709852
   4 S :   -0.487338
   5 O :   -0.257377
   6 C :   -0.158744
   7 C :   -0.444465
   8 S :   -0.147693
   9 C :   -0.231639
  10 S :   -0.145606
  11 P :    0.671959
  12 S :   -0.465639
  13 O :   -0.296733
  14 C :   -0.153809
  15 C :   -0.425997
  16 O :   -0.263492
  17 C :   -0.148900
  18 C :   -0.451337
  19 H :    0.155234
  20 H :    0.153686
  21 H :    0.147396
  22 H :    0.152605
  23 H :    0.170850
  24 H :    0.174191
  25 H :    0.159154
  26 H :    0.167623
  27 H :    0.146713
  28 H :    0.153897
  29 H :    0.207590
  30 H :    0.209933
  31 H :    0.150160
  32 H :    0.152631
  33 H :    0.164651
  34 H :    0.147183
  35 H :    0.168672
  36 H :    0.176227
  37 H :    0.159864
  38 H :    0.166155
  39 H :    0.144975
  40 H :    0.150900
Sum of atomic charges:    0.0000000

LOEWDIN ATOMIC CHARGES
----------------------
   0 C :   -0.385595
   1 C :    0.019618
   2 O :   -0.663270
   3 P :    0.375846
   4 S :   -0.132074
   5 O :   -0.664961
   6 C :    0.018606
   7 C :   -0.399125
   8 S :    0.170610
   9 C :   -0.418937
  10 S :    0.158952
  11 P :    0.387612
  12 S :   -0.128117
  13 O :   -0.653029
  14 C :    0.023513
  15 C :   -0.406743
  16 O :   -0.661194
  17 C :    0.008229
  18 C :   -0.396983
  19 H :    0.160272
  20 H :    0.159938
  21 H :    0.160185
  22 H :    0.172098
  23 H :    0.180615
  24 H :    0.181702
  25 H :    0.182264
  26 H :    0.164758
  27 H :    0.159367
  28 H :    0.159539
  29 H :    0.190320
  30 H :    0.189452
  31 H :    0.181649
  32 H :    0.171946
  33 H :    0.165386
  34 H :    0.158031
  35 H :    0.165930
  36 H :    0.182450
  37 H :    0.180545
  38 H :    0.164251
  39 H :    0.158590
  40 H :    0.157755

  Mayer bond orders larger than 0.100000
B(  0-C ,  1-C ) :   0.9572 B(  0-C , 19-H ) :   0.9714 B(  0-C , 20-H ) :   0.9717
B(  0-C , 21-H ) :   0.9644 B(  1-C ,  2-O ) :   0.7786 B(  1-C , 22-H ) :   0.9457
B(  1-C , 23-H ) :   0.9518 B(  2-O ,  3-P ) :   1.0943 B(  3-P ,  4-S ) :   1.7364
B(  3-P ,  5-O ) :   1.1660 B(  3-P ,  8-S ) :   1.0529 B(  5-O ,  6-C ) :   0.7800
B(  6-C ,  7-C ) :   0.9252 B(  6-C , 24-H ) :   0.9626 B(  6-C , 25-H ) :   0.9624
B(  7-C , 26-H ) :   0.9609 B(  7-C , 27-H ) :   0.9637 B(  7-C , 28-H ) :   0.9729
B(  8-S ,  9-C ) :   0.9017 B(  9-C , 10-S ) :   0.9111 B(  9-C , 29-H ) :   0.9100
B(  9-C , 30-H ) :   0.9101 B( 10-S , 11-P ) :   1.0338 B( 11-P , 12-S ) :   1.7706
B( 11-P , 13-O ) :   1.1118 B( 11-P , 16-O ) :   1.1357 B( 13-O , 14-C ) :   0.8064
B( 14-C , 15-C ) :   0.9397 B( 14-C , 31-H ) :   0.9581 B( 14-C , 32-H ) :   0.9640
B( 15-C , 33-H ) :   0.9662 B( 15-C , 34-H ) :   0.9625 B( 15-C , 35-H ) :   0.9542
B( 16-O , 17-C ) :   0.7640 B( 17-C , 18-C ) :   0.9329 B( 17-C , 36-H ) :   0.9568
B( 17-C , 37-H ) :   0.9632 B( 18-C , 38-H ) :   0.9644 B( 18-C , 39-H ) :   0.9665
B( 18-C , 40-H ) :   0.9758

Dispersion correction           -0.021606433
FINAL SINGLE POINT ENERGY     -2932.463279620095

DIPOLE MOMENT
-------------

Method             : SCF
Type of density    : Electron Density
Multiplicity       :   1
Irrep              :   0
Energy             : -2932.4880092210123621 Eh
Relativity type    :
Basis              : AO
                                X                 Y                 Z
Electronic contribution:     -2.174225180      11.206778965      -7.488043244
Nuclear contribution   :      2.400520121     -11.836817582       8.180368078
                        -----------------------------------------
Total Dipole Moment    :      0.226294941      -0.630038618       0.692324834
                        -----------------------------------------
Magnitude (a.u.)       :      0.963053340
Magnitude (Debye)      :      2.447887054

Rotational constants in cm-1:             0.012877             0.004943             0.004770
Rotational constants in MHz :           386.041404           148.173521           142.997085

                             ****ORCA TERMINATED NORMALLY****
TOTAL RUN TIME: 0 days 0 hours 1 minutes 24 seconds 329 msec
