                         Program Version 6.0.0  -   RELEASE  -
|  1> ! r2scan-3c def2/J RI DEFGRID2 scfconv6 printgap
|  2> %output
|  3>     printlevel normal
|  4> end
|  5> %cpcm
|  6>     smd true
|  7>     smdsolvent "water"
|  8> end
|  9> * xyz 0 1
| 10> C 5.0335712388 -2.3559012019 -1.3975001936
| 11> C 4.0559943598 -1.2075673373 -1.5449218975
| 12> O 3.0364343606 -1.3608961678 -0.5360771368
| 13> P 2.0997946887 -0.1534388737 -0.1086866187
| 14> S 3.0301691306 1.5276383976 0.2926656831
| 15> O 1.2644242419 -0.8141180542 1.0582871982
| 16> C 1.5480930731 -0.5624420527 2.4493265497
| 17> C 2.8147685893 -1.2671692038 2.8854019687
| 18> S 0.675615819 -0.0870940334 -1.6711473243
| 19> C 0.0359811115 1.5723606455 -1.3054854311
| 20> S -0.6714690307 1.7112294841 0.3541216807
| 21> P -2.2265198116 0.2884724434 0.0756029272
| 22> S -3.0365982263 0.2363749026 -1.7120707897
| 23> O -3.1731401798 0.5536783774 1.3188188819
| 24> C -3.688669664 1.8356525705 1.7234380259
| 25> C -4.3952097422 2.5674163811 0.6009460342
| 26> O -1.5819474704 -1.0747789194 0.5570369912
| 27> C -1.6993087016 -2.3133898077 -0.1636313433
| 28> C -2.9724527743 -3.0338956246 0.2287172622
| 29> H 5.5088167089 -2.3214284528 -0.4213647889
| 30> H 4.510773447 -3.3020875746 -1.5017932403
| 31> H 5.793052348 -2.2770169914 -2.1683276813
| 32> H 3.5708985655 -1.2184252798 -2.5247907062
| 33> H 4.5471619406 -0.2394733964 -1.3993510926
| 34> H 1.6316940775 0.5193468928 2.5984026311
| 35> H 0.6657194095 -0.938760424 2.9691133101
| 36> H 3.666638635 -0.8525192369 2.3472971215
| 37> H 2.9627906588 -1.1193748581 3.9504718359
| 38> H 2.7469139516 -2.3302435316 2.6706251096
| 39> H -0.7320001728 1.774053011 -2.051841641
| 40> H 0.847365119 2.2973440302 -1.3573347142
| 41> H -4.376555167 1.5893176247 2.5343588236
| 42> H -2.8569922475 2.4310186584 2.1110365871
| 43> H -5.1712075922 1.9401808982 0.1684922435
| 44> H -4.8425754946 3.476695241 0.9893612222
| 45> H -3.6858242532 2.828525216 -0.183235766
| 46> H -1.684673393 -2.1068705931 -1.2394120676
| 47> H -0.805493985 -2.8758326587 0.1119543832
| 48> H -3.8340396872 -2.4328154745 -0.0586243885
| 49> H -3.0190219953 -3.9900826482 -0.2824786427
| 50> H -2.9983111838 -3.1927409635 1.3031217412
| 51> *
| 52>
| 53>                          ****END OF INPUT****

CARTESIAN COORDINATES (ANGSTROEM)
---------------------------------
  C      5.033571   -2.355901   -1.397500
  C      4.055994   -1.207567   -1.544922
  O      3.036434   -1.360896   -0.536077
  P      2.099795   -0.153439   -0.108687
  S      3.030169    1.527638    0.292666
  O      1.264424   -0.814118    1.058287
  C      1.548093   -0.562442    2.449327
  C      2.814769   -1.267169    2.885402
  S      0.675616   -0.087094   -1.671147
  C      0.035981    1.572361   -1.305485
  S     -0.671469    1.711229    0.354122
  P     -2.226520    0.288472    0.075603
  S     -3.036598    0.236375   -1.712071
  O     -3.173140    0.553678    1.318819
  C     -3.688670    1.835653    1.723438
  C     -4.395210    2.567416    0.600946
  O     -1.581947   -1.074779    0.557037
  C     -1.699309   -2.313390   -0.163631
  C     -2.972453   -3.033896    0.228717
  H      5.508817   -2.321428   -0.421365
  H      4.510773   -3.302088   -1.501793
  H      5.793052   -2.277017   -2.168328
  H      3.570899   -1.218425   -2.524791
  H      4.547162   -0.239473   -1.399351
  H      1.631694    0.519347    2.598403
  H      0.665719   -0.938760    2.969113
  H      3.666639   -0.852519    2.347297
  H      2.962791   -1.119375    3.950472
  H      2.746914   -2.330244    2.670625
  H     -0.732000    1.774053   -2.051842
  H      0.847365    2.297344   -1.357335
  H     -4.376555    1.589318    2.534359
  H     -2.856992    2.431019    2.111037
  H     -5.171208    1.940181    0.168492
  H     -4.842575    3.476695    0.989361
  H     -3.685824    2.828525   -0.183236
  H     -1.684673   -2.106871   -1.239412
  H     -0.805494   -2.875833    0.111954
  H     -3.834040   -2.432815   -0.058624
  H     -3.019022   -3.990083   -0.282479
  H     -2.998311   -3.192741    1.303122

 Total Charge           Charge          ....    0
 Multiplicity           Mult            ....    1
 Number of Electrons    NEL             ....  202
 Basis Dimension        Dim             ....  539

ORBITAL ENERGIES
----------------

  NO   OCC          E(Eh)            E(eV)
   0   2.0000     -88.579065     -2410.3589
   1   2.0000     -88.579036     -2410.3581
   2   2.0000     -88.528248     -2408.9761
   3   2.0000     -88.526444     -2408.9270
   4   2.0000     -76.919269     -2093.0797
   5   2.0000     -76.918694     -2093.0641
   6   2.0000     -18.995787      -516.9016
   7   2.0000     -18.995348      -516.8897
   8   2.0000     -18.992272      -516.8060
   9   2.0000     -18.989721      -516.7366
  10   2.0000     -10.105498      -274.9846
  11   2.0000     -10.093217      -274.6504
  12   2.0000     -10.090330      -274.5718
  13   2.0000     -10.089270      -274.5430
  14   2.0000     -10.086732      -274.4739
  15   2.0000     -10.019741      -272.6510
  16   2.0000     -10.018655      -272.6215
  17   2.0000     -10.018420      -272.6151
  18   2.0000     -10.016868      -272.5728
  19   2.0000      -7.873376      -214.2454
  20   2.0000      -7.873320      -214.2439
  21   2.0000      -7.823325      -212.8835
  22   2.0000      -7.821606      -212.8367
  23   2.0000      -6.597554      -179.5286
  24   2.0000      -6.597389      -179.5241
  25   2.0000      -5.820205      -158.3758
  26   2.0000      -5.820150      -158.3743
  27   2.0000      -5.817247      -158.2953
  28   2.0000      -5.817141      -158.2925
  29   2.0000      -5.810549      -158.1131
  30   2.0000      -5.810539      -158.1128
  31   2.0000      -5.770857      -157.0330
  32   2.0000      -5.769231      -156.9888
  33   2.0000      -5.763600      -156.8355
  34   2.0000      -5.763390      -156.8298
  35   2.0000      -5.761903      -156.7893
  36   2.0000      -5.761556      -156.7799
  37   2.0000      -4.742959      -129.0625
  38   2.0000      -4.742664      -129.0544
  39   2.0000      -4.742641      -129.0538
  40   2.0000      -4.742350      -129.0459
  41   2.0000      -4.741308      -129.0176
  42   2.0000      -4.741284      -129.0169
  43   2.0000      -1.053688       -28.6723
  44   2.0000      -1.052183       -28.6313
  45   2.0000      -1.013648       -27.5828
  46   2.0000      -1.011063       -27.5124
  47   2.0000      -0.804929       -21.9032
  48   2.0000      -0.756220       -20.5778
  49   2.0000      -0.744681       -20.2638
  50   2.0000      -0.723986       -19.7007
  51   2.0000      -0.721922       -19.6445
  52   2.0000      -0.709355       -19.3025
  53   2.0000      -0.689461       -18.7612
  54   2.0000      -0.675599       -18.3840
  55   2.0000      -0.629660       -17.1339
  56   2.0000      -0.623625       -16.9697
  57   2.0000      -0.600082       -16.3291
  58   2.0000      -0.594531       -16.1780
  59   2.0000      -0.590679       -16.0732
  60   2.0000      -0.527787       -14.3618
  61   2.0000      -0.515427       -14.0255
  62   2.0000      -0.495047       -13.4709
  63   2.0000      -0.486156       -13.2290
  64   2.0000      -0.474840       -12.9210
  65   2.0000      -0.460670       -12.5355
  66   2.0000      -0.451617       -12.2891
  67   2.0000      -0.448558       -12.2059
  68   2.0000      -0.443815       -12.0768
  69   2.0000      -0.434234       -11.8161
  70   2.0000      -0.425027       -11.5656
  71   2.0000      -0.408927       -11.1275
  72   2.0000      -0.400697       -10.9035
  73   2.0000      -0.399411       -10.8685
  74   2.0000      -0.397272       -10.8103
  75   2.0000      -0.390707       -10.6317
  76   2.0000      -0.384093       -10.4517
  77   2.0000      -0.370320       -10.0769
  78   2.0000      -0.362842        -9.8734
  79   2.0000      -0.356064        -9.6890
  80   2.0000      -0.353120        -9.6089
  81   2.0000      -0.352176        -9.5832
  82   2.0000      -0.351520        -9.5653
  83   2.0000      -0.348591        -9.4856
  84   2.0000      -0.343539        -9.3482
  85   2.0000      -0.330720        -8.9994
  86   2.0000      -0.320861        -8.7311
  87   2.0000      -0.313412        -8.5284
  88   2.0000      -0.308281        -8.3888
  89   2.0000      -0.300227        -8.1696
  90   2.0000      -0.297879        -8.1057
  91   2.0000      -0.293670        -7.9912
  92   2.0000      -0.285992        -7.7822
  93   2.0000      -0.278301        -7.5730
  94   2.0000      -0.270953        -7.3730
  95   2.0000      -0.250196        -6.8082
  96   2.0000      -0.236370        -6.4320
  97   2.0000      -0.234796        -6.3891
  98   2.0000      -0.228331        -6.2132
  99   2.0000      -0.219823        -5.9817
 100   2.0000      -0.218123        -5.9354
 101   0.0000      -0.052930        -1.4403
 102   0.0000      -0.031384        -0.8540
 103   0.0000      -0.006214        -0.1691
 104   0.0000      -0.001708        -0.0465
 105   0.0000       0.011038         0.3004

MULLIKEN ATOMIC CHARGES
-----------------------
   0 C :   -0.482916
   1 C :   -0.147508
   2 O :   -0.314837
   3 P :    0.738141
   4 S :   -0.529520
   5 O :   -0.286968
   6 C :   -0.147935
   7 C :   -0.486155
   8 S :   -0.158631
   9 C :   -0.242718
  10 S :   -0.151270
  11 P :    0.706642
  12 S :   -0.508866
  13 O :   -0.330858
  14 C :   -0.154110
  15 C :   -0.466197
  16 O :   -0.296591
  17 C :   -0.135413
  18 C :   -0.494211
  19 H :    0.166182
  20 H :    0.166112
  21 H :    0.169889
  22 H :    0.171568
  23 H :    0.172420
  24 H :    0.176871
  25 H :    0.179635
  26 H :    0.167132
  27 H :    0.172105
  28 H :    0.169432
  29 H :    0.228795
  30 H :    0.232895
  31 H :    0.177130
  32 H :    0.172449
  33 H :    0.170522
  34 H :    0.173718
  35 H :    0.166213
  36 H :    0.176143
  37 H :    0.179035
  38 H :    0.164934
  39 H :    0.170133
  40 H :    0.166607
Sum of atomic charges:    0.0000000

LOEWDIN ATOMIC CHARGES
----------------------
   0 C :   -0.389210
   1 C :    0.024509
   2 O :   -0.676224
   3 P :    0.379776
   4 S :   -0.158531
   5 O :   -0.681101
   6 C :    0.022604
   7 C :   -0.402005
   8 S :    0.165280
   9 C :   -0.412393
  10 S :    0.158738
  11 P :    0.391571
  12 S :   -0.155224
  13 O :   -0.668405
  14 C :    0.029884
  15 C :   -0.410186
  16 O :   -0.679066
  17 C :    0.011741
  18 C :   -0.400680
  19 H :    0.162687
  20 H :    0.163343
  21 H :    0.169051
  22 H :    0.179750
  23 H :    0.181652
  24 H :    0.182667
  25 H :    0.190755
  26 H :    0.162437
  27 H :    0.168854
  28 H :    0.163835
  29 H :    0.197021
  30 H :    0.196646
  31 H :    0.193156
  32 H :    0.179615
  33 H :    0.164421
  34 H :    0.168147
  35 H :    0.161916
  36 H :    0.182668
  37 H :    0.188254
  38 H :    0.161657
  39 H :    0.167889
  40 H :    0.162499

  Mayer bond orders larger than 0.100000
B(  0-C ,  1-C ) :   0.9529 B(  0-C , 19-H ) :   0.9690 B(  0-C , 20-H ) :   0.9690
B(  0-C , 21-H ) :   0.9583 B(  1-C ,  2-O ) :   0.7714 B(  1-C , 22-H ) :   0.9370
B(  1-C , 23-H ) :   0.9483 B(  2-O ,  3-P ) :   1.1006 B(  3-P ,  4-S ) :   1.7021
B(  3-P ,  5-O ) :   1.1688 B(  3-P ,  8-S ) :   1.0684 B(  5-O ,  6-C ) :   0.7682
B(  6-C ,  7-C ) :   0.9178 B(  6-C , 24-H ) :   0.9575 B(  6-C , 25-H ) :   0.9525
B(  7-C , 26-H ) :   0.9604 B(  7-C , 27-H ) :   0.9576 B(  7-C , 28-H ) :   0.9713
B(  8-S ,  9-C ) :   0.8919 B(  9-C , 10-S ) :   0.9005 B(  9-C , 29-H ) :   0.9044
B(  9-C , 30-H ) :   0.9038 B( 10-S , 11-P ) :   1.0503 B( 11-P , 12-S ) :   1.7350
B( 11-P , 13-O ) :   1.1172 B( 11-P , 16-O ) :   1.1344 B( 13-O , 14-C ) :   0.7970
B( 14-C , 15-C ) :   0.9210 B( 14-C , 31-H ) :   0.9482 B( 14-C , 32-H ) :   0.9585
B( 15-C , 33-H ) :   0.9670 B( 15-C , 34-H ) :   0.9563 B( 15-C , 35-H ) :   0.9565
B( 16-O , 17-C ) :   0.7529 B( 17-C , 18-C ) :   0.9275 B( 17-C , 36-H ) :   0.9528
B( 17-C , 37-H ) :   0.9535 B( 18-C , 38-H ) :   0.9653 B( 18-C , 39-H ) :   0.9605
B( 18-C , 40-H ) :   0.9729

Dispersion correction           -0.021606433
FINAL SINGLE POINT ENERGY     -2932.470978309385

DIPOLE MOMENT
-------------

Method             : SCF
Type of density    : Electron Density
Multiplicity       :   1
Irrep              :   0
Energy             : -2932.4957079103019169 Eh
Relativity type    :
Basis              : AO
                                X                 Y                 Z
Electronic contribution:     -2.097352469      11.170654469      -7.328059786
Nuclear contribution   :      2.400520121     -11.836817582       8.180368078
                        -----------------------------------------
Total Dipole Moment    :      0.303167652      -0.666163113       0.852308292
                        -----------------------------------------
Magnitude (a.u.)       :      1.123438179
Magnitude (Debye)      :      2.855552917

Rotational constants in cm-1:             0.012877             0.004943             0.004770
Rotational constants in MHz :           386.041404           148.173521           142.997085

                             ****ORCA TERMINATED NORMALLY****
TOTAL RUN TIME: 0 days 0 hours 1 minutes 48 seconds 769 msec
