                         Program Version 6.0.0  -   RELEASE  -
|  1> ! pbe def2-sv(p) def2/J RI DEFGRID1 loosescf d4 GCP(DFT/SV(P)) printgap
|  2> %output
|  3>     printlevel normal
|  4> end
|  5> * xyz 0 1
|  6> C 2.4321980934 0.0002936366 -0.7484007628
|  7> N 1.037852967 -0.0002083097 -0.3692273816
|  8> C 0.6795446643 1.1974591776 0.369843018
|  9> C -0.8308147373 1.1829901407 0.7126815084
| 10> N -1.521044018 -0.000435524 0.2424145812
| 11> C -0.8310748233 -1.1851580762 0.7099389945
| 12> C 0.6804565736 -1.1966784646 0.3721663723
| 13> C -1.783796853 0.0014802805 -1.1865959397
| 14> H 2.6377940277 -0.8864097981 -1.3458889107
| 15> H 3.1081620279 0.0026777807 0.1226969563
| 16> H 2.6360834454 0.8850500651 -1.349372869
| 17> H 1.2778209317 1.2827412443 1.2970753187
| 18> H 0.9187074217 2.0565493325 -0.2609887376
| 19> H -0.9588691615 1.2169797323 1.7989680203
| 20> H -1.3251166287 2.0569729086 0.2878579129
| 21> H -0.9625937879 -1.2239895495 1.7956773152
| 22> H -1.3231406691 -2.0577760237 0.2797800329
| 23> H 1.2760384773 -1.2776567901 1.3015179969
| 24> H 0.9237721772 -2.0570337794 -0.2553098543
| 25> H -2.3732639381 -0.8822373927 -1.4261356222
| 26> H -0.8751621414 0.003421163 -1.796800377
| 27> H -2.3747123497 0.885050224 -1.42327641
| 28> *
| 29>
| 30>                          ****END OF INPUT****

CARTESIAN COORDINATES (ANGSTROEM)
---------------------------------
  C      2.432198    0.000294   -0.748401
  N      1.037853   -0.000208   -0.369227
  C      0.679545    1.197459    0.369843
  C     -0.830815    1.182990    0.712682
  N     -1.521044   -0.000436    0.242415
  C     -0.831075   -1.185158    0.709939
  C      0.680457   -1.196678    0.372166
  C     -1.783797    0.001480   -1.186596
  H      2.637794   -0.886410   -1.345889
  H      3.108162    0.002678    0.122697
  H      2.636083    0.885050   -1.349373
  H      1.277821    1.282741    1.297075
  H      0.918707    2.056549   -0.260989
  H     -0.958869    1.216980    1.798968
  H     -1.325117    2.056973    0.287858
  H     -0.962594   -1.223990    1.795677
  H     -1.323141   -2.057776    0.279780
  H      1.276038   -1.277657    1.301518
  H      0.923772   -2.057034   -0.255310
  H     -2.373264   -0.882237   -1.426136
  H     -0.875162    0.003421   -1.796800
  H     -2.374712    0.885050   -1.423276

 Total Charge           Charge          ....    0
 Multiplicity           Mult            ....    1
 Number of Electrons    NEL             ....   64
 Basis Dimension        Dim             ....  140

ORBITAL ENERGIES
----------------

  NO   OCC          E(Eh)            E(eV)
   0   2.0000     -13.984510      -380.5379
   1   2.0000     -13.974485      -380.2651
   2   2.0000      -9.905300      -269.5369
   3   2.0000      -9.905285      -269.5365
   4   2.0000      -9.904384      -269.5120
   5   2.0000      -9.904354      -269.5112
   6   2.0000      -9.900703      -269.4118
   7   2.0000      -9.885939      -269.0101
   8   2.0000      -0.860016       -23.4022
   9   2.0000      -0.812257       -22.1026
  10   2.0000      -0.679839       -18.4994
  11   2.0000      -0.654188       -17.8014
  12   2.0000      -0.607453       -16.5296
  13   2.0000      -0.576379       -15.6841
  14   2.0000      -0.546302       -14.8656
  15   2.0000      -0.468351       -12.7445
  16   2.0000      -0.446431       -12.1480
  17   2.0000      -0.438120       -11.9219
  18   2.0000      -0.436406       -11.8752
  19   2.0000      -0.393737       -10.7141
  20   2.0000      -0.380060       -10.3420
  21   2.0000      -0.363374        -9.8879
  22   2.0000      -0.359616        -9.7857
  23   2.0000      -0.348892        -9.4938
  24   2.0000      -0.344205        -9.3663
  25   2.0000      -0.318239        -8.6597
  26   2.0000      -0.316681        -8.6173
  27   2.0000      -0.304003        -8.2723
  28   2.0000      -0.301575        -8.2063
  29   2.0000      -0.282385        -7.6841
  30   2.0000      -0.177121        -4.8197
  31   2.0000      -0.154179        -4.1954
  32   0.0000       0.024078         0.6552
  33   0.0000       0.056649         1.5415
  34   0.0000       0.057662         1.5691
  35   0.0000       0.064953         1.7675
  36   0.0000       0.084738         2.3058

MULLIKEN ATOMIC CHARGES
-----------------------
   0 C :   -0.145707
   1 N :   -0.312247
   2 C :   -0.064196
   3 C :   -0.040837
   4 N :   -0.284303
   5 C :   -0.040289
   6 C :   -0.064418
   7 C :   -0.171014
   8 H :    0.101568
   9 H :    0.067033
  10 H :    0.101563
  11 H :    0.047322
  12 H :    0.080731
  13 H :    0.076238
  14 H :    0.082812
  15 H :    0.076163
  16 H :    0.082711
  17 H :    0.047286
  18 H :    0.080729
  19 H :    0.091700
  20 H :    0.095551
  21 H :    0.091605
Sum of atomic charges:   -0.0000000

LOEWDIN ATOMIC CHARGES
----------------------
   0 C :   -0.255050
   1 N :   -0.136419
   2 C :   -0.174011
   3 C :   -0.163154
   4 N :   -0.137703
   5 C :   -0.163111
   6 C :   -0.173990
   7 C :   -0.268207
   8 H :    0.113318
   9 H :    0.087436
  10 H :    0.113323
  11 H :    0.086003
  12 H :    0.111510
  13 H :    0.109699
  14 H :    0.114668
  15 H :    0.109662
  16 H :    0.114644
  17 H :    0.085953
  18 H :    0.111574
  19 H :    0.108968
  20 H :    0.095963
  21 H :    0.108925

  Mayer bond orders larger than 0.100000
B(  0-C ,  1-N ) :   1.0560 B(  0-C ,  8-H ) :   0.9542 B(  0-C ,  9-H ) :   0.9251
B(  0-C , 10-H ) :   0.9543 B(  1-N ,  2-C ) :   1.0537 B(  1-N ,  6-C ) :   1.0538
B(  2-C ,  3-C ) :   1.0785 B(  2-C , 11-H ) :   0.8930 B(  2-C , 12-H ) :   0.9250
B(  3-C ,  4-N ) :   1.0980 B(  3-C , 13-H ) :   0.9221 B(  3-C , 14-H ) :   0.9278
B(  4-N ,  5-C ) :   1.0978 B(  4-N ,  7-C ) :   1.0319 B(  5-C ,  6-C ) :   1.0786
B(  5-C , 15-H ) :   0.9221 B(  5-C , 16-H ) :   0.9277 B(  6-C , 17-H ) :   0.8930
B(  6-C , 18-H ) :   0.9250 B(  7-C , 19-H ) :   0.9538 B(  7-C , 20-H ) :   0.9225
B(  7-C , 21-H ) :   0.9537

Dispersion correction           -0.021031826
FINAL SINGLE POINT ENERGY      -345.701690607030

DIPOLE MOMENT
-------------

Method             : SCF
Type of density    : Electron Density
Multiplicity       :   1
Irrep              :   0
Energy             :  -345.7847308433248372 Eh
Relativity type    :
Basis              : AO
                                X                 Y                 Z
Electronic contribution:     -2.075024084      -0.004176403       0.855577235
Nuclear contribution   :      2.422999888       0.004067284      -0.914653460
                        -----------------------------------------
Total Dipole Moment    :      0.347975805      -0.000109118      -0.059076225
                        -----------------------------------------
Magnitude (a.u.)       :      0.352954916
Magnitude (Debye)      :      0.897140100

Rotational constants in cm-1:             0.107793             0.057376             0.051604
Rotational constants in MHz :          3231.567768          1720.091229          1547.036665

                             ****ORCA TERMINATED NORMALLY****
TOTAL RUN TIME: 0 days 0 hours 0 minutes 12 seconds 36 msec
