                         Program Version 6.0.0  -   RELEASE  -
|  1> ! r2scan-3c def2/J RI DEFGRID2 scfconv6 printgap
|  2> %output
|  3>     printlevel normal
|  4> end
|  5> * xyz 0 1
|  6> C -2.5097091743 -0.7651061884 0.0017580215
|  7> C -1.2164891041 -0.0041878901 -0.0007768359
|  8> C -1.2174305315 1.3830941044 -0.0006213727
|  9> C -0.0337852006 2.0963936278 -0.0001993861
| 10> C 1.1719859165 1.418852597 0.0003221814
| 11> C 1.2141466212 0.0328574384 0.0001949137
| 12> C 0.0083628365 -0.6762944975 -0.0004953135
| 13> O -0.0156333865 -2.0442899761 -0.001070264
| 14> C 2.5304492011 -0.6943061183 0.0008304787
| 15> H -3.1247043568 -0.465636852 -0.8448775098
| 16> H -2.3206154506 -1.8326841456 -0.0571515465
| 17> H -3.0662243315 -0.5561524997 0.9140357397
| 18> H -2.1642392651 1.9027733945 -0.001217864
| 19> H -0.0492416351 3.1756277361 -0.0003838389
| 20> H 2.0993127051 1.9728757595 0.0009230558
| 21> H 0.8876650758 -2.3910855968 -0.0093877482
| 22> H 2.6272823042 -1.3278937563 0.8827359536
| 23> H 2.6368064388 -1.3118865326 -0.89134803
| 24> H 3.3473935696 0.0215531478 0.0115931074
| 25> *
| 26>
| 27>                          ****END OF INPUT****

CARTESIAN COORDINATES (ANGSTROEM)
---------------------------------
  C     -2.509709   -0.765106    0.001758
  C     -1.216489   -0.004188   -0.000777
  C     -1.217431    1.383094   -0.000621
  C     -0.033785    2.096394   -0.000199
  C      1.171986    1.418853    0.000322
  C      1.214147    0.032857    0.000195
  C      0.008363   -0.676294   -0.000495
  O     -0.015633   -2.044290   -0.001070
  C      2.530449   -0.694306    0.000830
  H     -3.124704   -0.465637   -0.844878
  H     -2.320615   -1.832684   -0.057152
  H     -3.066224   -0.556152    0.914036
  H     -2.164239    1.902773   -0.001218
  H     -0.049242    3.175628   -0.000384
  H      2.099313    1.972876    0.000923
  H      0.887665   -2.391086   -0.009388
  H      2.627282   -1.327894    0.882736
  H      2.636806   -1.311887   -0.891348
  H      3.347394    0.021553    0.011593

 Total Charge           Charge          ....    0
 Multiplicity           Mult            ....    1
 Number of Electrons    NEL             ....   66
 Basis Dimension        Dim             ....  226

ORBITAL ENERGIES
----------------

  NO   OCC          E(Eh)            E(eV)
   0   2.0000     -18.982902      -516.5510
   1   2.0000     -10.087936      -274.5067
   2   2.0000     -10.040604      -273.2187
   3   2.0000     -10.039897      -273.1995
   4   2.0000     -10.034354      -273.0487
   5   2.0000     -10.026546      -272.8362
   6   2.0000     -10.024143      -272.7708
   7   2.0000     -10.021056      -272.6868
   8   2.0000     -10.018318      -272.6123
   9   2.0000      -1.025819       -27.9139
  10   2.0000      -0.821885       -22.3646
  11   2.0000      -0.754845       -20.5404
  12   2.0000      -0.719147       -19.5690
  13   2.0000      -0.665425       -18.1071
  14   2.0000      -0.645417       -17.5627
  15   2.0000      -0.574795       -15.6410
  16   2.0000      -0.548245       -14.9185
  17   2.0000      -0.507281       -13.8038
  18   2.0000      -0.456953       -12.4343
  19   2.0000      -0.433056       -11.7840
  20   2.0000      -0.412595       -11.2273
  21   2.0000      -0.392495       -10.6803
  22   2.0000      -0.386800       -10.5254
  23   2.0000      -0.379786       -10.3345
  24   2.0000      -0.371575       -10.1111
  25   2.0000      -0.355607        -9.6766
  26   2.0000      -0.350830        -9.5466
  27   2.0000      -0.344051        -9.3621
  28   2.0000      -0.311553        -8.4778
  29   2.0000      -0.304880        -8.2962
  30   2.0000      -0.298486        -8.1222
  31   2.0000      -0.218834        -5.9548
  32   2.0000      -0.197513        -5.3746
  33   0.0000      -0.024068        -0.6549
  34   0.0000      -0.009768        -0.2658
  35   0.0000       0.047791         1.3005
  36   0.0000       0.084929         2.3110
  37   0.0000       0.107834         2.9343

MULLIKEN ATOMIC CHARGES
-----------------------
   0 C :   -0.569733
   1 C :    0.097842
   2 C :   -0.193426
   3 C :   -0.189061
   4 C :   -0.204108
   5 C :    0.081423
   6 C :    0.263805
   7 O :   -0.419412
   8 C :   -0.622242
   9 H :    0.155460
  10 H :    0.182237
  11 H :    0.159166
  12 H :    0.147034
  13 H :    0.142820
  14 H :    0.144170
  15 H :    0.324953
  16 H :    0.168147
  17 H :    0.169397
  18 H :    0.161527
Sum of atomic charges:   -0.0000000

LOEWDIN ATOMIC CHARGES
----------------------
   0 C :   -0.379289
   1 C :   -0.076083
   2 C :   -0.158368
   3 C :   -0.181818
   4 C :   -0.166008
   5 C :   -0.098455
   6 C :    0.192631
   7 O :   -0.522097
   8 C :   -0.393041
   9 H :    0.163979
  10 H :    0.178337
  11 H :    0.165087
  12 H :    0.169136
  13 H :    0.165896
  14 H :    0.166533
  15 H :    0.285128
  16 H :    0.160383
  17 H :    0.160531
  18 H :    0.167519

  Mayer bond orders larger than 0.100000
B(  0-C ,  1-C ) :   0.7491 B(  0-C ,  9-H ) :   0.9814 B(  0-C , 10-H ) :   0.9918
B(  0-C , 11-H ) :   0.9770 B(  1-C ,  2-C ) :   1.3571 B(  1-C ,  6-C ) :   1.4917
B(  2-C ,  3-C ) :   1.4384 B(  2-C , 12-H ) :   0.9404 B(  3-C ,  4-C ) :   1.4471
B(  3-C , 13-H ) :   0.9418 B(  4-C ,  5-C ) :   1.3517 B(  4-C , 14-H ) :   0.9284
B(  5-C ,  6-C ) :   1.3843 B(  5-C ,  8-C ) :   0.7587 B(  6-C ,  7-O ) :   1.0273
B(  7-O , 15-H ) :   0.8656 B(  8-C , 16-H ) :   0.9821 B(  8-C , 17-H ) :   0.9819
B(  8-C , 18-H ) :   0.9722

Dispersion correction           -0.006245558
FINAL SINGLE POINT ENERGY      -386.004584898656

DIPOLE MOMENT
-------------

Method             : SCF
Type of density    : Electron Density
Multiplicity       :   1
Irrep              :   0
Energy             :  -386.0058636059381456 Eh
Relativity type    :
Basis              : AO
                                X                 Y                 Z
Electronic contribution:     -0.296961078       0.623851387      -0.006479173
Nuclear contribution   :      0.819197763      -0.792567365       0.004601166
                        -----------------------------------------
Total Dipole Moment    :      0.522236685      -0.168715977      -0.001878006
                        -----------------------------------------
Magnitude (a.u.)       :      0.548816694
Magnitude (Debye)      :      1.394981174

Rotational constants in cm-1:             0.076900             0.059050             0.033824
Rotational constants in MHz :          2305.417701          1770.277461          1014.021968

                             ****ORCA TERMINATED NORMALLY****
TOTAL RUN TIME: 0 days 0 hours 0 minutes 34 seconds 446 msec
