                         Program Version 6.0.0  -   RELEASE  -
|  1> ! r2scan-3c def2/J RI DEFGRID2 scfconv6 printgap
|  2> %output
|  3>     printlevel normal
|  4> end
|  5> %cpcm
|  6>     smd true
|  7>     smdsolvent "water"
|  8> end
|  9> * xyz 0 1
| 10> C -2.5097091743 -0.7651061884 0.0017580215
| 11> C -1.2164891041 -0.0041878901 -0.0007768359
| 12> C -1.2174305315 1.3830941044 -0.0006213727
| 13> C -0.0337852006 2.0963936278 -0.0001993861
| 14> C 1.1719859165 1.418852597 0.0003221814
| 15> C 1.2141466212 0.0328574384 0.0001949137
| 16> C 0.0083628365 -0.6762944975 -0.0004953135
| 17> O -0.0156333865 -2.0442899761 -0.001070264
| 18> C 2.5304492011 -0.6943061183 0.0008304787
| 19> H -3.1247043568 -0.465636852 -0.8448775098
| 20> H -2.3206154506 -1.8326841456 -0.0571515465
| 21> H -3.0662243315 -0.5561524997 0.9140357397
| 22> H -2.1642392651 1.9027733945 -0.001217864
| 23> H -0.0492416351 3.1756277361 -0.0003838389
| 24> H 2.0993127051 1.9728757595 0.0009230558
| 25> H 0.8876650758 -2.3910855968 -0.0093877482
| 26> H 2.6272823042 -1.3278937563 0.8827359536
| 27> H 2.6368064388 -1.3118865326 -0.89134803
| 28> H 3.3473935696 0.0215531478 0.0115931074
| 29> *
| 30>
| 31>                          ****END OF INPUT****

CARTESIAN COORDINATES (ANGSTROEM)
---------------------------------
  C     -2.509709   -0.765106    0.001758
  C     -1.216489   -0.004188   -0.000777
  C     -1.217431    1.383094   -0.000621
  C     -0.033785    2.096394   -0.000199
  C      1.171986    1.418853    0.000322
  C      1.214147    0.032857    0.000195
  C      0.008363   -0.676294   -0.000495
  O     -0.015633   -2.044290   -0.001070
  C      2.530449   -0.694306    0.000830
  H     -3.124704   -0.465637   -0.844878
  H     -2.320615   -1.832684   -0.057152
  H     -3.066224   -0.556152    0.914036
  H     -2.164239    1.902773   -0.001218
  H     -0.049242    3.175628   -0.000384
  H      2.099313    1.972876    0.000923
  H      0.887665   -2.391086   -0.009388
  H      2.627282   -1.327894    0.882736
  H      2.636806   -1.311887   -0.891348
  H      3.347394    0.021553    0.011593

 Total Charge           Charge          ....    0
 Multiplicity           Mult            ....    1
 Number of Electrons    NEL             ....   66
 Basis Dimension        Dim             ....  226

ORBITAL ENERGIES
----------------

  NO   OCC          E(Eh)            E(eV)
   0   2.0000     -18.980922      -516.4972
   1   2.0000     -10.089140      -274.5395
   2   2.0000     -10.039091      -273.1775
   3   2.0000     -10.037045      -273.1219
   4   2.0000     -10.025653      -272.8119
   5   2.0000     -10.025145      -272.7981
   6   2.0000     -10.023116      -272.7428
   7   2.0000     -10.022299      -272.7206
   8   2.0000     -10.017001      -272.5765
   9   2.0000      -1.023876       -27.8611
  10   2.0000      -0.823653       -22.4127
  11   2.0000      -0.751970       -20.4621
  12   2.0000      -0.718345       -19.5472
  13   2.0000      -0.659299       -17.9404
  14   2.0000      -0.644212       -17.5299
  15   2.0000      -0.571853       -15.5609
  16   2.0000      -0.546882       -14.8814
  17   2.0000      -0.503447       -13.6995
  18   2.0000      -0.456391       -12.4190
  19   2.0000      -0.431134       -11.7318
  20   2.0000      -0.407061       -11.0767
  21   2.0000      -0.388150       -10.5621
  22   2.0000      -0.380420       -10.3518
  23   2.0000      -0.371020       -10.0960
  24   2.0000      -0.367302        -9.9948
  25   2.0000      -0.356633        -9.7045
  26   2.0000      -0.348421        -9.4810
  27   2.0000      -0.337854        -9.1935
  28   2.0000      -0.309119        -8.4116
  29   2.0000      -0.308963        -8.4073
  30   2.0000      -0.297073        -8.0838
  31   2.0000      -0.221434        -6.0255
  32   2.0000      -0.201171        -5.4741
  33   0.0000      -0.026421        -0.7190
  34   0.0000      -0.013400        -0.3646
  35   0.0000       0.066494         1.8094
  36   0.0000       0.093016         2.5311
  37   0.0000       0.111905         3.0451

MULLIKEN ATOMIC CHARGES
-----------------------
   0 C :   -0.583324
   1 C :    0.084472
   2 C :   -0.229421
   3 C :   -0.237059
   4 C :   -0.236241
   5 C :    0.050290
   6 C :    0.239223
   7 O :   -0.462981
   8 C :   -0.623147
   9 H :    0.174229
  10 H :    0.183150
  11 H :    0.177486
  12 H :    0.176095
  13 H :    0.172159
  14 H :    0.177356
  15 H :    0.379116
  16 H :    0.189256
  17 H :    0.190326
  18 H :    0.179016
Sum of atomic charges:   -0.0000000

LOEWDIN ATOMIC CHARGES
----------------------
   0 C :   -0.384380
   1 C :   -0.087790
   2 C :   -0.174202
   3 C :   -0.199788
   4 C :   -0.179710
   5 C :   -0.096264
   6 C :    0.181262
   7 O :   -0.536167
   8 C :   -0.392947
   9 H :    0.171010
  10 H :    0.176343
  11 H :    0.171815
  12 H :    0.179115
  13 H :    0.175128
  14 H :    0.178331
  15 H :    0.303450
  16 H :    0.171489
  17 H :    0.171655
  18 H :    0.171647

  Mayer bond orders larger than 0.100000
B(  0-C ,  1-C ) :   0.7605 B(  0-C ,  9-H ) :   0.9716 B(  0-C , 10-H ) :   0.9947
B(  0-C , 11-H ) :   0.9678 B(  1-C ,  2-C ) :   1.3313 B(  1-C ,  6-C ) :   1.4450
B(  2-C ,  3-C ) :   1.3975 B(  2-C , 12-H ) :   0.9556 B(  3-C ,  4-C ) :   1.3912
B(  3-C , 13-H ) :   0.9615 B(  4-C ,  5-C ) :   1.3338 B(  4-C , 14-H ) :   0.9470
B(  5-C ,  6-C ) :   1.3471 B(  5-C ,  8-C ) :   0.8079 B(  6-C ,  7-O ) :   1.0313
B(  7-O , 15-H ) :   0.8383 B(  8-C , 16-H ) :   0.9690 B(  8-C , 17-H ) :   0.9686
B(  8-C , 18-H ) :   0.9702

Dispersion correction           -0.006245558
FINAL SINGLE POINT ENERGY      -386.011891384790

DIPOLE MOMENT
-------------

Method             : SCF
Type of density    : Electron Density
Multiplicity       :   1
Irrep              :   0
Energy             :  -386.0131700920715048 Eh
Relativity type    :
Basis              : AO
                                X                 Y                 Z
Electronic contribution:     -0.050929527       0.517626931      -0.007454493
Nuclear contribution   :      0.819197763      -0.792567365       0.004601166
                        -----------------------------------------
Total Dipole Moment    :      0.768268236      -0.274940434      -0.002853326
                        -----------------------------------------
Magnitude (a.u.)       :      0.815988030
Magnitude (Debye)      :      2.074076744

Rotational constants in cm-1:             0.076900             0.059050             0.033824
Rotational constants in MHz :          2305.417701          1770.277461          1014.021968

                             ****ORCA TERMINATED NORMALLY****
TOTAL RUN TIME: 0 days 0 hours 0 minutes 39 seconds 451 msec
