                         Program Version 6.0.0  -   RELEASE  -
|  1> ! r2scan-3c def2/J RI DEFGRID2 scfconv6 printgap
|  2> %output
|  3>     printlevel normal
|  4> end
|  5> * xyz 0 1
|  6> C -1.8916992642 -1.473e-07 -3.59347e-05
|  7> C -1.2021229301 -1.2015128325 7.985e-06
|  8> C 0.1828773729 -1.2116809479 1.06918e-05
|  9> C 0.8450873327 8.71e-08 -8.6654e-06
| 10> C 0.1828775545 1.2116811757 2.72843e-05
| 11> C -1.2021230383 1.20151305 1.27552e-05
| 12> F 2.2134987618 -1.675e-07 -5.399e-06
| 13> H -2.9701065341 -9.381e-07 7.20723e-05
| 14> H -1.739561963 -2.1363872181 6.77447e-05
| 15> H 0.7450121055 -2.131395923 -6.49571e-05
| 16> H 0.7450126072 2.13139516 -5.9842e-05
| 17> H -1.7395612518 2.1363874874 -8.14641e-05
| 18> *
| 19>
| 20>                          ****END OF INPUT****

CARTESIAN COORDINATES (ANGSTROEM)
---------------------------------
  C     -1.891699   -0.000000   -0.000036
  C     -1.202123   -1.201513    0.000008
  C      0.182877   -1.211681    0.000011
  C      0.845087    0.000000   -0.000009
  C      0.182878    1.211681    0.000027
  C     -1.202123    1.201513    0.000013
  F      2.213499   -0.000000   -0.000005
  H     -2.970107   -0.000001    0.000072
  H     -1.739562   -2.136387    0.000068
  H      0.745012   -2.131396   -0.000065
  H      0.745013    2.131395   -0.000060
  H     -1.739561    2.136387   -0.000081

 Total Charge           Charge          ....    0
 Multiplicity           Mult            ....    1
 Number of Electrons    NEL             ....   50
 Basis Dimension        Dim             ....  163

ORBITAL ENERGIES
----------------

  NO   OCC          E(Eh)            E(eV)
   0   2.0000     -24.493978      -666.5150
   1   2.0000     -10.122977      -275.4602
   2   2.0000     -10.049367      -273.4572
   3   2.0000     -10.049359      -273.4570
   4   2.0000     -10.046734      -273.3855
   5   2.0000     -10.046730      -273.3854
   6   2.0000     -10.042094      -273.2593
   7   2.0000      -1.176414       -32.0118
   8   2.0000      -0.839465       -22.8430
   9   2.0000      -0.733894       -19.9703
  10   2.0000      -0.723027       -19.6746
  11   2.0000      -0.597249       -16.2520
  12   2.0000      -0.584599       -15.9078
  13   2.0000      -0.517472       -14.0811
  14   2.0000      -0.468082       -12.7372
  15   2.0000      -0.456079       -12.4105
  16   2.0000      -0.424277       -11.5452
  17   2.0000      -0.420687       -11.4475
  18   2.0000      -0.407935       -11.1005
  19   2.0000      -0.364103        -9.9077
  20   2.0000      -0.345191        -9.3931
  21   2.0000      -0.343398        -9.3443
  22   2.0000      -0.318935        -8.6787
  23   2.0000      -0.251491        -6.8434
  24   2.0000      -0.234793        -6.3890
  25   0.0000      -0.045094        -1.2271
  26   0.0000      -0.032362        -0.8806
  27   0.0000       0.065563         1.7841
  28   0.0000       0.104832         2.8526
  29   0.0000       0.117448         3.1959

MULLIKEN ATOMIC CHARGES
-----------------------
   0 C :   -0.172936
   1 C :   -0.113445
   2 C :   -0.250921
   3 C :    0.363975
   4 C :   -0.250920
   5 C :   -0.113445
   6 F :   -0.246330
   7 H :    0.149902
   8 H :    0.152127
   9 H :    0.164933
  10 H :    0.164933
  11 H :    0.152127
Sum of atomic charges:    0.0000000

LOEWDIN ATOMIC CHARGES
----------------------
   0 C :   -0.177052
   1 C :   -0.150430
   2 C :   -0.158004
   3 C :    0.216615
   4 C :   -0.158004
   5 C :   -0.150430
   6 F :   -0.295533
   7 H :    0.168737
   8 H :    0.170028
   9 H :    0.182022
  10 H :    0.182022
  11 H :    0.170028

  Mayer bond orders larger than 0.100000
B(  0-C ,  1-C ) :   1.4297 B(  0-C ,  5-C ) :   1.4297 B(  0-C ,  7-H ) :   0.9460
B(  1-C ,  2-C ) :   1.3863 B(  1-C ,  8-H ) :   0.9464 B(  2-C ,  3-C ) :   1.4447
B(  2-C ,  9-H ) :   0.9321 B(  3-C ,  4-C ) :   1.4447 B(  3-C ,  6-F ) :   0.8550
B(  4-C ,  5-C ) :   1.3863 B(  4-C , 10-H ) :   0.9321 B(  5-C , 11-H ) :   0.9464

Dispersion correction           -0.003411877
FINAL SINGLE POINT ENERGY      -331.422718746680

DIPOLE MOMENT
-------------

Method             : SCF
Type of density    : Electron Density
Multiplicity       :   1
Irrep              :   0
Energy             :  -331.4222104697552140 Eh
Relativity type    :
Basis              : AO
                                X                 Y                 Z
Electronic contribution:      6.071477815       0.000001175       0.000029731
Nuclear contribution   :     -6.703412200      -0.000001188      -0.000057336
                        -----------------------------------------
Total Dipole Moment    :     -0.631934385      -0.000000013      -0.000027605
                        -----------------------------------------
Magnitude (a.u.)       :      0.631934385
Magnitude (Debye)      :      1.606249557

Rotational constants in cm-1:             0.190898             0.085890             0.059237
Rotational constants in MHz :          5722.978578          2574.906759          1775.890559

                             ****ORCA TERMINATED NORMALLY****
TOTAL RUN TIME: 0 days 0 hours 0 minutes 18 seconds 883 msec
