                         Program Version 6.0.0  -   RELEASE  -
|  1> ! r2scan-3c def2/J RI DEFGRID2 scfconv6 printgap
|  2> %output
|  3>     printlevel normal
|  4> end
|  5> %cpcm
|  6>     smd true
|  7>     smdsolvent "water"
|  8> end
|  9> * xyz 0 1
| 10> C -1.8916992642 -1.473e-07 -3.59347e-05
| 11> C -1.2021229301 -1.2015128325 7.985e-06
| 12> C 0.1828773729 -1.2116809479 1.06918e-05
| 13> C 0.8450873327 8.71e-08 -8.6654e-06
| 14> C 0.1828775545 1.2116811757 2.72843e-05
| 15> C -1.2021230383 1.20151305 1.27552e-05
| 16> F 2.2134987618 -1.675e-07 -5.399e-06
| 17> H -2.9701065341 -9.381e-07 7.20723e-05
| 18> H -1.739561963 -2.1363872181 6.77447e-05
| 19> H 0.7450121055 -2.131395923 -6.49571e-05
| 20> H 0.7450126072 2.13139516 -5.9842e-05
| 21> H -1.7395612518 2.1363874874 -8.14641e-05
| 22> *
| 23>
| 24>                          ****END OF INPUT****

CARTESIAN COORDINATES (ANGSTROEM)
---------------------------------
  C     -1.891699   -0.000000   -0.000036
  C     -1.202123   -1.201513    0.000008
  C      0.182877   -1.211681    0.000011
  C      0.845087    0.000000   -0.000009
  C      0.182878    1.211681    0.000027
  C     -1.202123    1.201513    0.000013
  F      2.213499   -0.000000   -0.000005
  H     -2.970107   -0.000001    0.000072
  H     -1.739562   -2.136387    0.000068
  H      0.745012   -2.131396   -0.000065
  H      0.745013    2.131395   -0.000060
  H     -1.739561    2.136387   -0.000081

 Total Charge           Charge          ....    0
 Multiplicity           Mult            ....    1
 Number of Electrons    NEL             ....   50
 Basis Dimension        Dim             ....  163

ORBITAL ENERGIES
----------------

  NO   OCC          E(Eh)            E(eV)
   0   2.0000     -24.497768      -666.6182
   1   2.0000     -10.120712      -275.3986
   2   2.0000     -10.042488      -273.2700
   3   2.0000     -10.042483      -273.2698
   4   2.0000     -10.041402      -273.2404
   5   2.0000     -10.041400      -273.2404
   6   2.0000     -10.035269      -273.0736
   7   2.0000      -1.181519       -32.1508
   8   2.0000      -0.835595       -22.7377
   9   2.0000      -0.728383       -19.8203
  10   2.0000      -0.718986       -19.5646
  11   2.0000      -0.591284       -16.0897
  12   2.0000      -0.580860       -15.8060
  13   2.0000      -0.514139       -13.9904
  14   2.0000      -0.462485       -12.5849
  15   2.0000      -0.452849       -12.3226
  16   2.0000      -0.428843       -11.6694
  17   2.0000      -0.412097       -11.2137
  18   2.0000      -0.399276       -10.8649
  19   2.0000      -0.363959        -9.9038
  20   2.0000      -0.342732        -9.3262
  21   2.0000      -0.336890        -9.1672
  22   2.0000      -0.313042        -8.5183
  23   2.0000      -0.248509        -6.7623
  24   2.0000      -0.233707        -6.3595
  25   0.0000      -0.041441        -1.1277
  26   0.0000      -0.029897        -0.8135
  27   0.0000       0.070384         1.9153
  28   0.0000       0.108145         2.9428
  29   0.0000       0.121520         3.3067

MULLIKEN ATOMIC CHARGES
-----------------------
   0 C :   -0.206194
   1 C :   -0.151939
   2 C :   -0.272292
   3 C :    0.353587
   4 C :   -0.272291
   5 C :   -0.151940
   6 F :   -0.257932
   7 H :    0.184020
   8 H :    0.188408
   9 H :    0.199083
  10 H :    0.199083
  11 H :    0.188408
Sum of atomic charges:    0.0000000

LOEWDIN ATOMIC CHARGES
----------------------
   0 C :   -0.183398
   1 C :   -0.156038
   2 C :   -0.163465
   3 C :    0.202576
   4 C :   -0.163464
   5 C :   -0.156037
   6 F :   -0.309928
   7 H :    0.179738
   8 H :    0.182042
   9 H :    0.192966
  10 H :    0.192966
  11 H :    0.182041

  Mayer bond orders larger than 0.100000
B(  0-C ,  1-C ) :   1.3966 B(  0-C ,  5-C ) :   1.3966 B(  0-C ,  7-H ) :   0.9512
B(  1-C ,  2-C ) :   1.3701 B(  1-C ,  8-H ) :   0.9489 B(  2-C ,  3-C ) :   1.4082
B(  2-C ,  9-H ) :   0.9341 B(  3-C ,  4-C ) :   1.4082 B(  3-C ,  6-F ) :   0.8446
B(  4-C ,  5-C ) :   1.3701 B(  4-C , 10-H ) :   0.9341 B(  5-C , 11-H ) :   0.9489

Dispersion correction           -0.003411877
FINAL SINGLE POINT ENERGY      -331.424308828402

DIPOLE MOMENT
-------------

Method             : SCF
Type of density    : Electron Density
Multiplicity       :   1
Irrep              :   0
Energy             :  -331.4238005514778251 Eh
Relativity type    :
Basis              : AO
                                X                 Y                 Z
Electronic contribution:      5.877005872       0.000001103       0.000018574
Nuclear contribution   :     -6.703412200      -0.000001188      -0.000057336
                        -----------------------------------------
Total Dipole Moment    :     -0.826406328      -0.000000085      -0.000038762
                        -----------------------------------------
Magnitude (a.u.)       :      0.826406329
Magnitude (Debye)      :      2.100557954

Rotational constants in cm-1:             0.190898             0.085890             0.059237
Rotational constants in MHz :          5722.978578          2574.906759          1775.890559

                             ****ORCA TERMINATED NORMALLY****
TOTAL RUN TIME: 0 days 0 hours 0 minutes 25 seconds 529 msec
