                         Program Version 6.0.0  -   RELEASE  -
|  1> ! pbe def2-sv(p) def2/J RI DEFGRID1 loosescf d4 GCP(DFT/SV(P)) printgap
|  2> %output
|  3>     printlevel normal
|  4> end
|  5> * xyz 0 1
|  6> C 5.4170483579 -1.5868301599 -0.1246260686
|  7> C 4.8028182318 -1.029267872 -1.3914442793
|  8> O 3.3654041012 -1.1481714817 -1.3813518285
|  9> P 2.46032568 -0.2793197246 -0.4201158541
| 10> S 3.153540329 1.5165139181 -0.0301763796
| 11> O 2.2931948645 -1.294472003 0.7954385454
| 12> C 1.4107054866 -1.1823235073 1.9239073626
| 13> C 1.774193733 -0.035026121 2.8455451436
| 14> S 0.6547090317 -0.3810392625 -1.5327097052
| 15> C 0.0460810718 1.293078808 -1.1809448405
| 16> S -0.6778166253 1.4548830147 0.4732404779
| 17> P -2.3695882675 0.2454179873 0.1031327808
| 18> S -3.2189177665 0.4119811569 -1.6600565526
| 19> O -3.3210989809 0.4986059005 1.3480006064
| 20> C -4.3229956055 1.5307104674 1.3590557912
| 21> C -3.7136521846 2.9178684921 1.3620202726
| 22> O -1.7616883721 -1.1774110229 0.4546391041
| 23> C -2.3279708907 -2.3995962513 -0.0599337979
| 24> C -3.6779765072 -2.6935500561 0.5591880371
| 25> H 5.0869349456 -2.6100345791 0.0336384057
| 26> H 6.4991756715 -1.5618240284 -0.2057231608
| 27> H 5.109872025 -0.9823396999 0.7278688443
| 28> H 5.1058165503 -1.5934211447 -2.2743145443
| 29> H 5.0641091344 0.0265887048 -1.5156720914
| 30> H 0.3819121525 -1.0824939292 1.5657617502
| 31> H 1.526621685 -2.1439747852 2.4282846467
| 32> H 2.8186500389 -0.1028095147 3.139031022
| 33> H 1.6105859324 0.9213912438 2.3531071273
| 34> H 1.1488615694 -0.0816822921 3.7312665027
| 35> H -0.7140938248 1.5108201768 -1.9304990896
| 36> H 0.8728259128 2.001854189 -1.2297391411
| 37> H -4.9671941372 1.3965296054 0.4840975979
| 38> H -4.8882850237 1.3362956469 2.2715047032
| 39> H -2.9892807668 3.0115744819 2.1671730076
| 40> H -3.2093067638 3.1059513478 0.4149173925
| 41> H -4.4986716303 3.6554778379 1.4941269198
| 42> H -2.4073966228 -2.3119804159 -1.148374701
| 43> H -1.5883610818 -3.1602448749 0.1935284628
| 44> H -4.398231466 -1.9368628619 0.2503721958
| 45> H -4.0235635595 -3.6665839596 0.2244882241
| 46> H -3.6034870844 -2.6866363272 1.6433761595
| 47> *
| 48>
| 49>                          ****END OF INPUT****

CARTESIAN COORDINATES (ANGSTROEM)
---------------------------------
  C      5.417048   -1.586830   -0.124626
  C      4.802818   -1.029268   -1.391444
  O      3.365404   -1.148171   -1.381352
  P      2.460326   -0.279320   -0.420116
  S      3.153540    1.516514   -0.030176
  O      2.293195   -1.294472    0.795439
  C      1.410705   -1.182324    1.923907
  C      1.774194   -0.035026    2.845545
  S      0.654709   -0.381039   -1.532710
  C      0.046081    1.293079   -1.180945
  S     -0.677817    1.454883    0.473240
  P     -2.369588    0.245418    0.103133
  S     -3.218918    0.411981   -1.660057
  O     -3.321099    0.498606    1.348001
  C     -4.322996    1.530710    1.359056
  C     -3.713652    2.917868    1.362020
  O     -1.761688   -1.177411    0.454639
  C     -2.327971   -2.399596   -0.059934
  C     -3.677977   -2.693550    0.559188
  H      5.086935   -2.610035    0.033638
  H      6.499176   -1.561824   -0.205723
  H      5.109872   -0.982340    0.727869
  H      5.105817   -1.593421   -2.274315
  H      5.064109    0.026589   -1.515672
  H      0.381912   -1.082494    1.565762
  H      1.526622   -2.143975    2.428285
  H      2.818650   -0.102810    3.139031
  H      1.610586    0.921391    2.353107
  H      1.148862   -0.081682    3.731267
  H     -0.714094    1.510820   -1.930499
  H      0.872826    2.001854   -1.229739
  H     -4.967194    1.396530    0.484098
  H     -4.888285    1.336296    2.271505
  H     -2.989281    3.011574    2.167173
  H     -3.209307    3.105951    0.414917
  H     -4.498672    3.655478    1.494127
  H     -2.407397   -2.311980   -1.148375
  H     -1.588361   -3.160245    0.193528
  H     -4.398231   -1.936863    0.250372
  H     -4.023564   -3.666584    0.224488
  H     -3.603487   -2.686636    1.643376

 Total Charge           Charge          ....    0
 Multiplicity           Mult            ....    1
 Number of Electrons    NEL             ....  202
 Basis Dimension        Dim             ....  334

ORBITAL ENERGIES
----------------

  NO   OCC          E(Eh)            E(eV)
   0   2.0000     -88.046374     -2395.8636
   1   2.0000     -88.039220     -2395.6690
   2   2.0000     -87.995303     -2394.4739
   3   2.0000     -87.989555     -2394.3175
   4   2.0000     -76.431711     -2079.8126
   5   2.0000     -76.425709     -2079.6493
   6   2.0000     -18.800109      -511.5770
   7   2.0000     -18.795410      -511.4491
   8   2.0000     -18.787747      -511.2406
   9   2.0000     -18.787574      -511.2359
  10   2.0000      -9.957973      -270.9702
  11   2.0000      -9.953893      -270.8592
  12   2.0000      -9.953150      -270.8390
  13   2.0000      -9.950441      -270.7653
  14   2.0000      -9.946300      -270.6526
  15   2.0000      -9.888005      -269.0663
  16   2.0000      -9.887076      -269.0410
  17   2.0000      -9.881992      -268.9027
  18   2.0000      -9.874597      -268.7014
  19   2.0000      -7.691229      -209.2890
  20   2.0000      -7.684474      -209.1052
  21   2.0000      -7.640141      -207.8988
  22   2.0000      -7.634432      -207.7435
  23   2.0000      -6.429357      -174.9517
  24   2.0000      -6.423173      -174.7834
  25   2.0000      -5.719000      -155.6219
  26   2.0000      -5.715854      -155.5363
  27   2.0000      -5.712394      -155.4421
  28   2.0000      -5.709120      -155.3530
  29   2.0000      -5.708189      -155.3277
  30   2.0000      -5.701238      -155.1386
  31   2.0000      -5.668889      -154.2583
  32   2.0000      -5.663223      -154.1041
  33   2.0000      -5.660787      -154.0378
  34   2.0000      -5.660494      -154.0299
  35   2.0000      -5.655320      -153.8891
  36   2.0000      -5.654461      -153.8657
  37   2.0000      -4.651773      -126.5812
  38   2.0000      -4.651086      -126.5625
  39   2.0000      -4.649955      -126.5317
  40   2.0000      -4.645537      -126.4115
  41   2.0000      -4.644984      -126.3964
  42   2.0000      -4.643827      -126.3650
  43   2.0000      -0.993026       -27.0216
  44   2.0000      -0.983289       -26.7566
  45   2.0000      -0.951979       -25.9047
  46   2.0000      -0.940537       -25.5933
  47   2.0000      -0.764995       -20.8166
  48   2.0000      -0.723223       -19.6799
  49   2.0000      -0.708463       -19.2783
  50   2.0000      -0.690954       -18.8018
  51   2.0000      -0.682535       -18.5727
  52   2.0000      -0.675093       -18.3702
  53   2.0000      -0.654021       -17.7968
  54   2.0000      -0.641668       -17.4607
  55   2.0000      -0.606641       -16.5076
  56   2.0000      -0.595541       -16.2055
  57   2.0000      -0.576591       -15.6898
  58   2.0000      -0.568993       -15.4831
  59   2.0000      -0.560249       -15.2451
  60   2.0000      -0.499789       -13.6000
  61   2.0000      -0.490482       -13.3467
  62   2.0000      -0.477625       -12.9968
  63   2.0000      -0.467942       -12.7334
  64   2.0000      -0.460269       -12.5245
  65   2.0000      -0.444747       -12.1022
  66   2.0000      -0.443312       -12.0631
  67   2.0000      -0.434718       -11.8293
  68   2.0000      -0.427845       -11.6422
  69   2.0000      -0.417178       -11.3520
  70   2.0000      -0.404998       -11.0205
  71   2.0000      -0.397141       -10.8067
  72   2.0000      -0.393433       -10.7059
  73   2.0000      -0.389898       -10.6097
  74   2.0000      -0.385703       -10.4955
  75   2.0000      -0.377526       -10.2730
  76   2.0000      -0.371785       -10.1168
  77   2.0000      -0.360579        -9.8118
  78   2.0000      -0.355672        -9.6783
  79   2.0000      -0.352365        -9.5883
  80   2.0000      -0.348190        -9.4747
  81   2.0000      -0.343298        -9.3416
  82   2.0000      -0.340303        -9.2601
  83   2.0000      -0.336969        -9.1694
  84   2.0000      -0.333106        -9.0643
  85   2.0000      -0.320706        -8.7268
  86   2.0000      -0.311099        -8.4654
  87   2.0000      -0.300514        -8.1774
  88   2.0000      -0.292878        -7.9696
  89   2.0000      -0.290288        -7.8991
  90   2.0000      -0.282107        -7.6765
  91   2.0000      -0.277581        -7.5534
  92   2.0000      -0.272193        -7.4067
  93   2.0000      -0.269437        -7.3318
  94   2.0000      -0.257610        -7.0099
  95   2.0000      -0.236720        -6.4415
  96   2.0000      -0.219019        -5.9598
  97   2.0000      -0.215964        -5.8767
  98   2.0000      -0.209308        -5.6956
  99   2.0000      -0.206632        -5.6227
 100   2.0000      -0.200647        -5.4599
 101   0.0000      -0.047936        -1.3044
 102   0.0000      -0.029440        -0.8011
 103   0.0000      -0.003453        -0.0940
 104   0.0000       0.002878         0.0783
 105   0.0000       0.012728         0.3463

MULLIKEN ATOMIC CHARGES
-----------------------
   0 C :   -0.306437
   1 C :   -0.004401
   2 O :   -0.372044
   3 P :    0.630932
   4 S :   -0.338496
   5 O :   -0.372212
   6 C :   -0.033593
   7 C :   -0.309934
   8 S :   -0.078765
   9 C :   -0.369168
  10 S :   -0.078645
  11 P :    0.613560
  12 S :   -0.329916
  13 O :   -0.369827
  14 C :   -0.006201
  15 C :   -0.316930
  16 O :   -0.357164
  17 C :   -0.000623
  18 C :   -0.306815
  19 H :    0.116625
  20 H :    0.110878
  21 H :    0.125113
  22 H :    0.106122
  23 H :    0.113318
  24 H :    0.136157
  25 H :    0.098504
  26 H :    0.112136
  27 H :    0.134919
  28 H :    0.104174
  29 H :    0.193205
  30 H :    0.196873
  31 H :    0.112611
  32 H :    0.107661
  33 H :    0.120367
  34 H :    0.128642
  35 H :    0.115714
  36 H :    0.115216
  37 H :    0.106226
  38 H :    0.121843
  39 H :    0.114089
  40 H :    0.116288
Sum of atomic charges:   -0.0000000

LOEWDIN ATOMIC CHARGES
----------------------
   0 C :   -0.364420
   1 C :   -0.115262
   2 O :   -0.244129
   3 P :    0.573444
   4 S :   -0.311585
   5 O :   -0.243055
   6 C :   -0.122539
   7 C :   -0.368981
   8 S :    0.087516
   9 C :   -0.485612
  10 S :    0.104088
  11 P :    0.573665
  12 S :   -0.318587
  13 O :   -0.242010
  14 C :   -0.118374
  15 C :   -0.369449
  16 O :   -0.235293
  17 C :   -0.117244
  18 C :   -0.364405
  19 H :    0.126556
  20 H :    0.129828
  21 H :    0.123009
  22 H :    0.119411
  23 H :    0.110700
  24 H :    0.107600
  25 H :    0.116555
  26 H :    0.123689
  27 H :    0.115983
  28 H :    0.127644
  29 H :    0.130060
  30 H :    0.129156
  31 H :    0.111574
  32 H :    0.119910
  33 H :    0.125381
  34 H :    0.122025
  35 H :    0.132464
  36 H :    0.111886
  37 H :    0.119030
  38 H :    0.122251
  39 H :    0.131327
  40 H :    0.126193

  Mayer bond orders larger than 0.100000
B(  0-C ,  1-C ) :   1.1635 B(  0-C , 19-H ) :   0.9463 B(  0-C , 20-H ) :   0.9385
B(  0-C , 21-H ) :   0.9363 B(  1-C ,  2-O ) :   0.9084 B(  1-C , 22-H ) :   0.9349
B(  1-C , 23-H ) :   0.9157 B(  2-O ,  3-P ) :   1.1358 B(  3-P ,  4-S ) :   1.5973
B(  3-P ,  5-O ) :   1.1111 B(  3-P ,  8-S ) :   0.9439 B(  4-S ,  8-S ) :   0.1128
B(  5-O ,  6-C ) :   0.9080 B(  6-C ,  7-C ) :   1.1652 B(  6-C , 24-H ) :   0.8996
B(  6-C , 25-H ) :   0.9351 B(  7-C , 26-H ) :   0.9458 B(  7-C , 27-H ) :   0.9295
B(  7-C , 28-H ) :   0.9377 B(  8-S ,  9-C ) :   1.0160 B(  9-C , 10-S ) :   0.9956
B(  9-C , 29-H ) :   0.8774 B(  9-C , 30-H ) :   0.8698 B( 10-S , 11-P ) :   0.9612
B( 10-S , 12-S ) :   0.1071 B( 11-P , 12-S ) :   1.5928 B( 11-P , 13-O ) :   1.1151
B( 11-P , 16-O ) :   1.1130 B( 13-O , 14-C ) :   0.9052 B( 14-C , 15-C ) :   1.1663
B( 14-C , 31-H ) :   0.9171 B( 14-C , 32-H ) :   0.9338 B( 15-C , 33-H ) :   0.9443
B( 15-C , 34-H ) :   0.9353 B( 15-C , 35-H ) :   0.9374 B( 16-O , 17-C ) :   0.8987
B( 17-C , 18-C ) :   1.1633 B( 17-C , 36-H ) :   0.9167 B( 17-C , 37-H ) :   0.9341
B( 18-C , 38-H ) :   0.9367 B( 18-C , 39-H ) :   0.9395 B( 18-C , 40-H ) :   0.9461

Dispersion correction           -0.065935334
FINAL SINGLE POINT ENERGY     -2929.526634620910

DIPOLE MOMENT
-------------

Method             : SCF
Type of density    : Electron Density
Multiplicity       :   1
Irrep              :   0
Energy             : -2929.6459577595096562 Eh
Relativity type    :
Basis              : AO
                                X                 Y                 Z
Electronic contribution:      1.575066515       5.904250591     -13.390601083
Nuclear contribution   :     -2.004970425      -6.627274112      14.282878634
                        -----------------------------------------
Total Dipole Moment    :     -0.429903910      -0.723023521       0.892277552
                        -----------------------------------------
Magnitude (a.u.)       :      1.226270611
Magnitude (Debye)      :      3.116932188

Rotational constants in cm-1:             0.014219             0.004521             0.004346
Rotational constants in MHz :           426.273431           135.531554           130.278740

                             ****ORCA TERMINATED NORMALLY****
TOTAL RUN TIME: 0 days 0 hours 0 minutes 21 seconds 63 msec
