                         Program Version 6.0.0  -   RELEASE  -
|  1> ! r2scan-3c def2/J RI DEFGRID2 scfconv6 printgap
|  2> %output
|  3>     printlevel normal
|  4> end
|  5> * xyz 0 1
|  6> C 3.0318782738 0.0829300601 3.2377690097
|  7> C 1.6695924273 -0.3063743288 2.7054270184
|  8> O 1.4081025872 0.3166055697 1.4299242554
|  9> P 2.1900317208 -0.1048048663 0.1224145803
| 10> S 2.8048427514 -1.9700749453 0.0665900699
| 11> O 3.2875796193 1.0402562642 0.0434734777
| 12> C 4.2336019094 1.1434765272 -1.0388333628
| 13> C 5.5075903879 0.3826313926 -0.7251924706
| 14> S 0.8327088145 0.4465416135 -1.4087678437
| 15> C -0.1090627335 -1.1013746825 -1.3918365542
| 16> S -1.1447062419 -1.2744674745 0.079703833
| 17> P -2.5340050526 0.2595548849 -0.4533899679
| 18> S -2.9643746861 0.3944977672 -2.3540387306
| 19> O -1.9271171906 1.5994386136 0.1135896255
| 20> C -1.6726495639 1.8159674189 1.5247194525
| 21> C -0.6728942899 2.9467676944 1.6452142771
| 22> O -3.7578829527 0.016010859 0.5325058557
| 23> C -4.8550710395 -0.8601702479 0.2115709419
| 24> C -4.4260316081 -2.3087897532 0.1044813882
| 25> H 3.1676982222 -0.3385463189 4.2287266996
| 26> H 3.8065261899 -0.3057542262 2.5775625682
| 27> H 3.122486896 1.1646984455 3.285866472
| 28> H 0.8639921109 0.0530929711 3.3466757192
| 29> H 1.5934533826 -1.3917487741 2.5849953336
| 30> H 3.7707367705 0.7756332916 -1.9592818544
| 31> H 4.4233387737 2.2144381713 -1.1323033443
| 32> H 6.2171326577 0.5257079882 -1.5337311033
| 33> H 5.9415968389 0.7465193538 0.2019051692
| 34> H 5.2983532251 -0.6798727965 -0.6224053491
| 35> H 0.5802043182 -1.9464297848 -1.3973223772
| 36> H -0.7416207602 -1.0929027849 -2.2796893496
| 37> H -2.6245895934 2.0637547839 1.9980900334
| 38> H -1.2856694834 0.8872476842 1.9547612797
| 39> H -0.5137470663 3.1724629476 2.6947396024
| 40> H 0.2729151989 2.6612102727 1.191205925
| 41> H -1.0510753391 3.8298468488 1.1382072291
| 42> H -5.5554587145 -0.7064558744 1.0337214695
| 43> H -5.3012835839 -0.5209743325 -0.7280262506
| 44> H -3.8795513827 -2.6105148739 0.9945830187
| 45> H -5.305620942 -2.9343099934 -0.0086716702
| 46> H -3.7843890881 -2.4443673063 -0.7648807602
| 47> *
| 48>
| 49>                          ****END OF INPUT****

CARTESIAN COORDINATES (ANGSTROEM)
---------------------------------
  C      3.031878    0.082930    3.237769
  C      1.669592   -0.306374    2.705427
  O      1.408103    0.316606    1.429924
  P      2.190032   -0.104805    0.122415
  S      2.804843   -1.970075    0.066590
  O      3.287580    1.040256    0.043473
  C      4.233602    1.143477   -1.038833
  C      5.507590    0.382631   -0.725192
  S      0.832709    0.446542   -1.408768
  C     -0.109063   -1.101375   -1.391837
  S     -1.144706   -1.274467    0.079704
  P     -2.534005    0.259555   -0.453390
  S     -2.964375    0.394498   -2.354039
  O     -1.927117    1.599439    0.113590
  C     -1.672650    1.815967    1.524719
  C     -0.672894    2.946768    1.645214
  O     -3.757883    0.016011    0.532506
  C     -4.855071   -0.860170    0.211571
  C     -4.426032   -2.308790    0.104481
  H      3.167698   -0.338546    4.228727
  H      3.806526   -0.305754    2.577563
  H      3.122487    1.164698    3.285866
  H      0.863992    0.053093    3.346676
  H      1.593453   -1.391749    2.584995
  H      3.770737    0.775633   -1.959282
  H      4.423339    2.214438   -1.132303
  H      6.217133    0.525708   -1.533731
  H      5.941597    0.746519    0.201905
  H      5.298353   -0.679873   -0.622405
  H      0.580204   -1.946430   -1.397322
  H     -0.741621   -1.092903   -2.279689
  H     -2.624590    2.063755    1.998090
  H     -1.285669    0.887248    1.954761
  H     -0.513747    3.172463    2.694740
  H      0.272915    2.661210    1.191206
  H     -1.051075    3.829847    1.138207
  H     -5.555459   -0.706456    1.033721
  H     -5.301284   -0.520974   -0.728026
  H     -3.879551   -2.610515    0.994583
  H     -5.305621   -2.934310   -0.008672
  H     -3.784389   -2.444367   -0.764881

 Total Charge           Charge          ....    0
 Multiplicity           Mult            ....    1
 Number of Electrons    NEL             ....  202
 Basis Dimension        Dim             ....  539

ORBITAL ENERGIES
----------------

  NO   OCC          E(Eh)            E(eV)
   0   2.0000     -88.574595     -2410.2373
   1   2.0000     -88.572312     -2410.1751
   2   2.0000     -88.524052     -2408.8619
   3   2.0000     -88.519670     -2408.7427
   4   2.0000     -76.917124     -2093.0213
   5   2.0000     -76.912355     -2092.8916
   6   2.0000     -18.996925      -516.9326
   7   2.0000     -18.994659      -516.8710
   8   2.0000     -18.994262      -516.8602
   9   2.0000     -18.987054      -516.6640
  10   2.0000     -10.104252      -274.9507
  11   2.0000     -10.102247      -274.8961
  12   2.0000     -10.101119      -274.8654
  13   2.0000     -10.100527      -274.8493
  14   2.0000     -10.098363      -274.7904
  15   2.0000     -10.032509      -272.9984
  16   2.0000     -10.029048      -272.9043
  17   2.0000     -10.028775      -272.8968
  18   2.0000     -10.027469      -272.8613
  19   2.0000      -7.868712      -214.1185
  20   2.0000      -7.866648      -214.0624
  21   2.0000      -7.818905      -212.7632
  22   2.0000      -7.814463      -212.6423
  23   2.0000      -6.595648      -179.4767
  24   2.0000      -6.590879      -179.3469
  25   2.0000      -5.815581      -158.2500
  26   2.0000      -5.813449      -158.1920
  27   2.0000      -5.812580      -158.1683
  28   2.0000      -5.810526      -158.1125
  29   2.0000      -5.805863      -157.9856
  30   2.0000      -5.803822      -157.9300
  31   2.0000      -5.766473      -156.9137
  32   2.0000      -5.762146      -156.7960
  33   2.0000      -5.759138      -156.7141
  34   2.0000      -5.759022      -156.7110
  35   2.0000      -5.754682      -156.5929
  36   2.0000      -5.754482      -156.5874
  37   2.0000      -4.741120      -129.0124
  38   2.0000      -4.740602      -128.9983
  39   2.0000      -4.739366      -128.9647
  40   2.0000      -4.736771      -128.8941
  41   2.0000      -4.735700      -128.8650
  42   2.0000      -4.734374      -128.8289
  43   2.0000      -1.055012       -28.7083
  44   2.0000      -1.050301       -28.5802
  45   2.0000      -1.015934       -27.6450
  46   2.0000      -1.008406       -27.4401
  47   2.0000      -0.800942       -21.7947
  48   2.0000      -0.759759       -20.6741
  49   2.0000      -0.750764       -20.4293
  50   2.0000      -0.734657       -19.9910
  51   2.0000      -0.733046       -19.9472
  52   2.0000      -0.711782       -19.3686
  53   2.0000      -0.686477       -18.6800
  54   2.0000      -0.669072       -18.2064
  55   2.0000      -0.633188       -17.2299
  56   2.0000      -0.624114       -16.9830
  57   2.0000      -0.606639       -16.5075
  58   2.0000      -0.602527       -16.3956
  59   2.0000      -0.591791       -16.1034
  60   2.0000      -0.532071       -14.4784
  61   2.0000      -0.523982       -14.2583
  62   2.0000      -0.499445       -13.5906
  63   2.0000      -0.493650       -13.4329
  64   2.0000      -0.477110       -12.9828
  65   2.0000      -0.466327       -12.6894
  66   2.0000      -0.460215       -12.5231
  67   2.0000      -0.455876       -12.4050
  68   2.0000      -0.446330       -12.1453
  69   2.0000      -0.434505       -11.8235
  70   2.0000      -0.425969       -11.5912
  71   2.0000      -0.413522       -11.2525
  72   2.0000      -0.411468       -11.1966
  73   2.0000      -0.406752       -11.0683
  74   2.0000      -0.392057       -10.6684
  75   2.0000      -0.391222       -10.6457
  76   2.0000      -0.380567       -10.3558
  77   2.0000      -0.376802       -10.2533
  78   2.0000      -0.370755       -10.0888
  79   2.0000      -0.366768        -9.9803
  80   2.0000      -0.364185        -9.9100
  81   2.0000      -0.359565        -9.7843
  82   2.0000      -0.354797        -9.6545
  83   2.0000      -0.353141        -9.6095
  84   2.0000      -0.351377        -9.5615
  85   2.0000      -0.335697        -9.1348
  86   2.0000      -0.323124        -8.7927
  87   2.0000      -0.316714        -8.6182
  88   2.0000      -0.314894        -8.5687
  89   2.0000      -0.310117        -8.4387
  90   2.0000      -0.306687        -8.3454
  91   2.0000      -0.293825        -7.9954
  92   2.0000      -0.284965        -7.7543
  93   2.0000      -0.280120        -7.6225
  94   2.0000      -0.271767        -7.3952
  95   2.0000      -0.246448        -6.7062
  96   2.0000      -0.232018        -6.3135
  97   2.0000      -0.226563        -6.1651
  98   2.0000      -0.217983        -5.9316
  99   2.0000      -0.216127        -5.8811
 100   2.0000      -0.213250        -5.8028
 101   0.0000      -0.045809        -1.2465
 102   0.0000      -0.024164        -0.6575
 103   0.0000      -0.003410        -0.0928
 104   0.0000      -0.001125        -0.0306
 105   0.0000       0.015997         0.4353

MULLIKEN ATOMIC CHARGES
-----------------------
   0 C :   -0.451372
   1 C :   -0.139288
   2 O :   -0.256169
   3 P :    0.662124
   4 S :   -0.485447
   5 O :   -0.299892
   6 C :   -0.137390
   7 C :   -0.453879
   8 S :   -0.120090
   9 C :   -0.234373
  10 S :   -0.164935
  11 P :    0.651279
  12 S :   -0.445564
  13 O :   -0.257331
  14 C :   -0.101501
  15 C :   -0.469698
  16 O :   -0.291902
  17 C :   -0.164820
  18 C :   -0.445170
  19 H :    0.148859
  20 H :    0.170303
  21 H :    0.157080
  22 H :    0.147840
  23 H :    0.175977
  24 H :    0.155654
  25 H :    0.151916
  26 H :    0.146433
  27 H :    0.151439
  28 H :    0.182231
  29 H :    0.213343
  30 H :    0.218460
  31 H :    0.154403
  32 H :    0.154241
  33 H :    0.141507
  34 H :    0.177559
  35 H :    0.154690
  36 H :    0.147721
  37 H :    0.174013
  38 H :    0.153606
  39 H :    0.147874
  40 H :    0.180273
Sum of atomic charges:   -0.0000000

LOEWDIN ATOMIC CHARGES
----------------------
   0 C :   -0.398716
   1 C :    0.016532
   2 O :   -0.679819
   3 P :    0.376257
   4 S :   -0.134805
   5 O :   -0.659840
   6 C :    0.023869
   7 C :   -0.401777
   8 S :    0.174981
   9 C :   -0.425662
  10 S :    0.142434
  11 P :    0.379805
  12 S :   -0.103030
  13 O :   -0.653278
  14 C :    0.023803
  15 C :   -0.389359
  16 O :   -0.666903
  17 C :    0.022844
  18 C :   -0.408802
  19 H :    0.160068
  20 H :    0.166429
  21 H :    0.160462
  22 H :    0.177780
  23 H :    0.182443
  24 H :    0.176553
  25 H :    0.179963
  26 H :    0.158811
  27 H :    0.157978
  28 H :    0.169156
  29 H :    0.192224
  30 H :    0.192480
  31 H :    0.173148
  32 H :    0.176599
  33 H :    0.158606
  34 H :    0.171005
  35 H :    0.161838
  36 H :    0.179387
  37 H :    0.180302
  38 H :    0.159918
  39 H :    0.159473
  40 H :    0.166839

  Mayer bond orders larger than 0.100000
B(  0-C ,  1-C ) :   0.9179 B(  0-C , 19-H ) :   0.9637 B(  0-C , 20-H ) :   0.9580
B(  0-C , 21-H ) :   0.9746 B(  1-C ,  2-O ) :   0.7666 B(  1-C , 22-H ) :   0.9625
B(  1-C , 23-H ) :   0.9575 B(  2-O ,  3-P ) :   1.1277 B(  3-P ,  4-S ) :   1.7455
B(  3-P ,  5-O ) :   1.0704 B(  3-P ,  8-S ) :   1.1086 B(  5-O ,  6-C ) :   0.7819
B(  6-C ,  7-C ) :   0.9525 B(  6-C , 24-H ) :   0.9631 B(  6-C , 25-H ) :   0.9632
B(  7-C , 26-H ) :   0.9637 B(  7-C , 27-H ) :   0.9747 B(  7-C , 28-H ) :   0.9565
B(  8-S ,  9-C ) :   0.9099 B(  9-C , 10-S ) :   0.9068 B(  9-C , 29-H ) :   0.9032
B(  9-C , 30-H ) :   0.9048 B( 10-S , 11-P ) :   1.0009 B( 11-P , 12-S ) :   1.8343
B( 11-P , 13-O ) :   1.1661 B( 11-P , 16-O ) :   1.0357 B( 13-O , 14-C ) :   0.7348
B( 14-C , 15-C ) :   0.9376 B( 14-C , 31-H ) :   0.9444 B( 14-C , 32-H ) :   0.9534
B( 15-C , 33-H ) :   0.9681 B( 15-C , 34-H ) :   0.9660 B( 15-C , 35-H ) :   0.9696
B( 16-O , 17-C ) :   0.8191 B( 17-C , 18-C ) :   0.9182 B( 17-C , 36-H ) :   0.9615
B( 17-C , 37-H ) :   0.9691 B( 18-C , 38-H ) :   0.9676 B( 18-C , 39-H ) :   0.9562
B( 18-C , 40-H ) :   0.9629

Dispersion correction           -0.021677559
FINAL SINGLE POINT ENERGY     -2932.464995468642

DIPOLE MOMENT
-------------

Method             : SCF
Type of density    : Electron Density
Multiplicity       :   1
Irrep              :   0
Energy             : -2932.4897810293909970 Eh
Relativity type    :
Basis              : AO
                                X                 Y                 Z
Electronic contribution:     -8.479065583      -2.622613924     -14.689765363
Nuclear contribution   :      8.764360306       2.904987875      16.197528770
                        -----------------------------------------
Total Dipole Moment    :      0.285294723       0.282373951       1.507763407
                        -----------------------------------------
Magnitude (a.u.)       :      1.560281583
Magnitude (Debye)      :      3.965920608

Rotational constants in cm-1:             0.013593             0.004677             0.004517
Rotational constants in MHz :           407.508944           140.201790           135.421416

                             ****ORCA TERMINATED NORMALLY****
TOTAL RUN TIME: 0 days 0 hours 1 minutes 19 seconds 964 msec
