                         Program Version 6.0.0  -   RELEASE  -
|  1> ! r2scan-3c def2/J RI DEFGRID2 scfconv6 printgap
|  2> %output
|  3>     printlevel normal
|  4> end
|  5> %cpcm
|  6>     smd true
|  7>     smdsolvent "water"
|  8> end
|  9> * xyz 0 1
| 10> C 3.0318782738 0.0829300601 3.2377690097
| 11> C 1.6695924273 -0.3063743288 2.7054270184
| 12> O 1.4081025872 0.3166055697 1.4299242554
| 13> P 2.1900317208 -0.1048048663 0.1224145803
| 14> S 2.8048427514 -1.9700749453 0.0665900699
| 15> O 3.2875796193 1.0402562642 0.0434734777
| 16> C 4.2336019094 1.1434765272 -1.0388333628
| 17> C 5.5075903879 0.3826313926 -0.7251924706
| 18> S 0.8327088145 0.4465416135 -1.4087678437
| 19> C -0.1090627335 -1.1013746825 -1.3918365542
| 20> S -1.1447062419 -1.2744674745 0.079703833
| 21> P -2.5340050526 0.2595548849 -0.4533899679
| 22> S -2.9643746861 0.3944977672 -2.3540387306
| 23> O -1.9271171906 1.5994386136 0.1135896255
| 24> C -1.6726495639 1.8159674189 1.5247194525
| 25> C -0.6728942899 2.9467676944 1.6452142771
| 26> O -3.7578829527 0.016010859 0.5325058557
| 27> C -4.8550710395 -0.8601702479 0.2115709419
| 28> C -4.4260316081 -2.3087897532 0.1044813882
| 29> H 3.1676982222 -0.3385463189 4.2287266996
| 30> H 3.8065261899 -0.3057542262 2.5775625682
| 31> H 3.122486896 1.1646984455 3.285866472
| 32> H 0.8639921109 0.0530929711 3.3466757192
| 33> H 1.5934533826 -1.3917487741 2.5849953336
| 34> H 3.7707367705 0.7756332916 -1.9592818544
| 35> H 4.4233387737 2.2144381713 -1.1323033443
| 36> H 6.2171326577 0.5257079882 -1.5337311033
| 37> H 5.9415968389 0.7465193538 0.2019051692
| 38> H 5.2983532251 -0.6798727965 -0.6224053491
| 39> H 0.5802043182 -1.9464297848 -1.3973223772
| 40> H -0.7416207602 -1.0929027849 -2.2796893496
| 41> H -2.6245895934 2.0637547839 1.9980900334
| 42> H -1.2856694834 0.8872476842 1.9547612797
| 43> H -0.5137470663 3.1724629476 2.6947396024
| 44> H 0.2729151989 2.6612102727 1.191205925
| 45> H -1.0510753391 3.8298468488 1.1382072291
| 46> H -5.5554587145 -0.7064558744 1.0337214695
| 47> H -5.3012835839 -0.5209743325 -0.7280262506
| 48> H -3.8795513827 -2.6105148739 0.9945830187
| 49> H -5.305620942 -2.9343099934 -0.0086716702
| 50> H -3.7843890881 -2.4443673063 -0.7648807602
| 51> *
| 52>
| 53>                          ****END OF INPUT****

CARTESIAN COORDINATES (ANGSTROEM)
---------------------------------
  C      3.031878    0.082930    3.237769
  C      1.669592   -0.306374    2.705427
  O      1.408103    0.316606    1.429924
  P      2.190032   -0.104805    0.122415
  S      2.804843   -1.970075    0.066590
  O      3.287580    1.040256    0.043473
  C      4.233602    1.143477   -1.038833
  C      5.507590    0.382631   -0.725192
  S      0.832709    0.446542   -1.408768
  C     -0.109063   -1.101375   -1.391837
  S     -1.144706   -1.274467    0.079704
  P     -2.534005    0.259555   -0.453390
  S     -2.964375    0.394498   -2.354039
  O     -1.927117    1.599439    0.113590
  C     -1.672650    1.815967    1.524719
  C     -0.672894    2.946768    1.645214
  O     -3.757883    0.016011    0.532506
  C     -4.855071   -0.860170    0.211571
  C     -4.426032   -2.308790    0.104481
  H      3.167698   -0.338546    4.228727
  H      3.806526   -0.305754    2.577563
  H      3.122487    1.164698    3.285866
  H      0.863992    0.053093    3.346676
  H      1.593453   -1.391749    2.584995
  H      3.770737    0.775633   -1.959282
  H      4.423339    2.214438   -1.132303
  H      6.217133    0.525708   -1.533731
  H      5.941597    0.746519    0.201905
  H      5.298353   -0.679873   -0.622405
  H      0.580204   -1.946430   -1.397322
  H     -0.741621   -1.092903   -2.279689
  H     -2.624590    2.063755    1.998090
  H     -1.285669    0.887248    1.954761
  H     -0.513747    3.172463    2.694740
  H      0.272915    2.661210    1.191206
  H     -1.051075    3.829847    1.138207
  H     -5.555459   -0.706456    1.033721
  H     -5.301284   -0.520974   -0.728026
  H     -3.879551   -2.610515    0.994583
  H     -5.305621   -2.934310   -0.008672
  H     -3.784389   -2.444367   -0.764881

 Total Charge           Charge          ....    0
 Multiplicity           Mult            ....    1
 Number of Electrons    NEL             ....  202
 Basis Dimension        Dim             ....  539

ORBITAL ENERGIES
----------------

  NO   OCC          E(Eh)            E(eV)
   0   2.0000     -88.579056     -2410.3587
   1   2.0000     -88.576582     -2410.2913
   2   2.0000     -88.531235     -2409.0574
   3   2.0000     -88.528947     -2408.9951
   4   2.0000     -76.920072     -2093.1016
   5   2.0000     -76.920033     -2093.1005
   6   2.0000     -18.996924      -516.9326
   7   2.0000     -18.996765      -516.9283
   8   2.0000     -18.993533      -516.8403
   9   2.0000     -18.993391      -516.8364
  10   2.0000     -10.102579      -274.9051
  11   2.0000     -10.092286      -274.6251
  12   2.0000     -10.091311      -274.5985
  13   2.0000     -10.091086      -274.5924
  14   2.0000     -10.089597      -274.5519
  15   2.0000     -10.018913      -272.6285
  16   2.0000     -10.018800      -272.6254
  17   2.0000     -10.018736      -272.6237
  18   2.0000     -10.016958      -272.5753
  19   2.0000      -7.873292      -214.2432
  20   2.0000      -7.870886      -214.1777
  21   2.0000      -7.826378      -212.9666
  22   2.0000      -7.824069      -212.9038
  23   2.0000      -6.598605      -179.5572
  24   2.0000      -6.598600      -179.5570
  25   2.0000      -5.820111      -158.3733
  26   2.0000      -5.817714      -158.3081
  27   2.0000      -5.817147      -158.2926
  28   2.0000      -5.814788      -158.2284
  29   2.0000      -5.810503      -158.1118
  30   2.0000      -5.808015      -158.0441
  31   2.0000      -5.773949      -157.1171
  32   2.0000      -5.771590      -157.0529
  33   2.0000      -5.766568      -156.9163
  34   2.0000      -5.766472      -156.9137
  35   2.0000      -5.764305      -156.8547
  36   2.0000      -5.764183      -156.8514
  37   2.0000      -4.744435      -129.1026
  38   2.0000      -4.744010      -129.0911
  39   2.0000      -4.743559      -129.0788
  40   2.0000      -4.743384      -129.0740
  41   2.0000      -4.742424      -129.0479
  42   2.0000      -4.742219      -129.0423
  43   2.0000      -1.054423       -28.6923
  44   2.0000      -1.053989       -28.6805
  45   2.0000      -1.014212       -27.5981
  46   2.0000      -1.012050       -27.5393
  47   2.0000      -0.804049       -21.8793
  48   2.0000      -0.756577       -20.5875
  49   2.0000      -0.745062       -20.2742
  50   2.0000      -0.725606       -19.7447
  51   2.0000      -0.723457       -19.6863
  52   2.0000      -0.711229       -19.3535
  53   2.0000      -0.690053       -18.7773
  54   2.0000      -0.675361       -18.3775
  55   2.0000      -0.629465       -17.1286
  56   2.0000      -0.620518       -16.8851
  57   2.0000      -0.599220       -16.3056
  58   2.0000      -0.597575       -16.2609
  59   2.0000      -0.590360       -16.0645
  60   2.0000      -0.528872       -14.3913
  61   2.0000      -0.519564       -14.1380
  62   2.0000      -0.493240       -13.4217
  63   2.0000      -0.491096       -13.3634
  64   2.0000      -0.477512       -12.9937
  65   2.0000      -0.460891       -12.5415
  66   2.0000      -0.454368       -12.3640
  67   2.0000      -0.451081       -12.2745
  68   2.0000      -0.441952       -12.0261
  69   2.0000      -0.432066       -11.7571
  70   2.0000      -0.419757       -11.4222
  71   2.0000      -0.411705       -11.2031
  72   2.0000      -0.406768       -11.0687
  73   2.0000      -0.403616       -10.9830
  74   2.0000      -0.390903       -10.6370
  75   2.0000      -0.388006       -10.5582
  76   2.0000      -0.380385       -10.3508
  77   2.0000      -0.372753       -10.1431
  78   2.0000      -0.362614        -9.8672
  79   2.0000      -0.358275        -9.7492
  80   2.0000      -0.355058        -9.6616
  81   2.0000      -0.352853        -9.6016
  82   2.0000      -0.349809        -9.5188
  83   2.0000      -0.347095        -9.4449
  84   2.0000      -0.345550        -9.4029
  85   2.0000      -0.332185        -9.0392
  86   2.0000      -0.321006        -8.7350
  87   2.0000      -0.316312        -8.6073
  88   2.0000      -0.307092        -8.3564
  89   2.0000      -0.306647        -8.3443
  90   2.0000      -0.300866        -8.1870
  91   2.0000      -0.289426        -7.8757
  92   2.0000      -0.284736        -7.7481
  93   2.0000      -0.280255        -7.6261
  94   2.0000      -0.274359        -7.4657
  95   2.0000      -0.250737        -6.8229
  96   2.0000      -0.239741        -6.5237
  97   2.0000      -0.235508        -6.4085
  98   2.0000      -0.225909        -6.1473
  99   2.0000      -0.224332        -6.1044
 100   2.0000      -0.220523        -6.0007
 101   0.0000      -0.051611        -1.4044
 102   0.0000      -0.030934        -0.8418
 103   0.0000      -0.007636        -0.2078
 104   0.0000      -0.005653        -0.1538
 105   0.0000       0.015173         0.4129

MULLIKEN ATOMIC CHARGES
-----------------------
   0 C :   -0.493333
   1 C :   -0.134681
   2 O :   -0.277754
   3 P :    0.698475
   4 S :   -0.526261
   5 O :   -0.326112
   6 C :   -0.132222
   7 C :   -0.489761
   8 S :   -0.147480
   9 C :   -0.242662
  10 S :   -0.162244
  11 P :    0.664387
  12 S :   -0.499289
  13 O :   -0.288361
  14 C :   -0.103464
  15 C :   -0.508209
  16 O :   -0.311274
  17 C :   -0.158486
  18 C :   -0.481879
  19 H :    0.173526
  20 H :    0.167725
  21 H :    0.171875
  22 H :    0.181642
  23 H :    0.176774
  24 H :    0.165013
  25 H :    0.177579
  26 H :    0.170000
  27 H :    0.167574
  28 H :    0.171304
  29 H :    0.232502
  30 H :    0.233777
  31 H :    0.175832
  32 H :    0.174097
  33 H :    0.172844
  34 H :    0.171221
  35 H :    0.166160
  36 H :    0.176044
  37 H :    0.179438
  38 H :    0.168727
  39 H :    0.172855
  40 H :    0.174100
Sum of atomic charges:   -0.0000000

LOEWDIN ATOMIC CHARGES
----------------------
   0 C :   -0.402301
   1 C :    0.022309
   2 O :   -0.686829
   3 P :    0.381929
   4 S :   -0.160128
   5 O :   -0.670708
   6 C :    0.029053
   7 C :   -0.405589
   8 S :    0.158698
   9 C :   -0.421623
  10 S :    0.147756
  11 P :    0.381942
  12 S :   -0.143632
  13 O :   -0.676894
  14 C :    0.029586
  15 C :   -0.393065
  16 O :   -0.672549
  17 C :    0.028785
  18 C :   -0.411266
  19 H :    0.169171
  20 H :    0.162840
  21 H :    0.164171
  22 H :    0.191122
  23 H :    0.182610
  24 H :    0.180291
  25 H :    0.190939
  26 H :    0.167546
  27 H :    0.162519
  28 H :    0.163003
  29 H :    0.197580
  30 H :    0.196775
  31 H :    0.182942
  32 H :    0.183767
  33 H :    0.170985
  34 H :    0.166498
  35 H :    0.164107
  36 H :    0.191622
  37 H :    0.181704
  38 H :    0.163775
  39 H :    0.168654
  40 H :    0.161908

  Mayer bond orders larger than 0.100000
B(  0-C ,  1-C ) :   0.9038 B(  0-C , 19-H ) :   0.9577 B(  0-C , 20-H ) :   0.9583
B(  0-C , 21-H ) :   0.9737 B(  1-C ,  2-O ) :   0.7539 B(  1-C , 22-H ) :   0.9524
B(  1-C , 23-H ) :   0.9546 B(  2-O ,  3-P ) :   1.1397 B(  3-P ,  4-S ) :   1.7153
B(  3-P ,  5-O ) :   1.0775 B(  3-P ,  8-S ) :   1.1080 B(  5-O ,  6-C ) :   0.7704
B(  6-C ,  7-C ) :   0.9434 B(  6-C , 24-H ) :   0.9569 B(  6-C , 25-H ) :   0.9531
B(  7-C , 26-H ) :   0.9588 B(  7-C , 27-H ) :   0.9717 B(  7-C , 28-H ) :   0.9607
B(  8-S ,  9-C ) :   0.8981 B(  9-C , 10-S ) :   0.8972 B(  9-C , 29-H ) :   0.9000
B(  9-C , 30-H ) :   0.9011 B( 10-S , 11-P ) :   1.0132 B( 11-P , 12-S ) :   1.8117
B( 11-P , 13-O ) :   1.1713 B( 11-P , 16-O ) :   1.0483 B( 13-O , 14-C ) :   0.7233
B( 14-C , 15-C ) :   0.9271 B( 14-C , 31-H ) :   0.9346 B( 14-C , 32-H ) :   0.9449
B( 15-C , 33-H ) :   0.9608 B( 15-C , 34-H ) :   0.9672 B( 15-C , 35-H ) :   0.9685
B( 16-O , 17-C ) :   0.8064 B( 17-C , 18-C ) :   0.9063 B( 17-C , 36-H ) :   0.9504
B( 17-C , 37-H ) :   0.9676 B( 18-C , 38-H ) :   0.9646 B( 18-C , 39-H ) :   0.9509
B( 18-C , 40-H ) :   0.9647

Dispersion correction           -0.021677559
FINAL SINGLE POINT ENERGY     -2932.473784034591

DIPOLE MOMENT
-------------

Method             : SCF
Type of density    : Electron Density
Multiplicity       :   1
Irrep              :   0
Energy             : -2932.4985695953391769 Eh
Relativity type    :
Basis              : AO
                                X                 Y                 Z
Electronic contribution:     -8.494373487      -2.679435391     -14.045783355
Nuclear contribution   :      8.764360306       2.904987875      16.197528770
                        -----------------------------------------
Total Dipole Moment    :      0.269986820       0.225552484       2.151745415
                        -----------------------------------------
Magnitude (a.u.)       :      2.180315376
Magnitude (Debye)      :      5.541921262

Rotational constants in cm-1:             0.013593             0.004677             0.004517
Rotational constants in MHz :           407.508944           140.201790           135.421416

                             ****ORCA TERMINATED NORMALLY****
TOTAL RUN TIME: 0 days 0 hours 1 minutes 48 seconds 926 msec
