                         Program Version 6.0.0  -   RELEASE  -
|  1> ! pbe def2-sv(p) def2/J RI DEFGRID1 loosescf d4 GCP(DFT/SV(P)) printgap
|  2> %output
|  3>     printlevel normal
|  4> end
|  5> * xyz 0 1
|  6> C 5.7409386425 -0.3419988855 -0.1760490096
|  7> C 4.3341676065 -0.7099695887 -0.6016568009
|  8> O 3.427537065 0.2387079281 -0.0037122736
|  9> P 1.9291885202 0.375063884 -0.5223930095
| 10> S 1.7599107186 0.656441914 -2.4496385493
| 11> O 1.395658099 1.5676141461 0.3542636297
| 12> C 1.5613119258 1.6286410412 1.7932584212
| 13> C 2.7614365835 2.4750561823 2.1624276392
| 14> S 1.0838632907 -1.4332385468 0.215672742
| 15> C -0.142476985 -1.78846128 -1.0815307936
| 16> S -1.8265007427 -1.9133990081 -0.4489748687
| 17> P -2.0583407005 0.1064662439 0.178235819
| 18> S -1.4979816017 1.444197691 -1.1425586674
| 19> O -1.2719123794 0.2744617543 1.5378860133
| 20> C -1.7128238438 -0.1930936678 2.8407399448
| 21> C -1.7475916889 -1.7036478265 2.9397532925
| 22> O -3.5699196247 0.192364281 0.65470604
| 23> C -4.6533780214 0.4915781149 -0.2438846592
| 24> C -4.8644528407 -0.5964935936 -1.2760130479
| 25> H 5.9843503721 0.6597683008 -0.5190010033
| 26> H 5.8237009712 -0.3759169391 0.9063553557
| 27> H 6.4393047023 -1.0484506266 -0.6122194108
| 28> H 4.0590625874 -1.7093881615 -0.2538204911
| 29> H 4.2165899696 -0.6630133787 -1.6892871752
| 30> H 0.6307343988 2.0749766518 2.1494989562
| 31> H 1.6556745757 0.6097405433 2.1797087985
| 32> H 2.6641735134 3.4656118897 1.7262838267
| 33> H 2.8137759631 2.5612912265 3.2432870989
| 34> H 3.6741233658 2.0168888103 1.7915482023
| 35> H 0.0923703112 -2.7595634834 -1.5097699135
| 36> H -0.0784314865 -0.9997766622 -1.8369961264
| 37> H -0.9711635253 0.2335998576 3.5181054767
| 38> H -2.6947975069 0.237912758 3.0417534949
| 39> H -0.7980213125 -2.1265791652 2.6190228384
| 40> H -1.9306708752 -1.9813954591 3.973086024
| 41> H -2.5417540384 -2.1100607109 2.317997479
| 42> H -5.5151170611 0.5930479266 0.4175059176
| 43> H -4.4415373194 1.4479135468 -0.7317760711
| 44> H -4.0237165079 -0.6212694603 -1.9677224228
| 45> H -4.9515757645 -1.5668165469 -0.7939211766
| 46> H -5.7709396696 -0.3874879571 -1.8349882547
| 47> *
| 48>
| 49>                          ****END OF INPUT****

CARTESIAN COORDINATES (ANGSTROEM)
---------------------------------
  C      5.740939   -0.341999   -0.176049
  C      4.334168   -0.709970   -0.601657
  O      3.427537    0.238708   -0.003712
  P      1.929189    0.375064   -0.522393
  S      1.759911    0.656442   -2.449639
  O      1.395658    1.567614    0.354264
  C      1.561312    1.628641    1.793258
  C      2.761437    2.475056    2.162428
  S      1.083863   -1.433239    0.215673
  C     -0.142477   -1.788461   -1.081531
  S     -1.826501   -1.913399   -0.448975
  P     -2.058341    0.106466    0.178236
  S     -1.497982    1.444198   -1.142559
  O     -1.271912    0.274462    1.537886
  C     -1.712824   -0.193094    2.840740
  C     -1.747592   -1.703648    2.939753
  O     -3.569920    0.192364    0.654706
  C     -4.653378    0.491578   -0.243885
  C     -4.864453   -0.596494   -1.276013
  H      5.984350    0.659768   -0.519001
  H      5.823701   -0.375917    0.906355
  H      6.439305   -1.048451   -0.612219
  H      4.059063   -1.709388   -0.253820
  H      4.216590   -0.663013   -1.689287
  H      0.630734    2.074977    2.149499
  H      1.655675    0.609741    2.179709
  H      2.664174    3.465612    1.726284
  H      2.813776    2.561291    3.243287
  H      3.674123    2.016889    1.791548
  H      0.092370   -2.759563   -1.509770
  H     -0.078431   -0.999777   -1.836996
  H     -0.971164    0.233600    3.518105
  H     -2.694798    0.237913    3.041753
  H     -0.798021   -2.126579    2.619023
  H     -1.930671   -1.981395    3.973086
  H     -2.541754   -2.110061    2.317997
  H     -5.515117    0.593048    0.417506
  H     -4.441537    1.447914   -0.731776
  H     -4.023717   -0.621269   -1.967722
  H     -4.951576   -1.566817   -0.793921
  H     -5.770940   -0.387488   -1.834988

 Total Charge           Charge          ....    0
 Multiplicity           Mult            ....    1
 Number of Electrons    NEL             ....  202
 Basis Dimension        Dim             ....  334

ORBITAL ENERGIES
----------------

  NO   OCC          E(Eh)            E(eV)
   0   2.0000     -88.040334     -2395.6993
   1   2.0000     -88.037826     -2395.6310
   2   2.0000     -87.976687     -2393.9673
   3   2.0000     -87.976432     -2393.9604
   4   2.0000     -76.423366     -2079.5855
   5   2.0000     -76.419128     -2079.4702
   6   2.0000     -18.795841      -511.4608
   7   2.0000     -18.789299      -511.2828
   8   2.0000     -18.789229      -511.2809
   9   2.0000     -18.783578      -511.1272
  10   2.0000      -9.958108      -270.9739
  11   2.0000      -9.954906      -270.8868
  12   2.0000      -9.950832      -270.7759
  13   2.0000      -9.950116      -270.7564
  14   2.0000      -9.948869      -270.7225
  15   2.0000      -9.887211      -269.0447
  16   2.0000      -9.887081      -269.0412
  17   2.0000      -9.884717      -268.9768
  18   2.0000      -9.881523      -268.8899
  19   2.0000      -7.685326      -209.1284
  20   2.0000      -7.682597      -209.0541
  21   2.0000      -7.621680      -207.3965
  22   2.0000      -7.621627      -207.3950
  23   2.0000      -6.420565      -174.7125
  24   2.0000      -6.416659      -174.6062
  25   2.0000      -5.713187      -155.4637
  26   2.0000      -5.710392      -155.3877
  27   2.0000      -5.709797      -155.3715
  28   2.0000      -5.707042      -155.2965
  29   2.0000      -5.702355      -155.1690
  30   2.0000      -5.699735      -155.0977
  31   2.0000      -5.650796      -153.7660
  32   2.0000      -5.650703      -153.7634
  33   2.0000      -5.642336      -153.5358
  34   2.0000      -5.642157      -153.5309
  35   2.0000      -5.641721      -153.5190
  36   2.0000      -5.641587      -153.5154
  37   2.0000      -4.643690      -126.3612
  38   2.0000      -4.642155      -126.3194
  39   2.0000      -4.640681      -126.2793
  40   2.0000      -4.639459      -126.2461
  41   2.0000      -4.638396      -126.2172
  42   2.0000      -4.636919      -126.1770
  43   2.0000      -0.988532       -26.8993
  44   2.0000      -0.983315       -26.7574
  45   2.0000      -0.944376       -25.6978
  46   2.0000      -0.938770       -25.5452
  47   2.0000      -0.759212       -20.6592
  48   2.0000      -0.718069       -19.5397
  49   2.0000      -0.709779       -19.3141
  50   2.0000      -0.691772       -18.8241
  51   2.0000      -0.688557       -18.7366
  52   2.0000      -0.674634       -18.3577
  53   2.0000      -0.645921       -17.5764
  54   2.0000      -0.628573       -17.1043
  55   2.0000      -0.595009       -16.1910
  56   2.0000      -0.583645       -15.8818
  57   2.0000      -0.580311       -15.7911
  58   2.0000      -0.565669       -15.3926
  59   2.0000      -0.560188       -15.2435
  60   2.0000      -0.504674       -13.7329
  61   2.0000      -0.496607       -13.5134
  62   2.0000      -0.476676       -12.9710
  63   2.0000      -0.471055       -12.8181
  64   2.0000      -0.450982       -12.2718
  65   2.0000      -0.444090       -12.0843
  66   2.0000      -0.441578       -12.0159
  67   2.0000      -0.437553       -11.9064
  68   2.0000      -0.428332       -11.6555
  69   2.0000      -0.424026       -11.5383
  70   2.0000      -0.409931       -11.1548
  71   2.0000      -0.400169       -10.8891
  72   2.0000      -0.386129       -10.5071
  73   2.0000      -0.382177       -10.3996
  74   2.0000      -0.376891       -10.2557
  75   2.0000      -0.366555        -9.9745
  76   2.0000      -0.362214        -9.8563
  77   2.0000      -0.356545        -9.7021
  78   2.0000      -0.353768        -9.6265
  79   2.0000      -0.352837        -9.6012
  80   2.0000      -0.348546        -9.4844
  81   2.0000      -0.344018        -9.3612
  82   2.0000      -0.338536        -9.2120
  83   2.0000      -0.336388        -9.1536
  84   2.0000      -0.334441        -9.1006
  85   2.0000      -0.319374        -8.6906
  86   2.0000      -0.312183        -8.4949
  87   2.0000      -0.299321        -8.1449
  88   2.0000      -0.295659        -8.0453
  89   2.0000      -0.293986        -7.9998
  90   2.0000      -0.286650        -7.8001
  91   2.0000      -0.272408        -7.4126
  92   2.0000      -0.266844        -7.2612
  93   2.0000      -0.260645        -7.0925
  94   2.0000      -0.254109        -6.9147
  95   2.0000      -0.230889        -6.2828
  96   2.0000      -0.217843        -5.9278
  97   2.0000      -0.210442        -5.7264
  98   2.0000      -0.196028        -5.3342
  99   2.0000      -0.185857        -5.0574
 100   2.0000      -0.180152        -4.9022
 101   0.0000      -0.039425        -1.0728
 102   0.0000      -0.029220        -0.7951
 103   0.0000      -0.005865        -0.1596
 104   0.0000       0.008196         0.2230
 105   0.0000       0.022121         0.6019

MULLIKEN ATOMIC CHARGES
-----------------------
   0 C :   -0.283005
   1 C :   -0.007805
   2 O :   -0.388234
   3 P :    0.603434
   4 S :   -0.290887
   5 O :   -0.339608
   6 C :   -0.020126
   7 C :   -0.283077
   8 S :   -0.128254
   9 C :   -0.344858
  10 S :   -0.109145
  11 P :    0.596225
  12 S :   -0.279716
  13 O :   -0.358882
  14 C :    0.002782
  15 C :   -0.315729
  16 O :   -0.386968
  17 C :    0.002006
  18 C :   -0.323331
  19 H :    0.122486
  20 H :    0.113860
  21 H :    0.111994
  22 H :    0.098792
  23 H :    0.103770
  24 H :    0.117560
  25 H :    0.096519
  26 H :    0.121254
  27 H :    0.103597
  28 H :    0.121923
  29 H :    0.179298
  30 H :    0.207337
  31 H :    0.101678
  32 H :    0.110996
  33 H :    0.126855
  34 H :    0.110256
  35 H :    0.123175
  36 H :    0.103176
  37 H :    0.113840
  38 H :    0.135022
  39 H :    0.116314
  40 H :    0.115476
Sum of atomic charges:   -0.0000000

LOEWDIN ATOMIC CHARGES
----------------------
   0 C :   -0.351064
   1 C :   -0.123534
   2 O :   -0.251884
   3 P :    0.568983
   4 S :   -0.294745
   5 O :   -0.222169
   6 C :   -0.112949
   7 C :   -0.360105
   8 S :    0.053990
   9 C :   -0.481223
  10 S :    0.078120
  11 P :    0.561368
  12 S :   -0.288922
  13 O :   -0.237257
  14 C :   -0.107968
  15 C :   -0.370784
  16 O :   -0.249182
  17 C :   -0.116136
  18 C :   -0.372323
  19 H :    0.129259
  20 H :    0.124422
  21 H :    0.130798
  22 H :    0.105563
  23 H :    0.108326
  24 H :    0.121019
  25 H :    0.101440
  26 H :    0.129985
  27 H :    0.126803
  28 H :    0.125263
  29 H :    0.136675
  30 H :    0.125399
  31 H :    0.115999
  32 H :    0.114612
  33 H :    0.123486
  34 H :    0.129442
  35 H :    0.118121
  36 H :    0.117692
  37 H :    0.114131
  38 H :    0.124315
  39 H :    0.122466
  40 H :    0.132568

  Mayer bond orders larger than 0.100000
B(  0-C ,  1-C ) :   1.1587 B(  0-C , 19-H ) :   0.9507 B(  0-C , 20-H ) :   0.9507
B(  0-C , 21-H ) :   0.9423 B(  1-C ,  2-O ) :   0.9089 B(  1-C , 22-H ) :   0.9250
B(  1-C , 23-H ) :   0.9084 B(  2-O ,  3-P ) :   1.0627 B(  3-P ,  4-S ) :   1.6485
B(  3-P ,  5-O ) :   1.1500 B(  3-P ,  8-S ) :   0.9469 B(  4-S ,  8-S ) :   0.1152
B(  5-O ,  6-C ) :   0.8943 B(  6-C ,  7-C ) :   1.1574 B(  6-C , 24-H ) :   0.9281
B(  6-C , 25-H ) :   0.9167 B(  7-C , 26-H ) :   0.9459 B(  7-C , 27-H ) :   0.9401
B(  7-C , 28-H ) :   0.9397 B(  8-S ,  9-C ) :   0.9970 B(  9-C , 10-S ) :   1.0031
B(  9-C , 29-H ) :   0.9114 B(  9-C , 30-H ) :   0.8436 B( 10-S , 11-P ) :   0.9359
B( 10-S , 12-S ) :   0.1092 B( 11-P , 12-S ) :   1.6739 B( 11-P , 13-O ) :   1.1142
B( 11-P , 16-O ) :   1.0738 B( 13-O , 14-C ) :   0.9004 B( 14-C , 15-C ) :   1.1736
B( 14-C , 31-H ) :   0.9310 B( 14-C , 32-H ) :   0.9265 B( 15-C , 33-H ) :   0.9388
B( 15-C , 34-H ) :   0.9351 B( 15-C , 35-H ) :   0.9391 B( 16-O , 17-C ) :   0.9032
B( 17-C , 18-C ) :   1.1672 B( 17-C , 36-H ) :   0.9342 B( 17-C , 37-H ) :   0.9167
B( 18-C , 38-H ) :   0.9325 B( 18-C , 39-H ) :   0.9437 B( 18-C , 40-H ) :   0.9367

Dispersion correction           -0.067417048
FINAL SINGLE POINT ENERGY     -2929.513248112878

DIPOLE MOMENT
-------------

Method             : SCF
Type of density    : Electron Density
Multiplicity       :   1
Irrep              :   0
Energy             : -2929.6323299001037412 Eh
Relativity type    :
Basis              : AO
                                X                 Y                 Z
Electronic contribution:     -4.435889251       1.707676580     -13.800133074
Nuclear contribution   :      4.197077375      -2.658067567      15.592983372
                        -----------------------------------------
Total Dipole Moment    :     -0.238811876      -0.950390987       1.792850297
                        -----------------------------------------
Magnitude (a.u.)       :      2.043180444
Magnitude (Debye)      :      5.193351967

Rotational constants in cm-1:             0.013304             0.005170             0.004896
Rotational constants in MHz :           398.832130           155.000695           146.788170

                             ****ORCA TERMINATED NORMALLY****
TOTAL RUN TIME: 0 days 0 hours 0 minutes 21 seconds 525 msec
