                         Program Version 6.0.0  -   RELEASE  -
|  1> ! pbe def2-sv(p) def2/J RI DEFGRID1 loosescf d4 GCP(DFT/SV(P)) printgap
|  2> %output
|  3>     printlevel normal
|  4> end
|  5> * xyz 0 1
|  6> C 4.3464899869 -1.8770024859 -0.7755000276
|  7> C 4.5872360057 -0.4036705413 -0.5156159797
|  8> O 3.562834894 0.180939666 0.3051086824
|  9> P 2.0592419665 0.3496889051 -0.1898251085
| 10> S 1.8840695029 0.8374028878 -2.0839089197
| 11> O 1.5118888551 1.3668234844 0.8989125991
| 12> C 1.5626060282 2.7938467425 0.7147028945
| 13> C 2.9824878294 3.3132085013 0.6433022976
| 14> S 1.1330896193 -1.4224807042 0.4712082642
| 15> C -0.0928873855 -1.6892691609 -0.8648085873
| 16> S -1.7534183092 -2.0293929678 -0.2391798384
| 17> P -2.3765280062 -0.066131146 0.2935005159
| 18> S -1.3746627216 1.399976401 -0.5553158191
| 19> O -2.4795099022 -0.0132164512 1.8724333631
| 20> C -1.3487814794 0.0237900731 2.7628047684
| 21> C -1.0738091427 -1.3497972246 3.3445356733
| 22> O -3.9355185983 -0.0625742507 0.050990182
| 23> C -4.5163882536 0.3115316378 -1.2113681973
| 24> C -4.2064593748 -0.687090838 -2.3087123794
| 25> H 4.1873071486 -2.4058295345 0.1608351515
| 26> H 3.4675117201 -2.0025837615 -1.4065298081
| 27> H 5.2075979835 -2.2959496715 -1.286183982
| 28> H 4.6290550506 0.1485614659 -1.4600728305
| 29> H 5.5032255247 -0.2387768776 0.053257873
| 30> H 1.0054527497 3.0411339007 -0.1956298568
| 31> H 1.0288081182 3.186911882 1.5814798807
| 32> H 3.5468604619 2.9798928666 1.5104087548
| 33> H 3.4678240067 2.9432933081 -0.2592107202
| 34> H 2.9652713987 4.3981972425 0.6141650245
| 35> H 0.1981063822 -2.5756927091 -1.4216853188
| 36> H -0.1019270067 -0.8029379871 -1.5042708527
| 37> H -0.4740922152 0.4186534064 2.234200801
| 38> H -1.6379508204 0.7296104247 3.5444362526
| 39> H -1.9770123772 -1.7399453974 3.8047273234
| 40> H -0.7437815962 -2.0403482511 2.5717363175
| 41> H -0.2929352546 -1.2659877469 4.0934893994
| 42> H -5.5855847776 0.3569843106 -0.9997706368
| 43> H -4.1499387082 1.3072098458 -1.4820099955
| 44> H -4.7835332028 -0.4366549367 -3.1932366298
| 45> H -3.1470910578 -0.6508711991 -2.5596737081
| 46> H -4.4580352547 -1.6938104584 -1.9850565892
| 47> *
| 48>
| 49>                          ****END OF INPUT****

CARTESIAN COORDINATES (ANGSTROEM)
---------------------------------
  C      4.346490   -1.877002   -0.775500
  C      4.587236   -0.403671   -0.515616
  O      3.562835    0.180940    0.305109
  P      2.059242    0.349689   -0.189825
  S      1.884070    0.837403   -2.083909
  O      1.511889    1.366823    0.898913
  C      1.562606    2.793847    0.714703
  C      2.982488    3.313209    0.643302
  S      1.133090   -1.422481    0.471208
  C     -0.092887   -1.689269   -0.864809
  S     -1.753418   -2.029393   -0.239180
  P     -2.376528   -0.066131    0.293501
  S     -1.374663    1.399976   -0.555316
  O     -2.479510   -0.013216    1.872433
  C     -1.348781    0.023790    2.762805
  C     -1.073809   -1.349797    3.344536
  O     -3.935519   -0.062574    0.050990
  C     -4.516388    0.311532   -1.211368
  C     -4.206459   -0.687091   -2.308712
  H      4.187307   -2.405830    0.160835
  H      3.467512   -2.002584   -1.406530
  H      5.207598   -2.295950   -1.286184
  H      4.629055    0.148561   -1.460073
  H      5.503226   -0.238777    0.053258
  H      1.005453    3.041134   -0.195630
  H      1.028808    3.186912    1.581480
  H      3.546860    2.979893    1.510409
  H      3.467824    2.943293   -0.259211
  H      2.965271    4.398197    0.614165
  H      0.198106   -2.575693   -1.421685
  H     -0.101927   -0.802938   -1.504271
  H     -0.474092    0.418653    2.234201
  H     -1.637951    0.729610    3.544436
  H     -1.977012   -1.739945    3.804727
  H     -0.743782   -2.040348    2.571736
  H     -0.292935   -1.265988    4.093489
  H     -5.585585    0.356984   -0.999771
  H     -4.149939    1.307210   -1.482010
  H     -4.783533   -0.436655   -3.193237
  H     -3.147091   -0.650871   -2.559674
  H     -4.458035   -1.693810   -1.985057

 Total Charge           Charge          ....    0
 Multiplicity           Mult            ....    1
 Number of Electrons    NEL             ....  202
 Basis Dimension        Dim             ....  334

ORBITAL ENERGIES
----------------

  NO   OCC          E(Eh)            E(eV)
   0   2.0000     -88.046664     -2395.8715
   1   2.0000     -88.044285     -2395.8068
   2   2.0000     -87.989163     -2394.3068
   3   2.0000     -87.985629     -2394.2107
   4   2.0000     -76.426913     -2079.6820
   5   2.0000     -76.425056     -2079.6315
   6   2.0000     -18.791497      -511.3426
   7   2.0000     -18.789509      -511.2885
   8   2.0000     -18.788098      -511.2501
   9   2.0000     -18.783828      -511.1340
  10   2.0000      -9.956959      -270.9426
  11   2.0000      -9.952069      -270.8096
  12   2.0000      -9.951523      -270.7947
  13   2.0000      -9.947030      -270.6725
  14   2.0000      -9.945119      -270.6204
  15   2.0000      -9.884448      -268.9695
  16   2.0000      -9.882913      -268.9277
  17   2.0000      -9.881043      -268.8768
  18   2.0000      -9.876687      -268.7583
  19   2.0000      -7.691571      -209.2983
  20   2.0000      -7.689149      -209.2324
  21   2.0000      -7.634002      -207.7317
  22   2.0000      -7.630208      -207.6285
  23   2.0000      -6.424266      -174.8132
  24   2.0000      -6.422392      -174.7622
  25   2.0000      -5.719520      -155.6361
  26   2.0000      -5.717002      -155.5675
  27   2.0000      -5.715850      -155.5362
  28   2.0000      -5.713731      -155.4785
  29   2.0000      -5.708705      -155.3418
  30   2.0000      -5.706030      -155.2690
  31   2.0000      -5.662881      -154.0948
  32   2.0000      -5.659025      -153.9899
  33   2.0000      -5.654816      -153.8754
  34   2.0000      -5.654035      -153.8541
  35   2.0000      -5.650838      -153.7671
  36   2.0000      -5.650514      -153.7583
  37   2.0000      -4.646493      -126.4375
  38   2.0000      -4.645955      -126.4229
  39   2.0000      -4.645151      -126.4010
  40   2.0000      -4.644609      -126.3862
  41   2.0000      -4.644427      -126.3813
  42   2.0000      -4.642877      -126.3391
  43   2.0000      -0.986360       -26.8402
  44   2.0000      -0.985569       -26.8187
  45   2.0000      -0.943533       -25.6748
  46   2.0000      -0.940721       -25.5983
  47   2.0000      -0.762521       -20.7492
  48   2.0000      -0.720358       -19.6019
  49   2.0000      -0.708633       -19.2829
  50   2.0000      -0.686329       -18.6759
  51   2.0000      -0.680511       -18.5176
  52   2.0000      -0.675609       -18.3843
  53   2.0000      -0.651428       -17.7262
  54   2.0000      -0.635372       -17.2894
  55   2.0000      -0.605152       -16.4670
  56   2.0000      -0.595196       -16.1961
  57   2.0000      -0.570940       -15.5361
  58   2.0000      -0.562941       -15.3184
  59   2.0000      -0.561623       -15.2825
  60   2.0000      -0.495538       -13.4843
  61   2.0000      -0.489875       -13.3302
  62   2.0000      -0.470699       -12.8084
  63   2.0000      -0.466615       -12.6972
  64   2.0000      -0.453040       -12.3278
  65   2.0000      -0.447528       -12.1779
  66   2.0000      -0.439243       -11.9524
  67   2.0000      -0.436150       -11.8683
  68   2.0000      -0.422988       -11.5101
  69   2.0000      -0.415106       -11.2956
  70   2.0000      -0.413835       -11.2610
  71   2.0000      -0.395130       -10.7520
  72   2.0000      -0.389973       -10.6117
  73   2.0000      -0.387900       -10.5553
  74   2.0000      -0.383692       -10.4408
  75   2.0000      -0.381730       -10.3874
  76   2.0000      -0.366648        -9.9770
  77   2.0000      -0.354123        -9.6362
  78   2.0000      -0.353097        -9.6083
  79   2.0000      -0.347378        -9.4526
  80   2.0000      -0.346444        -9.4272
  81   2.0000      -0.341630        -9.2962
  82   2.0000      -0.339910        -9.2494
  83   2.0000      -0.334903        -9.1132
  84   2.0000      -0.331865        -9.0305
  85   2.0000      -0.314633        -8.5616
  86   2.0000      -0.310995        -8.4626
  87   2.0000      -0.295892        -8.0516
  88   2.0000      -0.294213        -8.0059
  89   2.0000      -0.287402        -7.8206
  90   2.0000      -0.281043        -7.6476
  91   2.0000      -0.270835        -7.3698
  92   2.0000      -0.267601        -7.2818
  93   2.0000      -0.265355        -7.2207
  94   2.0000      -0.257975        -7.0199
  95   2.0000      -0.235024        -6.3953
  96   2.0000      -0.219304        -5.9676
  97   2.0000      -0.217936        -5.9303
  98   2.0000      -0.205559        -5.5935
  99   2.0000      -0.201449        -5.4817
 100   2.0000      -0.191363        -5.2073
 101   0.0000      -0.044622        -1.2142
 102   0.0000      -0.037198        -1.0122
 103   0.0000      -0.015824        -0.4306
 104   0.0000       0.010054         0.2736
 105   0.0000       0.015419         0.4196

MULLIKEN ATOMIC CHARGES
-----------------------
   0 C :   -0.310053
   1 C :   -0.003294
   2 O :   -0.372903
   3 P :    0.620563
   4 S :   -0.316265
   5 O :   -0.359432
   6 C :   -0.002090
   7 C :   -0.304508
   8 S :   -0.104498
   9 C :   -0.347665
  10 S :   -0.108284
  11 P :    0.598135
  12 S :   -0.322267
  13 O :   -0.354687
  14 C :   -0.032182
  15 C :   -0.292884
  16 O :   -0.357523
  17 C :    0.000265
  18 C :   -0.317353
  19 H :    0.118844
  20 H :    0.118920
  21 H :    0.112294
  22 H :    0.109485
  23 H :    0.104619
  24 H :    0.121431
  25 H :    0.103230
  26 H :    0.114974
  27 H :    0.122064
  28 H :    0.111616
  29 H :    0.182167
  30 H :    0.212903
  31 H :    0.131656
  32 H :    0.103166
  33 H :    0.110844
  34 H :    0.124338
  35 H :    0.105454
  36 H :    0.107343
  37 H :    0.112967
  38 H :    0.113099
  39 H :    0.126989
  40 H :    0.118523
Sum of atomic charges:    0.0000000

LOEWDIN ATOMIC CHARGES
----------------------
   0 C :   -0.369161
   1 C :   -0.119836
   2 O :   -0.245369
   3 P :    0.575202
   4 S :   -0.307631
   5 O :   -0.236665
   6 C :   -0.117202
   7 C :   -0.366471
   8 S :    0.090628
   9 C :   -0.477776
  10 S :    0.083276
  11 P :    0.565948
  12 S :   -0.301069
  13 O :   -0.236270
  14 C :   -0.121480
  15 C :   -0.363027
  16 O :   -0.233495
  17 C :   -0.116160
  18 C :   -0.369892
  19 H :    0.124233
  20 H :    0.118888
  21 H :    0.130307
  22 H :    0.109482
  23 H :    0.118438
  24 H :    0.110368
  25 H :    0.118351
  26 H :    0.125445
  27 H :    0.121376
  28 H :    0.130441
  29 H :    0.135566
  30 H :    0.124957
  31 H :    0.108361
  32 H :    0.118055
  33 H :    0.124205
  34 H :    0.111238
  35 H :    0.128522
  36 H :    0.120024
  37 H :    0.111995
  38 H :    0.130915
  39 H :    0.121045
  40 H :    0.124241

  Mayer bond orders larger than 0.100000
B(  0-C ,  1-C ) :   1.1668 B(  0-C , 19-H ) :   0.9433 B(  0-C , 20-H ) :   0.9374
B(  0-C , 21-H ) :   0.9379 B(  1-C ,  2-O ) :   0.9133 B(  1-C , 22-H ) :   0.9155
B(  1-C , 23-H ) :   0.9339 B(  2-O ,  3-P ) :   1.0987 B(  3-P ,  4-S ) :   1.5929
B(  3-P ,  5-O ) :   1.1247 B(  3-P ,  8-S ) :   0.9627 B(  4-S ,  8-S ) :   0.1146
B(  5-O ,  6-C ) :   0.9012 B(  6-C ,  7-C ) :   1.1621 B(  6-C , 24-H ) :   0.9168
B(  6-C , 25-H ) :   0.9353 B(  7-C , 26-H ) :   0.9445 B(  7-C , 27-H ) :   0.9356
B(  7-C , 28-H ) :   0.9386 B(  8-S ,  9-C ) :   0.9856 B(  9-C , 10-S ) :   1.0191
B(  9-C , 29-H ) :   0.9075 B(  9-C , 30-H ) :   0.8476 B( 10-S , 11-P ) :   0.9225
B( 10-S , 12-S ) :   0.1173 B( 11-P , 12-S ) :   1.6225 B( 11-P , 13-O ) :   1.1356
B( 11-P , 16-O ) :   1.1322 B( 13-O , 14-C ) :   0.9040 B( 14-C , 15-C ) :   1.1686
B( 14-C , 31-H ) :   0.8957 B( 14-C , 32-H ) :   0.9351 B( 15-C , 33-H ) :   0.9461
B( 15-C , 34-H ) :   0.9315 B( 15-C , 35-H ) :   0.9406 B( 16-O , 17-C ) :   0.9105
B( 17-C , 18-C ) :   1.1652 B( 17-C , 36-H ) :   0.9344 B( 17-C , 37-H ) :   0.9169
B( 18-C , 38-H ) :   0.9376 B( 18-C , 39-H ) :   0.9372 B( 18-C , 40-H ) :   0.9438

Dispersion correction           -0.067713149
FINAL SINGLE POINT ENERGY     -2929.523200955577

DIPOLE MOMENT
-------------

Method             : SCF
Type of density    : Electron Density
Multiplicity       :   1
Irrep              :   0
Energy             : -2929.6406828582521484 Eh
Relativity type    :
Basis              : AO
                                X                 Y                 Z
Electronic contribution:     -7.230574338      -1.372958600      -1.979227606
Nuclear contribution   :      7.636326652       1.080504354       2.289430874
                        -----------------------------------------
Total Dipole Moment    :      0.405752314      -0.292454246       0.310203268
                        -----------------------------------------
Magnitude (a.u.)       :      0.588549483
Magnitude (Debye)      :      1.495973898

Rotational constants in cm-1:             0.012229             0.005163             0.005084
Rotational constants in MHz :           366.603109           154.793449           152.416283

                             ****ORCA TERMINATED NORMALLY****
TOTAL RUN TIME: 0 days 0 hours 0 minutes 21 seconds 659 msec
