                         Program Version 6.0.0  -   RELEASE  -
|  1> ! pbe def2-sv(p) def2/J RI DEFGRID1 loosescf d4 GCP(DFT/SV(P)) printgap
|  2> %output
|  3>     printlevel normal
|  4> end
|  5> * xyz 0 1
|  6> C 3.0942861085 -0.6023873661 -3.0732298617
|  7> C 3.7342222108 -1.2880461436 -1.884337991
|  8> O 3.4258271499 -0.6531969276 -0.6316976862
|  9> P 2.0005891082 -0.0912285237 -0.1893662445
| 10> S 1.6435132405 1.7134186792 -0.8829270009
| 11> O 2.1069648366 -0.2031036559 1.3884095221
| 12> C 2.5584665872 0.896386741 2.2001597705
| 13> C 4.0441224126 1.1271968556 2.0329165647
| 14> S 0.7546119374 -1.7621037241 -0.6047705215
| 15> C -0.2956304526 -1.9599083488 0.8731638795
| 16> S -2.0489747961 -1.6744096142 0.545390971
| 17> P -1.8932853519 0.4308940727 0.305145366
| 18> S -0.8788775493 1.2983562572 1.7397107728
| 19> O -3.3827377783 0.9367304658 0.1069942576
| 20> C -4.2490095443 1.2646321679 1.2098452882
| 21> C -4.5930406387 0.054483325 2.0528859815
| 22> O -1.2532725619 0.6783763863 -1.1127296658
| 23> C -1.9293689296 0.6247012984 -2.3932005995
| 24> C -2.414862989 -0.7680016408 -2.735888505
| 25> H 3.3995528428 -1.1015355212 -3.9871899911
| 26> H 2.0081038002 -0.6514020105 -2.9858926125
| 27> H 3.3887689133 0.4439495901 -3.1143710334
| 28> H 4.8236247331 -1.2448560449 -1.9368452047
| 29> H 3.4061476591 -2.329533012 -1.8195741835
| 30> H 1.987399314 1.7908057269 1.9284068623
| 31> H 2.2970292884 0.5992081868 3.2168588401
| 32> H 4.2522305321 1.4270254966 1.006407701
| 33> H 4.3631335642 1.9159841021 2.7066578812
| 34> H 4.5920325244 0.2144836819 2.2508744369
| 35> H 0.046887482 -1.2745861764 1.6479116424
| 36> H -0.205166265 -2.9960982186 1.1874157206
| 37> H -3.7578331922 2.0308019225 1.8175037836
| 38> H -5.1319349369 1.6844210541 0.7255677387
| 39> H -3.7078872675 -0.2959130998 2.5812018653
| 40> H -5.3492601386 0.3313242478 2.7804159073
| 41> H -4.9703045021 -0.7503285299 1.427208387
| 42> H -2.7548005729 1.3383481442 -2.3710572127
| 43> H -1.1594263507 0.9698382397 -3.0862053428
| 44> H -2.790690191 -0.7652254065 -3.7542645986
| 45> H -1.5998835319 -1.4846821967 -2.6581926875
| 46> H -3.215285256 -1.0679973708 -2.0628340368
| 47> *
| 48>
| 49>                          ****END OF INPUT****

CARTESIAN COORDINATES (ANGSTROEM)
---------------------------------
  C      3.094286   -0.602387   -3.073230
  C      3.734222   -1.288046   -1.884338
  O      3.425827   -0.653197   -0.631698
  P      2.000589   -0.091229   -0.189366
  S      1.643513    1.713419   -0.882927
  O      2.106965   -0.203104    1.388410
  C      2.558467    0.896387    2.200160
  C      4.044122    1.127197    2.032917
  S      0.754612   -1.762104   -0.604771
  C     -0.295630   -1.959908    0.873164
  S     -2.048975   -1.674410    0.545391
  P     -1.893285    0.430894    0.305145
  S     -0.878878    1.298356    1.739711
  O     -3.382738    0.936730    0.106994
  C     -4.249010    1.264632    1.209845
  C     -4.593041    0.054483    2.052886
  O     -1.253273    0.678376   -1.112730
  C     -1.929369    0.624701   -2.393201
  C     -2.414863   -0.768002   -2.735889
  H      3.399553   -1.101536   -3.987190
  H      2.008104   -0.651402   -2.985893
  H      3.388769    0.443950   -3.114371
  H      4.823625   -1.244856   -1.936845
  H      3.406148   -2.329533   -1.819574
  H      1.987399    1.790806    1.928407
  H      2.297029    0.599208    3.216859
  H      4.252231    1.427025    1.006408
  H      4.363134    1.915984    2.706658
  H      4.592033    0.214484    2.250874
  H      0.046887   -1.274586    1.647912
  H     -0.205166   -2.996098    1.187416
  H     -3.757833    2.030802    1.817504
  H     -5.131935    1.684421    0.725568
  H     -3.707887   -0.295913    2.581202
  H     -5.349260    0.331324    2.780416
  H     -4.970305   -0.750329    1.427208
  H     -2.754801    1.338348   -2.371057
  H     -1.159426    0.969838   -3.086205
  H     -2.790690   -0.765225   -3.754265
  H     -1.599884   -1.484682   -2.658193
  H     -3.215285   -1.067997   -2.062834

 Total Charge           Charge          ....    0
 Multiplicity           Mult            ....    1
 Number of Electrons    NEL             ....  202
 Basis Dimension        Dim             ....  334

ORBITAL ENERGIES
----------------

  NO   OCC          E(Eh)            E(eV)
   0   2.0000     -88.041140     -2395.7212
   1   2.0000     -88.037811     -2395.6306
   2   2.0000     -87.981206     -2394.0903
   3   2.0000     -87.970018     -2393.7859
   4   2.0000     -76.424956     -2079.6288
   5   2.0000     -76.416973     -2079.4115
   6   2.0000     -18.797806      -511.5143
   7   2.0000     -18.783272      -511.1188
   8   2.0000     -18.781112      -511.0600
   9   2.0000     -18.777175      -510.9529
  10   2.0000      -9.956724      -270.9362
  11   2.0000      -9.956587      -270.9325
  12   2.0000      -9.951369      -270.7905
  13   2.0000      -9.950556      -270.7684
  14   2.0000      -9.938744      -270.4470
  15   2.0000      -9.887402      -269.0499
  16   2.0000      -9.882257      -268.9099
  17   2.0000      -9.881646      -268.8933
  18   2.0000      -9.872980      -268.6574
  19   2.0000      -7.686339      -209.1559
  20   2.0000      -7.682867      -209.0614
  21   2.0000      -7.626180      -207.5189
  22   2.0000      -7.615012      -207.2150
  23   2.0000      -6.422182      -174.7564
  24   2.0000      -6.414123      -174.5372
  25   2.0000      -5.714094      -155.4884
  26   2.0000      -5.711153      -155.4084
  27   2.0000      -5.710916      -155.4019
  28   2.0000      -5.707137      -155.2991
  29   2.0000      -5.703327      -155.1954
  30   2.0000      -5.699628      -155.0948
  31   2.0000      -5.655065      -153.8821
  32   2.0000      -5.646941      -153.6611
  33   2.0000      -5.646196      -153.6408
  34   2.0000      -5.644086      -153.5834
  35   2.0000      -5.635919      -153.3612
  36   2.0000      -5.634757      -153.3295
  37   2.0000      -4.645367      -126.4069
  38   2.0000      -4.643706      -126.3617
  39   2.0000      -4.642336      -126.3244
  40   2.0000      -4.636699      -126.1710
  41   2.0000      -4.636368      -126.1620
  42   2.0000      -4.634191      -126.1028
  43   2.0000      -0.987945       -26.8834
  44   2.0000      -0.975468       -26.5438
  45   2.0000      -0.942335       -25.6422
  46   2.0000      -0.934693       -25.4343
  47   2.0000      -0.760389       -20.6912
  48   2.0000      -0.716011       -19.4836
  49   2.0000      -0.704995       -19.1839
  50   2.0000      -0.690677       -18.7943
  51   2.0000      -0.682467       -18.5709
  52   2.0000      -0.670034       -18.2326
  53   2.0000      -0.648146       -17.6370
  54   2.0000      -0.630154       -17.1474
  55   2.0000      -0.597703       -16.2643
  56   2.0000      -0.583763       -15.8850
  57   2.0000      -0.577872       -15.7247
  58   2.0000      -0.566075       -15.4037
  59   2.0000      -0.560029       -15.2392
  60   2.0000      -0.495729       -13.4895
  61   2.0000      -0.485907       -13.2222
  62   2.0000      -0.469234       -12.7685
  63   2.0000      -0.461244       -12.5511
  64   2.0000      -0.452839       -12.3224
  65   2.0000      -0.449323       -12.2267
  66   2.0000      -0.442452       -12.0397
  67   2.0000      -0.426870       -11.6157
  68   2.0000      -0.424635       -11.5549
  69   2.0000      -0.418248       -11.3811
  70   2.0000      -0.411990       -11.2108
  71   2.0000      -0.398893       -10.8544
  72   2.0000      -0.390989       -10.6393
  73   2.0000      -0.384246       -10.4559
  74   2.0000      -0.379303       -10.3214
  75   2.0000      -0.368361       -10.0236
  76   2.0000      -0.362639        -9.8679
  77   2.0000      -0.356485        -9.7004
  78   2.0000      -0.348591        -9.4856
  79   2.0000      -0.344757        -9.3813
  80   2.0000      -0.342880        -9.3302
  81   2.0000      -0.339536        -9.2393
  82   2.0000      -0.338188        -9.2026
  83   2.0000      -0.333278        -9.0689
  84   2.0000      -0.328749        -8.9457
  85   2.0000      -0.319843        -8.7034
  86   2.0000      -0.303740        -8.2652
  87   2.0000      -0.296766        -8.0754
  88   2.0000      -0.293746        -7.9932
  89   2.0000      -0.288207        -7.8425
  90   2.0000      -0.279604        -7.6084
  91   2.0000      -0.270504        -7.3608
  92   2.0000      -0.263584        -7.1725
  93   2.0000      -0.257835        -7.0161
  94   2.0000      -0.249907        -6.8003
  95   2.0000      -0.232946        -6.3388
  96   2.0000      -0.214912        -5.8480
  97   2.0000      -0.207549        -5.6477
  98   2.0000      -0.196444        -5.3455
  99   2.0000      -0.187023        -5.0892
 100   2.0000      -0.172071        -4.6823
 101   0.0000      -0.044978        -1.2239
 102   0.0000      -0.027389        -0.7453
 103   0.0000      -0.021738        -0.5915
 104   0.0000       0.000580         0.0158
 105   0.0000       0.020179         0.5491

MULLIKEN ATOMIC CHARGES
-----------------------
   0 C :   -0.325652
   1 C :    0.002032
   2 O :   -0.378446
   3 P :    0.613345
   4 S :   -0.305267
   5 O :   -0.371034
   6 C :   -0.014088
   7 C :   -0.294371
   8 S :   -0.127192
   9 C :   -0.345678
  10 S :   -0.102799
  11 P :    0.614308
  12 S :   -0.312121
  13 O :   -0.382371
  14 C :    0.000401
  15 C :   -0.323763
  16 O :   -0.339362
  17 C :    0.009603
  18 C :   -0.321435
  19 H :    0.109939
  20 H :    0.125236
  21 H :    0.131431
  22 H :    0.107675
  23 H :    0.105936
  24 H :    0.127671
  25 H :    0.099417
  26 H :    0.123664
  27 H :    0.107691
  28 H :    0.110280
  29 H :    0.210936
  30 H :    0.182777
  31 H :    0.115775
  32 H :    0.105518
  33 H :    0.131692
  34 H :    0.116063
  35 H :    0.117623
  36 H :    0.106952
  37 H :    0.111450
  38 H :    0.109609
  39 H :    0.129371
  40 H :    0.117184
Sum of atomic charges:    0.0000000

LOEWDIN ATOMIC CHARGES
----------------------
   0 C :   -0.373253
   1 C :   -0.116068
   2 O :   -0.251995
   3 P :    0.570786
   4 S :   -0.301908
   5 O :   -0.237733
   6 C :   -0.122526
   7 C :   -0.363864
   8 S :    0.065658
   9 C :   -0.474815
  10 S :    0.075215
  11 P :    0.573255
  12 S :   -0.301458
  13 O :   -0.244757
  14 C :   -0.115485
  15 C :   -0.372475
  16 O :   -0.224677
  17 C :   -0.105741
  18 C :   -0.371157
  19 H :    0.128802
  20 H :    0.116320
  21 H :    0.130208
  22 H :    0.120987
  23 H :    0.106966
  24 H :    0.110146
  25 H :    0.115727
  26 H :    0.123792
  27 H :    0.128609
  28 H :    0.123654
  29 H :    0.132308
  30 H :    0.138733
  31 H :    0.114761
  32 H :    0.118927
  33 H :    0.122789
  34 H :    0.132927
  35 H :    0.123296
  36 H :    0.113391
  37 H :    0.122185
  38 H :    0.129068
  39 H :    0.123416
  40 H :    0.115987

  Mayer bond orders larger than 0.100000
B(  0-C ,  1-C ) :   1.1656 B(  0-C , 19-H ) :   0.9332 B(  0-C , 20-H ) :   0.9333
B(  0-C , 21-H ) :   0.9377 B(  1-C ,  2-O ) :   0.9276 B(  1-C , 22-H ) :   0.9338
B(  1-C , 23-H ) :   0.9251 B(  2-O ,  3-P ) :   1.0772 B(  3-P ,  4-S ) :   1.6449
B(  3-P ,  5-O ) :   1.1179 B(  3-P ,  8-S ) :   0.9261 B(  4-S ,  8-S ) :   0.1087
B(  5-O ,  6-C ) :   0.8937 B(  6-C ,  7-C ) :   1.1640 B(  6-C , 24-H ) :   0.9071
B(  6-C , 25-H ) :   0.9351 B(  7-C , 26-H ) :   0.9344 B(  7-C , 27-H ) :   0.9400
B(  7-C , 28-H ) :   0.9459 B(  8-S ,  9-C ) :   1.0012 B(  9-C , 10-S ) :   1.0085
B(  9-C , 29-H ) :   0.8595 B(  9-C , 30-H ) :   0.9111 B( 10-S , 11-P ) :   0.9334
B( 10-S , 12-S ) :   0.1066 B( 11-P , 12-S ) :   1.6289 B( 11-P , 13-O ) :   1.0857
B( 11-P , 16-O ) :   1.1551 B( 13-O , 14-C ) :   0.9017 B( 14-C , 15-C ) :   1.1664
B( 14-C , 31-H ) :   0.9179 B( 14-C , 32-H ) :   0.9341 B( 15-C , 33-H ) :   0.9324
B( 15-C , 34-H ) :   0.9367 B( 15-C , 35-H ) :   0.9441 B( 16-O , 17-C ) :   0.8962
B( 17-C , 18-C ) :   1.1692 B( 17-C , 36-H ) :   0.9292 B( 17-C , 37-H ) :   0.9292
B( 18-C , 38-H ) :   0.9361 B( 18-C , 39-H ) :   0.9381 B( 18-C , 40-H ) :   0.9407

Dispersion correction           -0.069443994
FINAL SINGLE POINT ENERGY     -2929.503959766785

DIPOLE MOMENT
-------------

Method             : SCF
Type of density    : Electron Density
Multiplicity       :   1
Irrep              :   0
Energy             : -2929.6210715403540235 Eh
Relativity type    :
Basis              : AO
                                X                 Y                 Z
Electronic contribution:     -0.519816797       0.551725526       4.056531552
Nuclear contribution   :     -0.140027025      -1.420745952      -4.351989560
                        -----------------------------------------
Total Dipole Moment    :     -0.659843822      -0.869020425      -0.295458008
                        -----------------------------------------
Magnitude (a.u.)       :      1.130436112
Magnitude (Debye)      :      2.873340249

Rotational constants in cm-1:             0.012583             0.005827             0.005127
Rotational constants in MHz :           377.237956           174.690389           153.710064

                             ****ORCA TERMINATED NORMALLY****
TOTAL RUN TIME: 0 days 0 hours 0 minutes 21 seconds 699 msec
