                         Program Version 6.0.0  -   RELEASE  -
|  1> ! pbe def2-sv(p) def2/J RI DEFGRID1 loosescf d4 GCP(DFT/SV(P)) printgap
|  2> %output
|  3>     printlevel normal
|  4> end
|  5> * xyz 0 1
|  6> C 5.1143471745 -1.3620066267 -0.209313463
|  7> C 4.6107117847 -0.4491712825 -1.307025129
|  8> O 3.1790545281 -0.276374024 -1.245360493
|  9> P 2.4854477443 0.5299689917 -0.069065537
| 10> S 3.4709038437 2.0487444959 0.6728359213
| 11> O 2.1258469228 -0.6432312187 0.9454151726
| 12> C 1.7534218651 -0.4059225315 2.3175625383
| 13> C 2.9300637763 -0.6796402054 3.2334537003
| 14> S 0.6598704903 1.0105953561 -1.0293147489
| 15> C 0.0265175743 -0.6889001826 -1.219522311
| 16> S -1.0309786218 -1.1854389885 0.1501223468
| 17> P -2.7434175792 -0.0710115194 -0.4748730179
| 18> S -3.0518174999 -0.1298476987 -2.4095777733
| 19> O -2.5943015916 1.4380210401 -0.0439076891
| 20> C -2.7071750084 1.9813714089 1.2927872322
| 21> C -1.4762837226 1.7013590907 2.1306968766
| 22> O -3.8841243418 -0.5772130711 0.5046835521
| 23> C -4.1754624305 -1.9587002419 0.7940589657
| 24> C -4.4706008514 -2.7668875145 -0.4515472527
| 25> H 4.9645911848 -0.8889193754 0.7596159924
| 26> H 4.5780248777 -2.3070105401 -0.2286585288
| 27> H 6.1746687345 -1.5447105832 -0.3531003292
| 28> H 4.7793882925 -0.8705304435 -2.299013711
| 29> H 5.0806762969 0.5368479738 -1.2365131498
| 30> H 1.4137077744 0.6269926448 2.4299355945
| 31> H 0.925923845 -1.0923969867 2.506929329
| 32> H 2.6094203169 -0.5772700086 4.2649618961
| 33> H 3.3055195817 -1.6858731911 3.0713453273
| 34> H 3.7267571595 0.0356013144 3.0394459343
| 35> H 0.8601563786 -1.382876459 -1.2689691422
| 36> H -0.5628530023 -0.7013111559 -2.138339786
| 37> H -2.8314887373 3.0509397716 1.1158948581
| 38> H -3.6052953728 1.5735417382 1.7594481497
| 39> H -1.5524811768 2.2485647938 3.0651112406
| 40> H -1.3926982559 0.6388681542 2.3473081346
| 41> H -0.5842819525 2.0303569128 1.6000763919
| 42> H -3.3245318397 -2.3800418498 1.3358117594
| 43> H -5.0460366947 -1.9038138622 1.450004262
| 44> H -5.2735999725 -2.3062634602 -1.0220638652
| 45> H -3.5866512385 -2.8174062023 -1.0855069336
| 46> H -4.7618440796 -3.7730912042 -0.1681180059
| 47> *
| 48>
| 49>                          ****END OF INPUT****

CARTESIAN COORDINATES (ANGSTROEM)
---------------------------------
  C      5.114347   -1.362007   -0.209313
  C      4.610712   -0.449171   -1.307025
  O      3.179055   -0.276374   -1.245360
  P      2.485448    0.529969   -0.069066
  S      3.470904    2.048744    0.672836
  O      2.125847   -0.643231    0.945415
  C      1.753422   -0.405923    2.317563
  C      2.930064   -0.679640    3.233454
  S      0.659870    1.010595   -1.029315
  C      0.026518   -0.688900   -1.219522
  S     -1.030979   -1.185439    0.150122
  P     -2.743418   -0.071012   -0.474873
  S     -3.051817   -0.129848   -2.409578
  O     -2.594302    1.438021   -0.043908
  C     -2.707175    1.981371    1.292787
  C     -1.476284    1.701359    2.130697
  O     -3.884124   -0.577213    0.504684
  C     -4.175462   -1.958700    0.794059
  C     -4.470601   -2.766888   -0.451547
  H      4.964591   -0.888919    0.759616
  H      4.578025   -2.307011   -0.228659
  H      6.174669   -1.544711   -0.353100
  H      4.779388   -0.870530   -2.299014
  H      5.080676    0.536848   -1.236513
  H      1.413708    0.626993    2.429936
  H      0.925924   -1.092397    2.506929
  H      2.609420   -0.577270    4.264962
  H      3.305520   -1.685873    3.071345
  H      3.726757    0.035601    3.039446
  H      0.860156   -1.382876   -1.268969
  H     -0.562853   -0.701311   -2.138340
  H     -2.831489    3.050940    1.115895
  H     -3.605295    1.573542    1.759448
  H     -1.552481    2.248565    3.065111
  H     -1.392698    0.638868    2.347308
  H     -0.584282    2.030357    1.600076
  H     -3.324532   -2.380042    1.335812
  H     -5.046037   -1.903814    1.450004
  H     -5.273600   -2.306263   -1.022064
  H     -3.586651   -2.817406   -1.085507
  H     -4.761844   -3.773091   -0.168118

 Total Charge           Charge          ....    0
 Multiplicity           Mult            ....    1
 Number of Electrons    NEL             ....  202
 Basis Dimension        Dim             ....  334

ORBITAL ENERGIES
----------------

  NO   OCC          E(Eh)            E(eV)
   0   2.0000     -88.047181     -2395.8856
   1   2.0000     -88.039438     -2395.6749
   2   2.0000     -87.990523     -2394.3439
   3   2.0000     -87.982918     -2394.1369
   4   2.0000     -76.429818     -2079.7611
   5   2.0000     -76.427919     -2079.7094
   6   2.0000     -18.802651      -511.6461
   7   2.0000     -18.795764      -511.4587
   8   2.0000     -18.793314      -511.3921
   9   2.0000     -18.791244      -511.3357
  10   2.0000      -9.965639      -271.1788
  11   2.0000      -9.956574      -270.9321
  12   2.0000      -9.955720      -270.9089
  13   2.0000      -9.954992      -270.8891
  14   2.0000      -9.954451      -270.8744
  15   2.0000      -9.887960      -269.0651
  16   2.0000      -9.887399      -269.0498
  17   2.0000      -9.887109      -269.0419
  18   2.0000      -9.886366      -269.0217
  19   2.0000      -7.691882      -209.3068
  20   2.0000      -7.684596      -209.1085
  21   2.0000      -7.635675      -207.7773
  22   2.0000      -7.628225      -207.5746
  23   2.0000      -6.426928      -174.8856
  24   2.0000      -6.425774      -174.8542
  25   2.0000      -5.719444      -155.6340
  26   2.0000      -5.716479      -155.5533
  27   2.0000      -5.712744      -155.4517
  28   2.0000      -5.709152      -155.3539
  29   2.0000      -5.709014      -155.3502
  30   2.0000      -5.701363      -155.1420
  31   2.0000      -5.664612      -154.1419
  32   2.0000      -5.657301      -153.9430
  33   2.0000      -5.656227      -153.9138
  34   2.0000      -5.655907      -153.9051
  35   2.0000      -5.648882      -153.7139
  36   2.0000      -5.648151      -153.6940
  37   2.0000      -4.650027      -126.5337
  38   2.0000      -4.648793      -126.5001
  39   2.0000      -4.648175      -126.4833
  40   2.0000      -4.647709      -126.4706
  41   2.0000      -4.646857      -126.4474
  42   2.0000      -4.646220      -126.4301
  43   2.0000      -0.993140       -27.0247
  44   2.0000      -0.989655       -26.9299
  45   2.0000      -0.948425       -25.8080
  46   2.0000      -0.947892       -25.7934
  47   2.0000      -0.765075       -20.8188
  48   2.0000      -0.725663       -19.7463
  49   2.0000      -0.713797       -19.4234
  50   2.0000      -0.694876       -18.9085
  51   2.0000      -0.690498       -18.7894
  52   2.0000      -0.676602       -18.4113
  53   2.0000      -0.656571       -17.8662
  54   2.0000      -0.638526       -17.3752
  55   2.0000      -0.599983       -16.3264
  56   2.0000      -0.594088       -16.1660
  57   2.0000      -0.584322       -15.9002
  58   2.0000      -0.571802       -15.5595
  59   2.0000      -0.563575       -15.3356
  60   2.0000      -0.507324       -13.8050
  61   2.0000      -0.500934       -13.6311
  62   2.0000      -0.479417       -13.0456
  63   2.0000      -0.475395       -12.9361
  64   2.0000      -0.462775       -12.5927
  65   2.0000      -0.450872       -12.2688
  66   2.0000      -0.440846       -11.9960
  67   2.0000      -0.439972       -11.9723
  68   2.0000      -0.434434       -11.8216
  69   2.0000      -0.416677       -11.3384
  70   2.0000      -0.410866       -11.1802
  71   2.0000      -0.407866       -11.0986
  72   2.0000      -0.404775       -11.0145
  73   2.0000      -0.390071       -10.6144
  74   2.0000      -0.386861       -10.5270
  75   2.0000      -0.368811       -10.0359
  76   2.0000      -0.362952        -9.8764
  77   2.0000      -0.359571        -9.7844
  78   2.0000      -0.356613        -9.7039
  79   2.0000      -0.354476        -9.6458
  80   2.0000      -0.353368        -9.6156
  81   2.0000      -0.344995        -9.3878
  82   2.0000      -0.344776        -9.3818
  83   2.0000      -0.342240        -9.3128
  84   2.0000      -0.334543        -9.1034
  85   2.0000      -0.329963        -8.9787
  86   2.0000      -0.319454        -8.6928
  87   2.0000      -0.303070        -8.2470
  88   2.0000      -0.298170        -8.1136
  89   2.0000      -0.293309        -7.9813
  90   2.0000      -0.290317        -7.8999
  91   2.0000      -0.280285        -7.6270
  92   2.0000      -0.277502        -7.5512
  93   2.0000      -0.268405        -7.3037
  94   2.0000      -0.258911        -7.0453
  95   2.0000      -0.237455        -6.4615
  96   2.0000      -0.220101        -5.9893
  97   2.0000      -0.208917        -5.6849
  98   2.0000      -0.205278        -5.5859
  99   2.0000      -0.203265        -5.5311
 100   2.0000      -0.195280        -5.3138
 101   0.0000      -0.043554        -1.1852
 102   0.0000      -0.025206        -0.6859
 103   0.0000      -0.016764        -0.4562
 104   0.0000       0.000891         0.0242
 105   0.0000       0.007585         0.2064

MULLIKEN ATOMIC CHARGES
-----------------------
   0 C :   -0.317620
   1 C :   -0.003627
   2 O :   -0.376457
   3 P :    0.597117
   4 S :   -0.322329
   5 O :   -0.383261
   6 C :   -0.031908
   7 C :   -0.286910
   8 S :   -0.047468
   9 C :   -0.362862
  10 S :   -0.120861
  11 P :    0.613524
  12 S :   -0.308080
  13 O :   -0.349193
  14 C :    0.006561
  15 C :   -0.341869
  16 O :   -0.383932
  17 C :   -0.014266
  18 C :   -0.307557
  19 H :    0.130730
  20 H :    0.115741
  21 H :    0.113787
  22 H :    0.108170
  23 H :    0.115003
  24 H :    0.118854
  25 H :    0.110460
  26 H :    0.109151
  27 H :    0.114088
  28 H :    0.129917
  29 H :    0.191016
  30 H :    0.197929
  31 H :    0.112485
  32 H :    0.107306
  33 H :    0.110495
  34 H :    0.118333
  35 H :    0.144685
  36 H :    0.113461
  37 H :    0.110792
  38 H :    0.128701
  39 H :    0.127589
  40 H :    0.112306
Sum of atomic charges:   -0.0000000

LOEWDIN ATOMIC CHARGES
----------------------
   0 C :   -0.366083
   1 C :   -0.114569
   2 O :   -0.247034
   3 P :    0.565664
   4 S :   -0.322745
   5 O :   -0.249371
   6 C :   -0.119955
   7 C :   -0.360006
   8 S :    0.099157
   9 C :   -0.483383
  10 S :    0.071133
  11 P :    0.569797
  12 S :   -0.304801
  13 O :   -0.231448
  14 C :   -0.108242
  15 C :   -0.373298
  16 O :   -0.243983
  17 C :   -0.114105
  18 C :   -0.368505
  19 H :    0.123900
  20 H :    0.125705
  21 H :    0.131547
  22 H :    0.120179
  23 H :    0.113118
  24 H :    0.112112
  25 H :    0.111670
  26 H :    0.129704
  27 H :    0.124875
  28 H :    0.125565
  29 H :    0.134938
  30 H :    0.128943
  31 H :    0.124099
  32 H :    0.111927
  33 H :    0.129454
  34 H :    0.113442
  35 H :    0.126006
  36 H :    0.107458
  37 H :    0.121837
  38 H :    0.131933
  39 H :    0.122591
  40 H :    0.130778

  Mayer bond orders larger than 0.100000
B(  0-C ,  1-C ) :   1.1617 B(  0-C , 19-H ) :   0.9326 B(  0-C , 20-H ) :   0.9462
B(  0-C , 21-H ) :   0.9373 B(  1-C ,  2-O ) :   0.9067 B(  1-C , 22-H ) :   0.9355
B(  1-C , 23-H ) :   0.9179 B(  2-O ,  3-P ) :   1.1035 B(  3-P ,  4-S ) :   1.6333
B(  3-P ,  5-O ) :   1.0759 B(  3-P ,  8-S ) :   0.9936 B(  5-O ,  6-C ) :   0.9008
B(  6-C ,  7-C ) :   1.1677 B(  6-C , 24-H ) :   0.9071 B(  6-C , 25-H ) :   0.9259
B(  7-C , 26-H ) :   0.9395 B(  7-C , 27-H ) :   0.9451 B(  7-C , 28-H ) :   0.9320
B(  8-S ,  9-C ) :   0.9796 B(  9-C , 10-S ) :   1.0059 B(  9-C , 29-H ) :   0.8924
B(  9-C , 30-H ) :   0.8568 B( 10-S , 11-P ) :   0.9266 B( 10-S , 12-S ) :   0.1116
B( 11-P , 12-S ) :   1.6471 B( 11-P , 13-O ) :   1.1460 B( 11-P , 16-O ) :   1.0851
B( 12-S , 30-H ) :   0.1041 B( 13-O , 14-C ) :   0.9004 B( 14-C , 15-C ) :   1.1672
B( 14-C , 31-H ) :   0.9337 B( 14-C , 32-H ) :   0.9255 B( 15-C , 33-H ) :   0.9359
B( 15-C , 34-H ) :   0.9387 B( 15-C , 35-H ) :   0.9295 B( 16-O , 17-C ) :   0.9092
B( 17-C , 18-C ) :   1.1675 B( 17-C , 36-H ) :   0.9256 B( 17-C , 37-H ) :   0.9330
B( 18-C , 38-H ) :   0.9434 B( 18-C , 39-H ) :   0.9310 B( 18-C , 40-H ) :   0.9348

Dispersion correction           -0.064657687
FINAL SINGLE POINT ENERGY     -2929.515945072080

DIPOLE MOMENT
-------------

Method             : SCF
Type of density    : Electron Density
Multiplicity       :   1
Irrep              :   0
Energy             : -2929.6371010120546998 Eh
Relativity type    :
Basis              : AO
                                X                 Y                 Z
Electronic contribution:     -5.746984159      11.666074337     -16.694906144
Nuclear contribution   :      5.744195160     -13.117189006      18.338350798
                        -----------------------------------------
Total Dipole Moment    :     -0.002788999      -1.451114668       1.643444654
                        -----------------------------------------
Magnitude (a.u.)       :      2.192407784
Magnitude (Debye)      :      5.572657720

Rotational constants in cm-1:             0.013643             0.004305             0.004161
Rotational constants in MHz :           409.019078           129.055247           124.735914

                             ****ORCA TERMINATED NORMALLY****
TOTAL RUN TIME: 0 days 0 hours 0 minutes 21 seconds 202 msec
