                         Program Version 6.0.1  -  RELEASE   -
|  1> ! pbe def2-sv(p) def2/J RI DEFGRID1 loosescf d4 GCP(DFT/SV(P)) printgap
|  2> %output
|  3>     printlevel normal
|  4> end
|  5> * xyz 0 1
|  6> C 3.4316377133 -3.5846454031 0.4649410835
|  7> C 3.8292747337 -2.7783749221 -0.7609038198
|  8> O 2.6640460806 -2.2657026551 -1.4408438244
|  9> C 2.1493596794 -1.1268344357 -1.0381548321
| 10> O 2.6021052286 -0.4397286208 -0.1441778826
| 11> C 0.8959586539 -0.7743578551 -1.804708316
| 12> C 0.4830850077 0.6745267137 -1.5487369541
| 13> H 0.9307821962 1.3652932272 -2.2627993524
| 14> C 0.7914408835 1.1416961098 -0.1400076262
| 15> O 0.1961713397 0.6595208327 0.813718653
| 16> O 1.5705077619 2.1809732259 -0.1006924464
| 17> C 1.882925544 2.7743908357 1.1793641367
| 18> C 3.2190586647 2.2608976965 1.6872678831
| 19> S -1.3282244093 0.8694153586 -1.6868333013
| 20> P -2.0604535225 0.193418617 0.196214911
| 21> S -2.3978275286 1.3184515677 1.7779100149
| 22> O -3.4504561123 -0.1009686632 -0.5649159861
| 23> C -4.6502183905 -0.4445427744 0.1295087807
| 24> O -1.6105963872 -1.3228674044 0.4857000096
| 25> C -0.8735980669 -1.7497982861 1.6282396576
| 26> H 2.9456370238 -2.9430788141 1.197226513
| 27> H 2.7491621771 -4.3821031777 0.1844774083
| 28> H 4.32023233 -4.0158797179 0.9137331699
| 29> H 4.3216062401 -3.4034922512 -1.5053963331
| 30> H 4.4694925701 -1.936879691 -0.4824426313
| 31> H 0.1127925592 -1.4571766933 -1.461195865
| 32> H 1.0407368581 -0.9567176252 -2.8684288403
| 33> H 1.9145977045 3.8465839046 0.981705825
| 34> H 1.074311939 2.5409236352 1.8781698815
| 35> H 4.0084537853 2.5210897003 0.9883849549
| 36> H 3.4288743047 2.7045741004 2.6546532608
| 37> H 3.1846528192 1.1788585798 1.7860710348
| 38> H -4.636264085 -1.5020327086 0.3916111344
| 39> H -5.463825229 -0.2310938594 -0.5593482827
| 40> H -4.749111742 0.1602970046 1.0340408468
| 41> H 0.1940612001 -1.7268487681 1.4119648052
| 42> H -1.2066811483 -2.7639526009 1.8362999258
| 43> H -1.078133123 -1.0929479059 2.4752749947
| 44> *
| 45>
| 46>                          ****END OF INPUT****

CARTESIAN COORDINATES (ANGSTROEM)
---------------------------------
  C      3.431638   -3.584645    0.464941
  C      3.829275   -2.778375   -0.760904
  O      2.664046   -2.265703   -1.440844
  C      2.149360   -1.126834   -1.038155
  O      2.602105   -0.439729   -0.144178
  C      0.895959   -0.774358   -1.804708
  C      0.483085    0.674527   -1.548737
  H      0.930782    1.365293   -2.262799
  C      0.791441    1.141696   -0.140008
  O      0.196171    0.659521    0.813719
  O      1.570508    2.180973   -0.100692
  C      1.882926    2.774391    1.179364
  C      3.219059    2.260898    1.687268
  S     -1.328224    0.869415   -1.686833
  P     -2.060454    0.193419    0.196215
  S     -2.397828    1.318452    1.777910
  O     -3.450456   -0.100969   -0.564916
  C     -4.650218   -0.444543    0.129509
  O     -1.610596   -1.322867    0.485700
  C     -0.873598   -1.749798    1.628240
  H      2.945637   -2.943079    1.197227
  H      2.749162   -4.382103    0.184477
  H      4.320232   -4.015880    0.913733
  H      4.321606   -3.403492   -1.505396
  H      4.469493   -1.936880   -0.482443
  H      0.112793   -1.457177   -1.461196
  H      1.040737   -0.956718   -2.868429
  H      1.914598    3.846584    0.981706
  H      1.074312    2.540924    1.878170
  H      4.008454    2.521090    0.988385
  H      3.428874    2.704574    2.654653
  H      3.184653    1.178859    1.786071
  H     -4.636264   -1.502033    0.391611
  H     -5.463825   -0.231094   -0.559348
  H     -4.749112    0.160297    1.034041
  H      0.194061   -1.726849    1.411965
  H     -1.206681   -2.763953    1.836300
  H     -1.078133   -1.092948    2.475275

 Total Charge           Charge          ....    0
 Multiplicity           Mult            ....    1
 Number of Electrons    NEL             ....  174
 Basis Dimension        Dim             ....  316

ORBITAL ENERGIES
----------------

  NO   OCC          E(Eh)            E(eV)
   0   2.0000     -88.032081     -2395.4747
   1   2.0000     -87.960365     -2393.5232
   2   2.0000     -76.412058     -2079.2778
   3   2.0000     -18.822305      -512.1810
   4   2.0000     -18.810964      -511.8723
   5   2.0000     -18.779161      -511.0069
   6   2.0000     -18.763634      -510.5844
   7   2.0000     -18.763324      -510.5760
   8   2.0000     -18.752237      -510.2743
   9   2.0000     -10.031093      -272.9599
  10   2.0000     -10.024290      -272.7748
  11   2.0000      -9.963850      -271.1301
  12   2.0000      -9.947698      -270.6906
  13   2.0000      -9.946408      -270.6555
  14   2.0000      -9.930813      -270.2312
  15   2.0000      -9.923703      -270.0377
  16   2.0000      -9.920469      -269.9497
  17   2.0000      -9.900484      -269.4059
  18   2.0000      -9.882707      -268.9221
  19   2.0000      -7.676864      -208.8981
  20   2.0000      -7.605560      -206.9578
  21   2.0000      -6.407403      -174.3543
  22   2.0000      -5.705389      -155.2515
  23   2.0000      -5.701244      -155.1387
  24   2.0000      -5.693356      -154.9241
  25   2.0000      -5.634785      -153.3303
  26   2.0000      -5.626396      -153.1020
  27   2.0000      -5.625182      -153.0690
  28   2.0000      -4.630323      -125.9975
  29   2.0000      -4.629451      -125.9738
  30   2.0000      -4.627764      -125.9279
  31   2.0000      -1.032547       -28.0970
  32   2.0000      -1.021907       -27.8075
  33   2.0000      -0.963522       -26.2188
  34   2.0000      -0.940224       -25.5848
  35   2.0000      -0.930063       -25.3083
  36   2.0000      -0.920000       -25.0345
  37   2.0000      -0.765764       -20.8375
  38   2.0000      -0.725363       -19.7381
  39   2.0000      -0.705115       -19.1872
  40   2.0000      -0.689079       -18.7508
  41   2.0000      -0.656597       -17.8669
  42   2.0000      -0.622522       -16.9397
  43   2.0000      -0.610565       -16.6143
  44   2.0000      -0.609327       -16.5806
  45   2.0000      -0.606428       -16.5017
  46   2.0000      -0.560820       -15.2607
  47   2.0000      -0.516438       -14.0530
  48   2.0000      -0.504183       -13.7195
  49   2.0000      -0.499017       -13.5789
  50   2.0000      -0.486490       -13.2381
  51   2.0000      -0.468390       -12.7455
  52   2.0000      -0.462132       -12.5753
  53   2.0000      -0.449318       -12.2266
  54   2.0000      -0.443713       -12.0740
  55   2.0000      -0.438230       -11.9249
  56   2.0000      -0.434909       -11.8345
  57   2.0000      -0.416961       -11.3461
  58   2.0000      -0.409468       -11.1422
  59   2.0000      -0.407964       -11.1013
  60   2.0000      -0.401998       -10.9389
  61   2.0000      -0.395532       -10.7630
  62   2.0000      -0.391314       -10.6482
  63   2.0000      -0.385396       -10.4872
  64   2.0000      -0.379674       -10.3315
  65   2.0000      -0.371870       -10.1191
  66   2.0000      -0.365570        -9.9477
  67   2.0000      -0.358452        -9.7540
  68   2.0000      -0.351892        -9.5755
  69   2.0000      -0.342998        -9.3334
  70   2.0000      -0.332691        -9.0530
  71   2.0000      -0.329113        -8.9556
  72   2.0000      -0.328025        -8.9260
  73   2.0000      -0.312598        -8.5062
  74   2.0000      -0.300931        -8.1888
  75   2.0000      -0.293574        -7.9886
  76   2.0000      -0.289605        -7.8805
  77   2.0000      -0.282694        -7.6925
  78   2.0000      -0.268267        -7.2999
  79   2.0000      -0.264439        -7.1958
  80   2.0000      -0.256256        -6.9731
  81   2.0000      -0.252608        -6.8738
  82   2.0000      -0.246802        -6.7158
  83   2.0000      -0.236919        -6.4469
  84   2.0000      -0.212459        -5.7813
  85   2.0000      -0.180616        -4.9148
  86   2.0000      -0.172104        -4.6832
  87   0.0000      -0.051943        -1.4134
  88   0.0000      -0.043240        -1.1766
  89   0.0000      -0.015505        -0.4219
  90   0.0000       0.010154         0.2763
  91   0.0000       0.026254         0.7144

MULLIKEN ATOMIC CHARGES
-----------------------
   0 C :   -0.314878
   1 C :   -0.015036
   2 O :   -0.221914
   3 C :    0.133253
   4 O :   -0.204719
   5 C :   -0.067023
   6 C :   -0.294220
   7 H :    0.132118
   8 C :    0.220128
   9 O :   -0.228205
  10 O :   -0.205124
  11 C :   -0.028448
  12 C :   -0.296161
  13 S :   -0.065869
  14 P :    0.647476
  15 S :   -0.337828
  16 O :   -0.401602
  17 C :   -0.095550
  18 O :   -0.395546
  19 C :   -0.104339
  20 H :    0.134653
  21 H :    0.120481
  22 H :    0.119108
  23 H :    0.110249
  24 H :    0.112919
  25 H :    0.147480
  26 H :    0.127005
  27 H :    0.107477
  28 H :    0.128791
  29 H :    0.109180
  30 H :    0.111602
  31 H :    0.132728
  32 H :    0.103065
  33 H :    0.115867
  34 H :    0.112731
  35 H :    0.117952
  36 H :    0.112618
  37 H :    0.119582
Sum of atomic charges:    0.0000000

LOEWDIN ATOMIC CHARGES
----------------------
   0 C :   -0.356234
   1 C :   -0.108444
   2 O :   -0.050564
   3 C :    0.044790
   4 O :   -0.149414
   5 C :   -0.256571
   6 C :   -0.262027
   7 H :    0.141560
   8 C :    0.019116
   9 O :   -0.170604
  10 O :   -0.028447
  11 C :   -0.106146
  12 C :   -0.354572
  13 S :    0.127691
  14 P :    0.588463
  15 S :   -0.335809
  16 O :   -0.276726
  17 C :   -0.218528
  18 O :   -0.259627
  19 C :   -0.219768
  20 H :    0.130361
  21 H :    0.127897
  22 H :    0.134209
  23 H :    0.121612
  24 H :    0.121531
  25 H :    0.153531
  26 H :    0.148418
  27 H :    0.119930
  28 H :    0.127475
  29 H :    0.123751
  30 H :    0.129635
  31 H :    0.131997
  32 H :    0.107714
  33 H :    0.117552
  34 H :    0.104937
  35 H :    0.105488
  36 H :    0.114257
  37 H :    0.111567

  Mayer bond orders larger than 0.100000
B(  0-C ,  1-C ) :   1.1757 B(  0-C , 20-H ) :   0.9427 B(  0-C , 21-H ) :   0.9483
B(  0-C , 22-H ) :   0.9421 B(  1-C ,  2-O ) :   0.9062 B(  1-C , 23-H ) :   0.9363
B(  1-C , 24-H ) :   0.9154 B(  2-O ,  3-C ) :   1.2582 B(  3-C ,  4-O ) :   1.9314
B(  3-C ,  5-C ) :   1.0143 B(  4-O ,  8-C ) :   0.1239 B(  5-C ,  6-C ) :   0.9956
B(  5-C , 25-H ) :   0.8663 B(  5-C , 26-H ) :   0.9012 B(  6-C ,  7-H ) :   0.8840
B(  6-C ,  8-C ) :   0.9173 B(  6-C , 13-S ) :   1.0257 B(  8-C ,  9-O ) :   1.8137
B(  8-C , 10-O ) :   1.2984 B(  9-O , 14-P ) :   0.1784 B( 10-O , 11-C ) :   0.9009
B( 11-C , 12-C ) :   1.1764 B( 11-C , 27-H ) :   0.9370 B( 11-C , 28-H ) :   0.9083
B( 12-C , 29-H ) :   0.9494 B( 12-C , 30-H ) :   0.9432 B( 12-C , 31-H ) :   0.9387
B( 13-S , 14-P ) :   0.9168 B( 13-S , 15-S ) :   0.1005 B( 14-P , 15-S ) :   1.5783
B( 14-P , 16-O ) :   1.0502 B( 14-P , 18-O ) :   1.0481 B( 16-O , 17-C ) :   0.9435
B( 17-C , 32-H ) :   0.9534 B( 17-C , 33-H ) :   0.9605 B( 17-C , 34-H ) :   0.9256
B( 18-O , 19-C ) :   0.9322 B( 19-C , 35-H ) :   0.9419 B( 19-C , 36-H ) :   0.9533
B( 19-C , 37-H ) :   0.9309

Dispersion correction           -0.052266642
FINAL SINGLE POINT ENERGY     -1979.003432785456

DIPOLE MOMENT
-------------

Method             : SCF
Type of density    : Electron Density
Multiplicity       :   1
Irrep              :   0
Energy             : -1979.1368994044482861 Eh
Relativity type    :
Basis              : AO
                                X                 Y                 Z
Electronic contribution:    -16.506414486      10.314181097      -8.295065685
Nuclear contribution   :     18.453676988     -11.602035442       7.870603166
                        -----------------------------------------
Total Dipole Moment    :      1.947262502      -1.287854345      -0.424462519
                        -----------------------------------------
Magnitude (a.u.)       :      2.372881897
Magnitude (Debye)      :      6.031386459

Rotational constants in cm-1:             0.013458             0.007024             0.005969
Rotational constants in MHz :           403.464907           210.562233           178.946848

                             ****ORCA TERMINATED NORMALLY****
TOTAL RUN TIME: 0 days 0 hours 0 minutes 41 seconds 233 msec
