                         Program Version 6.0.0  -   RELEASE  -
|  1> ! r2scan-3c def2/J RI DEFGRID2 scfconv6 printgap
|  2> %output
|  3>     printlevel normal
|  4> end
|  5> * xyz 0 1
|  6> C -0.6919902175 -1.2068776785 7.474e-07
|  7> C 0.6919942014 -1.2068781191 1.72519e-05
|  8> C 1.3724953827 -6.958e-07 4.6756e-06
|  9> C 0.6920012386 1.2068828297 -2.3316e-06
| 10> C -0.6919859004 1.2068787529 1.67918e-05
| 11> C -1.3724918027 1.3764e-06 4.77087e-05
| 12> Cl -3.1096060062 -1.457e-07 -1.57317e-05
| 13> Cl 3.1095975853 -2.4759e-06 -1.02167e-05
| 14> H -1.2355773346 -2.1371650636 -5.80174e-05
| 15> H 1.2355741093 -2.1371626307 -3.0452e-06
| 16> H 1.2355945589 2.137183134 3.3316e-06
| 17> H -1.2355680422 2.137159728 -4.05798e-05
| 18> *
| 19>
| 20>                          ****END OF INPUT****

CARTESIAN COORDINATES (ANGSTROEM)
---------------------------------
  C     -0.691990   -1.206878    0.000001
  C      0.691994   -1.206878    0.000017
  C      1.372495   -0.000001    0.000005
  C      0.692001    1.206883   -0.000002
  C     -0.691986    1.206879    0.000017
  C     -1.372492    0.000001    0.000048
  Cl    -3.109606   -0.000000   -0.000016
  Cl     3.109598   -0.000002   -0.000010
  H     -1.235577   -2.137165   -0.000058
  H      1.235574   -2.137163   -0.000003
  H      1.235595    2.137183    0.000003
  H     -1.235568    2.137160   -0.000041

 Total Charge           Charge          ....    0
 Multiplicity           Mult            ....    1
 Number of Electrons    NEL             ....   74
 Basis Dimension        Dim             ....  188

ORBITAL ENERGIES
----------------

  NO   OCC          E(Eh)            E(eV)
   0   2.0000    -101.227652     -2754.5445
   1   2.0000    -101.227650     -2754.5444
   2   2.0000     -10.113677      -275.2071
   3   2.0000     -10.113671      -275.2070
   4   2.0000     -10.065228      -273.8888
   5   2.0000     -10.065213      -273.8884
   6   2.0000     -10.064753      -273.8759
   7   2.0000     -10.064752      -273.8758
   8   2.0000      -9.383604      -255.3409
   9   2.0000      -9.383602      -255.3408
  10   2.0000      -7.129828      -194.0125
  11   2.0000      -7.129828      -194.0125
  12   2.0000      -7.119850      -193.7410
  13   2.0000      -7.119850      -193.7410
  14   2.0000      -7.119399      -193.7287
  15   2.0000      -7.119399      -193.7287
  16   2.0000      -0.884992       -24.0818
  17   2.0000      -0.851087       -23.1593
  18   2.0000      -0.796811       -21.6823
  19   2.0000      -0.749999       -20.4085
  20   2.0000      -0.697664       -18.9844
  21   2.0000      -0.613384       -16.6910
  22   2.0000      -0.581113       -15.8129
  23   2.0000      -0.504844       -13.7375
  24   2.0000      -0.468298       -12.7430
  25   2.0000      -0.454260       -12.3610
  26   2.0000      -0.422489       -11.4965
  27   2.0000      -0.421507       -11.4698
  28   2.0000      -0.397485       -10.8161
  29   2.0000      -0.362444        -9.8626
  30   2.0000      -0.355685        -9.6787
  31   2.0000      -0.350924        -9.5491
  32   2.0000      -0.298032        -8.1099
  33   2.0000      -0.296913        -8.0794
  34   2.0000      -0.292270        -7.9531
  35   2.0000      -0.266626        -7.2553
  36   2.0000      -0.230407        -6.2697
  37   0.0000      -0.060616        -1.6494
  38   0.0000      -0.055509        -1.5105
  39   0.0000      -0.004199        -0.1142
  40   0.0000       0.012868         0.3502
  41   0.0000       0.090609         2.4656

MULLIKEN ATOMIC CHARGES
-----------------------
   0 C :   -0.185151
   1 C :   -0.185155
   2 C :    0.182153
   3 C :   -0.185152
   4 C :   -0.185155
   5 C :    0.182153
   6 Cl:   -0.143399
   7 Cl:   -0.143395
   8 H :    0.165775
   9 H :    0.165774
  10 H :    0.165777
  11 H :    0.165774
Sum of atomic charges:   -0.0000000

LOEWDIN ATOMIC CHARGES
----------------------
   0 C :   -0.161488
   1 C :   -0.161489
   2 C :   -0.168762
   3 C :   -0.161490
   4 C :   -0.161488
   5 C :   -0.168758
   6 Cl:    0.128733
   7 Cl:    0.128740
   8 H :    0.181501
   9 H :    0.181500
  10 H :    0.181504
  11 H :    0.181499

  Mayer bond orders larger than 0.100000
B(  0-C ,  1-C ) :   1.3849 B(  0-C ,  5-C ) :   1.3882 B(  0-C ,  8-H ) :   0.9441
B(  1-C ,  2-C ) :   1.3882 B(  1-C ,  9-H ) :   0.9441 B(  2-C ,  3-C ) :   1.3882
B(  2-C ,  7-Cl) :   0.9211 B(  3-C ,  4-C ) :   1.3850 B(  3-C , 10-H ) :   0.9441
B(  4-C ,  5-C ) :   1.3882 B(  4-C , 11-H ) :   0.9441 B(  5-C ,  6-Cl) :   0.9211

Dispersion correction           -0.004693003
FINAL SINGLE POINT ENERGY     -1151.341396641612

DIPOLE MOMENT
-------------

Method             : SCF
Type of density    : Electron Density
Multiplicity       :   1
Irrep              :   0
Energy             : -1151.3417246562148648 Eh
Relativity type    :
Basis              : AO
                                X                 Y                 Z
Electronic contribution:     -0.000017951      -0.000017245       0.000023406
Nuclear contribution   :      0.000033154       0.000017749      -0.000057405
                        -----------------------------------------
Total Dipole Moment    :      0.000015203       0.000000503      -0.000033999
                        -----------------------------------------
Magnitude (a.u.)       :      0.000037247
Magnitude (Debye)      :      0.000094674

Rotational constants in cm-1:             0.190708             0.022180             0.019869
Rotational constants in MHz :          5717.288250           664.931860           595.655908

                             ****ORCA TERMINATED NORMALLY****
TOTAL RUN TIME: 0 days 0 hours 0 minutes 19 seconds 55 msec
