                         Program Version 6.0.0  -   RELEASE  -
|  1> ! pbe def2-sv(p) def2/J RI DEFGRID1 loosescf d4 GCP(DFT/SV(P)) printgap
|  2> %output
|  3>     printlevel normal
|  4> end
|  5> * xyz 0 1
|  6> C 3.8654756939 -1.5340981238 -2.5374383285
|  7> C 4.1673387116 -1.9130839852 -1.1019629616
|  8> O 2.9970377218 -1.8536335457 -0.2682807927
|  9> P 2.2772350116 -0.4855955606 0.0944958707
| 10> S 3.4709122721 1.0391735102 0.4258935301
| 11> O 1.349230806 -0.917526376 1.3027445355
| 12> C 1.7719659701 -0.7860764023 2.6758925943
| 13> C 2.9086482747 -1.7298704741 3.0068145223
| 14> S 0.8155582841 -0.2404337765 -1.4162693717
| 15> C 0.4066035026 1.4735367099 -1.0018193942
| 16> S -0.5550929009 1.6284549494 0.5288976977
| 17> P -2.3479572214 0.8346370039 -0.2758982342
| 18> S -2.8072601157 1.3499521482 -2.0999299026
| 19> O -3.3220788173 1.3281124578 0.8870905585
| 20> C -4.6987709775 1.6707480017 0.6296272895
| 21> C -5.5460595709 0.4297375452 0.4308879196
| 22> O -2.2445459706 -0.7449574788 -0.145186215
| 23> C -2.0423076429 -1.4116307454 1.1227322904
| 24> C -1.4261419703 -2.7665629119 0.8432076308
| 25> H 3.5964948693 -0.4800561816 -2.5963780413
| 26> H 4.7455374357 -1.7069020978 -3.1486115232
| 27> H 3.0374593399 -2.1261138635 -2.9193473032
| 28> H 4.9260123409 -1.2454148511 -0.6811211236
| 29> H 4.4958006159 -2.9499085914 -1.0191226541
| 30> H 2.0660400476 0.2540145925 2.8491612248
| 31> H 0.8743869497 -1.0163506103 3.2512961342
| 32> H 3.7992761988 -1.4460683749 2.4473673608
| 33> H 3.1270289469 -1.6723094008 4.0685410513
| 34> H 2.6394882933 -2.7497512935 2.7454529135
| 35> H -0.1750347942 1.8706539942 -1.8339266472
| 36> H 1.3265306678 2.0399997344 -0.8535523326
| 37> H -5.002517392 2.2365009858 1.5112191843
| 38> H -4.7405960663 2.31051475 -0.2569963346
| 39> H -6.5758335944 0.7214834764 0.2503324435
| 40> H -5.1802731061 -0.1284952286 -0.4310739237
| 41> H -5.5027904814 -0.206370531 1.3111506437
| 42> H -1.3897008723 -0.7920587242 1.7460108453
| 43> H -3.0163456726 -1.5064579999 1.6078406591
| 44> H -2.0561461231 -3.3231056613 0.1553681592
| 45> H -0.4421758245 -2.6466280747 0.3964628493
| 46> H -1.332685221 -3.3157771843 1.7745524403
| 47> *
| 48>
| 49>                          ****END OF INPUT****

CARTESIAN COORDINATES (ANGSTROEM)
---------------------------------
  C      3.865476   -1.534098   -2.537438
  C      4.167339   -1.913084   -1.101963
  O      2.997038   -1.853634   -0.268281
  P      2.277235   -0.485596    0.094496
  S      3.470912    1.039174    0.425894
  O      1.349231   -0.917526    1.302745
  C      1.771966   -0.786076    2.675893
  C      2.908648   -1.729870    3.006815
  S      0.815558   -0.240434   -1.416269
  C      0.406604    1.473537   -1.001819
  S     -0.555093    1.628455    0.528898
  P     -2.347957    0.834637   -0.275898
  S     -2.807260    1.349952   -2.099930
  O     -3.322079    1.328112    0.887091
  C     -4.698771    1.670748    0.629627
  C     -5.546060    0.429738    0.430888
  O     -2.244546   -0.744957   -0.145186
  C     -2.042308   -1.411631    1.122732
  C     -1.426142   -2.766563    0.843208
  H      3.596495   -0.480056   -2.596378
  H      4.745537   -1.706902   -3.148612
  H      3.037459   -2.126114   -2.919347
  H      4.926012   -1.245415   -0.681121
  H      4.495801   -2.949909   -1.019123
  H      2.066040    0.254015    2.849161
  H      0.874387   -1.016351    3.251296
  H      3.799276   -1.446068    2.447367
  H      3.127029   -1.672309    4.068541
  H      2.639488   -2.749751    2.745453
  H     -0.175035    1.870654   -1.833927
  H      1.326531    2.040000   -0.853552
  H     -5.002517    2.236501    1.511219
  H     -4.740596    2.310515   -0.256996
  H     -6.575834    0.721483    0.250332
  H     -5.180273   -0.128495   -0.431074
  H     -5.502790   -0.206371    1.311151
  H     -1.389701   -0.792059    1.746011
  H     -3.016346   -1.506458    1.607841
  H     -2.056146   -3.323106    0.155368
  H     -0.442176   -2.646628    0.396463
  H     -1.332685   -3.315777    1.774552

 Total Charge           Charge          ....    0
 Multiplicity           Mult            ....    1
 Number of Electrons    NEL             ....  202
 Basis Dimension        Dim             ....  334

ORBITAL ENERGIES
----------------

  NO   OCC          E(Eh)            E(eV)
   0   2.0000     -88.042518     -2395.7587
   1   2.0000     -88.038679     -2395.6542
   2   2.0000     -87.993890     -2394.4355
   3   2.0000     -87.986663     -2394.2388
   4   2.0000     -76.430655     -2079.7838
   5   2.0000     -76.423355     -2079.5852
   6   2.0000     -18.799276      -511.5543
   7   2.0000     -18.795625      -511.4550
   8   2.0000     -18.793310      -511.3920
   9   2.0000     -18.789050      -511.2760
  10   2.0000      -9.956807      -270.9385
  11   2.0000      -9.956110      -270.9195
  12   2.0000      -9.954043      -270.8633
  13   2.0000      -9.951600      -270.7968
  14   2.0000      -9.950905      -270.7779
  15   2.0000      -9.888264      -269.0733
  16   2.0000      -9.887382      -269.0494
  17   2.0000      -9.886328      -269.0207
  18   2.0000      -9.881744      -268.8959
  19   2.0000      -7.687628      -209.1910
  20   2.0000      -7.683923      -209.0902
  21   2.0000      -7.638728      -207.8604
  22   2.0000      -7.632050      -207.6786
  23   2.0000      -6.428261      -174.9219
  24   2.0000      -6.421489      -174.7376
  25   2.0000      -5.715447      -155.5252
  26   2.0000      -5.712321      -155.4402
  27   2.0000      -5.711672      -155.4225
  28   2.0000      -5.708660      -155.3405
  29   2.0000      -5.704447      -155.2259
  30   2.0000      -5.700761      -155.1256
  31   2.0000      -5.667482      -154.2200
  32   2.0000      -5.661046      -154.0449
  33   2.0000      -5.659405      -154.0002
  34   2.0000      -5.659031      -153.9901
  35   2.0000      -5.652832      -153.8214
  36   2.0000      -5.651894      -153.7958
  37   2.0000      -4.650729      -126.5528
  38   2.0000      -4.649969      -126.5321
  39   2.0000      -4.648824      -126.5009
  40   2.0000      -4.644474      -126.3826
  41   2.0000      -4.642844      -126.3382
  42   2.0000      -4.641940      -126.3136
  43   2.0000      -0.992804       -27.0156
  44   2.0000      -0.983941       -26.7744
  45   2.0000      -0.952037       -25.9062
  46   2.0000      -0.943081       -25.6625
  47   2.0000      -0.764350       -20.7990
  48   2.0000      -0.723806       -19.6958
  49   2.0000      -0.709404       -19.3039
  50   2.0000      -0.691085       -18.8054
  51   2.0000      -0.690878       -18.7997
  52   2.0000      -0.675325       -18.3765
  53   2.0000      -0.652333       -17.7509
  54   2.0000      -0.639591       -17.4042
  55   2.0000      -0.606106       -16.4930
  56   2.0000      -0.591648       -16.0996
  57   2.0000      -0.576983       -15.7005
  58   2.0000      -0.568272       -15.4635
  59   2.0000      -0.558633       -15.2012
  60   2.0000      -0.504097       -13.7172
  61   2.0000      -0.495693       -13.4885
  62   2.0000      -0.480637       -13.0788
  63   2.0000      -0.477754       -13.0004
  64   2.0000      -0.459888       -12.5142
  65   2.0000      -0.448370       -12.2008
  66   2.0000      -0.443886       -12.0787
  67   2.0000      -0.435949       -11.8628
  68   2.0000      -0.429556       -11.6888
  69   2.0000      -0.415948       -11.3185
  70   2.0000      -0.404166       -10.9979
  71   2.0000      -0.399159       -10.8617
  72   2.0000      -0.392797       -10.6886
  73   2.0000      -0.387751       -10.5512
  74   2.0000      -0.381986       -10.3944
  75   2.0000      -0.375581       -10.2201
  76   2.0000      -0.367132        -9.9902
  77   2.0000      -0.360948        -9.8219
  78   2.0000      -0.357014        -9.7148
  79   2.0000      -0.352848        -9.6015
  80   2.0000      -0.349206        -9.5024
  81   2.0000      -0.348683        -9.4882
  82   2.0000      -0.343409        -9.3446
  83   2.0000      -0.338218        -9.2034
  84   2.0000      -0.336353        -9.1526
  85   2.0000      -0.320708        -8.7269
  86   2.0000      -0.313688        -8.5359
  87   2.0000      -0.309533        -8.4228
  88   2.0000      -0.299891        -8.1605
  89   2.0000      -0.288833        -7.8595
  90   2.0000      -0.284602        -7.7444
  91   2.0000      -0.278866        -7.5883
  92   2.0000      -0.269517        -7.3339
  93   2.0000      -0.266467        -7.2509
  94   2.0000      -0.261235        -7.1086
  95   2.0000      -0.233454        -6.3526
  96   2.0000      -0.218476        -5.9450
  97   2.0000      -0.216066        -5.8795
  98   2.0000      -0.207772        -5.6538
  99   2.0000      -0.205816        -5.6005
 100   2.0000      -0.199597        -5.4313
 101   0.0000      -0.044057        -1.1989
 102   0.0000      -0.023455        -0.6382
 103   0.0000      -0.001999        -0.0544
 104   0.0000       0.006633         0.1805
 105   0.0000       0.014787         0.4024

MULLIKEN ATOMIC CHARGES
-----------------------
   0 C :   -0.317215
   1 C :   -0.006375
   2 O :   -0.373835
   3 P :    0.612829
   4 S :   -0.332072
   5 O :   -0.361364
   6 C :   -0.007636
   7 C :   -0.305542
   8 S :   -0.057940
   9 C :   -0.383503
  10 S :   -0.077835
  11 P :    0.626096
  12 S :   -0.316745
  13 O :   -0.397932
  14 C :   -0.007369
  15 C :   -0.315122
  16 O :   -0.362942
  17 C :   -0.027701
  18 C :   -0.280338
  19 H :    0.129245
  20 H :    0.115109
  21 H :    0.121408
  22 H :    0.112110
  23 H :    0.107082
  24 H :    0.115297
  25 H :    0.105499
  26 H :    0.123564
  27 H :    0.113518
  28 H :    0.116936
  29 H :    0.196976
  30 H :    0.193066
  31 H :    0.106435
  32 H :    0.116264
  33 H :    0.114665
  34 H :    0.131572
  35 H :    0.115795
  36 H :    0.113024
  37 H :    0.099998
  38 H :    0.115127
  39 H :    0.129549
  40 H :    0.100303
Sum of atomic charges:    0.0000000

LOEWDIN ATOMIC CHARGES
----------------------
   0 C :   -0.369385
   1 C :   -0.118587
   2 O :   -0.242185
   3 P :    0.574920
   4 S :   -0.321083
   5 O :   -0.234432
   6 C :   -0.117468
   7 C :   -0.364870
   8 S :    0.103686
   9 C :   -0.489013
  10 S :    0.084708
  11 P :    0.572442
  12 S :   -0.307087
  13 O :   -0.259242
  14 C :   -0.116417
  15 C :   -0.364349
  16 O :   -0.241505
  17 C :   -0.118185
  18 C :   -0.353277
  19 H :    0.122369
  20 H :    0.132218
  21 H :    0.125989
  22 H :    0.111162
  23 H :    0.119644
  24 H :    0.112682
  25 H :    0.115605
  26 H :    0.122826
  27 H :    0.131212
  28 H :    0.126474
  29 H :    0.129950
  30 H :    0.128368
  31 H :    0.119108
  32 H :    0.112106
  33 H :    0.132178
  34 H :    0.126920
  35 H :    0.122332
  36 H :    0.104507
  37 H :    0.108620
  38 H :    0.127230
  39 H :    0.124195
  40 H :    0.125634

  Mayer bond orders larger than 0.100000
B(  0-C ,  1-C ) :   1.1665 B(  0-C , 19-H ) :   0.9351 B(  0-C , 20-H ) :   0.9375
B(  0-C , 21-H ) :   0.9443 B(  1-C ,  2-O ) :   0.9057 B(  1-C , 22-H ) :   0.9169
B(  1-C , 23-H ) :   0.9335 B(  2-O ,  3-P ) :   1.1081 B(  3-P ,  4-S ) :   1.5861
B(  3-P ,  5-O ) :   1.1112 B(  3-P ,  8-S ) :   0.9684 B(  4-S ,  8-S ) :   0.1092
B(  5-O ,  6-C ) :   0.9034 B(  6-C ,  7-C ) :   1.1649 B(  6-C , 24-H ) :   0.9169
B(  6-C , 25-H ) :   0.9303 B(  7-C , 26-H ) :   0.9353 B(  7-C , 27-H ) :   0.9386
B(  7-C , 28-H ) :   0.9462 B(  8-S ,  9-C ) :   1.0023 B(  9-C , 10-S ) :   1.0041
B(  9-C , 29-H ) :   0.8729 B(  9-C , 30-H ) :   0.8739 B( 10-S , 11-P ) :   0.9626
B( 10-S , 12-S ) :   0.1024 B( 11-P , 12-S ) :   1.6349 B( 11-P , 13-O ) :   1.0790
B( 11-P , 16-O ) :   1.1162 B( 13-O , 14-C ) :   0.9071 B( 14-C , 15-C ) :   1.1614
B( 14-C , 31-H ) :   0.9344 B( 14-C , 32-H ) :   0.9141 B( 15-C , 33-H ) :   0.9389
B( 15-C , 34-H ) :   0.9365 B( 15-C , 35-H ) :   0.9439 B( 16-O , 17-C ) :   0.8948
B( 17-C , 18-C ) :   1.1678 B( 17-C , 36-H ) :   0.9066 B( 17-C , 37-H ) :   0.9287
B( 18-C , 38-H ) :   0.9476 B( 18-C , 39-H ) :   0.9390 B( 18-C , 40-H ) :   0.9408

Dispersion correction           -0.065869761
FINAL SINGLE POINT ENERGY     -2929.526734655908

DIPOLE MOMENT
-------------

Method             : SCF
Type of density    : Electron Density
Multiplicity       :   1
Irrep              :   0
Energy             : -2929.6467720971199924 Eh
Relativity type    :
Basis              : AO
                                X                 Y                 Z
Electronic contribution:      0.653453256      16.076238221      -8.838265191
Nuclear contribution   :     -0.713448458     -17.226812481       9.995719623
                        -----------------------------------------
Total Dipole Moment    :     -0.059995202      -1.150574260       1.157454432
                        -----------------------------------------
Magnitude (a.u.)       :      1.633132363
Magnitude (Debye)      :      4.151092574

Rotational constants in cm-1:             0.013878             0.004679             0.004360
Rotational constants in MHz :           416.054036           140.277853           130.704882

                             ****ORCA TERMINATED NORMALLY****
TOTAL RUN TIME: 0 days 0 hours 0 minutes 21 seconds 330 msec
