                         Program Version 6.0.0  -   RELEASE  -
|  1> ! pbe def2-sv(p) def2/J RI DEFGRID1 loosescf d4 GCP(DFT/SV(P)) printgap
|  2> %output
|  3>     printlevel normal
|  4> end
|  5> * xyz 0 1
|  6> C 1.9810660217 2.5284372638 -1.031254156
|  7> C 1.9982317976 1.1050083848 -1.5450943954
|  8> O 1.3567150725 0.1775440749 -0.6433528708
|  9> P 1.8473684991 -0.040840848 0.8721550337
| 10> S 1.0838379668 1.1615845157 2.2082206759
| 11> O 3.4228117137 0.0967925998 0.8924321324
| 12> C 4.3574873125 -0.8177422488 0.2622385568
| 13> C 4.948718477 -1.7541643827 1.2961353094
| 14> S 1.4890516898 -2.1184506499 1.0647915392
| 15> C -0.1177141888 -2.2752442669 0.2359906041
| 16> S -1.3911961522 -1.1605463711 0.8788233409
| 17> P -1.6775817027 0.1066557742 -0.8191451252
| 18> S -0.979065133 -0.558840056 -2.5185974913
| 19> O -1.2035861532 1.5594055905 -0.4438500024
| 20> C -1.805274792 2.3196747809 0.6357143246
| 21> C -2.7959835879 3.3233515796 0.0860842757
| 22> O -3.2602765277 0.280295692 -0.799517045
| 23> C -4.1312394453 -0.8117283177 -1.1532890669
| 24> C -5.5297081058 -0.2542488884 -1.3244357152
| 25> H 2.4529967275 3.1777957748 -1.7620485296
| 26> H 0.956693816 2.8534788832 -0.8674953349
| 27> H 2.5225788667 2.5930402475 -0.0874779296
| 28> H 3.0225669521 0.7668013882 -1.7184989093
| 29> H 1.4177209198 1.0019700323 -2.4648514529
| 30> H 3.8493993589 -1.3762332299 -0.5279001581
| 31> H 5.1240949127 -0.1710325504 -0.1687252204
| 32> H 5.7016095994 -2.3763381631 0.8227987949
| 33> H 5.4059120383 -1.1806491082 2.0975106975
| 34> H 4.1731306013 -2.3902230954 1.718069373
| 35> H -0.4378906614 -3.2961132125 0.4308032747
| 36> H -0.0048939335 -2.0926067641 -0.8363473
| 37> H -2.2798793396 1.6288660166 1.337304907
| 38> H -0.9663925824 2.807282482 1.1372412372
| 39> H -3.1815395787 3.9203077865 0.906481471
| 40> H -2.3071933522 3.9747215795 -0.6332186152
| 41> H -3.6183934444 2.8098875238 -0.4049084209
| 42> H -3.7625123931 -1.263458748 -2.0801210442
| 43> H -4.0923263176 -1.5553852667 -0.3521847281
| 44> H -5.5416150498 0.4881047474 -2.1175328142
| 45> H -6.2050217688 -1.0634068002 -1.5818845021
| 46> H -5.8609539372 0.2100610605 -0.4000263725
| 47> *
| 48>
| 49>                          ****END OF INPUT****

CARTESIAN COORDINATES (ANGSTROEM)
---------------------------------
  C      1.981066    2.528437   -1.031254
  C      1.998232    1.105008   -1.545094
  O      1.356715    0.177544   -0.643353
  P      1.847368   -0.040841    0.872155
  S      1.083838    1.161585    2.208221
  O      3.422812    0.096793    0.892432
  C      4.357487   -0.817742    0.262239
  C      4.948718   -1.754164    1.296135
  S      1.489052   -2.118451    1.064792
  C     -0.117714   -2.275244    0.235991
  S     -1.391196   -1.160546    0.878823
  P     -1.677582    0.106656   -0.819145
  S     -0.979065   -0.558840   -2.518597
  O     -1.203586    1.559406   -0.443850
  C     -1.805275    2.319675    0.635714
  C     -2.795984    3.323352    0.086084
  O     -3.260277    0.280296   -0.799517
  C     -4.131239   -0.811728   -1.153289
  C     -5.529708   -0.254249   -1.324436
  H      2.452997    3.177796   -1.762049
  H      0.956694    2.853479   -0.867495
  H      2.522579    2.593040   -0.087478
  H      3.022567    0.766801   -1.718499
  H      1.417721    1.001970   -2.464851
  H      3.849399   -1.376233   -0.527900
  H      5.124095   -0.171033   -0.168725
  H      5.701610   -2.376338    0.822799
  H      5.405912   -1.180649    2.097511
  H      4.173131   -2.390223    1.718069
  H     -0.437891   -3.296113    0.430803
  H     -0.004894   -2.092607   -0.836347
  H     -2.279879    1.628866    1.337305
  H     -0.966393    2.807282    1.137241
  H     -3.181540    3.920308    0.906481
  H     -2.307193    3.974722   -0.633219
  H     -3.618393    2.809888   -0.404908
  H     -3.762512   -1.263459   -2.080121
  H     -4.092326   -1.555385   -0.352185
  H     -5.541615    0.488105   -2.117533
  H     -6.205022   -1.063407   -1.581885
  H     -5.860954    0.210061   -0.400026

 Total Charge           Charge          ....    0
 Multiplicity           Mult            ....    1
 Number of Electrons    NEL             ....  202
 Basis Dimension        Dim             ....  334

ORBITAL ENERGIES
----------------

  NO   OCC          E(Eh)            E(eV)
   0   2.0000     -88.041536     -2395.7320
   1   2.0000     -88.039372     -2395.6731
   2   2.0000     -87.987000     -2394.2480
   3   2.0000     -87.974716     -2393.9137
   4   2.0000     -76.426044     -2079.6584
   5   2.0000     -76.422212     -2079.5541
   6   2.0000     -18.794993      -511.4378
   7   2.0000     -18.792667      -511.3745
   8   2.0000     -18.789744      -511.2949
   9   2.0000     -18.782218      -511.0901
  10   2.0000      -9.961257      -271.0596
  11   2.0000      -9.954454      -270.8745
  12   2.0000      -9.952298      -270.8158
  13   2.0000      -9.948126      -270.7023
  14   2.0000      -9.946033      -270.6453
  15   2.0000      -9.890533      -269.1351
  16   2.0000      -9.889665      -269.1115
  17   2.0000      -9.881797      -268.8974
  18   2.0000      -9.873481      -268.6711
  19   2.0000      -7.686191      -209.1519
  20   2.0000      -7.684911      -209.1170
  21   2.0000      -7.632048      -207.6786
  22   2.0000      -7.620123      -207.3541
  23   2.0000      -6.423393      -174.7894
  24   2.0000      -6.419633      -174.6871
  25   2.0000      -5.714026      -155.4865
  26   2.0000      -5.712984      -155.4582
  27   2.0000      -5.710718      -155.3965
  28   2.0000      -5.709227      -155.3560
  29   2.0000      -5.703235      -155.1929
  30   2.0000      -5.701787      -155.1535
  31   2.0000      -5.661032      -154.0445
  32   2.0000      -5.652651      -153.8165
  33   2.0000      -5.652062      -153.8004
  34   2.0000      -5.649211      -153.7228
  35   2.0000      -5.640706      -153.4914
  36   2.0000      -5.640081      -153.4744
  37   2.0000      -4.646192      -126.4293
  38   2.0000      -4.645054      -126.3983
  39   2.0000      -4.643763      -126.3632
  40   2.0000      -4.643282      -126.3501
  41   2.0000      -4.641298      -126.2961
  42   2.0000      -4.639277      -126.2411
  43   2.0000      -0.988742       -26.9050
  44   2.0000      -0.982302       -26.7298
  45   2.0000      -0.943576       -25.6760
  46   2.0000      -0.938041       -25.5254
  47   2.0000      -0.760652       -20.6984
  48   2.0000      -0.720742       -19.6124
  49   2.0000      -0.710969       -19.3464
  50   2.0000      -0.690669       -18.7941
  51   2.0000      -0.688423       -18.7329
  52   2.0000      -0.670694       -18.2505
  53   2.0000      -0.647521       -17.6200
  54   2.0000      -0.637575       -17.3493
  55   2.0000      -0.589189       -16.0327
  56   2.0000      -0.580014       -15.7830
  57   2.0000      -0.576462       -15.6863
  58   2.0000      -0.567456       -15.4413
  59   2.0000      -0.563789       -15.3415
  60   2.0000      -0.510708       -13.8971
  61   2.0000      -0.504725       -13.7343
  62   2.0000      -0.479375       -13.0445
  63   2.0000      -0.468983       -12.7617
  64   2.0000      -0.452326       -12.3084
  65   2.0000      -0.446952       -12.1622
  66   2.0000      -0.441080       -12.0024
  67   2.0000      -0.436689       -11.8829
  68   2.0000      -0.427908       -11.6440
  69   2.0000      -0.411167       -11.1884
  70   2.0000      -0.406413       -11.0591
  71   2.0000      -0.396617       -10.7925
  72   2.0000      -0.387975       -10.5573
  73   2.0000      -0.386478       -10.5166
  74   2.0000      -0.383268       -10.4292
  75   2.0000      -0.365219        -9.9381
  76   2.0000      -0.361760        -9.8440
  77   2.0000      -0.356591        -9.7033
  78   2.0000      -0.355290        -9.6679
  79   2.0000      -0.353980        -9.6323
  80   2.0000      -0.345254        -9.3948
  81   2.0000      -0.343443        -9.3455
  82   2.0000      -0.338796        -9.2191
  83   2.0000      -0.335063        -9.1175
  84   2.0000      -0.331095        -9.0096
  85   2.0000      -0.314701        -8.5634
  86   2.0000      -0.312310        -8.4984
  87   2.0000      -0.307584        -8.3698
  88   2.0000      -0.300513        -8.1774
  89   2.0000      -0.292540        -7.9604
  90   2.0000      -0.284621        -7.7449
  91   2.0000      -0.273843        -7.4516
  92   2.0000      -0.265604        -7.2275
  93   2.0000      -0.259152        -7.0519
  94   2.0000      -0.257207        -6.9990
  95   2.0000      -0.235528        -6.4090
  96   2.0000      -0.222644        -6.0585
  97   2.0000      -0.204609        -5.5677
  98   2.0000      -0.203088        -5.5263
  99   2.0000      -0.187614        -5.1052
 100   2.0000      -0.185987        -5.0610
 101   0.0000      -0.045870        -1.2482
 102   0.0000      -0.032993        -0.8978
 103   0.0000      -0.009551        -0.2599
 104   0.0000       0.004961         0.1350
 105   0.0000       0.018523         0.5040

MULLIKEN ATOMIC CHARGES
-----------------------
   0 C :   -0.326443
   1 C :   -0.012947
   2 O :   -0.390442
   3 P :    0.627521
   4 S :   -0.305705
   5 O :   -0.373664
   6 C :   -0.039380
   7 C :   -0.282294
   8 S :   -0.122609
   9 C :   -0.330238
  10 S :   -0.102213
  11 P :    0.620962
  12 S :   -0.310593
  13 O :   -0.356339
  14 C :   -0.018813
  15 C :   -0.284205
  16 O :   -0.384082
  17 C :   -0.007700
  18 C :   -0.282777
  19 H :    0.103389
  20 H :    0.137494
  21 H :    0.125824
  22 H :    0.097929
  23 H :    0.115417
  24 H :    0.115670
  25 H :    0.112914
  26 H :    0.111830
  27 H :    0.124429
  28 H :    0.129958
  29 H :    0.179578
  30 H :    0.198452
  31 H :    0.104755
  32 H :    0.127179
  33 H :    0.109532
  34 H :    0.115593
  35 H :    0.118866
  36 H :    0.103542
  37 H :    0.099154
  38 H :    0.121428
  39 H :    0.112621
  40 H :    0.116407
Sum of atomic charges:    0.0000000

LOEWDIN ATOMIC CHARGES
----------------------
   0 C :   -0.370807
   1 C :   -0.116862
   2 O :   -0.259238
   3 P :    0.565103
   4 S :   -0.301477
   5 O :   -0.243872
   6 C :   -0.121443
   7 C :   -0.357550
   8 S :    0.070496
   9 C :   -0.479652
  10 S :    0.076539
  11 P :    0.580162
  12 S :   -0.292787
  13 O :   -0.224730
  14 C :   -0.117276
  15 C :   -0.359007
  16 O :   -0.249915
  17 C :   -0.123685
  18 C :   -0.350749
  19 H :    0.126708
  20 H :    0.129817
  21 H :    0.121089
  22 H :    0.104279
  23 H :    0.115988
  24 H :    0.109284
  25 H :    0.120585
  26 H :    0.131544
  27 H :    0.131530
  28 H :    0.121744
  29 H :    0.137734
  30 H :    0.122572
  31 H :    0.107509
  32 H :    0.116445
  33 H :    0.129981
  34 H :    0.126708
  35 H :    0.124300
  36 H :    0.107995
  37 H :    0.105251
  38 H :    0.128471
  39 H :    0.131191
  40 H :    0.126025

  Mayer bond orders larger than 0.100000
B(  0-C ,  1-C ) :   1.1677 B(  0-C , 19-H ) :   0.9349 B(  0-C , 20-H ) :   0.9358
B(  0-C , 21-H ) :   0.9323 B(  1-C ,  2-O ) :   0.9044 B(  1-C , 22-H ) :   0.9269
B(  1-C , 23-H ) :   0.9134 B(  2-O ,  3-P ) :   1.0607 B(  3-P ,  4-S ) :   1.6849
B(  3-P ,  5-O ) :   1.0967 B(  3-P ,  8-S ) :   0.9518 B(  4-S ,  8-S ) :   0.1114
B(  5-O ,  6-C ) :   0.8905 B(  6-C ,  7-C ) :   1.1695 B(  6-C , 24-H ) :   0.9114
B(  6-C , 25-H ) :   0.9287 B(  7-C , 26-H ) :   0.9387 B(  7-C , 27-H ) :   0.9449
B(  7-C , 28-H ) :   0.9393 B(  8-S ,  9-C ) :   0.9872 B(  9-C , 10-S ) :   1.0156
B(  9-C , 29-H ) :   0.9128 B(  9-C , 30-H ) :   0.8486 B( 10-S , 11-P ) :   0.9562
B( 10-S , 12-S ) :   0.1175 B( 11-P , 12-S ) :   1.6131 B( 11-P , 13-O ) :   1.1455
B( 11-P , 16-O ) :   1.0666 B( 12-S , 30-H ) :   0.1183 B( 13-O , 14-C ) :   0.8711
B( 14-C , 15-C ) :   1.1628 B( 14-C , 31-H ) :   0.9210 B( 14-C , 32-H ) :   0.9158
B( 15-C , 33-H ) :   0.9402 B( 15-C , 34-H ) :   0.9482 B( 15-C , 35-H ) :   0.9405
B( 16-O , 17-C ) :   0.9090 B( 17-C , 18-C ) :   1.1592 B( 17-C , 36-H ) :   0.9114
B( 17-C , 37-H ) :   0.9220 B( 18-C , 38-H ) :   0.9508 B( 18-C , 39-H ) :   0.9421
B( 18-C , 40-H ) :   0.9508

Dispersion correction           -0.068330845
FINAL SINGLE POINT ENERGY     -2929.510262454494

DIPOLE MOMENT
-------------

Method             : SCF
Type of density    : Electron Density
Multiplicity       :   1
Irrep              :   0
Energy             : -2929.6305591441373508 Eh
Relativity type    :
Basis              : AO
                                X                 Y                 Z
Electronic contribution:      3.485157196      -9.288034739       6.623649396
Nuclear contribution   :     -3.560249977       8.931524451      -7.195390359
                        -----------------------------------------
Total Dipole Moment    :     -0.075092781      -0.356510288      -0.571740963
                        -----------------------------------------
Magnitude (a.u.)       :      0.677957403
Magnitude (Debye)      :      1.723230771

Rotational constants in cm-1:             0.013384             0.005408             0.004972
Rotational constants in MHz :           401.235690           162.116117           149.047284

                             ****ORCA TERMINATED NORMALLY****
TOTAL RUN TIME: 0 days 0 hours 0 minutes 22 seconds 270 msec
