                         Program Version 6.0.0  -   RELEASE  -
|  1> ! r2scan-3c def2/J RI DEFGRID2 scfconv6 printgap
|  2> %output
|  3>     printlevel normal
|  4> end
|  5> * xyz 0 1
|  6> C 3.9979111341 -1.998027303 -2.0473404063
|  7> C 4.5130357707 -1.5915857108 -0.6822618679
|  8> O 3.4497504409 -1.2577485724 0.2299601441
|  9> P 2.4964525338 -0.0051943326 0.0144148022
| 10> S 3.3446301767 1.6234351303 -0.6505446436
| 11> O 1.8655677882 0.1892052861 1.4462811989
| 12> C 1.3042225788 -0.9034754217 2.2146042549
| 13> C 2.2526328237 -1.3031674872 3.3256368768
| 14> S 0.9062987163 -0.7884616621 -1.1843074177
| 15> C 0.2329021409 0.8160866287 -1.6710702679
| 16> S -0.4600699906 1.7463707399 -0.2732556234
| 17> P -2.2477726134 0.6240840546 -0.1053936203
| 18> S -3.1707225253 0.1883473602 -1.7780713233
| 19> O -2.9645112712 1.6233211923 0.8883519631
| 20> C -4.3988031604 1.7575758326 0.9777214728
| 21> C -4.9978263069 0.7122867308 1.8960283434
| 22> O -1.8845630149 -0.6295038493 0.8097907229
| 23> C -1.9349731276 -2.0012826208 0.3662105995
| 24> C -3.2788524807 -2.6251815383 0.6845492751
| 25> H 3.2456370166 -2.7772079429 -1.953876326
| 26> H 3.5546344428 -1.1396273869 -2.5496557434
| 27> H 4.8253708994 -2.3647476611 -2.6461804522
| 28> H 5.1785458729 -0.7271104853 -0.764053936
| 29> H 5.029963623 -2.4142486027 -0.1861980476
| 30> H 0.3612362474 -0.51637925 2.6078227128
| 31> H 1.1090542583 -1.7435061039 1.5422126544
| 32> H 2.4753571492 -0.4430044378 3.9508689741
| 33> H 1.7884741847 -2.0764498209 3.929666719
| 34> H 3.1810749767 -1.6817171486 2.9061256124
| 35> H -0.5460245795 0.6288809003 -2.4107748099
| 36> H 1.0335799704 1.4295846688 -2.0839140839
| 37> H -4.5479276328 2.7666382835 1.365436112
| 38> H -4.8204834238 1.6835913677 -0.0302880096
| 39> H -6.056321238 0.9155955607 2.025318692
| 40> H -4.8764631105 -0.2784968575 1.46485326
| 41> H -4.5045449102 0.7401012087 2.8638277411
| 42> H -1.7359557538 -2.0435116954 -0.7081355322
| 43> H -1.1282314529 -2.4981415861 0.906342789
| 44> H -3.5057196694 -2.5152806778 1.7414269327
| 45> H -4.0596144593 -2.1500005661 0.0938700109
| 46> H -3.2457469642 -3.6802956082 0.4326665867
| 47> *
| 48>
| 49>                          ****END OF INPUT****

CARTESIAN COORDINATES (ANGSTROEM)
---------------------------------
  C      3.997911   -1.998027   -2.047340
  C      4.513036   -1.591586   -0.682262
  O      3.449750   -1.257749    0.229960
  P      2.496453   -0.005194    0.014415
  S      3.344630    1.623435   -0.650545
  O      1.865568    0.189205    1.446281
  C      1.304223   -0.903475    2.214604
  C      2.252633   -1.303167    3.325637
  S      0.906299   -0.788462   -1.184307
  C      0.232902    0.816087   -1.671070
  S     -0.460070    1.746371   -0.273256
  P     -2.247773    0.624084   -0.105394
  S     -3.170723    0.188347   -1.778071
  O     -2.964511    1.623321    0.888352
  C     -4.398803    1.757576    0.977721
  C     -4.997826    0.712287    1.896028
  O     -1.884563   -0.629504    0.809791
  C     -1.934973   -2.001283    0.366211
  C     -3.278852   -2.625182    0.684549
  H      3.245637   -2.777208   -1.953876
  H      3.554634   -1.139627   -2.549656
  H      4.825371   -2.364748   -2.646180
  H      5.178546   -0.727110   -0.764054
  H      5.029964   -2.414249   -0.186198
  H      0.361236   -0.516379    2.607823
  H      1.109054   -1.743506    1.542213
  H      2.475357   -0.443004    3.950869
  H      1.788474   -2.076450    3.929667
  H      3.181075   -1.681717    2.906126
  H     -0.546025    0.628881   -2.410775
  H      1.033580    1.429585   -2.083914
  H     -4.547928    2.766638    1.365436
  H     -4.820483    1.683591   -0.030288
  H     -6.056321    0.915596    2.025319
  H     -4.876463   -0.278497    1.464853
  H     -4.504545    0.740101    2.863828
  H     -1.735956   -2.043512   -0.708136
  H     -1.128231   -2.498142    0.906343
  H     -3.505720   -2.515281    1.741427
  H     -4.059614   -2.150001    0.093870
  H     -3.245747   -3.680296    0.432667

 Total Charge           Charge          ....    0
 Multiplicity           Mult            ....    1
 Number of Electrons    NEL             ....  202
 Basis Dimension        Dim             ....  539

ORBITAL ENERGIES
----------------

  NO   OCC          E(Eh)            E(eV)
   0   2.0000     -88.573133     -2410.1975
   1   2.0000     -88.569379     -2410.0953
   2   2.0000     -88.524576     -2408.8762
   3   2.0000     -88.521961     -2408.8050
   4   2.0000     -76.915182     -2092.9685
   5   2.0000     -76.915124     -2092.9669
   6   2.0000     -18.997733      -516.9546
   7   2.0000     -18.993669      -516.8440
   8   2.0000     -18.992512      -516.8125
   9   2.0000     -18.988980      -516.7164
  10   2.0000     -10.103403      -274.9276
  11   2.0000     -10.102022      -274.8900
  12   2.0000     -10.101796      -274.8838
  13   2.0000     -10.101310      -274.8706
  14   2.0000     -10.101035      -274.8631
  15   2.0000     -10.034610      -273.0556
  16   2.0000     -10.032603      -273.0010
  17   2.0000     -10.032338      -272.9938
  18   2.0000     -10.031491      -272.9707
  19   2.0000      -7.867753      -214.0924
  20   2.0000      -7.863405      -213.9741
  21   2.0000      -7.819458      -212.7783
  22   2.0000      -7.816674      -212.7025
  23   2.0000      -6.593652      -179.4224
  24   2.0000      -6.593564      -179.4200
  25   2.0000      -5.814487      -158.2202
  26   2.0000      -5.811644      -158.1429
  27   2.0000      -5.810381      -158.1085
  28   2.0000      -5.807446      -158.0286
  29   2.0000      -5.804939      -157.9604
  30   2.0000      -5.800278      -157.8336
  31   2.0000      -5.766989      -156.9278
  32   2.0000      -5.764388      -156.8570
  33   2.0000      -5.760057      -156.7391
  34   2.0000      -5.759234      -156.7167
  35   2.0000      -5.756869      -156.6524
  36   2.0000      -5.756700      -156.6478
  37   2.0000      -4.739534      -128.9693
  38   2.0000      -4.738955      -128.9535
  39   2.0000      -4.738514      -128.9415
  40   2.0000      -4.738310      -128.9360
  41   2.0000      -4.737551      -128.9153
  42   2.0000      -4.737108      -128.9033
  43   2.0000      -1.053518       -28.6677
  44   2.0000      -1.049727       -28.5645
  45   2.0000      -1.012702       -27.5570
  46   2.0000      -1.011772       -27.5317
  47   2.0000      -0.799490       -21.7552
  48   2.0000      -0.761639       -20.7253
  49   2.0000      -0.752163       -20.4674
  50   2.0000      -0.737103       -20.0576
  51   2.0000      -0.735323       -20.0092
  52   2.0000      -0.710727       -19.3399
  53   2.0000      -0.688238       -18.7279
  54   2.0000      -0.669321       -18.2132
  55   2.0000      -0.636150       -17.3105
  56   2.0000      -0.626184       -17.0393
  57   2.0000      -0.609488       -16.5850
  58   2.0000      -0.606275       -16.4976
  59   2.0000      -0.589789       -16.0490
  60   2.0000      -0.531216       -14.4551
  61   2.0000      -0.522348       -14.2138
  62   2.0000      -0.500569       -13.6212
  63   2.0000      -0.496747       -13.5172
  64   2.0000      -0.476230       -12.9589
  65   2.0000      -0.469117       -12.7653
  66   2.0000      -0.458977       -12.4894
  67   2.0000      -0.454483       -12.3671
  68   2.0000      -0.446457       -12.1487
  69   2.0000      -0.437458       -11.9038
  70   2.0000      -0.423480       -11.5235
  71   2.0000      -0.414559       -11.2807
  72   2.0000      -0.411919       -11.2089
  73   2.0000      -0.401298       -10.9199
  74   2.0000      -0.395698       -10.7675
  75   2.0000      -0.391786       -10.6610
  76   2.0000      -0.385015       -10.4768
  77   2.0000      -0.380724       -10.3600
  78   2.0000      -0.376331       -10.2405
  79   2.0000      -0.371616       -10.1122
  80   2.0000      -0.366947        -9.9851
  81   2.0000      -0.361625        -9.8403
  82   2.0000      -0.358869        -9.7653
  83   2.0000      -0.355785        -9.6814
  84   2.0000      -0.350657        -9.5419
  85   2.0000      -0.339598        -9.2409
  86   2.0000      -0.325109        -8.8467
  87   2.0000      -0.316745        -8.6191
  88   2.0000      -0.312081        -8.4922
  89   2.0000      -0.310023        -8.4362
  90   2.0000      -0.301560        -8.2059
  91   2.0000      -0.293311        -7.9814
  92   2.0000      -0.286589        -7.7985
  93   2.0000      -0.281393        -7.6571
  94   2.0000      -0.273724        -7.4484
  95   2.0000      -0.244483        -6.6527
  96   2.0000      -0.231032        -6.2867
  97   2.0000      -0.230026        -6.2593
  98   2.0000      -0.221015        -6.0141
  99   2.0000      -0.216502        -5.8913
 100   2.0000      -0.209949        -5.7130
 101   0.0000      -0.047885        -1.3030
 102   0.0000      -0.024372        -0.6632
 103   0.0000      -0.002427        -0.0660
 104   0.0000       0.005347         0.1455
 105   0.0000       0.011645         0.3169

MULLIKEN ATOMIC CHARGES
-----------------------
   0 C :   -0.443424
   1 C :   -0.167976
   2 O :   -0.291552
   3 P :    0.641643
   4 S :   -0.433556
   5 O :   -0.259864
   6 C :   -0.081334
   7 C :   -0.486052
   8 S :   -0.171895
   9 C :   -0.246298
  10 S :   -0.097889
  11 P :    0.666905
  12 S :   -0.487879
  13 O :   -0.314879
  14 C :   -0.159072
  15 C :   -0.430326
  16 O :   -0.258474
  17 C :   -0.080276
  18 C :   -0.510909
  19 H :    0.152671
  20 H :    0.180793
  21 H :    0.148687
  22 H :    0.175312
  23 H :    0.147920
  24 H :    0.173488
  25 H :    0.141859
  26 H :    0.160292
  27 H :    0.144653
  28 H :    0.164002
  29 H :    0.211858
  30 H :    0.219813
  31 H :    0.152912
  32 H :    0.175451
  33 H :    0.148739
  34 H :    0.155286
  35 H :    0.157589
  36 H :    0.170311
  37 H :    0.146793
  38 H :    0.158412
  39 H :    0.178625
  40 H :    0.147643
Sum of atomic charges:   -0.0000000

LOEWDIN ATOMIC CHARGES
----------------------
   0 C :   -0.408645
   1 C :    0.022764
   2 O :   -0.672212
   3 P :    0.381060
   4 S :   -0.094193
   5 O :   -0.652941
   6 C :    0.019276
   7 C :   -0.390783
   8 S :    0.131165
   9 C :   -0.423777
  10 S :    0.192913
  11 P :    0.383904
  12 S :   -0.133157
  13 O :   -0.666078
  14 C :    0.025996
  15 C :   -0.395529
  16 O :   -0.670027
  17 C :    0.000324
  18 C :   -0.405615
  19 H :    0.159704
  20 H :    0.166974
  21 H :    0.159787
  22 H :    0.180975
  23 H :    0.179255
  24 H :    0.186275
  25 H :    0.172631
  26 H :    0.163082
  27 H :    0.158141
  28 H :    0.163964
  29 H :    0.190841
  30 H :    0.192013
  31 H :    0.180351
  32 H :    0.181226
  33 H :    0.160427
  34 H :    0.160610
  35 H :    0.161307
  36 H :    0.180623
  37 H :    0.175401
  38 H :    0.157804
  39 H :    0.163879
  40 H :    0.160284

  Mayer bond orders larger than 0.100000
B(  0-C ,  1-C ) :   0.9182 B(  0-C , 19-H ) :   0.9672 B(  0-C , 20-H ) :   0.9633
B(  0-C , 21-H ) :   0.9559 B(  1-C ,  2-O ) :   0.8186 B(  1-C , 22-H ) :   0.9681
B(  1-C , 23-H ) :   0.9612 B(  2-O ,  3-P ) :   1.0339 B(  3-P ,  4-S ) :   1.8464
B(  3-P ,  5-O ) :   1.1421 B(  3-P ,  8-S ) :   1.0085 B(  5-O ,  6-C ) :   0.7306
B(  6-C ,  7-C ) :   0.9452 B(  6-C , 24-H ) :   0.9517 B(  6-C , 25-H ) :   0.9669
B(  7-C , 26-H ) :   0.9726 B(  7-C , 27-H ) :   0.9658 B(  7-C , 28-H ) :   0.9716
B(  8-S ,  9-C ) :   0.9015 B(  9-C , 10-S ) :   0.9106 B(  9-C , 29-H ) :   0.9058
B(  9-C , 30-H ) :   0.9073 B( 10-S , 11-P ) :   1.1055 B( 11-P , 12-S ) :   1.7431
B( 11-P , 13-O ) :   1.1764 B( 11-P , 16-O ) :   1.0510 B( 13-O , 14-C ) :   0.7809
B( 14-C , 15-C ) :   0.9397 B( 14-C , 31-H ) :   0.9630 B( 14-C , 32-H ) :   0.9636
B( 15-C , 33-H ) :   0.9644 B( 15-C , 34-H ) :   0.9597 B( 15-C , 35-H ) :   0.9720
B( 16-O , 17-C ) :   0.7482 B( 17-C , 18-C ) :   0.9204 B( 17-C , 36-H ) :   0.9574
B( 17-C , 37-H ) :   0.9603 B( 18-C , 38-H ) :   0.9772 B( 18-C , 39-H ) :   0.9689
B( 18-C , 40-H ) :   0.9609

Dispersion correction           -0.021564556
FINAL SINGLE POINT ENERGY     -2932.461909119515

DIPOLE MOMENT
-------------

Method             : SCF
Type of density    : Electron Density
Multiplicity       :   1
Irrep              :   0
Energy             : -2932.4867666619511510 Eh
Relativity type    :
Basis              : AO
                                X                 Y                 Z
Electronic contribution:      6.634714406      18.447423741     -10.985915514
Nuclear contribution   :     -7.029457485     -20.228294113      11.968431925
                        -----------------------------------------
Total Dipole Moment    :     -0.394743079      -1.780870372       0.982516410
                        -----------------------------------------
Magnitude (a.u.)       :      2.071873519
Magnitude (Debye)      :      5.266283966

Rotational constants in cm-1:             0.013298             0.004632             0.004451
Rotational constants in MHz :           398.653246           138.876338           133.429474

                             ****ORCA TERMINATED NORMALLY****
TOTAL RUN TIME: 0 days 0 hours 1 minutes 24 seconds 357 msec
