                         Program Version 6.0.0  -   RELEASE  -
|  1> ! r2scan-3c def2/J RI DEFGRID2 scfconv6 printgap
|  2> %output
|  3>     printlevel normal
|  4> end
|  5> %cpcm
|  6>     smd true
|  7>     smdsolvent "water"
|  8> end
|  9> * xyz 0 1
| 10> C 3.9979111341 -1.998027303 -2.0473404063
| 11> C 4.5130357707 -1.5915857108 -0.6822618679
| 12> O 3.4497504409 -1.2577485724 0.2299601441
| 13> P 2.4964525338 -0.0051943326 0.0144148022
| 14> S 3.3446301767 1.6234351303 -0.6505446436
| 15> O 1.8655677882 0.1892052861 1.4462811989
| 16> C 1.3042225788 -0.9034754217 2.2146042549
| 17> C 2.2526328237 -1.3031674872 3.3256368768
| 18> S 0.9062987163 -0.7884616621 -1.1843074177
| 19> C 0.2329021409 0.8160866287 -1.6710702679
| 20> S -0.4600699906 1.7463707399 -0.2732556234
| 21> P -2.2477726134 0.6240840546 -0.1053936203
| 22> S -3.1707225253 0.1883473602 -1.7780713233
| 23> O -2.9645112712 1.6233211923 0.8883519631
| 24> C -4.3988031604 1.7575758326 0.9777214728
| 25> C -4.9978263069 0.7122867308 1.8960283434
| 26> O -1.8845630149 -0.6295038493 0.8097907229
| 27> C -1.9349731276 -2.0012826208 0.3662105995
| 28> C -3.2788524807 -2.6251815383 0.6845492751
| 29> H 3.2456370166 -2.7772079429 -1.953876326
| 30> H 3.5546344428 -1.1396273869 -2.5496557434
| 31> H 4.8253708994 -2.3647476611 -2.6461804522
| 32> H 5.1785458729 -0.7271104853 -0.764053936
| 33> H 5.029963623 -2.4142486027 -0.1861980476
| 34> H 0.3612362474 -0.51637925 2.6078227128
| 35> H 1.1090542583 -1.7435061039 1.5422126544
| 36> H 2.4753571492 -0.4430044378 3.9508689741
| 37> H 1.7884741847 -2.0764498209 3.929666719
| 38> H 3.1810749767 -1.6817171486 2.9061256124
| 39> H -0.5460245795 0.6288809003 -2.4107748099
| 40> H 1.0335799704 1.4295846688 -2.0839140839
| 41> H -4.5479276328 2.7666382835 1.365436112
| 42> H -4.8204834238 1.6835913677 -0.0302880096
| 43> H -6.056321238 0.9155955607 2.025318692
| 44> H -4.8764631105 -0.2784968575 1.46485326
| 45> H -4.5045449102 0.7401012087 2.8638277411
| 46> H -1.7359557538 -2.0435116954 -0.7081355322
| 47> H -1.1282314529 -2.4981415861 0.906342789
| 48> H -3.5057196694 -2.5152806778 1.7414269327
| 49> H -4.0596144593 -2.1500005661 0.0938700109
| 50> H -3.2457469642 -3.6802956082 0.4326665867
| 51> *
| 52>
| 53>                          ****END OF INPUT****

CARTESIAN COORDINATES (ANGSTROEM)
---------------------------------
  C      3.997911   -1.998027   -2.047340
  C      4.513036   -1.591586   -0.682262
  O      3.449750   -1.257749    0.229960
  P      2.496453   -0.005194    0.014415
  S      3.344630    1.623435   -0.650545
  O      1.865568    0.189205    1.446281
  C      1.304223   -0.903475    2.214604
  C      2.252633   -1.303167    3.325637
  S      0.906299   -0.788462   -1.184307
  C      0.232902    0.816087   -1.671070
  S     -0.460070    1.746371   -0.273256
  P     -2.247773    0.624084   -0.105394
  S     -3.170723    0.188347   -1.778071
  O     -2.964511    1.623321    0.888352
  C     -4.398803    1.757576    0.977721
  C     -4.997826    0.712287    1.896028
  O     -1.884563   -0.629504    0.809791
  C     -1.934973   -2.001283    0.366211
  C     -3.278852   -2.625182    0.684549
  H      3.245637   -2.777208   -1.953876
  H      3.554634   -1.139627   -2.549656
  H      4.825371   -2.364748   -2.646180
  H      5.178546   -0.727110   -0.764054
  H      5.029964   -2.414249   -0.186198
  H      0.361236   -0.516379    2.607823
  H      1.109054   -1.743506    1.542213
  H      2.475357   -0.443004    3.950869
  H      1.788474   -2.076450    3.929667
  H      3.181075   -1.681717    2.906126
  H     -0.546025    0.628881   -2.410775
  H      1.033580    1.429585   -2.083914
  H     -4.547928    2.766638    1.365436
  H     -4.820483    1.683591   -0.030288
  H     -6.056321    0.915596    2.025319
  H     -4.876463   -0.278497    1.464853
  H     -4.504545    0.740101    2.863828
  H     -1.735956   -2.043512   -0.708136
  H     -1.128231   -2.498142    0.906343
  H     -3.505720   -2.515281    1.741427
  H     -4.059614   -2.150001    0.093870
  H     -3.245747   -3.680296    0.432667

 Total Charge           Charge          ....    0
 Multiplicity           Mult            ....    1
 Number of Electrons    NEL             ....  202
 Basis Dimension        Dim             ....  539

ORBITAL ENERGIES
----------------

  NO   OCC          E(Eh)            E(eV)
   0   2.0000     -88.577082     -2410.3049
   1   2.0000     -88.575848     -2410.2714
   2   2.0000     -88.531986     -2409.0778
   3   2.0000     -88.530720     -2409.0434
   4   2.0000     -76.920858     -2093.1230
   5   2.0000     -76.920028     -2093.1004
   6   2.0000     -18.997295      -516.9427
   7   2.0000     -18.995776      -516.9013
   8   2.0000     -18.993287      -516.8336
   9   2.0000     -18.993261      -516.8329
  10   2.0000     -10.103228      -274.9228
  11   2.0000     -10.092055      -274.6188
  12   2.0000     -10.091363      -274.6000
  13   2.0000     -10.090994      -274.5899
  14   2.0000     -10.088712      -274.5278
  15   2.0000     -10.018953      -272.6296
  16   2.0000     -10.018820      -272.6260
  17   2.0000     -10.018443      -272.6157
  18   2.0000     -10.016635      -272.5665
  19   2.0000      -7.871289      -214.1887
  20   2.0000      -7.870383      -214.1640
  21   2.0000      -7.827075      -212.9856
  22   2.0000      -7.825857      -212.9524
  23   2.0000      -6.599370      -179.5780
  24   2.0000      -6.598473      -179.5536
  25   2.0000      -5.818148      -158.3199
  26   2.0000      -5.817163      -158.2931
  27   2.0000      -5.815255      -158.2411
  28   2.0000      -5.814316      -158.2156
  29   2.0000      -5.808353      -158.0533
  30   2.0000      -5.807488      -158.0298
  31   2.0000      -5.774664      -157.1366
  32   2.0000      -5.773358      -157.1011
  33   2.0000      -5.767252      -156.9349
  34   2.0000      -5.767174      -156.9328
  35   2.0000      -5.766372      -156.9109
  36   2.0000      -5.765701      -156.8927
  37   2.0000      -4.745187      -129.1231
  38   2.0000      -4.744190      -129.0960
  39   2.0000      -4.743805      -129.0855
  40   2.0000      -4.743193      -129.0688
  41   2.0000      -4.742970      -129.0628
  42   2.0000      -4.742580      -129.0522
  43   2.0000      -1.054869       -28.7044
  44   2.0000      -1.050870       -28.5956
  45   2.0000      -1.013090       -27.5676
  46   2.0000      -1.012663       -27.5560
  47   2.0000      -0.803073       -21.8527
  48   2.0000      -0.757317       -20.6076
  49   2.0000      -0.745186       -20.2775
  50   2.0000      -0.726689       -19.7742
  51   2.0000      -0.722911       -19.6714
  52   2.0000      -0.709214       -19.2987
  53   2.0000      -0.691059       -18.8047
  54   2.0000      -0.675704       -18.3869
  55   2.0000      -0.632156       -17.2018
  56   2.0000      -0.620952       -16.8970
  57   2.0000      -0.602604       -16.3977
  58   2.0000      -0.596707       -16.2372
  59   2.0000      -0.588307       -16.0086
  60   2.0000      -0.526522       -14.3274
  61   2.0000      -0.517258       -14.0753
  62   2.0000      -0.495623       -13.4866
  63   2.0000      -0.491541       -13.3755
  64   2.0000      -0.475852       -12.9486
  65   2.0000      -0.463968       -12.6252
  66   2.0000      -0.454296       -12.3620
  67   2.0000      -0.446471       -12.1491
  68   2.0000      -0.438585       -11.9345
  69   2.0000      -0.433631       -11.7997
  70   2.0000      -0.416889       -11.3441
  71   2.0000      -0.412509       -11.2250
  72   2.0000      -0.407513       -11.0890
  73   2.0000      -0.394686       -10.7399
  74   2.0000      -0.392090       -10.6693
  75   2.0000      -0.391303       -10.6479
  76   2.0000      -0.381239       -10.3740
  77   2.0000      -0.372534       -10.1372
  78   2.0000      -0.367891       -10.0108
  79   2.0000      -0.363977        -9.9043
  80   2.0000      -0.355110        -9.6630
  81   2.0000      -0.353371        -9.6157
  82   2.0000      -0.349924        -9.5219
  83   2.0000      -0.346672        -9.4334
  84   2.0000      -0.342311        -9.3147
  85   2.0000      -0.335277        -9.1233
  86   2.0000      -0.322901        -8.7866
  87   2.0000      -0.310149        -8.4396
  88   2.0000      -0.305495        -8.3130
  89   2.0000      -0.302740        -8.2380
  90   2.0000      -0.299495        -8.1497
  91   2.0000      -0.291118        -7.9217
  92   2.0000      -0.285000        -7.7552
  93   2.0000      -0.279559        -7.6072
  94   2.0000      -0.275083        -7.4854
  95   2.0000      -0.249434        -6.7874
  96   2.0000      -0.238861        -6.4997
  97   2.0000      -0.237719        -6.4687
  98   2.0000      -0.230457        -6.2711
  99   2.0000      -0.225289        -6.1304
 100   2.0000      -0.217299        -5.9130
 101   0.0000      -0.053895        -1.4665
 102   0.0000      -0.031344        -0.8529
 103   0.0000      -0.006648        -0.1809
 104   0.0000       0.001352         0.0368
 105   0.0000       0.011574         0.3149

MULLIKEN ATOMIC CHARGES
-----------------------
   0 C :   -0.481553
   1 C :   -0.159989
   2 O :   -0.307329
   3 P :    0.657299
   4 S :   -0.493019
   5 O :   -0.293617
   6 C :   -0.074218
   7 C :   -0.529640
   8 S :   -0.158572
   9 C :   -0.253434
  10 S :   -0.142993
  11 P :    0.695974
  12 S :   -0.522675
  13 O :   -0.344358
  14 C :   -0.147275
  15 C :   -0.475167
  16 O :   -0.282330
  17 C :   -0.080693
  18 C :   -0.530670
  19 H :    0.168774
  20 H :    0.174287
  21 H :    0.173105
  22 H :    0.179899
  23 H :    0.176538
  24 H :    0.181925
  25 H :    0.170343
  26 H :    0.168322
  27 H :    0.171545
  28 H :    0.169801
  29 H :    0.231210
  30 H :    0.235676
  31 H :    0.175854
  32 H :    0.175397
  33 H :    0.171249
  34 H :    0.168179
  35 H :    0.169062
  36 H :    0.167915
  37 H :    0.181518
  38 H :    0.170874
  39 H :    0.173146
  40 H :    0.169641
Sum of atomic charges:   -0.0000000

LOEWDIN ATOMIC CHARGES
----------------------
   0 C :   -0.411187
   1 C :    0.029079
   2 O :   -0.674307
   3 P :    0.383790
   4 S :   -0.138828
   5 O :   -0.677754
   6 C :    0.025580
   7 C :   -0.393356
   8 S :    0.145469
   9 C :   -0.419344
  10 S :    0.162524
  11 P :    0.386496
  12 S :   -0.154660
  13 O :   -0.681508
  14 C :    0.031008
  15 C :   -0.399013
  16 O :   -0.677754
  17 C :    0.006554
  18 C :   -0.406158
  19 H :    0.163856
  20 H :    0.161856
  21 H :    0.168702
  22 H :    0.181998
  23 H :    0.191679
  24 H :    0.190453
  25 H :    0.183410
  26 H :    0.164168
  27 H :    0.169203
  28 H :    0.164440
  29 H :    0.196553
  30 H :    0.196536
  31 H :    0.189695
  32 H :    0.182108
  33 H :    0.169081
  34 H :    0.163704
  35 H :    0.164262
  36 H :    0.180217
  37 H :    0.188625
  38 H :    0.163254
  39 H :    0.161694
  40 H :    0.167875

  Mayer bond orders larger than 0.100000
B(  0-C ,  1-C ) :   0.9054 B(  0-C , 19-H ) :   0.9643 B(  0-C , 20-H ) :   0.9653
B(  0-C , 21-H ) :   0.9507 B(  1-C ,  2-O ) :   0.8061 B(  1-C , 22-H ) :   0.9671
B(  1-C , 23-H ) :   0.9501 B(  2-O ,  3-P ) :   1.0489 B(  3-P ,  4-S ) :   1.8176
B(  3-P ,  5-O ) :   1.1475 B(  3-P ,  8-S ) :   1.0202 B(  5-O ,  6-C ) :   0.7181
B(  6-C ,  7-C ) :   0.9396 B(  6-C , 24-H ) :   0.9443 B(  6-C , 25-H ) :   0.9538
B(  7-C , 26-H ) :   0.9713 B(  7-C , 27-H ) :   0.9586 B(  7-C , 28-H ) :   0.9701
B(  8-S ,  9-C ) :   0.8960 B(  9-C , 10-S ) :   0.8974 B(  9-C , 29-H ) :   0.9030
B(  9-C , 30-H ) :   0.9021 B( 10-S , 11-P ) :   1.1060 B( 11-P , 12-S ) :   1.7268
B( 11-P , 13-O ) :   1.1821 B( 11-P , 16-O ) :   1.0599 B( 13-O , 14-C ) :   0.7708
B( 14-C , 15-C ) :   0.9315 B( 14-C , 31-H ) :   0.9544 B( 14-C , 32-H ) :   0.9586
B( 15-C , 33-H ) :   0.9584 B( 15-C , 34-H ) :   0.9575 B( 15-C , 35-H ) :   0.9704
B( 16-O , 17-C ) :   0.7321 B( 17-C , 18-C ) :   0.9249 B( 17-C , 36-H ) :   0.9543
B( 17-C , 37-H ) :   0.9491 B( 18-C , 38-H ) :   0.9721 B( 18-C , 39-H ) :   0.9679
B( 18-C , 40-H ) :   0.9572

Dispersion correction           -0.021564556
FINAL SINGLE POINT ENERGY     -2932.472242286600

DIPOLE MOMENT
-------------

Method             : SCF
Type of density    : Electron Density
Multiplicity       :   1
Irrep              :   0
Energy             : -2932.4970998290359603 Eh
Relativity type    :
Basis              : AO
                                X                 Y                 Z
Electronic contribution:      6.426612225      17.492388560     -10.816037515
Nuclear contribution   :     -7.029457485     -20.228294113      11.968431925
                        -----------------------------------------
Total Dipole Moment    :     -0.602845260      -2.735905553       1.152394409
                        -----------------------------------------
Magnitude (a.u.)       :      3.029292735
Magnitude (Debye)      :      7.699850216

Rotational constants in cm-1:             0.013298             0.004632             0.004451
Rotational constants in MHz :           398.653246           138.876338           133.429474

                             ****ORCA TERMINATED NORMALLY****
TOTAL RUN TIME: 0 days 0 hours 1 minutes 49 seconds 513 msec
