                         Program Version 6.0.0  -   RELEASE  -
|  1> ! r2scan-3c def2/J RI DEFGRID2 scfconv6 printgap
|  2> %output
|  3>     printlevel normal
|  4> end
|  5> * xyz 0 1
|  6> C 1.8637349577 0.286681197 -0.0050143877
|  7> C 0.5745188783 -0.522224074 0.0111758962
|  8> C -0.6547064987 0.3222884833 -0.0130914917
|  9> O -1.7884532297 -0.0975596872 0.0077754153
| 10> H 2.7222034306 -0.3782441171 0.0127190589
| 11> H 1.9171434377 0.9394868293 0.8623687742
| 12> H 1.9209112026 0.897629789 -0.9021171626
| 13> H 0.5267672658 -1.1976013621 -0.8474521034
| 14> H 0.5225547393 -1.1581088139 0.8989531362
| 15> H -0.4737723725 1.4117671204 -0.0653151961
| 16> *
| 17>
| 18>                          ****END OF INPUT****

CARTESIAN COORDINATES (ANGSTROEM)
---------------------------------
  C      1.863735    0.286681   -0.005014
  C      0.574519   -0.522224    0.011176
  C     -0.654706    0.322288   -0.013091
  O     -1.788453   -0.097560    0.007775
  H      2.722203   -0.378244    0.012719
  H      1.917143    0.939487    0.862369
  H      1.920911    0.897630   -0.902117
  H      0.526767   -1.197601   -0.847452
  H      0.522555   -1.158109    0.898953
  H     -0.473772    1.411767   -0.065315

 Total Charge           Charge          ....    0
 Multiplicity           Mult            ....    1
 Number of Electrons    NEL             ....   32
 Basis Dimension        Dim             ....  111

ORBITAL ENERGIES
----------------

  NO   OCC          E(Eh)            E(eV)
   0   2.0000     -18.950426      -515.6673
   1   2.0000     -10.121837      -275.4292
   2   2.0000     -10.048108      -273.4229
   3   2.0000     -10.037873      -273.1444
   4   2.0000      -1.013578       -27.5809
   5   2.0000      -0.765226       -20.8229
   6   2.0000      -0.633266       -17.2321
   7   2.0000      -0.551327       -15.0024
   8   2.0000      -0.445224       -12.1152
   9   2.0000      -0.431619       -11.7450
  10   2.0000      -0.421380       -11.4663
  11   2.0000      -0.367722       -10.0062
  12   2.0000      -0.361148        -9.8273
  13   2.0000      -0.348400        -9.4804
  14   2.0000      -0.321483        -8.7480
  15   2.0000      -0.223554        -6.0832
  16   0.0000      -0.064348        -1.7510
  17   0.0000       0.093184         2.5357
  18   0.0000       0.111439         3.0324
  19   0.0000       0.116283         3.1642
  20   0.0000       0.142029         3.8648

MULLIKEN ATOMIC CHARGES
-----------------------
   0 C :   -0.496406
   1 C :   -0.173944
   2 C :    0.099710
   3 O :   -0.328731
   4 H :    0.152708
   5 H :    0.150421
   6 H :    0.150129
   7 H :    0.169103
   8 H :    0.169080
   9 H :    0.107931
Sum of atomic charges:    0.0000000

LOEWDIN ATOMIC CHARGES
----------------------
   0 C :   -0.424041
   1 C :   -0.311660
   2 C :    0.203824
   3 O :   -0.445878
   4 H :    0.156601
   5 H :    0.154314
   6 H :    0.154206
   7 H :    0.181931
   8 H :    0.181502
   9 H :    0.149201

  Mayer bond orders larger than 0.100000
B(  0-C ,  1-C ) :   0.8748 B(  0-C ,  4-H ) :   0.9671 B(  0-C ,  5-H ) :   0.9777
B(  0-C ,  6-H ) :   0.9773 B(  1-C ,  2-C ) :   0.8747 B(  1-C ,  7-H ) :   0.9410
B(  1-C ,  8-H ) :   0.9420 B(  2-C ,  3-O ) :   1.9314 B(  2-C ,  9-H ) :   0.9874

Dispersion correction           -0.001691587
FINAL SINGLE POINT ENERGY      -193.091161029827

DIPOLE MOMENT
-------------

Method             : SCF
Type of density    : Electron Density
Multiplicity       :   1
Irrep              :   0
Energy             :  -193.0941530683911083 Eh
Relativity type    :
Basis              : AO
                                X                 Y                 Z
Electronic contribution:     -5.536000985      -0.341851297       0.024748906
Nuclear contribution   :      6.668039303       0.481642793      -0.038202690
                        -----------------------------------------
Total Dipole Moment    :      1.132038318       0.139791496      -0.013453784
                        -----------------------------------------
Magnitude (a.u.)       :      1.140716187
Magnitude (Debye)      :      2.899470124

Rotational constants in cm-1:             1.101410             0.139412             0.129668
Rotational constants in MHz :         33019.444088          4179.473473          3887.362395

                             ****ORCA TERMINATED NORMALLY****
TOTAL RUN TIME: 0 days 0 hours 0 minutes 10 seconds 775 msec
