                         Program Version 6.0.0  -   RELEASE  -
|  1> ! r2scan-3c def2/J RI DEFGRID2 scfconv6 printgap
|  2> %output
|  3>     printlevel normal
|  4> end
|  5> %cpcm
|  6>     smd true
|  7>     smdsolvent "water"
|  8> end
|  9> * xyz 0 1
| 10> C 1.8637349577 0.286681197 -0.0050143877
| 11> C 0.5745188783 -0.522224074 0.0111758962
| 12> C -0.6547064987 0.3222884833 -0.0130914917
| 13> O -1.7884532297 -0.0975596872 0.0077754153
| 14> H 2.7222034306 -0.3782441171 0.0127190589
| 15> H 1.9171434377 0.9394868293 0.8623687742
| 16> H 1.9209112026 0.897629789 -0.9021171626
| 17> H 0.5267672658 -1.1976013621 -0.8474521034
| 18> H 0.5225547393 -1.1581088139 0.8989531362
| 19> H -0.4737723725 1.4117671204 -0.0653151961
| 20> *
| 21>
| 22>                          ****END OF INPUT****

CARTESIAN COORDINATES (ANGSTROEM)
---------------------------------
  C      1.863735    0.286681   -0.005014
  C      0.574519   -0.522224    0.011176
  C     -0.654706    0.322288   -0.013091
  O     -1.788453   -0.097560    0.007775
  H      2.722203   -0.378244    0.012719
  H      1.917143    0.939487    0.862369
  H      1.920911    0.897630   -0.902117
  H      0.526767   -1.197601   -0.847452
  H      0.522555   -1.158109    0.898953
  H     -0.473772    1.411767   -0.065315

 Total Charge           Charge          ....    0
 Multiplicity           Mult            ....    1
 Number of Electrons    NEL             ....   32
 Basis Dimension        Dim             ....  111

ORBITAL ENERGIES
----------------

  NO   OCC          E(Eh)            E(eV)
   0   2.0000     -18.957189      -515.8513
   1   2.0000     -10.123341      -275.4701
   2   2.0000     -10.033140      -273.0156
   3   2.0000     -10.017086      -272.5788
   4   2.0000      -1.022445       -27.8221
   5   2.0000      -0.749620       -20.3982
   6   2.0000      -0.618634       -16.8339
   7   2.0000      -0.543083       -14.7780
   8   2.0000      -0.432431       -11.7671
   9   2.0000      -0.429980       -11.7003
  10   2.0000      -0.421805       -11.4779
  11   2.0000      -0.364051        -9.9063
  12   2.0000      -0.348573        -9.4852
  13   2.0000      -0.331550        -9.0219
  14   2.0000      -0.309819        -8.4306
  15   2.0000      -0.230118        -6.2618
  16   0.0000      -0.062707        -1.7063
  17   0.0000       0.114707         3.1213
  18   0.0000       0.116434         3.1683
  19   0.0000       0.133014         3.6195
  20   0.0000       0.153167         4.1679

MULLIKEN ATOMIC CHARGES
-----------------------
   0 C :   -0.528575
   1 C :   -0.199071
   2 C :    0.155910
   3 O :   -0.434669
   4 H :    0.164577
   5 H :    0.163394
   6 H :    0.163367
   7 H :    0.190007
   8 H :    0.189049
   9 H :    0.136011
Sum of atomic charges:    0.0000000

LOEWDIN ATOMIC CHARGES
----------------------
   0 C :   -0.425662
   1 C :   -0.307303
   2 C :    0.231309
   3 O :   -0.523203
   4 H :    0.160209
   5 H :    0.158559
   6 H :    0.158565
   7 H :    0.191238
   8 H :    0.190333
   9 H :    0.165955

  Mayer bond orders larger than 0.100000
B(  0-C ,  1-C ) :   0.8758 B(  0-C ,  4-H ) :   0.9645 B(  0-C ,  5-H ) :   0.9752
B(  0-C ,  6-H ) :   0.9748 B(  1-C ,  2-C ) :   0.9059 B(  1-C ,  7-H ) :   0.9331
B(  1-C ,  8-H ) :   0.9348 B(  2-C ,  3-O ) :   1.8643 B(  2-C ,  9-H ) :   0.9691

Dispersion correction           -0.001691587
FINAL SINGLE POINT ENERGY      -193.096602134681

DIPOLE MOMENT
-------------

Method             : SCF
Type of density    : Electron Density
Multiplicity       :   1
Irrep              :   0
Energy             :  -193.0995941732450092 Eh
Relativity type    :
Basis              : AO
                                X                 Y                 Z
Electronic contribution:     -5.140887448      -0.239330132       0.016813293
Nuclear contribution   :      6.668039303       0.481642793      -0.038202690
                        -----------------------------------------
Total Dipole Moment    :      1.527151855       0.242312661      -0.021389396
                        -----------------------------------------
Magnitude (a.u.)       :      1.546404126
Magnitude (Debye)      :      3.930646915

Rotational constants in cm-1:             1.101410             0.139412             0.129668
Rotational constants in MHz :         33019.444088          4179.473473          3887.362395

                             ****ORCA TERMINATED NORMALLY****
TOTAL RUN TIME: 0 days 0 hours 0 minutes 10 seconds 373 msec
