                         Program Version 6.0.0  -   RELEASE  -
|  1> ! pbe def2-sv(p) def2/J RI DEFGRID1 loosescf d4 GCP(DFT/SV(P)) printgap
|  2> %output
|  3>     printlevel normal
|  4> end
|  5> * xyz 0 1
|  6> C 5.9751693322 -1.0236579622 0.4412240264
|  7> C 4.6184195515 -1.3191404787 -0.1645953298
|  8> O 3.762406993 -0.1851127759 0.0942773353
|  9> P 2.4003361024 0.0168395702 -0.699833926
| 10> S 2.5335104487 -0.0303336541 -2.6489486842
| 11> O 1.916599924 1.4126333268 -0.1527774425
| 12> C 1.8144520133 1.7131552267 1.2626536442
| 13> C 0.8239490382 2.8466221826 1.4277425488
| 14> S 1.1518910556 -1.4696135733 0.1734739159
| 15> C -0.1290588376 -1.4533117371 -1.1060736319
| 16> S -0.8555846979 0.1900626254 -1.3887035856
| 17> P -2.2100000326 0.2376144279 0.241502011
| 18> S -3.1942199558 1.9186933611 0.4370169316
| 19> O -1.2652978487 -0.1705196973 1.4401885927
| 20> C -1.6130285899 0.1210633654 2.8121038001
| 21> C -2.8121952352 -0.6825434102 3.2659809598
| 22> O -3.0739237192 -1.0933271693 0.0559227754
| 23> C -4.1533279814 -1.1610379472 -0.8949523019
| 24> C -5.4802787207 -0.8683270052 -0.2217022129
| 25> H 6.6340016182 -1.8675264992 0.2653395604
| 26> H 6.401755703 -0.1347791751 -0.0150149924
| 27> H 5.87744456 -0.8592624507 1.5102738263
| 28> H 4.1594593255 -2.2011213988 0.28971154
| 29> H 4.6830025598 -1.4644107773 -1.2477320579
| 30> H 1.4864348537 0.8109168443 1.78826493
| 31> H 2.808965855 1.9949573595 1.6124672544
| 32> H 1.1504264963 3.7128029246 0.8594286988
| 33> H -0.1592330644 2.5526261208 1.0631655057
| 34> H 0.7507180644 3.1099628895 2.4780075072
| 35> H -0.8993438942 -2.1520450599 -0.789672102
| 36> H 0.3153789065 -1.742828072 -2.0575626534
| 37> H -0.7130806481 -0.1420743332 3.369332537
| 38> H -1.8110783948 1.1938433378 2.8988511972
| 39> H -3.694431722 -0.3713764415 2.7083432461
| 40> H -2.6416243647 -1.7421254761 3.0953223353
| 41> H -2.9832890566 -0.5080863056 4.3235901358
| 42> H -3.9637015747 -0.4542075232 -1.7092706467
| 43> H -4.1236623631 -2.1807970114 -1.2838181041
| 44> H -5.6385129433 -1.5546012863 0.6054201912
| 45> H -5.4927039227 0.1516623613 0.156417105
| 46> H -6.2813762761 -0.9857144548 -0.9442640683
| 47> *
| 48>
| 49>                          ****END OF INPUT****

CARTESIAN COORDINATES (ANGSTROEM)
---------------------------------
  C      5.975169   -1.023658    0.441224
  C      4.618420   -1.319140   -0.164595
  O      3.762407   -0.185113    0.094277
  P      2.400336    0.016840   -0.699834
  S      2.533510   -0.030334   -2.648949
  O      1.916600    1.412633   -0.152777
  C      1.814452    1.713155    1.262654
  C      0.823949    2.846622    1.427743
  S      1.151891   -1.469614    0.173474
  C     -0.129059   -1.453312   -1.106074
  S     -0.855585    0.190063   -1.388704
  P     -2.210000    0.237614    0.241502
  S     -3.194220    1.918693    0.437017
  O     -1.265298   -0.170520    1.440189
  C     -1.613029    0.121063    2.812104
  C     -2.812195   -0.682543    3.265981
  O     -3.073924   -1.093327    0.055923
  C     -4.153328   -1.161038   -0.894952
  C     -5.480279   -0.868327   -0.221702
  H      6.634002   -1.867526    0.265340
  H      6.401756   -0.134779   -0.015015
  H      5.877445   -0.859262    1.510274
  H      4.159459   -2.201121    0.289712
  H      4.683003   -1.464411   -1.247732
  H      1.486435    0.810917    1.788265
  H      2.808966    1.994957    1.612467
  H      1.150426    3.712803    0.859429
  H     -0.159233    2.552626    1.063166
  H      0.750718    3.109963    2.478008
  H     -0.899344   -2.152045   -0.789672
  H      0.315379   -1.742828   -2.057563
  H     -0.713081   -0.142074    3.369333
  H     -1.811078    1.193843    2.898851
  H     -3.694432   -0.371376    2.708343
  H     -2.641624   -1.742125    3.095322
  H     -2.983289   -0.508086    4.323590
  H     -3.963702   -0.454208   -1.709271
  H     -4.123662   -2.180797   -1.283818
  H     -5.638513   -1.554601    0.605420
  H     -5.492704    0.151662    0.156417
  H     -6.281376   -0.985714   -0.944264

 Total Charge           Charge          ....    0
 Multiplicity           Mult            ....    1
 Number of Electrons    NEL             ....  202
 Basis Dimension        Dim             ....  334

ORBITAL ENERGIES
----------------

  NO   OCC          E(Eh)            E(eV)
   0   2.0000     -88.042403     -2395.7556
   1   2.0000     -88.039266     -2395.6702
   2   2.0000     -87.993154     -2394.4154
   3   2.0000     -87.982775     -2394.1330
   4   2.0000     -76.430260     -2079.7731
   5   2.0000     -76.423526     -2079.5899
   6   2.0000     -18.797734      -511.5123
   7   2.0000     -18.797118      -511.4956
   8   2.0000     -18.793735      -511.4035
   9   2.0000     -18.788488      -511.2608
  10   2.0000      -9.959157      -271.0024
  11   2.0000      -9.958929      -270.9962
  12   2.0000      -9.956833      -270.9392
  13   2.0000      -9.953821      -270.8572
  14   2.0000      -9.950561      -270.7685
  15   2.0000      -9.889896      -269.1177
  16   2.0000      -9.889634      -269.1106
  17   2.0000      -9.885427      -268.9961
  18   2.0000      -9.879380      -268.8316
  19   2.0000      -7.687200      -209.1793
  20   2.0000      -7.684433      -209.1041
  21   2.0000      -7.638161      -207.8449
  22   2.0000      -7.628105      -207.5713
  23   2.0000      -6.427811      -174.9096
  24   2.0000      -6.420971      -174.7235
  25   2.0000      -5.715440      -155.5250
  26   2.0000      -5.712172      -155.4361
  27   2.0000      -5.711529      -155.4186
  28   2.0000      -5.708967      -155.3489
  29   2.0000      -5.704036      -155.2147
  30   2.0000      -5.701504      -155.1458
  31   2.0000      -5.667063      -154.2086
  32   2.0000      -5.658767      -153.9829
  33   2.0000      -5.658375      -153.9722
  34   2.0000      -5.657098      -153.9375
  35   2.0000      -5.648675      -153.7083
  36   2.0000      -5.648217      -153.6958
  37   2.0000      -4.650281      -126.5406
  38   2.0000      -4.649816      -126.5279
  39   2.0000      -4.648147      -126.4825
  40   2.0000      -4.643828      -126.3650
  41   2.0000      -4.642810      -126.3373
  42   2.0000      -4.641134      -126.2917
  43   2.0000      -0.992934       -27.0191
  44   2.0000      -0.986750       -26.8508
  45   2.0000      -0.951774       -25.8991
  46   2.0000      -0.942692       -25.6520
  47   2.0000      -0.763527       -20.7766
  48   2.0000      -0.723493       -19.6872
  49   2.0000      -0.711428       -19.3589
  50   2.0000      -0.691977       -18.8296
  51   2.0000      -0.689565       -18.7640
  52   2.0000      -0.675261       -18.3748
  53   2.0000      -0.654000       -17.7963
  54   2.0000      -0.637057       -17.3352
  55   2.0000      -0.601479       -16.3671
  56   2.0000      -0.583713       -15.8836
  57   2.0000      -0.574173       -15.6240
  58   2.0000      -0.566899       -15.4261
  59   2.0000      -0.565659       -15.3924
  60   2.0000      -0.511201       -13.9105
  61   2.0000      -0.505042       -13.7429
  62   2.0000      -0.481233       -13.0950
  63   2.0000      -0.480949       -13.0873
  64   2.0000      -0.462578       -12.5874
  65   2.0000      -0.445761       -12.1298
  66   2.0000      -0.442624       -12.0444
  67   2.0000      -0.438013       -11.9189
  68   2.0000      -0.430870       -11.7246
  69   2.0000      -0.413236       -11.2447
  70   2.0000      -0.409049       -11.1308
  71   2.0000      -0.405084       -11.0229
  72   2.0000      -0.394694       -10.7402
  73   2.0000      -0.388410       -10.5692
  74   2.0000      -0.376310       -10.2399
  75   2.0000      -0.367793       -10.0082
  76   2.0000      -0.364754        -9.9255
  77   2.0000      -0.364162        -9.9093
  78   2.0000      -0.357252        -9.7213
  79   2.0000      -0.354486        -9.6461
  80   2.0000      -0.348218        -9.4755
  81   2.0000      -0.346744        -9.4354
  82   2.0000      -0.342301        -9.3145
  83   2.0000      -0.336764        -9.1638
  84   2.0000      -0.333037        -9.0624
  85   2.0000      -0.323855        -8.8125
  86   2.0000      -0.312650        -8.5077
  87   2.0000      -0.301459        -8.2031
  88   2.0000      -0.300263        -8.1706
  89   2.0000      -0.297805        -8.1037
  90   2.0000      -0.295625        -8.0444
  91   2.0000      -0.280869        -7.6428
  92   2.0000      -0.270161        -7.3514
  93   2.0000      -0.265425        -7.2226
  94   2.0000      -0.257327        -7.0022
  95   2.0000      -0.232545        -6.3279
  96   2.0000      -0.219970        -5.9857
  97   2.0000      -0.211528        -5.7560
  98   2.0000      -0.207045        -5.6340
  99   2.0000      -0.201827        -5.4920
 100   2.0000      -0.196962        -5.3596
 101   0.0000      -0.040849        -1.1116
 102   0.0000      -0.024068        -0.6549
 103   0.0000      -0.006327        -0.1722
 104   0.0000       0.006623         0.1802
 105   0.0000       0.007104         0.1933

MULLIKEN ATOMIC CHARGES
-----------------------
   0 C :   -0.279935
   1 C :   -0.010199
   2 O :   -0.388271
   3 P :    0.599738
   4 S :   -0.313301
   5 O :   -0.350992
   6 C :   -0.017504
   7 C :   -0.294665
   8 S :   -0.098542
   9 C :   -0.359927
  10 S :   -0.042078
  11 P :    0.591960
  12 S :   -0.313293
  13 O :   -0.369139
  14 C :   -0.016513
  15 C :   -0.304591
  16 O :   -0.378947
  17 C :   -0.012382
  18 C :   -0.293997
  19 H :    0.112595
  20 H :    0.122412
  21 H :    0.113696
  22 H :    0.101775
  23 H :    0.106538
  24 H :    0.107008
  25 H :    0.104736
  26 H :    0.120264
  27 H :    0.134297
  28 H :    0.102559
  29 H :    0.181142
  30 H :    0.195551
  31 H :    0.107881
  32 H :    0.115905
  33 H :    0.128696
  34 H :    0.117614
  35 H :    0.113117
  36 H :    0.105712
  37 H :    0.105614
  38 H :    0.114019
  39 H :    0.130554
  40 H :    0.110893
Sum of atomic charges:    0.0000000

LOEWDIN ATOMIC CHARGES
----------------------
   0 C :   -0.350361
   1 C :   -0.119699
   2 O :   -0.253557
   3 P :    0.563772
   4 S :   -0.314600
   5 O :   -0.231190
   6 C :   -0.115233
   7 C :   -0.355471
   8 S :    0.066802
   9 C :   -0.480040
  10 S :    0.107157
  11 P :    0.563991
  12 S :   -0.312984
  13 O :   -0.239139
  14 C :   -0.116263
  15 C :   -0.364644
  16 O :   -0.251483
  17 C :   -0.117700
  18 C :   -0.363385
  19 H :    0.131201
  20 H :    0.129915
  21 H :    0.125539
  22 H :    0.107878
  23 H :    0.110195
  24 H :    0.102359
  25 H :    0.113555
  26 H :    0.130343
  27 H :    0.121782
  28 H :    0.126455
  29 H :    0.131400
  30 H :    0.134102
  31 H :    0.117582
  32 H :    0.112487
  33 H :    0.123944
  34 H :    0.126998
  35 H :    0.131556
  36 H :    0.109876
  37 H :    0.117253
  38 H :    0.124603
  39 H :    0.124735
  40 H :    0.130268

  Mayer bond orders larger than 0.100000
B(  0-C ,  1-C ) :   1.1599 B(  0-C , 19-H ) :   0.9419 B(  0-C , 20-H ) :   0.9508
B(  0-C , 21-H ) :   0.9511 B(  1-C ,  2-O ) :   0.9049 B(  1-C , 22-H ) :   0.9283
B(  1-C , 23-H ) :   0.9113 B(  2-O ,  3-P ) :   1.0831 B(  3-P ,  4-S ) :   1.6477
B(  3-P ,  5-O ) :   1.1416 B(  3-P ,  8-S ) :   0.9592 B(  4-S ,  8-S ) :   0.1103
B(  5-O ,  6-C ) :   0.8881 B(  6-C ,  7-C ) :   1.1662 B(  6-C , 24-H ) :   0.9092
B(  6-C , 25-H ) :   0.9303 B(  7-C , 26-H ) :   0.9470 B(  7-C , 27-H ) :   0.9280
B(  7-C , 28-H ) :   0.9393 B(  8-S ,  9-C ) :   0.9975 B(  9-C , 10-S ) :   0.9887
B(  9-C , 29-H ) :   0.8954 B(  9-C , 30-H ) :   0.8861 B( 10-S , 11-P ) :   0.9823
B( 11-P , 12-S ) :   1.6184 B( 11-P , 13-O ) :   1.1135 B( 11-P , 16-O ) :   1.0681
B( 13-O , 14-C ) :   0.8996 B( 14-C , 15-C ) :   1.1689 B( 14-C , 31-H ) :   0.9296
B( 14-C , 32-H ) :   0.9161 B( 15-C , 33-H ) :   0.9332 B( 15-C , 34-H ) :   0.9457
B( 15-C , 35-H ) :   0.9370 B( 16-O , 17-C ) :   0.9033 B( 17-C , 18-C ) :   1.1706
B( 17-C , 36-H ) :   0.9129 B( 17-C , 37-H ) :   0.9346 B( 18-C , 38-H ) :   0.9451
B( 18-C , 39-H ) :   0.9314 B( 18-C , 40-H ) :   0.9395

Dispersion correction           -0.064853374
FINAL SINGLE POINT ENERGY     -2929.523657628287

DIPOLE MOMENT
-------------

Method             : SCF
Type of density    : Electron Density
Multiplicity       :   1
Irrep              :   0
Energy             : -2929.6440600530509073 Eh
Relativity type    :
Basis              : AO
                                X                 Y                 Z
Electronic contribution:      3.934158588       3.443745237     -16.780677799
Nuclear contribution   :     -4.018499990      -4.780812774      18.333331997
                        -----------------------------------------
Total Dipole Moment    :     -0.084341402      -1.337067537       1.552654198
                        -----------------------------------------
Magnitude (a.u.)       :      2.050755502
Magnitude (Debye)      :      5.212606232

Rotational constants in cm-1:             0.014096             0.004556             0.004285
Rotational constants in MHz :           422.599618           136.583881           128.459952

                             ****ORCA TERMINATED NORMALLY****
TOTAL RUN TIME: 0 days 0 hours 0 minutes 21 seconds 309 msec
