                         Program Version 6.0.0  -   RELEASE  -
|  1> ! pbe def2-sv(p) def2/J RI DEFGRID1 loosescf d4 GCP(DFT/SV(P)) printgap
|  2> %output
|  3>     printlevel normal
|  4> end
|  5> * xyz 0 1
|  6> C 5.5060177078 0.523390856 -0.5782730537
|  7> C 4.846606366 -0.8329975079 -0.7098394384
|  8> O 3.6577068986 -0.9259491779 0.0997120089
|  9> P 2.3454412717 -0.1057277511 -0.2317439459
| 10> S 2.0241855823 0.1460238165 -2.1539883866
| 11> O 2.5727315133 1.1764351091 0.6827620788
| 12> C 1.6204638942 2.2301171535 0.8988555411
| 13> C 1.6680728723 3.26318391 -0.2093447389
| 14> S 0.9489504381 -1.2545604772 0.8533815504
| 15> C -0.0700066451 -1.9071356492 -0.5206215283
| 16> S -1.8123182366 -1.991119753 -0.0728920103
| 17> P -2.1497513332 0.1004894438 0.1900282756
| 18> S -1.3223609253 1.2992514059 -1.113725072
| 19> O -1.6626832912 0.4236996586 1.6553335568
| 20> C -2.094299927 -0.2985979161 2.8359323614
| 21> C -3.2524687609 0.4095061027 3.5077633681
| 22> O -3.7308586959 0.201164487 0.3142433533
| 23> C -4.5930403907 0.3565857793 -0.8273623965
| 24> C -4.5795869962 -0.8584013232 -1.7318470245
| 25> H 6.4394293769 0.5281336876 -1.1322722171
| 26> H 4.8473753314 1.2902767815 -0.9848219241
| 27> H 5.7006542699 0.7469737238 0.4672921036
| 28> H 5.4823552913 -1.63479758 -0.3326313102
| 29> H 4.5725126754 -1.0297115211 -1.7513495062
| 30> H 0.6157378613 1.8043872497 0.9884059924
| 31> H 1.917360232 2.6613918922 1.856883943
| 32> H 1.3429302332 2.8237853016 -1.150748852
| 33> H 0.9977180405 4.0804019663 0.0368182438
| 34> H 2.678727425 3.6448302256 -0.3259637386
| 35> H 0.2375149796 -2.9258300248 -0.7426010896
| 36> H 0.0636248588 -1.2539477605 -1.3884587586
| 37> H -2.3650161871 -1.3180025899 2.5477549228
| 38> H -1.2096924531 -0.3219140889 3.4752471521
| 39> H -2.9796398875 1.4356669792 3.738592591
| 40> H -4.1208783546 0.4150746392 2.8546940286
| 41> H -3.4986439188 -0.1118575557 4.4275157323
| 42> H -5.5780900488 0.5197460666 -0.3878401578
| 43> H -4.2786952538 1.2492793684 -1.376820621
| 44> H -3.6106419632 -0.9503975735 -2.2201785016
| 45> H -4.7695169489 -1.7612479973 -1.1569745934
| 46> H -5.3452183446 -0.7458977285 -2.4927961641
| 47> *
| 48>
| 49>                          ****END OF INPUT****

CARTESIAN COORDINATES (ANGSTROEM)
---------------------------------
  C      5.506018    0.523391   -0.578273
  C      4.846606   -0.832998   -0.709839
  O      3.657707   -0.925949    0.099712
  P      2.345441   -0.105728   -0.231744
  S      2.024186    0.146024   -2.153988
  O      2.572732    1.176435    0.682762
  C      1.620464    2.230117    0.898856
  C      1.668073    3.263184   -0.209345
  S      0.948950   -1.254560    0.853382
  C     -0.070007   -1.907136   -0.520622
  S     -1.812318   -1.991120   -0.072892
  P     -2.149751    0.100489    0.190028
  S     -1.322361    1.299251   -1.113725
  O     -1.662683    0.423700    1.655334
  C     -2.094300   -0.298598    2.835932
  C     -3.252469    0.409506    3.507763
  O     -3.730859    0.201164    0.314243
  C     -4.593040    0.356586   -0.827362
  C     -4.579587   -0.858401   -1.731847
  H      6.439429    0.528134   -1.132272
  H      4.847375    1.290277   -0.984822
  H      5.700654    0.746974    0.467292
  H      5.482355   -1.634798   -0.332631
  H      4.572513   -1.029712   -1.751350
  H      0.615738    1.804387    0.988406
  H      1.917360    2.661392    1.856884
  H      1.342930    2.823785   -1.150749
  H      0.997718    4.080402    0.036818
  H      2.678727    3.644830   -0.325964
  H      0.237515   -2.925830   -0.742601
  H      0.063625   -1.253948   -1.388459
  H     -2.365016   -1.318003    2.547755
  H     -1.209692   -0.321914    3.475247
  H     -2.979640    1.435667    3.738593
  H     -4.120878    0.415075    2.854694
  H     -3.498644   -0.111858    4.427516
  H     -5.578090    0.519746   -0.387840
  H     -4.278695    1.249279   -1.376821
  H     -3.610642   -0.950398   -2.220179
  H     -4.769517   -1.761248   -1.156975
  H     -5.345218   -0.745898   -2.492796

 Total Charge           Charge          ....    0
 Multiplicity           Mult            ....    1
 Number of Electrons    NEL             ....  202
 Basis Dimension        Dim             ....  334

ORBITAL ENERGIES
----------------

  NO   OCC          E(Eh)            E(eV)
   0   2.0000     -88.047607     -2395.8972
   1   2.0000     -88.037853     -2395.6318
   2   2.0000     -87.986227     -2394.2270
   3   2.0000     -87.983139     -2394.1429
   4   2.0000     -76.428945     -2079.7373
   5   2.0000     -76.420580     -2079.5097
   6   2.0000     -18.798866      -511.5432
   7   2.0000     -18.794624      -511.4277
   8   2.0000     -18.785187      -511.1709
   9   2.0000     -18.781010      -511.0573
  10   2.0000      -9.957098      -270.9464
  11   2.0000      -9.956391      -270.9272
  12   2.0000      -9.952908      -270.8324
  13   2.0000      -9.945179      -270.6221
  14   2.0000      -9.939989      -270.4809
  15   2.0000      -9.888090      -269.0686
  16   2.0000      -9.887232      -269.0453
  17   2.0000      -9.878073      -268.7960
  18   2.0000      -9.868287      -268.5297
  19   2.0000      -7.692428      -209.3216
  20   2.0000      -7.683028      -209.0658
  21   2.0000      -7.631151      -207.6542
  22   2.0000      -7.627966      -207.5675
  23   2.0000      -6.426214      -174.8662
  24   2.0000      -6.418190      -174.6478
  25   2.0000      -5.720289      -155.6570
  26   2.0000      -5.716772      -155.5613
  27   2.0000      -5.710926      -155.4022
  28   2.0000      -5.709630      -155.3669
  29   2.0000      -5.707651      -155.3131
  30   2.0000      -5.699812      -155.0998
  31   2.0000      -5.660085      -154.0187
  32   2.0000      -5.656765      -153.9284
  33   2.0000      -5.651541      -153.7863
  34   2.0000      -5.651495      -153.7850
  35   2.0000      -5.648801      -153.7117
  36   2.0000      -5.648028      -153.6907
  37   2.0000      -4.649109      -126.5087
  38   2.0000      -4.647984      -126.4781
  39   2.0000      -4.646398      -126.4349
  40   2.0000      -4.640497      -126.2743
  41   2.0000      -4.639949      -126.2594
  42   2.0000      -4.638925      -126.2316
  43   2.0000      -0.991722       -26.9861
  44   2.0000      -0.978991       -26.6397
  45   2.0000      -0.949332       -25.8326
  46   2.0000      -0.936836       -25.4926
  47   2.0000      -0.761898       -20.7323
  48   2.0000      -0.720508       -19.6060
  49   2.0000      -0.707494       -19.2519
  50   2.0000      -0.693344       -18.8669
  51   2.0000      -0.677185       -18.4271
  52   2.0000      -0.672360       -18.2958
  53   2.0000      -0.651419       -17.7260
  54   2.0000      -0.634002       -17.2521
  55   2.0000      -0.598859       -16.2958
  56   2.0000      -0.590264       -16.0619
  57   2.0000      -0.577776       -15.7221
  58   2.0000      -0.562760       -15.3135
  59   2.0000      -0.559194       -15.2164
  60   2.0000      -0.503411       -13.6985
  61   2.0000      -0.489120       -13.3096
  62   2.0000      -0.477805       -13.0017
  63   2.0000      -0.464984       -12.6529
  64   2.0000      -0.451881       -12.2963
  65   2.0000      -0.445799       -12.1308
  66   2.0000      -0.440664       -11.9911
  67   2.0000      -0.431617       -11.7449
  68   2.0000      -0.428544       -11.6613
  69   2.0000      -0.415608       -11.3093
  70   2.0000      -0.405849       -11.0437
  71   2.0000      -0.395932       -10.7739
  72   2.0000      -0.393231       -10.7004
  73   2.0000      -0.384961       -10.4753
  74   2.0000      -0.380669       -10.3585
  75   2.0000      -0.369394       -10.0517
  76   2.0000      -0.366064        -9.9611
  77   2.0000      -0.359524        -9.7831
  78   2.0000      -0.355252        -9.6669
  79   2.0000      -0.350092        -9.5265
  80   2.0000      -0.346965        -9.4414
  81   2.0000      -0.342302        -9.3145
  82   2.0000      -0.335975        -9.1424
  83   2.0000      -0.332918        -9.0592
  84   2.0000      -0.324451        -8.8288
  85   2.0000      -0.318336        -8.6624
  86   2.0000      -0.307560        -8.3691
  87   2.0000      -0.298276        -8.1165
  88   2.0000      -0.294996        -8.0272
  89   2.0000      -0.286569        -7.7980
  90   2.0000      -0.278491        -7.5781
  91   2.0000      -0.275238        -7.4896
  92   2.0000      -0.267175        -7.2702
  93   2.0000      -0.265393        -7.2217
  94   2.0000      -0.256314        -6.9747
  95   2.0000      -0.235352        -6.4043
  96   2.0000      -0.220653        -6.0043
  97   2.0000      -0.211685        -5.7602
  98   2.0000      -0.204584        -5.5670
  99   2.0000      -0.195826        -5.3287
 100   2.0000      -0.189339        -5.1522
 101   0.0000      -0.041553        -1.1307
 102   0.0000      -0.032039        -0.8718
 103   0.0000      -0.010843        -0.2950
 104   0.0000       0.013227         0.3599
 105   0.0000       0.019247         0.5237

MULLIKEN ATOMIC CHARGES
-----------------------
   0 C :   -0.307201
   1 C :   -0.004300
   2 O :   -0.368497
   3 P :    0.627822
   4 S :   -0.319211
   5 O :   -0.374177
   6 C :   -0.025712
   7 C :   -0.301393
   8 S :   -0.106488
   9 C :   -0.350805
  10 S :   -0.105920
  11 P :    0.598684
  12 S :   -0.298235
  13 O :   -0.347228
  14 C :   -0.012659
  15 C :   -0.288856
  16 O :   -0.379257
  17 C :    0.000083
  18 C :   -0.322491
  19 H :    0.108931
  20 H :    0.125910
  21 H :    0.115763
  22 H :    0.102579
  23 H :    0.109130
  24 H :    0.126717
  25 H :    0.097162
  26 H :    0.140012
  27 H :    0.105212
  28 H :    0.107310
  29 H :    0.183099
  30 H :    0.212604
  31 H :    0.102753
  32 H :    0.110521
  33 H :    0.118281
  34 H :    0.121617
  35 H :    0.110279
  36 H :    0.105537
  37 H :    0.114443
  38 H :    0.133745
  39 H :    0.117964
  40 H :    0.116272
Sum of atomic charges:    0.0000000

LOEWDIN ATOMIC CHARGES
----------------------
   0 C :   -0.365055
   1 C :   -0.118169
   2 O :   -0.246407
   3 P :    0.568909
   4 S :   -0.297592
   5 O :   -0.241219
   6 C :   -0.121134
   7 C :   -0.364818
   8 S :    0.074596
   9 C :   -0.478865
  10 S :    0.080360
  11 P :    0.567529
  12 S :   -0.289486
  13 O :   -0.232867
  14 C :   -0.117830
  15 C :   -0.359464
  16 O :   -0.247028
  17 C :   -0.116548
  18 C :   -0.371446
  19 H :    0.128788
  20 H :    0.123134
  21 H :    0.126018
  22 H :    0.117552
  23 H :    0.108571
  24 H :    0.106619
  25 H :    0.114733
  26 H :    0.123453
  27 H :    0.128668
  28 H :    0.120870
  29 H :    0.135504
  30 H :    0.123822
  31 H :    0.102668
  32 H :    0.120164
  33 H :    0.128002
  34 H :    0.125893
  35 H :    0.129788
  36 H :    0.118680
  37 H :    0.113988
  38 H :    0.123595
  39 H :    0.123223
  40 H :    0.132799

  Mayer bond orders larger than 0.100000
B(  0-C ,  1-C ) :   1.1633 B(  0-C , 19-H ) :   0.9385 B(  0-C , 20-H ) :   0.9353
B(  0-C , 21-H ) :   0.9464 B(  1-C ,  2-O ) :   0.9135 B(  1-C , 22-H ) :   0.9348
B(  1-C , 23-H ) :   0.9145 B(  2-O ,  3-P ) :   1.1282 B(  3-P ,  4-S ) :   1.6093
B(  3-P ,  5-O ) :   1.1166 B(  3-P ,  8-S ) :   0.9588 B(  4-S ,  8-S ) :   0.1204
B(  5-O ,  6-C ) :   0.9017 B(  6-C ,  7-C ) :   1.1706 B(  6-C , 24-H ) :   0.9027
B(  6-C , 25-H ) :   0.9355 B(  7-C , 26-H ) :   0.9305 B(  7-C , 27-H ) :   0.9393
B(  7-C , 28-H ) :   0.9460 B(  8-S ,  9-C ) :   0.9934 B(  9-C , 10-S ) :   1.0041
B(  9-C , 29-H ) :   0.9098 B(  9-C , 30-H ) :   0.8455 B( 10-S , 11-P ) :   0.9406
B( 10-S , 12-S ) :   0.1074 B( 11-P , 12-S ) :   1.6477 B( 11-P , 13-O ) :   1.1252
B( 11-P , 16-O ) :   1.0854 B( 13-O , 14-C ) :   0.8916 B( 14-C , 15-C ) :   1.1643
B( 14-C , 31-H ) :   0.9098 B( 14-C , 32-H ) :   0.9338 B( 15-C , 33-H ) :   0.9475
B( 15-C , 34-H ) :   0.9418 B( 15-C , 35-H ) :   0.9399 B( 16-O , 17-C ) :   0.9034
B( 17-C , 18-C ) :   1.1666 B( 17-C , 36-H ) :   0.9340 B( 17-C , 37-H ) :   0.9179
B( 18-C , 38-H ) :   0.9347 B( 18-C , 39-H ) :   0.9434 B( 18-C , 40-H ) :   0.9368

Dispersion correction           -0.066119496
FINAL SINGLE POINT ENERGY     -2929.522347706619

DIPOLE MOMENT
-------------

Method             : SCF
Type of density    : Electron Density
Multiplicity       :   1
Irrep              :   0
Energy             : -2929.6411921497747244 Eh
Relativity type    :
Basis              : AO
                                X                 Y                 Z
Electronic contribution:      2.106281598      -8.981536799      -3.853179462
Nuclear contribution   :     -2.841037638       8.650602803       4.793743168
                        -----------------------------------------
Total Dipole Moment    :     -0.734756040      -0.330933996       0.940563706
                        -----------------------------------------
Magnitude (a.u.)       :      1.238565232
Magnitude (Debye)      :      3.148182629

Rotational constants in cm-1:             0.013689             0.004718             0.004646
Rotational constants in MHz :           410.397985           141.447102           139.283494

                             ****ORCA TERMINATED NORMALLY****
TOTAL RUN TIME: 0 days 0 hours 0 minutes 20 seconds 911 msec
