                         Program Version 6.0.0  -   RELEASE  -
|  1> ! pbe def2-sv(p) def2/J RI DEFGRID1 loosescf d4 GCP(DFT/SV(P)) printgap
|  2> %output
|  3>     printlevel normal
|  4> end
|  5> * xyz 0 1
|  6> C -1.6348368376 -0.474601013 7.43e-07
|  7> C -0.601761901 0.6561539188 4.7524e-06
|  8> C 0.7360774462 0.1351063071 -1.5148e-05
|  9> N 1.7985646269 -0.2941208449 7.3639e-06
| 10> H -1.517662625 -1.0992439195 0.8822236964
| 11> H -2.6356749419 -0.0525714281 -9.20154e-05
| 12> H -1.5175356683 -1.0993679414 -0.8821260118
| 13> H -0.721108292 1.2825252934 0.8874389312
| 14> H -0.7211310026 1.2825189099 -0.8874319109
| 15> *
| 16>
| 17>                          ****END OF INPUT****

CARTESIAN COORDINATES (ANGSTROEM)
---------------------------------
  C     -1.634837   -0.474601    0.000001
  C     -0.601762    0.656154    0.000005
  C      0.736077    0.135106   -0.000015
  N      1.798565   -0.294121    0.000007
  H     -1.517663   -1.099244    0.882224
  H     -2.635675   -0.052571   -0.000092
  H     -1.517536   -1.099368   -0.882126
  H     -0.721108    1.282525    0.887439
  H     -0.721131    1.282519   -0.887432

 Total Charge           Charge          ....    0
 Multiplicity           Mult            ....    1
 Number of Electrons    NEL             ....   30
 Basis Dimension        Dim             ....   66

ORBITAL ENERGIES
----------------

  NO   OCC          E(Eh)            E(eV)
   0   2.0000     -13.977049      -380.3348
   1   2.0000      -9.940885      -270.5052
   2   2.0000      -9.924824      -270.0682
   3   2.0000      -9.907040      -269.5843
   4   2.0000      -0.814057       -22.1516
   5   2.0000      -0.733949       -19.9718
   6   2.0000      -0.607642       -16.5348
   7   2.0000      -0.469427       -12.7737
   8   2.0000      -0.443719       -12.0742
   9   2.0000      -0.389157       -10.5895
  10   2.0000      -0.355323        -9.6688
  11   2.0000      -0.348745        -9.4898
  12   2.0000      -0.294463        -8.0127
  13   2.0000      -0.288193        -7.8421
  14   2.0000      -0.287374        -7.8198
  15   0.0000      -0.001677        -0.0456
  16   0.0000       0.007159         0.1948
  17   0.0000       0.037456         1.0192
  18   0.0000       0.075115         2.0440
  19   0.0000       0.078354         2.1321

MULLIKEN ATOMIC CHARGES
-----------------------
   0 C :   -0.300638
   1 C :   -0.147665
   2 C :   -0.253659
   3 N :    0.051681
   4 H :    0.130157
   5 H :    0.122094
   6 H :    0.130160
   7 H :    0.133938
   8 H :    0.133932
Sum of atomic charges:    0.0000000

LOEWDIN ATOMIC CHARGES
----------------------
   0 C :   -0.325225
   1 C :   -0.248173
   2 C :   -0.058254
   3 N :   -0.068246
   4 H :    0.131555
   5 H :    0.127819
   6 H :    0.131557
   7 H :    0.154484
   8 H :    0.154484

  Mayer bond orders larger than 0.100000
B(  0-C ,  1-C ) :   1.1418 B(  0-C ,  4-H ) :   0.9540 B(  0-C ,  5-H ) :   0.9502
B(  0-C ,  6-H ) :   0.9540 B(  1-C ,  2-C ) :   1.1848 B(  1-C ,  7-H ) :   0.8854
B(  1-C ,  8-H ) :   0.8854 B(  2-C ,  3-N ) :   3.0598

Dispersion correction           -0.004737127
FINAL SINGLE POINT ENERGY      -171.669490441220

DIPOLE MOMENT
-------------

Method             : SCF
Type of density    : Electron Density
Multiplicity       :   1
Irrep              :   0
Energy             :  -171.6965815240346842 Eh
Relativity type    :
Basis              : AO
                                X                 Y                 Z
Electronic contribution:      5.276358116       0.165382802      -0.000014832
Nuclear contribution   :     -6.663426140       0.292836013       0.000011946
                        -----------------------------------------
Total Dipole Moment    :     -1.387068023       0.458218815      -0.000002886
                        -----------------------------------------
Magnitude (a.u.)       :      1.460795052
Magnitude (Debye)      :      3.713045941

Rotational constants in cm-1:             0.925264             0.161907             0.145293
Rotational constants in MHz :         27738.710345          4853.842323          4355.760183

                             ****ORCA TERMINATED NORMALLY****
TOTAL RUN TIME: 0 days 0 hours 0 minutes 4 seconds 287 msec
