                         Program Version 6.0.0  -   RELEASE  -
|  1> ! pbe def2-sv(p) def2/J RI DEFGRID1 loosescf d4 GCP(DFT/SV(P)) printgap
|  2> %output
|  3>     printlevel normal
|  4> end
|  5> * xyz 0 1
|  6> C 2.1860169146 2.0207231666 -1.5859610671
|  7> C 2.5172946287 2.3406391013 -0.1430795189
|  8> O 1.8501610817 1.4597724989 0.7952621272
|  9> P 2.0917195509 -0.0966174472 0.9181559621
| 10> S 1.5736312573 -0.7307907706 2.6953793271
| 11> O 3.6238750205 -0.1984932503 0.5023302675
| 12> C 4.3238070537 -1.4366714972 0.2820523176
| 13> C 4.7349204588 -2.0986041947 1.5822876853
| 14> S 1.0853749209 -1.0537956064 -0.710047292
| 15> C -0.2159250798 -1.9222497826 0.1948681268
| 16> S -1.4812453615 -0.8368103122 0.908731981
| 17> P -2.0437166426 0.1715150033 -0.890597499
| 18> S -1.8471536693 -0.7979541639 -2.5734728582
| 19> O -1.2065887684 1.5141360308 -0.8505477902
| 20> C -1.3659746964 2.4827951156 0.2158560037
| 21> C -2.1752655768 3.6673223437 -0.2687937383
| 22> O -3.5118326998 0.6944971065 -0.5698612319
| 23> C -4.6854757211 -0.0850878869 -0.8619641882
| 24> C -4.761042517 -1.3508695611 -0.0333876288
| 25> H 2.6203275904 2.782284234 -2.226207819
| 26> H 2.5933459622 1.0505810525 -1.8658917876
| 27> H 1.109221462 1.9979107705 -1.7402043669
| 28> H 2.157138783 3.3308132932 0.1417824788
| 29> H 3.5919138478 2.2742197645 0.0340573962
| 30> H 3.6905276236 -2.0989195269 -0.3154412609
| 31> H 5.1973596791 -1.1419735435 -0.303016646
| 32> H 5.320579439 -2.9852138459 1.3615565147
| 33> H 5.3308077927 -1.4137474353 2.1795783147
| 34> H 3.8584758432 -2.3850464347 2.159029001
| 35> H 0.2120732926 -2.4662569067 1.0357793378
| 36> H -0.6761528137 -2.5925787098 -0.529180087
| 37> H -1.8430573159 1.9965845418 1.0716308859
| 38> H -0.3510427071 2.7738812038 0.4927590522
| 39> H -2.2256250646 4.4093524967 0.5218691666
| 40> H -1.7060540092 4.1051294981 -1.1455047372
| 41> H -3.1817940794 3.3512928948 -0.5299229845
| 42> H -5.5101182602 0.5923549984 -0.6360897084
| 43> H -4.6802435873 -0.3248391707 -1.9295755283
| 44> H -4.6500485522 -1.1217718183 1.0236798567
| 45> H -5.7201465963 -1.8305085813 -0.2000848878
| 46> H -3.9686064625 -2.0366040665 -0.3294304077
| 47> *
| 48>
| 49>                          ****END OF INPUT****

CARTESIAN COORDINATES (ANGSTROEM)
---------------------------------
  C      2.186017    2.020723   -1.585961
  C      2.517295    2.340639   -0.143080
  O      1.850161    1.459772    0.795262
  P      2.091720   -0.096617    0.918156
  S      1.573631   -0.730791    2.695379
  O      3.623875   -0.198493    0.502330
  C      4.323807   -1.436671    0.282052
  C      4.734920   -2.098604    1.582288
  S      1.085375   -1.053796   -0.710047
  C     -0.215925   -1.922250    0.194868
  S     -1.481245   -0.836810    0.908732
  P     -2.043717    0.171515   -0.890597
  S     -1.847154   -0.797954   -2.573473
  O     -1.206589    1.514136   -0.850548
  C     -1.365975    2.482795    0.215856
  C     -2.175266    3.667322   -0.268794
  O     -3.511833    0.694497   -0.569861
  C     -4.685476   -0.085088   -0.861964
  C     -4.761043   -1.350870   -0.033388
  H      2.620328    2.782284   -2.226208
  H      2.593346    1.050581   -1.865892
  H      1.109221    1.997911   -1.740204
  H      2.157139    3.330813    0.141782
  H      3.591914    2.274220    0.034057
  H      3.690528   -2.098920   -0.315441
  H      5.197360   -1.141974   -0.303017
  H      5.320579   -2.985214    1.361557
  H      5.330808   -1.413747    2.179578
  H      3.858476   -2.385046    2.159029
  H      0.212073   -2.466257    1.035779
  H     -0.676153   -2.592579   -0.529180
  H     -1.843057    1.996585    1.071631
  H     -0.351043    2.773881    0.492759
  H     -2.225625    4.409352    0.521869
  H     -1.706054    4.105129   -1.145505
  H     -3.181794    3.351293   -0.529923
  H     -5.510118    0.592355   -0.636090
  H     -4.680244   -0.324839   -1.929576
  H     -4.650049   -1.121772    1.023680
  H     -5.720147   -1.830509   -0.200085
  H     -3.968606   -2.036604   -0.329430

 Total Charge           Charge          ....    0
 Multiplicity           Mult            ....    1
 Number of Electrons    NEL             ....  202
 Basis Dimension        Dim             ....  334

ORBITAL ENERGIES
----------------

  NO   OCC          E(Eh)            E(eV)
   0   2.0000     -88.042127     -2395.7481
   1   2.0000     -88.037997     -2395.6357
   2   2.0000     -87.986632     -2394.2380
   3   2.0000     -87.983366     -2394.1491
   4   2.0000     -76.426270     -2079.6645
   5   2.0000     -76.425751     -2079.6504
   6   2.0000     -18.797034      -511.4933
   7   2.0000     -18.795053      -511.4394
   8   2.0000     -18.791340      -511.3384
   9   2.0000     -18.789883      -511.2987
  10   2.0000      -9.957088      -270.9461
  11   2.0000      -9.956532      -270.9310
  12   2.0000      -9.954300      -270.8703
  13   2.0000      -9.953160      -270.8393
  14   2.0000      -9.951977      -270.8071
  15   2.0000      -9.885384      -268.9950
  16   2.0000      -9.884197      -268.9627
  17   2.0000      -9.884134      -268.9610
  18   2.0000      -9.881702      -268.8948
  19   2.0000      -7.686115      -209.1498
  20   2.0000      -7.682655      -209.0557
  21   2.0000      -7.631921      -207.6751
  22   2.0000      -7.628592      -207.5846
  23   2.0000      -6.423522      -174.7929
  24   2.0000      -6.423134      -174.7824
  25   2.0000      -5.714014      -155.4862
  26   2.0000      -5.710554      -155.3921
  27   2.0000      -5.710492      -155.3904
  28   2.0000      -5.707276      -155.3029
  29   2.0000      -5.703356      -155.1962
  30   2.0000      -5.699565      -155.0930
  31   2.0000      -5.660945      -154.0421
  32   2.0000      -5.657654      -153.9526
  33   2.0000      -5.652313      -153.8073
  34   2.0000      -5.652174      -153.8035
  35   2.0000      -5.648975      -153.7164
  36   2.0000      -5.648806      -153.7118
  37   2.0000      -4.646474      -126.4370
  38   2.0000      -4.646035      -126.4250
  39   2.0000      -4.645233      -126.4032
  40   2.0000      -4.644791      -126.3912
  41   2.0000      -4.643733      -126.3624
  42   2.0000      -4.643436      -126.3543
  43   2.0000      -0.989940       -26.9376
  44   2.0000      -0.988593       -26.9010
  45   2.0000      -0.945008       -25.7150
  46   2.0000      -0.944210       -25.6933
  47   2.0000      -0.760867       -20.7043
  48   2.0000      -0.718882       -19.5618
  49   2.0000      -0.710176       -19.3249
  50   2.0000      -0.691067       -18.8049
  51   2.0000      -0.690059       -18.7774
  52   2.0000      -0.673713       -18.3327
  53   2.0000      -0.649912       -17.6850
  54   2.0000      -0.638644       -17.3784
  55   2.0000      -0.595493       -16.2042
  56   2.0000      -0.589190       -16.0327
  57   2.0000      -0.580270       -15.7899
  58   2.0000      -0.573314       -15.6007
  59   2.0000      -0.561990       -15.2925
  60   2.0000      -0.504053       -13.7160
  61   2.0000      -0.498057       -13.5528
  62   2.0000      -0.475695       -12.9443
  63   2.0000      -0.473566       -12.8864
  64   2.0000      -0.456189       -12.4135
  65   2.0000      -0.452170       -12.3042
  66   2.0000      -0.444600       -12.0982
  67   2.0000      -0.430146       -11.7049
  68   2.0000      -0.422939       -11.5088
  69   2.0000      -0.419841       -11.4245
  70   2.0000      -0.410591       -11.1728
  71   2.0000      -0.402943       -10.9646
  72   2.0000      -0.393763       -10.7148
  73   2.0000      -0.386121       -10.5069
  74   2.0000      -0.379604       -10.3296
  75   2.0000      -0.370208       -10.0739
  76   2.0000      -0.362722        -9.8702
  77   2.0000      -0.355361        -9.6699
  78   2.0000      -0.354251        -9.6397
  79   2.0000      -0.353001        -9.6057
  80   2.0000      -0.348997        -9.4967
  81   2.0000      -0.343947        -9.3593
  82   2.0000      -0.341854        -9.3023
  83   2.0000      -0.339776        -9.2458
  84   2.0000      -0.334819        -9.1109
  85   2.0000      -0.324642        -8.8340
  86   2.0000      -0.310957        -8.4616
  87   2.0000      -0.299207        -8.1418
  88   2.0000      -0.297642        -8.0992
  89   2.0000      -0.294347        -8.0096
  90   2.0000      -0.291993        -7.9455
  91   2.0000      -0.277488        -7.5508
  92   2.0000      -0.270309        -7.3555
  93   2.0000      -0.262858        -7.1527
  94   2.0000      -0.256832        -6.9888
  95   2.0000      -0.234181        -6.3724
  96   2.0000      -0.214282        -5.8309
  97   2.0000      -0.210516        -5.7284
  98   2.0000      -0.207810        -5.6548
  99   2.0000      -0.195503        -5.3199
 100   2.0000      -0.191759        -5.2180
 101   0.0000      -0.043257        -1.1771
 102   0.0000      -0.027109        -0.7377
 103   0.0000      -0.004098        -0.1115
 104   0.0000       0.003806         0.1036
 105   0.0000       0.005466         0.1487

MULLIKEN ATOMIC CHARGES
-----------------------
   0 C :   -0.341159
   1 C :   -0.003059
   2 O :   -0.367819
   3 P :    0.621656
   4 S :   -0.313084
   5 O :   -0.384331
   6 C :   -0.009754
   7 C :   -0.299330
   8 S :   -0.101522
   9 C :   -0.328194
  10 S :   -0.079769
  11 P :    0.596726
  12 S :   -0.313788
  13 O :   -0.358479
  14 C :   -0.027605
  15 C :   -0.281891
  16 O :   -0.382821
  17 C :    0.000145
  18 C :   -0.315499
  19 H :    0.112085
  20 H :    0.121036
  21 H :    0.154765
  22 H :    0.108571
  23 H :    0.113348
  24 H :    0.104265
  25 H :    0.105060
  26 H :    0.108007
  27 H :    0.116246
  28 H :    0.128375
  29 H :    0.181843
  30 H :    0.185612
  31 H :    0.107529
  32 H :    0.125459
  33 H :    0.109574
  34 H :    0.114408
  35 H :    0.117663
  36 H :    0.104299
  37 H :    0.112800
  38 H :    0.119797
  39 H :    0.113189
  40 H :    0.125645
Sum of atomic charges:   -0.0000000

LOEWDIN ATOMIC CHARGES
----------------------
   0 C :   -0.373417
   1 C :   -0.111517
   2 O :   -0.237641
   3 P :    0.565524
   4 S :   -0.305479
   5 O :   -0.245757
   6 C :   -0.117999
   7 C :   -0.366253
   8 S :    0.090391
   9 C :   -0.480598
  10 S :    0.081781
  11 P :    0.569831
  12 S :   -0.312805
  13 O :   -0.235532
  14 C :   -0.117860
  15 C :   -0.356541
  16 O :   -0.248986
  17 C :   -0.116913
  18 C :   -0.370464
  19 H :    0.131165
  20 H :    0.117217
  21 H :    0.133548
  22 H :    0.117233
  23 H :    0.115022
  24 H :    0.103630
  25 H :    0.118130
  26 H :    0.128906
  27 H :    0.127574
  28 H :    0.122466
  29 H :    0.128842
  30 H :    0.131716
  31 H :    0.107645
  32 H :    0.119100
  33 H :    0.129397
  34 H :    0.126123
  35 H :    0.125737
  36 H :    0.118159
  37 H :    0.112531
  38 H :    0.124361
  39 H :    0.131094
  40 H :    0.120641

  Mayer bond orders larger than 0.100000
B(  0-C ,  1-C ) :   1.1728 B(  0-C , 19-H ) :   0.9350 B(  0-C , 20-H ) :   0.9358
B(  0-C , 21-H ) :   0.9274 B(  1-C ,  2-O ) :   0.8901 B(  1-C , 22-H ) :   0.9285
B(  1-C , 23-H ) :   0.9270 B(  2-O ,  3-P ) :   1.1224 B(  3-P ,  4-S ) :   1.6536
B(  3-P ,  5-O ) :   1.0706 B(  3-P ,  8-S ) :   0.9398 B(  4-S ,  8-S ) :   0.1148
B(  5-O ,  6-C ) :   0.9114 B(  6-C ,  7-C ) :   1.1658 B(  6-C , 24-H ) :   0.9139
B(  6-C , 25-H ) :   0.9355 B(  7-C , 26-H ) :   0.9379 B(  7-C , 27-H ) :   0.9471
B(  7-C , 28-H ) :   0.9309 B(  8-S ,  9-C ) :   1.0099 B(  9-C , 10-S ) :   1.0011
B(  9-C , 29-H ) :   0.8840 B(  9-C , 30-H ) :   0.8909 B( 10-S , 11-P ) :   0.9580
B( 10-S , 12-S ) :   0.1116 B( 11-P , 12-S ) :   1.6286 B( 11-P , 13-O ) :   1.1158
B( 11-P , 16-O ) :   1.0754 B( 13-O , 14-C ) :   0.8806 B( 14-C , 15-C ) :   1.1616
B( 14-C , 31-H ) :   0.9145 B( 14-C , 32-H ) :   0.9207 B( 15-C , 33-H ) :   0.9408
B( 15-C , 34-H ) :   0.9485 B( 15-C , 35-H ) :   0.9434 B( 16-O , 17-C ) :   0.9070
B( 17-C , 18-C ) :   1.1663 B( 17-C , 36-H ) :   0.9340 B( 17-C , 37-H ) :   0.9185
B( 18-C , 38-H ) :   0.9431 B( 18-C , 39-H ) :   0.9367 B( 18-C , 40-H ) :   0.9352

Dispersion correction           -0.066933131
FINAL SINGLE POINT ENERGY     -2929.520739243695

DIPOLE MOMENT
-------------

Method             : SCF
Type of density    : Electron Density
Multiplicity       :   1
Irrep              :   0
Energy             : -2929.6404551994805843 Eh
Relativity type    :
Basis              : AO
                                X                 Y                 Z
Electronic contribution:     -0.921202002      -7.301787954       1.442812951
Nuclear contribution   :      1.084289037       7.839263874      -1.657660701
                        -----------------------------------------
Total Dipole Moment    :      0.163087034       0.537475920      -0.214847750
                        -----------------------------------------
Magnitude (a.u.)       :      0.601362870
Magnitude (Debye)      :      1.528542940

Rotational constants in cm-1:             0.013008             0.005173             0.004726
Rotational constants in MHz :           389.964732           155.096479           141.684662

                             ****ORCA TERMINATED NORMALLY****
TOTAL RUN TIME: 0 days 0 hours 0 minutes 21 seconds 859 msec
