                         Program Version 6.0.0  -   RELEASE  -
|  1> ! pbe def2-sv(p) def2/J RI DEFGRID1 loosescf d4 GCP(DFT/SV(P)) printgap
|  2> %output
|  3>     printlevel normal
|  4> end
|  5> * xyz 0 1
|  6> C 2.5690643397 1.9945826833 -1.7014942511
|  7> C 3.323449146 1.9711187728 -0.3869578023
|  8> O 3.37112967 0.6519214305 0.1829039265
|  9> P 2.12142301 0.008384987 0.9268810421
| 10> S 1.1454099191 1.2367264468 2.0893008508
| 11> O 2.7426547124 -1.1907763082 1.7410844101
| 12> C 3.6371954545 -2.182582554 1.1754684538
| 13> C 5.0840093564 -1.7857982042 1.3843228578
| 14> S 1.0805049756 -0.9450649036 -0.6836743731
| 15> C -0.1265623142 -1.8782118865 0.2928543197
| 16> S -1.4596763457 -0.8682798359 0.9935179587
| 17> P -2.120813292 -0.0138876532 -0.8503830301
| 18> S -1.9454263048 -1.1456531044 -2.433777342
| 19> O -1.3117942436 1.3260597031 -1.0532932738
| 20> C -1.3853170658 2.4533984509 -0.1471746466
| 21> C -2.3206530987 3.5101620515 -0.6949781382
| 22> O -3.563335101 0.5331718559 -0.4719785567
| 23> C -4.6030309352 -0.2304460016 0.1679289511
| 24> C -4.9221313557 -1.5181960485 -0.561637303
| 25> H 1.5169079742 1.7585828064 -1.5458331566
| 26> H 2.6448883816 2.9840250946 -2.1410933484
| 27> H 2.9853732087 1.2627169171 -2.3891484944
| 28> H 2.8633840826 2.6465455677 0.3421126939
| 29> H 4.3720377394 2.2379557743 -0.5266980043
| 30> H 3.3978357521 -3.101129557 1.7147733374
| 31> H 3.4088111942 -2.3028855574 0.1129456611
| 32> H 5.2735370136 -1.6127584487 2.4401748162
| 33> H 5.7249030167 -2.5878969122 1.031611343
| 34> H 5.3103176874 -0.8772238914 0.833294906
| 35> H 0.3625692799 -2.364289468 1.1344207054
| 36> H -0.5556260164 -2.6055791359 -0.3956472292
| 37> H -1.7026494036 2.1046112845 0.8394852728
| 38> H -0.3612422863 2.8255527367 -0.0729518818
| 39> H -2.3123219661 4.3677300691 -0.0297704544
| 40> H -1.993642339 3.8167161587 -1.6846740634
| 41> H -3.3313479802 3.1169772461 -0.7658065902
| 42> H -4.2923842349 -0.4342991594 1.1966759578
| 43> H -5.4569142166 0.4494808865 0.1677301112
| 44> H -4.0662753423 -2.1907330861 -0.5297139857
| 45> H -5.7701148414 -2.0004051295 -0.0861169545
| 46> H -5.1585981457 -1.3152805459 -1.6034310542
| 47> *
| 48>
| 49>                          ****END OF INPUT****

CARTESIAN COORDINATES (ANGSTROEM)
---------------------------------
  C      2.569064    1.994583   -1.701494
  C      3.323449    1.971119   -0.386958
  O      3.371130    0.651921    0.182904
  P      2.121423    0.008385    0.926881
  S      1.145410    1.236726    2.089301
  O      2.742655   -1.190776    1.741084
  C      3.637195   -2.182583    1.175468
  C      5.084009   -1.785798    1.384323
  S      1.080505   -0.945065   -0.683674
  C     -0.126562   -1.878212    0.292854
  S     -1.459676   -0.868280    0.993518
  P     -2.120813   -0.013888   -0.850383
  S     -1.945426   -1.145653   -2.433777
  O     -1.311794    1.326060   -1.053293
  C     -1.385317    2.453398   -0.147175
  C     -2.320653    3.510162   -0.694978
  O     -3.563335    0.533172   -0.471979
  C     -4.603031   -0.230446    0.167929
  C     -4.922131   -1.518196   -0.561637
  H      1.516908    1.758583   -1.545833
  H      2.644888    2.984025   -2.141093
  H      2.985373    1.262717   -2.389148
  H      2.863384    2.646546    0.342113
  H      4.372038    2.237956   -0.526698
  H      3.397836   -3.101130    1.714773
  H      3.408811   -2.302886    0.112946
  H      5.273537   -1.612758    2.440175
  H      5.724903   -2.587897    1.031611
  H      5.310318   -0.877224    0.833295
  H      0.362569   -2.364289    1.134421
  H     -0.555626   -2.605579   -0.395647
  H     -1.702649    2.104611    0.839485
  H     -0.361242    2.825553   -0.072952
  H     -2.312322    4.367730   -0.029770
  H     -1.993642    3.816716   -1.684674
  H     -3.331348    3.116977   -0.765807
  H     -4.292384   -0.434299    1.196676
  H     -5.456914    0.449481    0.167730
  H     -4.066275   -2.190733   -0.529714
  H     -5.770115   -2.000405   -0.086117
  H     -5.158598   -1.315281   -1.603431

 Total Charge           Charge          ....    0
 Multiplicity           Mult            ....    1
 Number of Electrons    NEL             ....  202
 Basis Dimension        Dim             ....  334

ORBITAL ENERGIES
----------------

  NO   OCC          E(Eh)            E(eV)
   0   2.0000     -88.041814     -2395.7396
   1   2.0000     -88.038771     -2395.6568
   2   2.0000     -87.983711     -2394.1585
   3   2.0000     -87.980502     -2394.0712
   4   2.0000     -76.425561     -2079.6452
   5   2.0000     -76.424311     -2079.6112
   6   2.0000     -18.796112      -511.4682
   7   2.0000     -18.795285      -511.4457
   8   2.0000     -18.794584      -511.4266
   9   2.0000     -18.785349      -511.1753
  10   2.0000      -9.958537      -270.9856
  11   2.0000      -9.958512      -270.9849
  12   2.0000      -9.957978      -270.9704
  13   2.0000      -9.954160      -270.8665
  14   2.0000      -9.944820      -270.6123
  15   2.0000      -9.887921      -269.0640
  16   2.0000      -9.884738      -268.9774
  17   2.0000      -9.882745      -268.9232
  18   2.0000      -9.879628      -268.8384
  19   2.0000      -7.685951      -209.1454
  20   2.0000      -7.683677      -209.0835
  21   2.0000      -7.628864      -207.5919
  22   2.0000      -7.625853      -207.5100
  23   2.0000      -6.423264      -174.7859
  24   2.0000      -6.421216      -174.7302
  25   2.0000      -5.713752      -155.4791
  26   2.0000      -5.711446      -155.4164
  27   2.0000      -5.710523      -155.3912
  28   2.0000      -5.708222      -155.3286
  29   2.0000      -5.703055      -155.1880
  30   2.0000      -5.700746      -155.1252
  31   2.0000      -5.657837      -153.9576
  32   2.0000      -5.654943      -153.8788
  33   2.0000      -5.649483      -153.7303
  34   2.0000      -5.648920      -153.7149
  35   2.0000      -5.646370      -153.6455
  36   2.0000      -5.645905      -153.6329
  37   2.0000      -4.646405      -126.4351
  38   2.0000      -4.645020      -126.3974
  39   2.0000      -4.644151      -126.3738
  40   2.0000      -4.643206      -126.3481
  41   2.0000      -4.643180      -126.3474
  42   2.0000      -4.641246      -126.2947
  43   2.0000      -0.990615       -26.9560
  44   2.0000      -0.986400       -26.8413
  45   2.0000      -0.949271       -25.8310
  46   2.0000      -0.941476       -25.6189
  47   2.0000      -0.762218       -20.7410
  48   2.0000      -0.719853       -19.5882
  49   2.0000      -0.709855       -19.3161
  50   2.0000      -0.692146       -18.8343
  51   2.0000      -0.688448       -18.7336
  52   2.0000      -0.672074       -18.2881
  53   2.0000      -0.649525       -17.6745
  54   2.0000      -0.639021       -17.3886
  55   2.0000      -0.594547       -16.1785
  56   2.0000      -0.588038       -16.0013
  57   2.0000      -0.578985       -15.7550
  58   2.0000      -0.569519       -15.4974
  59   2.0000      -0.564059       -15.3488
  60   2.0000      -0.505611       -13.7584
  61   2.0000      -0.497655       -13.5419
  62   2.0000      -0.479382       -13.0447
  63   2.0000      -0.470334       -12.7984
  64   2.0000      -0.459549       -12.5050
  65   2.0000      -0.450528       -12.2595
  66   2.0000      -0.442233       -12.0338
  67   2.0000      -0.431686       -11.7468
  68   2.0000      -0.429953       -11.6996
  69   2.0000      -0.415091       -11.2952
  70   2.0000      -0.408691       -11.1210
  71   2.0000      -0.401656       -10.9296
  72   2.0000      -0.392954       -10.6928
  73   2.0000      -0.381766       -10.3884
  74   2.0000      -0.379779       -10.3343
  75   2.0000      -0.374320       -10.1858
  76   2.0000      -0.363452        -9.8900
  77   2.0000      -0.356955        -9.7132
  78   2.0000      -0.354191        -9.6380
  79   2.0000      -0.352233        -9.5848
  80   2.0000      -0.349679        -9.5153
  81   2.0000      -0.346385        -9.4256
  82   2.0000      -0.343675        -9.3519
  83   2.0000      -0.335818        -9.1381
  84   2.0000      -0.333456        -9.0738
  85   2.0000      -0.319808        -8.7024
  86   2.0000      -0.316239        -8.6053
  87   2.0000      -0.299029        -8.1370
  88   2.0000      -0.295854        -8.0506
  89   2.0000      -0.292635        -7.9630
  90   2.0000      -0.285194        -7.7605
  91   2.0000      -0.275100        -7.4859
  92   2.0000      -0.273431        -7.4404
  93   2.0000      -0.264568        -7.1993
  94   2.0000      -0.256455        -6.9785
  95   2.0000      -0.238544        -6.4911
  96   2.0000      -0.218395        -5.9428
  97   2.0000      -0.206339        -5.6148
  98   2.0000      -0.199976        -5.4416
  99   2.0000      -0.195273        -5.3137
 100   2.0000      -0.187323        -5.0973
 101   0.0000      -0.042773        -1.1639
 102   0.0000      -0.024834        -0.6758
 103   0.0000      -0.004756        -0.1294
 104   0.0000      -0.001219        -0.0332
 105   0.0000       0.015468         0.4209

MULLIKEN ATOMIC CHARGES
-----------------------
   0 C :   -0.345379
   1 C :   -0.006501
   2 O :   -0.381423
   3 P :    0.595476
   4 S :   -0.306654
   5 O :   -0.364148
   6 C :   -0.016176
   7 C :   -0.289390
   8 S :   -0.077831
   9 C :   -0.343094
  10 S :   -0.092999
  11 P :    0.599399
  12 S :   -0.315610
  13 O :   -0.349972
  14 C :   -0.017470
  15 C :   -0.281973
  16 O :   -0.380258
  17 C :   -0.009532
  18 C :   -0.308284
  19 H :    0.162056
  20 H :    0.114047
  21 H :    0.119291
  22 H :    0.110964
  23 H :    0.104817
  24 H :    0.107313
  25 H :    0.104355
  26 H :    0.120317
  27 H :    0.110112
  28 H :    0.124625
  29 H :    0.180240
  30 H :    0.192865
  31 H :    0.106406
  32 H :    0.110878
  33 H :    0.108139
  34 H :    0.114475
  35 H :    0.116905
  36 H :    0.114236
  37 H :    0.108170
  38 H :    0.123782
  39 H :    0.110756
  40 H :    0.127068
Sum of atomic charges:   -0.0000000

LOEWDIN ATOMIC CHARGES
----------------------
   0 C :   -0.372618
   1 C :   -0.120298
   2 O :   -0.246803
   3 P :    0.562636
   4 S :   -0.302995
   5 O :   -0.240434
   6 C :   -0.117463
   7 C :   -0.358999
   8 S :    0.094320
   9 C :   -0.478654
  10 S :    0.068826
  11 P :    0.568307
  12 S :   -0.313575
  13 O :   -0.232126
  14 C :   -0.118077
  15 C :   -0.358778
  16 O :   -0.244150
  17 C :   -0.114973
  18 C :   -0.369280
  19 H :    0.127661
  20 H :    0.132136
  21 H :    0.126979
  22 H :    0.108499
  23 H :    0.118178
  24 H :    0.119062
  25 H :    0.104625
  26 H :    0.128965
  27 H :    0.129971
  28 H :    0.127117
  29 H :    0.131782
  30 H :    0.132789
  31 H :    0.106055
  32 H :    0.111865
  33 H :    0.128639
  34 H :    0.126469
  35 H :    0.124294
  36 H :    0.108743
  37 H :    0.120536
  38 H :    0.120509
  39 H :    0.129789
  40 H :    0.130470

  Mayer bond orders larger than 0.100000
B(  0-C ,  1-C ) :   1.1643 B(  0-C , 19-H ) :   0.9232 B(  0-C , 20-H ) :   0.9385
B(  0-C , 21-H ) :   0.9439 B(  1-C ,  2-O ) :   0.9069 B(  1-C , 22-H ) :   0.9112
B(  1-C , 23-H ) :   0.9324 B(  2-O ,  3-P ) :   1.0751 B(  3-P ,  4-S ) :   1.6718
B(  3-P ,  5-O ) :   1.1175 B(  3-P ,  8-S ) :   0.9518 B(  4-S ,  8-S ) :   0.1123
B(  5-O ,  6-C ) :   0.8921 B(  6-C ,  7-C ) :   1.1692 B(  6-C , 24-H ) :   0.9351
B(  6-C , 25-H ) :   0.9074 B(  7-C , 26-H ) :   0.9472 B(  7-C , 27-H ) :   0.9393
B(  7-C , 28-H ) :   0.9414 B(  8-S ,  9-C ) :   0.9988 B(  9-C , 10-S ) :   1.0045
B(  9-C , 29-H ) :   0.9002 B(  9-C , 30-H ) :   0.8887 B( 10-S , 11-P ) :   0.9509
B( 10-S , 12-S ) :   0.1122 B( 11-P , 12-S ) :   1.6330 B( 11-P , 13-O ) :   1.1315
B( 11-P , 16-O ) :   1.0795 B( 13-O , 14-C ) :   0.8868 B( 14-C , 15-C ) :   1.1577
B( 14-C , 31-H ) :   0.9192 B( 14-C , 32-H ) :   0.9226 B( 15-C , 33-H ) :   0.9413
B( 15-C , 34-H ) :   0.9467 B( 15-C , 35-H ) :   0.9431 B( 16-O , 17-C ) :   0.9120
B( 17-C , 18-C ) :   1.1671 B( 17-C , 36-H ) :   0.9258 B( 17-C , 37-H ) :   0.9330
B( 18-C , 38-H ) :   0.9324 B( 18-C , 39-H ) :   0.9348 B( 18-C , 40-H ) :   0.9428

Dispersion correction           -0.066340292
FINAL SINGLE POINT ENERGY     -2929.517873782530

DIPOLE MOMENT
-------------

Method             : SCF
Type of density    : Electron Density
Multiplicity       :   1
Irrep              :   0
Energy             : -2929.6367187403102434 Eh
Relativity type    :
Basis              : AO
                                X                 Y                 Z
Electronic contribution:     -2.381248056      -5.928272473       2.239534942
Nuclear contribution   :      2.734588113       5.870740188      -1.898065529
                        -----------------------------------------
Total Dipole Moment    :      0.353340057      -0.057532285       0.341469413
                        -----------------------------------------
Magnitude (a.u.)       :      0.494732776
Magnitude (Debye)      :      1.257510781

Rotational constants in cm-1:             0.012996             0.005081             0.004603
Rotational constants in MHz :           389.622897           152.322664           137.985562

                             ****ORCA TERMINATED NORMALLY****
TOTAL RUN TIME: 0 days 0 hours 0 minutes 21 seconds 170 msec
