                         Program Version 6.0.0  -   RELEASE  -
|  1> ! r2scan-3c def2/J RI DEFGRID2 scfconv6 printgap
|  2> %output
|  3>     printlevel normal
|  4> end
|  5> * xyz 0 1
|  6> C 4.5698735112 0.1173401932 -1.8283715398
|  7> C 4.3465293705 1.0599827852 -0.6637642626
|  8> O 3.4409888854 0.519011172 0.3143104118
|  9> P 1.8939708894 0.291462769 0.0238886223
| 10> S 1.0307881954 1.7133396793 -1.0059485808
| 11> O 1.2869611544 0.1467448261 1.4703544205
| 12> C 1.6950988721 -0.8478333264 2.4420720243
| 13> C 2.7780442079 -0.3081097481 3.3528265205
| 14> S 1.8433794775 -1.6620512325 -0.8192646933
| 15> C 0.0997928924 -1.708196656 -1.2826323034
| 16> S -1.0233928276 -1.7941061965 0.1571186033
| 17> P -2.1172530891 -0.0274285375 -0.1218053919
| 18> S -2.2938717639 0.6649185711 -1.952648457
| 19> O -1.4417189621 0.9068596667 0.963114962
| 20> C -1.8104584011 2.2978804674 1.0834997127
| 21> C -0.940715564 2.9103286598 2.1601040517
| 22> O -3.5176668558 -0.3118317856 0.5827220941
| 23> C -4.6462652485 -0.8491537801 -0.1288615536
| 24> C -4.421215621 -2.2854571942 -0.5547548929
| 25> H 4.8412951669 -0.8718856442 -1.4686427434
| 26> H 3.6627066388 0.0378021684 -2.4250422403
| 27> H 5.3669703403 0.5059978064 -2.4540261579
| 28> H 3.9446007785 2.016048978 -1.0133362322
| 29> H 5.2656544107 1.2281270236 -0.1006260078
| 30> H 0.7795815826 -1.0720704508 2.9932639575
| 31> H 2.0330926396 -1.743680811 1.9133619072
| 32> H 2.4413677575 0.6053409953 3.8354426442
| 33> H 3.0025381702 -1.0519663371 4.1109292392
| 34> H 3.6778934922 -0.0934637806 2.782951619
| 35> H -0.0300843923 -2.6172636607 -1.8639943554
| 36> H -0.1567176004 -0.8232058876 -1.8718384027
| 37> H -1.6456798643 2.7802234852 0.1134999456
| 38> H -2.8723464684 2.3536532211 1.3379168886
| 39> H -1.1026386883 2.3989707782 3.1043261335
| 40> H 0.1057293436 2.813442697 1.880637554
| 41> H -1.1889977745 3.9613913775 2.2647192125
| 42> H -5.4685291184 -0.7616989604 0.5825171777
| 43> H -4.836132843 -0.2152280007 -1.0009662124
| 44> H -4.1180358881 -2.8896725961 0.2964739191
| 45> H -5.3405078897 -2.682935461 -0.9725806185
| 46> H -3.6412276889 -2.3282714736 -1.3137153688
| 47> *
| 48>
| 49>                          ****END OF INPUT****

CARTESIAN COORDINATES (ANGSTROEM)
---------------------------------
  C      4.569874    0.117340   -1.828372
  C      4.346529    1.059983   -0.663764
  O      3.440989    0.519011    0.314310
  P      1.893971    0.291463    0.023889
  S      1.030788    1.713340   -1.005949
  O      1.286961    0.146745    1.470354
  C      1.695099   -0.847833    2.442072
  C      2.778044   -0.308110    3.352827
  S      1.843379   -1.662051   -0.819265
  C      0.099793   -1.708197   -1.282632
  S     -1.023393   -1.794106    0.157119
  P     -2.117253   -0.027429   -0.121805
  S     -2.293872    0.664919   -1.952648
  O     -1.441719    0.906860    0.963115
  C     -1.810458    2.297880    1.083500
  C     -0.940716    2.910329    2.160104
  O     -3.517667   -0.311832    0.582722
  C     -4.646265   -0.849154   -0.128862
  C     -4.421216   -2.285457   -0.554755
  H      4.841295   -0.871886   -1.468643
  H      3.662707    0.037802   -2.425042
  H      5.366970    0.505998   -2.454026
  H      3.944601    2.016049   -1.013336
  H      5.265654    1.228127   -0.100626
  H      0.779582   -1.072070    2.993264
  H      2.033093   -1.743681    1.913362
  H      2.441368    0.605341    3.835443
  H      3.002538   -1.051966    4.110929
  H      3.677893   -0.093464    2.782952
  H     -0.030084   -2.617264   -1.863994
  H     -0.156718   -0.823206   -1.871838
  H     -1.645680    2.780223    0.113500
  H     -2.872346    2.353653    1.337917
  H     -1.102639    2.398971    3.104326
  H      0.105729    2.813443    1.880638
  H     -1.188998    3.961391    2.264719
  H     -5.468529   -0.761699    0.582517
  H     -4.836133   -0.215228   -1.000966
  H     -4.118036   -2.889673    0.296474
  H     -5.340508   -2.682935   -0.972581
  H     -3.641228   -2.328271   -1.313715

 Total Charge           Charge          ....    0
 Multiplicity           Mult            ....    1
 Number of Electrons    NEL             ....  202
 Basis Dimension        Dim             ....  539

ORBITAL ENERGIES
----------------

  NO   OCC          E(Eh)            E(eV)
   0   2.0000     -88.575854     -2410.2715
   1   2.0000     -88.573890     -2410.2181
   2   2.0000     -88.514377     -2408.5986
   3   2.0000     -88.512404     -2408.5450
   4   2.0000     -76.911778     -2092.8759
   5   2.0000     -76.906514     -2092.7326
   6   2.0000     -18.992962      -516.8248
   7   2.0000     -18.987700      -516.6816
   8   2.0000     -18.985352      -516.6177
   9   2.0000     -18.976924      -516.3884
  10   2.0000     -10.106506      -275.0120
  11   2.0000     -10.099093      -274.8103
  12   2.0000     -10.098115      -274.7837
  13   2.0000     -10.092421      -274.6287
  14   2.0000     -10.085147      -274.4308
  15   2.0000     -10.029537      -272.9176
  16   2.0000     -10.029106      -272.9058
  17   2.0000     -10.024614      -272.7836
  18   2.0000     -10.018202      -272.6091
  19   2.0000      -7.870442      -214.1656
  20   2.0000      -7.868600      -214.1155
  21   2.0000      -7.809133      -212.4973
  22   2.0000      -7.807127      -212.4427
  23   2.0000      -6.590096      -179.3256
  24   2.0000      -6.585100      -179.1897
  25   2.0000      -5.817318      -158.2973
  26   2.0000      -5.815430      -158.2459
  27   2.0000      -5.814076      -158.2091
  28   2.0000      -5.812505      -158.1663
  29   2.0000      -5.807713      -158.0359
  30   2.0000      -5.805624      -157.9790
  31   2.0000      -5.756911      -156.6535
  32   2.0000      -5.754756      -156.5949
  33   2.0000      -5.749308      -156.4466
  34   2.0000      -5.749120      -156.4415
  35   2.0000      -5.747650      -156.4015
  36   2.0000      -5.746912      -156.3814
  37   2.0000      -4.735960      -128.8720
  38   2.0000      -4.735120      -128.8492
  39   2.0000      -4.733425      -128.8030
  40   2.0000      -4.730506      -128.7236
  41   2.0000      -4.729897      -128.7071
  42   2.0000      -4.729026      -128.6833
  43   2.0000      -1.049361       -28.5546
  44   2.0000      -1.041208       -28.3327
  45   2.0000      -1.009211       -27.4620
  46   2.0000      -0.999753       -27.2047
  47   2.0000      -0.799524       -21.7561
  48   2.0000      -0.755813       -20.5667
  49   2.0000      -0.745863       -20.2960
  50   2.0000      -0.733857       -19.9693
  51   2.0000      -0.724340       -19.7103
  52   2.0000      -0.709563       -19.3082
  53   2.0000      -0.683194       -18.5907
  54   2.0000      -0.661082       -17.9890
  55   2.0000      -0.628554       -17.1038
  56   2.0000      -0.619052       -16.8453
  57   2.0000      -0.607128       -16.5208
  58   2.0000      -0.596660       -16.2360
  59   2.0000      -0.585933       -15.9441
  60   2.0000      -0.523544       -14.2463
  61   2.0000      -0.519108       -14.1257
  62   2.0000      -0.493231       -13.4215
  63   2.0000      -0.484894       -13.1946
  64   2.0000      -0.467694       -12.7266
  65   2.0000      -0.462291       -12.5796
  66   2.0000      -0.457721       -12.4552
  67   2.0000      -0.448049       -12.1920
  68   2.0000      -0.443163       -12.0591
  69   2.0000      -0.436108       -11.8671
  70   2.0000      -0.429231       -11.6800
  71   2.0000      -0.409644       -11.1470
  72   2.0000      -0.405147       -11.0246
  73   2.0000      -0.398990       -10.8571
  74   2.0000      -0.394445       -10.7334
  75   2.0000      -0.383478       -10.4350
  76   2.0000      -0.378941       -10.3115
  77   2.0000      -0.369552       -10.0560
  78   2.0000      -0.367468        -9.9993
  79   2.0000      -0.363477        -9.8907
  80   2.0000      -0.361561        -9.8386
  81   2.0000      -0.358504        -9.7554
  82   2.0000      -0.351745        -9.5715
  83   2.0000      -0.347866        -9.4659
  84   2.0000      -0.338928        -9.2227
  85   2.0000      -0.327605        -8.9146
  86   2.0000      -0.321659        -8.7528
  87   2.0000      -0.310136        -8.4392
  88   2.0000      -0.305557        -8.3146
  89   2.0000      -0.304691        -8.2911
  90   2.0000      -0.294353        -8.0098
  91   2.0000      -0.284345        -7.7374
  92   2.0000      -0.278398        -7.5756
  93   2.0000      -0.274634        -7.4732
  94   2.0000      -0.270817        -7.3693
  95   2.0000      -0.248324        -6.7573
  96   2.0000      -0.231380        -6.2962
  97   2.0000      -0.226377        -6.1600
  98   2.0000      -0.216037        -5.8787
  99   2.0000      -0.205636        -5.5956
 100   2.0000      -0.196324        -5.3422
 101   0.0000      -0.042332        -1.1519
 102   0.0000      -0.030043        -0.8175
 103   0.0000      -0.009908        -0.2696
 104   0.0000       0.014710         0.4003
 105   0.0000       0.018473         0.5027

MULLIKEN ATOMIC CHARGES
-----------------------
   0 C :   -0.459407
   1 C :   -0.162474
   2 O :   -0.297906
   3 P :    0.643127
   4 S :   -0.409454
   5 O :   -0.250792
   6 C :   -0.121831
   7 C :   -0.461419
   8 S :   -0.152144
   9 C :   -0.228067
  10 S :   -0.125001
  11 P :    0.663385
  12 S :   -0.468511
  13 O :   -0.254769
  14 C :   -0.130266
  15 C :   -0.467968
  16 O :   -0.313199
  17 C :   -0.157550
  18 C :   -0.445714
  19 H :    0.153541
  20 H :    0.183819
  21 H :    0.148908
  22 H :    0.176715
  23 H :    0.146856
  24 H :    0.164473
  25 H :    0.164706
  26 H :    0.156274
  27 H :    0.146269
  28 H :    0.164347
  29 H :    0.195474
  30 H :    0.218938
  31 H :    0.174808
  32 H :    0.146126
  33 H :    0.145408
  34 H :    0.178874
  35 H :    0.141949
  36 H :    0.145558
  37 H :    0.174503
  38 H :    0.153391
  39 H :    0.146264
  40 H :    0.172761
Sum of atomic charges:    0.0000000

LOEWDIN ATOMIC CHARGES
----------------------
   0 C :   -0.409067
   1 C :    0.020144
   2 O :   -0.673135
   3 P :    0.381146
   4 S :   -0.065496
   5 O :   -0.656898
   6 C :    0.016123
   7 C :   -0.394592
   8 S :    0.126155
   9 C :   -0.412797
  10 S :    0.178519
  11 P :    0.370300
  12 S :   -0.129101
  13 O :   -0.673635
  14 C :    0.017908
  15 C :   -0.390499
  16 O :   -0.666298
  17 C :    0.017087
  18 C :   -0.408132
  19 H :    0.159222
  20 H :    0.167170
  21 H :    0.159803
  22 H :    0.181440
  23 H :    0.178713
  24 H :    0.183210
  25 H :    0.177420
  26 H :    0.160771
  27 H :    0.158268
  28 H :    0.166084
  29 H :    0.180625
  30 H :    0.202566
  31 H :    0.182827
  32 H :    0.170354
  33 H :    0.156737
  34 H :    0.169381
  35 H :    0.157566
  36 H :    0.178109
  37 H :    0.180259
  38 H :    0.159574
  39 H :    0.158156
  40 H :    0.164011

  Mayer bond orders larger than 0.100000
B(  0-C ,  1-C ) :   0.9119 B(  0-C , 19-H ) :   0.9682 B(  0-C , 20-H ) :   0.9630
B(  0-C , 21-H ) :   0.9571 B(  1-C ,  2-O ) :   0.8232 B(  1-C , 22-H ) :   0.9677
B(  1-C , 23-H ) :   0.9612 B(  2-O ,  3-P ) :   1.0400 B(  3-P ,  4-S ) :   1.8514
B(  3-P ,  5-O ) :   1.1208 B(  3-P ,  8-S ) :   1.0221 B(  5-O ,  6-C ) :   0.7328
B(  6-C ,  7-C ) :   0.9326 B(  6-C , 24-H ) :   0.9639 B(  6-C , 25-H ) :   0.9580
B(  7-C , 26-H ) :   0.9755 B(  7-C , 27-H ) :   0.9665 B(  7-C , 28-H ) :   0.9659
B(  8-S ,  9-C ) :   0.9138 B(  9-C , 10-S ) :   0.8922 B(  9-C , 29-H ) :   0.9136
B(  9-C , 30-H ) :   0.9044 B( 10-S , 11-P ) :   1.1275 B( 11-P , 12-S ) :   1.7453
B( 11-P , 13-O ) :   1.1921 B( 11-P , 16-O ) :   1.0524 B( 13-O , 14-C ) :   0.7644
B( 14-C , 15-C ) :   0.9380 B( 14-C , 31-H ) :   0.9509 B( 14-C , 32-H ) :   0.9435
B( 15-C , 33-H ) :   0.9728 B( 15-C , 34-H ) :   0.9687 B( 15-C , 35-H ) :   0.9667
B( 16-O , 17-C ) :   0.8267 B( 17-C , 18-C ) :   0.9206 B( 17-C , 36-H ) :   0.9594
B( 17-C , 37-H ) :   0.9670 B( 18-C , 38-H ) :   0.9678 B( 18-C , 39-H ) :   0.9599
B( 18-C , 40-H ) :   0.9654

Dispersion correction           -0.022346163
FINAL SINGLE POINT ENERGY     -2932.458663433303

DIPOLE MOMENT
-------------

Method             : SCF
Type of density    : Electron Density
Multiplicity       :   1
Irrep              :   0
Energy             : -2932.4829814276199613 Eh
Relativity type    :
Basis              : AO
                                X                 Y                 Z
Electronic contribution:     -4.092278889      -2.028296540      -9.295054589
Nuclear contribution   :      4.637572739       1.267801726      10.309401655
                        -----------------------------------------
Total Dipole Moment    :      0.545293850      -0.760494813       1.014347066
                        -----------------------------------------
Magnitude (a.u.)       :      1.380071634
Magnitude (Debye)      :      3.507863319

Rotational constants in cm-1:             0.012379             0.005459             0.005212
Rotational constants in MHz :           371.105208           163.658984           156.245803

                             ****ORCA TERMINATED NORMALLY****
TOTAL RUN TIME: 0 days 0 hours 1 minutes 25 seconds 844 msec
