                         Program Version 6.0.0  -   RELEASE  -
|  1> ! r2scan-3c def2/J RI DEFGRID2 scfconv6 printgap
|  2> %output
|  3>     printlevel normal
|  4> end
|  5> %cpcm
|  6>     smd true
|  7>     smdsolvent "water"
|  8> end
|  9> * xyz 0 1
| 10> C 4.5698735112 0.1173401932 -1.8283715398
| 11> C 4.3465293705 1.0599827852 -0.6637642626
| 12> O 3.4409888854 0.519011172 0.3143104118
| 13> P 1.8939708894 0.291462769 0.0238886223
| 14> S 1.0307881954 1.7133396793 -1.0059485808
| 15> O 1.2869611544 0.1467448261 1.4703544205
| 16> C 1.6950988721 -0.8478333264 2.4420720243
| 17> C 2.7780442079 -0.3081097481 3.3528265205
| 18> S 1.8433794775 -1.6620512325 -0.8192646933
| 19> C 0.0997928924 -1.708196656 -1.2826323034
| 20> S -1.0233928276 -1.7941061965 0.1571186033
| 21> P -2.1172530891 -0.0274285375 -0.1218053919
| 22> S -2.2938717639 0.6649185711 -1.952648457
| 23> O -1.4417189621 0.9068596667 0.963114962
| 24> C -1.8104584011 2.2978804674 1.0834997127
| 25> C -0.940715564 2.9103286598 2.1601040517
| 26> O -3.5176668558 -0.3118317856 0.5827220941
| 27> C -4.6462652485 -0.8491537801 -0.1288615536
| 28> C -4.421215621 -2.2854571942 -0.5547548929
| 29> H 4.8412951669 -0.8718856442 -1.4686427434
| 30> H 3.6627066388 0.0378021684 -2.4250422403
| 31> H 5.3669703403 0.5059978064 -2.4540261579
| 32> H 3.9446007785 2.016048978 -1.0133362322
| 33> H 5.2656544107 1.2281270236 -0.1006260078
| 34> H 0.7795815826 -1.0720704508 2.9932639575
| 35> H 2.0330926396 -1.743680811 1.9133619072
| 36> H 2.4413677575 0.6053409953 3.8354426442
| 37> H 3.0025381702 -1.0519663371 4.1109292392
| 38> H 3.6778934922 -0.0934637806 2.782951619
| 39> H -0.0300843923 -2.6172636607 -1.8639943554
| 40> H -0.1567176004 -0.8232058876 -1.8718384027
| 41> H -1.6456798643 2.7802234852 0.1134999456
| 42> H -2.8723464684 2.3536532211 1.3379168886
| 43> H -1.1026386883 2.3989707782 3.1043261335
| 44> H 0.1057293436 2.813442697 1.880637554
| 45> H -1.1889977745 3.9613913775 2.2647192125
| 46> H -5.4685291184 -0.7616989604 0.5825171777
| 47> H -4.836132843 -0.2152280007 -1.0009662124
| 48> H -4.1180358881 -2.8896725961 0.2964739191
| 49> H -5.3405078897 -2.682935461 -0.9725806185
| 50> H -3.6412276889 -2.3282714736 -1.3137153688
| 51> *
| 52>
| 53>                          ****END OF INPUT****

CARTESIAN COORDINATES (ANGSTROEM)
---------------------------------
  C      4.569874    0.117340   -1.828372
  C      4.346529    1.059983   -0.663764
  O      3.440989    0.519011    0.314310
  P      1.893971    0.291463    0.023889
  S      1.030788    1.713340   -1.005949
  O      1.286961    0.146745    1.470354
  C      1.695099   -0.847833    2.442072
  C      2.778044   -0.308110    3.352827
  S      1.843379   -1.662051   -0.819265
  C      0.099793   -1.708197   -1.282632
  S     -1.023393   -1.794106    0.157119
  P     -2.117253   -0.027429   -0.121805
  S     -2.293872    0.664919   -1.952648
  O     -1.441719    0.906860    0.963115
  C     -1.810458    2.297880    1.083500
  C     -0.940716    2.910329    2.160104
  O     -3.517667   -0.311832    0.582722
  C     -4.646265   -0.849154   -0.128862
  C     -4.421216   -2.285457   -0.554755
  H      4.841295   -0.871886   -1.468643
  H      3.662707    0.037802   -2.425042
  H      5.366970    0.505998   -2.454026
  H      3.944601    2.016049   -1.013336
  H      5.265654    1.228127   -0.100626
  H      0.779582   -1.072070    2.993264
  H      2.033093   -1.743681    1.913362
  H      2.441368    0.605341    3.835443
  H      3.002538   -1.051966    4.110929
  H      3.677893   -0.093464    2.782952
  H     -0.030084   -2.617264   -1.863994
  H     -0.156718   -0.823206   -1.871838
  H     -1.645680    2.780223    0.113500
  H     -2.872346    2.353653    1.337917
  H     -1.102639    2.398971    3.104326
  H      0.105729    2.813443    1.880638
  H     -1.188998    3.961391    2.264719
  H     -5.468529   -0.761699    0.582517
  H     -4.836133   -0.215228   -1.000966
  H     -4.118036   -2.889673    0.296474
  H     -5.340508   -2.682935   -0.972581
  H     -3.641228   -2.328271   -1.313715

 Total Charge           Charge          ....    0
 Multiplicity           Mult            ....    1
 Number of Electrons    NEL             ....  202
 Basis Dimension        Dim             ....  539

ORBITAL ENERGIES
----------------

  NO   OCC          E(Eh)            E(eV)
   0   2.0000     -88.578350     -2410.3394
   1   2.0000     -88.577914     -2410.3276
   2   2.0000     -88.523785     -2408.8546
   3   2.0000     -88.523106     -2408.8362
   4   2.0000     -76.917080     -2093.0202
   5   2.0000     -76.915632     -2092.9807
   6   2.0000     -18.993765      -516.8466
   7   2.0000     -18.991798      -516.7931
   8   2.0000     -18.991746      -516.7917
   9   2.0000     -18.986582      -516.6512
  10   2.0000     -10.105217      -274.9769
  11   2.0000     -10.090128      -274.5663
  12   2.0000     -10.089394      -274.5464
  13   2.0000     -10.087217      -274.4871
  14   2.0000     -10.086170      -274.4586
  15   2.0000     -10.018346      -272.6131
  16   2.0000     -10.017646      -272.5940
  17   2.0000     -10.017235      -272.5828
  18   2.0000     -10.017081      -272.5786
  19   2.0000      -7.873001      -214.2353
  20   2.0000      -7.872420      -214.2194
  21   2.0000      -7.818842      -212.7615
  22   2.0000      -7.818216      -212.7445
  23   2.0000      -6.595437      -179.4710
  24   2.0000      -6.594262      -179.4390
  25   2.0000      -5.819857      -158.3664
  26   2.0000      -5.819321      -158.3518
  27   2.0000      -5.816911      -158.2862
  28   2.0000      -5.816078      -158.2635
  29   2.0000      -5.810012      -158.0985
  30   2.0000      -5.809660      -158.0889
  31   2.0000      -5.766393      -156.9115
  32   2.0000      -5.765891      -156.8979
  33   2.0000      -5.759375      -156.7206
  34   2.0000      -5.758632      -156.7003
  35   2.0000      -5.758454      -156.6955
  36   2.0000      -5.758175      -156.6879
  37   2.0000      -4.741257      -129.0162
  38   2.0000      -4.740425      -128.9935
  39   2.0000      -4.739643      -128.9722
  40   2.0000      -4.739045      -128.9560
  41   2.0000      -4.738881      -128.9515
  42   2.0000      -4.738257      -128.9345
  43   2.0000      -1.051616       -28.6159
  44   2.0000      -1.048674       -28.5359
  45   2.0000      -1.011093       -27.5132
  46   2.0000      -1.007089       -27.4043
  47   2.0000      -0.801114       -21.7994
  48   2.0000      -0.755182       -20.5495
  49   2.0000      -0.743840       -20.2409
  50   2.0000      -0.725117       -19.7314
  51   2.0000      -0.721439       -19.6313
  52   2.0000      -0.710647       -19.3377
  53   2.0000      -0.687812       -18.7163
  54   2.0000      -0.668847       -18.2003
  55   2.0000      -0.629414       -17.1272
  56   2.0000      -0.617314       -16.7980
  57   2.0000      -0.601812       -16.3761
  58   2.0000      -0.595785       -16.2121
  59   2.0000      -0.585805       -15.9406
  60   2.0000      -0.523710       -14.2509
  61   2.0000      -0.518135       -14.0992
  62   2.0000      -0.489936       -13.3318
  63   2.0000      -0.486680       -13.2432
  64   2.0000      -0.468362       -12.7448
  65   2.0000      -0.461791       -12.5660
  66   2.0000      -0.457425       -12.4472
  67   2.0000      -0.448172       -12.1954
  68   2.0000      -0.437763       -11.9121
  69   2.0000      -0.435530       -11.8514
  70   2.0000      -0.424957       -11.5637
  71   2.0000      -0.412357       -11.2208
  72   2.0000      -0.403756       -10.9868
  73   2.0000      -0.398697       -10.8491
  74   2.0000      -0.391085       -10.6420
  75   2.0000      -0.385243       -10.4830
  76   2.0000      -0.377143       -10.2626
  77   2.0000      -0.365948        -9.9580
  78   2.0000      -0.362270        -9.8579
  79   2.0000      -0.360648        -9.8137
  80   2.0000      -0.355716        -9.6795
  81   2.0000      -0.352936        -9.6039
  82   2.0000      -0.348111        -9.4726
  83   2.0000      -0.344783        -9.3820
  84   2.0000      -0.340015        -9.2523
  85   2.0000      -0.324837        -8.8393
  86   2.0000      -0.323741        -8.8094
  87   2.0000      -0.308343        -8.3904
  88   2.0000      -0.303994        -8.2721
  89   2.0000      -0.302785        -8.2392
  90   2.0000      -0.297462        -8.0944
  91   2.0000      -0.285979        -7.7819
  92   2.0000      -0.280566        -7.6346
  93   2.0000      -0.276306        -7.5187
  94   2.0000      -0.275310        -7.4916
  95   2.0000      -0.251310        -6.8385
  96   2.0000      -0.239205        -6.5091
  97   2.0000      -0.235763        -6.4154
  98   2.0000      -0.226483        -6.1629
  99   2.0000      -0.214106        -5.8261
 100   2.0000      -0.207375        -5.6430
 101   0.0000      -0.046716        -1.2712
 102   0.0000      -0.036081        -0.9818
 103   0.0000      -0.013177        -0.3586
 104   0.0000       0.008953         0.2436
 105   0.0000       0.014851         0.4041

MULLIKEN ATOMIC CHARGES
-----------------------
   0 C :   -0.494200
   1 C :   -0.157424
   2 O :   -0.318698
   3 P :    0.662101
   4 S :   -0.464653
   5 O :   -0.284086
   6 C :   -0.106015
   7 C :   -0.504816
   8 S :   -0.149636
   9 C :   -0.227633
  10 S :   -0.123296
  11 P :    0.698718
  12 S :   -0.526404
  13 O :   -0.282352
  14 C :   -0.127253
  15 C :   -0.511562
  16 O :   -0.340345
  17 C :   -0.156597
  18 C :   -0.479666
  19 H :    0.169580
  20 H :    0.176188
  21 H :    0.173152
  22 H :    0.178802
  23 H :    0.174705
  24 H :    0.180856
  25 H :    0.176086
  26 H :    0.167822
  27 H :    0.170815
  28 H :    0.168914
  29 H :    0.236988
  30 H :    0.212121
  31 H :    0.174150
  32 H :    0.169815
  33 H :    0.166385
  34 H :    0.170481
  35 H :    0.169063
  36 H :    0.172643
  37 H :    0.176672
  38 H :    0.166512
  39 H :    0.171086
  40 H :    0.170983
Sum of atomic charges:    0.0000000

LOEWDIN ATOMIC CHARGES
----------------------
   0 C :   -0.411777
   1 C :    0.025122
   2 O :   -0.679159
   3 P :    0.384236
   4 S :   -0.103960
   5 O :   -0.678065
   6 C :    0.022328
   7 C :   -0.397125
   8 S :    0.135597
   9 C :   -0.406400
  10 S :    0.183013
  11 P :    0.375344
  12 S :   -0.165816
  13 O :   -0.691954
  14 C :    0.019565
  15 C :   -0.394681
  16 O :   -0.678438
  17 C :    0.022117
  18 C :   -0.410609
  19 H :    0.163675
  20 H :    0.161915
  21 H :    0.168531
  22 H :    0.181415
  23 H :    0.190546
  24 H :    0.189743
  25 H :    0.182689
  26 H :    0.163260
  27 H :    0.168258
  28 H :    0.165891
  29 H :    0.197289
  30 H :    0.199620
  31 H :    0.182200
  32 H :    0.179460
  33 H :    0.162650
  34 H :    0.163844
  35 H :    0.167815
  36 H :    0.189514
  37 H :    0.180877
  38 H :    0.163146
  39 H :    0.167263
  40 H :    0.161064

  Mayer bond orders larger than 0.100000
B(  0-C ,  1-C ) :   0.9006 B(  0-C , 19-H ) :   0.9649 B(  0-C , 20-H ) :   0.9652
B(  0-C , 21-H ) :   0.9519 B(  1-C ,  2-O ) :   0.8124 B(  1-C , 22-H ) :   0.9668
B(  1-C , 23-H ) :   0.9510 B(  2-O ,  3-P ) :   1.0496 B(  3-P ,  4-S ) :   1.8194
B(  3-P ,  5-O ) :   1.1245 B(  3-P ,  8-S ) :   1.0401 B(  5-O ,  6-C ) :   0.7228
B(  6-C ,  7-C ) :   0.9249 B(  6-C , 24-H ) :   0.9549 B(  6-C , 25-H ) :   0.9496
B(  7-C , 26-H ) :   0.9737 B(  7-C , 27-H ) :   0.9596 B(  7-C , 28-H ) :   0.9655
B(  8-S ,  9-C ) :   0.9087 B(  9-C , 10-S ) :   0.8853 B(  9-C , 29-H ) :   0.8975
B(  9-C , 30-H ) :   0.9092 B( 10-S , 11-P ) :   1.1531 B( 11-P , 12-S ) :   1.6926
B( 11-P , 13-O ) :   1.1913 B( 11-P , 16-O ) :   1.0607 B( 13-O , 14-C ) :   0.7572
B( 14-C , 15-C ) :   0.9271 B( 14-C , 31-H ) :   0.9481 B( 14-C , 32-H ) :   0.9353
B( 15-C , 33-H ) :   0.9696 B( 15-C , 34-H ) :   0.9711 B( 15-C , 35-H ) :   0.9608
B( 16-O , 17-C ) :   0.8140 B( 17-C , 18-C ) :   0.9108 B( 17-C , 36-H ) :   0.9497
B( 17-C , 37-H ) :   0.9647 B( 18-C , 38-H ) :   0.9654 B( 18-C , 39-H ) :   0.9547
B( 18-C , 40-H ) :   0.9651

Dispersion correction           -0.022346163
FINAL SINGLE POINT ENERGY     -2932.467174357961

DIPOLE MOMENT
-------------

Method             : SCF
Type of density    : Electron Density
Multiplicity       :   1
Irrep              :   0
Energy             : -2932.4914923522778736 Eh
Relativity type    :
Basis              : AO
                                X                 Y                 Z
Electronic contribution:     -3.945261797      -2.561890624      -8.998217460
Nuclear contribution   :      4.637572739       1.267801726      10.309401655
                        -----------------------------------------
Total Dipole Moment    :      0.692310942      -1.294088898       1.311184195
                        -----------------------------------------
Magnitude (a.u.)       :      1.968035698
Magnitude (Debye)      :      5.002349202

Rotational constants in cm-1:             0.012379             0.005459             0.005212
Rotational constants in MHz :           371.105208           163.658984           156.245803

                             ****ORCA TERMINATED NORMALLY****
TOTAL RUN TIME: 0 days 0 hours 1 minutes 59 seconds 646 msec
