                         Program Version 6.0.0  -   RELEASE  -
|  1> ! pbe def2-sv(p) def2/J RI DEFGRID1 loosescf d4 GCP(DFT/SV(P)) printgap
|  2> %output
|  3>     printlevel normal
|  4> end
|  5> * xyz 0 1
|  6> C 3.8004996418 1.7017054964 -0.793114855
|  7> C 2.387795817 1.7533321007 -0.2493109041
|  8> O 1.7375361569 0.4804359742 -0.3762272253
|  9> P 2.0934544683 -0.7654153761 0.5588305602
| 10> S 2.870600581 -0.2878316383 2.2862332328
| 11> O 3.0455604915 -1.736129293 -0.2510992282
| 12> C 2.6569046665 -2.5733824231 -1.3657619198
| 13> C 2.2807099493 -1.7714638593 -2.5937695687
| 14> S 0.243759991 -1.7787747899 0.5874875038
| 15> C -0.4866387718 -0.8230694632 1.9384845607
| 16> S -0.7725888914 0.9249584698 1.5348485952
| 17> P -1.9333314647 0.6782065329 -0.2332201427
| 18> S -1.0634030631 0.4217693369 -1.9731398287
| 19> O -2.8471709872 1.9790618242 -0.1910110525
| 20> C -2.3758476929 3.2633571085 -0.6407879807
| 21> C -3.5848987297 4.1424578276 -0.8894291651
| 22> O -2.9536909118 -0.4316851089 0.2256587375
| 23> C -3.4820206856 -1.4584840613 -0.6467012824
| 24> C -3.2467872627 -2.8187830669 -0.0222241865
| 25> H 3.7901935781 1.4104121367 -1.8400904581
| 26> H 4.2626379461 2.6786918159 -0.6940406401
| 27> H 4.3814160894 0.972877311 -0.2274502886
| 28> H 1.7549984294 2.4339094251 -0.8219611791
| 29> H 2.3860028315 2.044281683 0.8066772815
| 30> H 3.5445922012 -3.1838257106 -1.5400645269
| 31> H 1.8271486389 -3.2097172425 -1.0457780117
| 32> H 1.3944441654 -1.1675782999 -2.405676927
| 33> H 3.0978457663 -1.1148483401 -2.8807889823
| 34> H 2.0690326098 -2.4543622473 -3.4105488571
| 35> H 0.1942984106 -0.822201927 2.7906951706
| 36> H -1.4332823583 -1.297378779 2.1852927936
| 37> H -1.7302013054 3.6821282334 0.1366973314
| 38> H -1.7905577126 3.1191471624 -1.5558429778
| 39> H -4.2105869288 3.7053915873 -1.6623283912
| 40> H -4.1663792755 4.2369477609 0.0229576116
| 41> H -3.2519922315 5.1245326247 -1.2087234143
| 42> H -4.5471768278 -1.2459275267 -0.7537521533
| 43> H -2.9929511001 -1.3799617753 -1.6234677282
| 44> H -2.1797055175 -3.0094747034 0.0768995943
| 45> H -3.7097148402 -2.8660715147 0.9593975283
| 46> H -3.6851276357 -3.5790603996 -0.6602921977
| 47> *
| 48>
| 49>                          ****END OF INPUT****

CARTESIAN COORDINATES (ANGSTROEM)
---------------------------------
  C      3.800500    1.701705   -0.793115
  C      2.387796    1.753332   -0.249311
  O      1.737536    0.480436   -0.376227
  P      2.093454   -0.765415    0.558831
  S      2.870601   -0.287832    2.286233
  O      3.045560   -1.736129   -0.251099
  C      2.656905   -2.573382   -1.365762
  C      2.280710   -1.771464   -2.593770
  S      0.243760   -1.778775    0.587488
  C     -0.486639   -0.823069    1.938485
  S     -0.772589    0.924958    1.534849
  P     -1.933331    0.678207   -0.233220
  S     -1.063403    0.421769   -1.973140
  O     -2.847171    1.979062   -0.191011
  C     -2.375848    3.263357   -0.640788
  C     -3.584899    4.142458   -0.889429
  O     -2.953691   -0.431685    0.225659
  C     -3.482021   -1.458484   -0.646701
  C     -3.246787   -2.818783   -0.022224
  H      3.790194    1.410412   -1.840090
  H      4.262638    2.678692   -0.694041
  H      4.381416    0.972877   -0.227450
  H      1.754998    2.433909   -0.821961
  H      2.386003    2.044282    0.806677
  H      3.544592   -3.183826   -1.540065
  H      1.827149   -3.209717   -1.045778
  H      1.394444   -1.167578   -2.405677
  H      3.097846   -1.114848   -2.880789
  H      2.069033   -2.454362   -3.410549
  H      0.194298   -0.822202    2.790695
  H     -1.433282   -1.297379    2.185293
  H     -1.730201    3.682128    0.136697
  H     -1.790558    3.119147   -1.555843
  H     -4.210587    3.705392   -1.662328
  H     -4.166379    4.236948    0.022958
  H     -3.251992    5.124533   -1.208723
  H     -4.547177   -1.245928   -0.753752
  H     -2.992951   -1.379962   -1.623468
  H     -2.179706   -3.009475    0.076900
  H     -3.709715   -2.866072    0.959398
  H     -3.685128   -3.579060   -0.660292

 Total Charge           Charge          ....    0
 Multiplicity           Mult            ....    1
 Number of Electrons    NEL             ....  202
 Basis Dimension        Dim             ....  334

ORBITAL ENERGIES
----------------

  NO   OCC          E(Eh)            E(eV)
   0   2.0000     -88.044601     -2395.8154
   1   2.0000     -88.039592     -2395.6791
   2   2.0000     -87.985547     -2394.2085
   3   2.0000     -87.981237     -2394.0912
   4   2.0000     -76.427189     -2079.6895
   5   2.0000     -76.423212     -2079.5813
   6   2.0000     -18.797868      -511.5160
   7   2.0000     -18.792001      -511.3563
   8   2.0000     -18.788814      -511.2696
   9   2.0000     -18.782015      -511.0846
  10   2.0000      -9.958979      -270.9976
  11   2.0000      -9.958216      -270.9768
  12   2.0000      -9.956227      -270.9227
  13   2.0000      -9.953729      -270.8547
  14   2.0000      -9.941618      -270.5252
  15   2.0000      -9.891493      -269.1612
  16   2.0000      -9.888603      -269.0826
  17   2.0000      -9.882751      -268.9233
  18   2.0000      -9.878132      -268.7976
  19   2.0000      -7.689389      -209.2389
  20   2.0000      -7.684760      -209.1130
  21   2.0000      -7.630355      -207.6325
  22   2.0000      -7.626558      -207.5292
  23   2.0000      -6.424660      -174.8239
  24   2.0000      -6.420842      -174.7200
  25   2.0000      -5.717171      -155.5721
  26   2.0000      -5.714058      -155.4874
  27   2.0000      -5.712880      -155.4554
  28   2.0000      -5.709342      -155.3591
  29   2.0000      -5.706298      -155.2763
  30   2.0000      -5.701393      -155.1428
  31   2.0000      -5.659091      -153.9917
  32   2.0000      -5.655561      -153.8956
  33   2.0000      -5.651186      -153.7766
  34   2.0000      -5.650468      -153.7570
  35   2.0000      -5.647459      -153.6752
  36   2.0000      -5.646273      -153.6429
  37   2.0000      -4.647350      -126.4608
  38   2.0000      -4.646490      -126.4374
  39   2.0000      -4.644909      -126.3944
  40   2.0000      -4.643689      -126.3612
  41   2.0000      -4.642360      -126.3250
  42   2.0000      -4.641314      -126.2966
  43   2.0000      -0.988869       -26.9085
  44   2.0000      -0.980000       -26.6672
  45   2.0000      -0.948018       -25.7969
  46   2.0000      -0.940922       -25.6038
  47   2.0000      -0.765522       -20.8309
  48   2.0000      -0.724274       -19.7085
  49   2.0000      -0.709927       -19.3181
  50   2.0000      -0.691431       -18.8148
  51   2.0000      -0.686732       -18.6869
  52   2.0000      -0.670681       -18.2502
  53   2.0000      -0.648877       -17.6568
  54   2.0000      -0.638396       -17.3716
  55   2.0000      -0.597880       -16.2691
  56   2.0000      -0.590652       -16.0725
  57   2.0000      -0.574029       -15.6201
  58   2.0000      -0.568913       -15.4809
  59   2.0000      -0.562852       -15.3160
  60   2.0000      -0.509387       -13.8611
  61   2.0000      -0.493251       -13.4220
  62   2.0000      -0.483518       -13.1572
  63   2.0000      -0.473066       -12.8728
  64   2.0000      -0.457745       -12.4559
  65   2.0000      -0.443755       -12.0752
  66   2.0000      -0.441351       -12.0098
  67   2.0000      -0.436076       -11.8662
  68   2.0000      -0.427200       -11.6247
  69   2.0000      -0.412921       -11.2362
  70   2.0000      -0.407204       -11.0806
  71   2.0000      -0.398078       -10.8323
  72   2.0000      -0.389198       -10.5906
  73   2.0000      -0.383594       -10.4381
  74   2.0000      -0.381844       -10.3905
  75   2.0000      -0.378495       -10.2994
  76   2.0000      -0.368546       -10.0286
  77   2.0000      -0.358653        -9.7595
  78   2.0000      -0.357250        -9.7213
  79   2.0000      -0.349828        -9.5193
  80   2.0000      -0.347207        -9.4480
  81   2.0000      -0.344778        -9.3819
  82   2.0000      -0.342482        -9.3194
  83   2.0000      -0.341548        -9.2940
  84   2.0000      -0.333173        -9.0661
  85   2.0000      -0.319169        -8.6850
  86   2.0000      -0.309625        -8.4253
  87   2.0000      -0.302788        -8.2393
  88   2.0000      -0.301701        -8.2097
  89   2.0000      -0.290884        -7.9154
  90   2.0000      -0.280030        -7.6200
  91   2.0000      -0.272408        -7.4126
  92   2.0000      -0.270468        -7.3598
  93   2.0000      -0.264867        -7.2074
  94   2.0000      -0.259698        -7.0667
  95   2.0000      -0.232349        -6.3225
  96   2.0000      -0.220037        -5.9875
  97   2.0000      -0.207516        -5.6468
  98   2.0000      -0.199623        -5.4320
  99   2.0000      -0.195670        -5.3245
 100   2.0000      -0.192447        -5.2367
 101   0.0000      -0.051020        -1.3883
 102   0.0000      -0.024862        -0.6765
 103   0.0000      -0.016180        -0.4403
 104   0.0000       0.001997         0.0543
 105   0.0000       0.017207         0.4682

MULLIKEN ATOMIC CHARGES
-----------------------
   0 C :   -0.313419
   1 C :   -0.000841
   2 O :   -0.363757
   3 P :    0.639014
   4 S :   -0.322959
   5 O :   -0.369143
   6 C :   -0.025829
   7 C :   -0.330943
   8 S :   -0.127616
   9 C :   -0.339585
  10 S :   -0.096465
  11 P :    0.616971
  12 S :   -0.316264
  13 O :   -0.369880
  14 C :   -0.015174
  15 C :   -0.279640
  16 O :   -0.371695
  17 C :   -0.005476
  18 C :   -0.309851
  19 H :    0.116254
  20 H :    0.109042
  21 H :    0.125617
  22 H :    0.096470
  23 H :    0.110332
  24 H :    0.113601
  25 H :    0.119123
  26 H :    0.158601
  27 H :    0.120292
  28 H :    0.109992
  29 H :    0.194200
  30 H :    0.188348
  31 H :    0.101734
  32 H :    0.104921
  33 H :    0.118800
  34 H :    0.118432
  35 H :    0.111164
  36 H :    0.108013
  37 H :    0.112723
  38 H :    0.131659
  39 H :    0.118674
  40 H :    0.114560
Sum of atomic charges:    0.0000000

LOEWDIN ATOMIC CHARGES
----------------------
   0 C :   -0.364644
   1 C :   -0.123301
   2 O :   -0.239201
   3 P :    0.574884
   4 S :   -0.314538
   5 O :   -0.241527
   6 C :   -0.114483
   7 C :   -0.370545
   8 S :    0.084375
   9 C :   -0.472738
  10 S :    0.075791
  11 P :    0.566951
  12 S :   -0.305559
  13 O :   -0.249716
  14 C :   -0.121723
  15 C :   -0.350262
  16 O :   -0.239256
  17 C :   -0.115614
  18 C :   -0.359282
  19 H :    0.122537
  20 H :    0.129182
  21 H :    0.123864
  22 H :    0.113838
  23 H :    0.106745
  24 H :    0.123409
  25 H :    0.107164
  26 H :    0.126529
  27 H :    0.126151
  28 H :    0.130588
  29 H :    0.132391
  30 H :    0.132717
  31 H :    0.109278
  32 H :    0.105953
  33 H :    0.128479
  34 H :    0.127738
  35 H :    0.130411
  36 H :    0.118208
  37 H :    0.108197
  38 H :    0.118275
  39 H :    0.125734
  40 H :    0.132997

  Mayer bond orders larger than 0.100000
B(  0-C ,  1-C ) :   1.1637 B(  0-C , 19-H ) :   0.9438 B(  0-C , 20-H ) :   0.9404
B(  0-C , 21-H ) :   0.9364 B(  1-C ,  2-O ) :   0.9062 B(  1-C , 22-H ) :   0.9291
B(  1-C , 23-H ) :   0.9110 B(  2-O ,  3-P ) :   1.0964 B(  3-P ,  4-S ) :   1.6236
B(  3-P ,  5-O ) :   1.1296 B(  3-P ,  8-S ) :   0.9416 B(  5-O ,  6-C ) :   0.9054
B(  6-C ,  7-C ) :   1.1638 B(  6-C , 24-H ) :   0.9346 B(  6-C , 25-H ) :   0.9175
B(  7-C , 26-H ) :   0.9242 B(  7-C , 27-H ) :   0.9419 B(  7-C , 28-H ) :   0.9353
B(  8-S ,  9-C ) :   1.0181 B(  9-C , 10-S ) :   1.0039 B(  9-C , 29-H ) :   0.8793
B(  9-C , 30-H ) :   0.9016 B( 10-S , 11-P ) :   0.9531 B( 10-S , 12-S ) :   0.1083
B( 11-P , 12-S ) :   1.6285 B( 11-P , 13-O ) :   1.1115 B( 11-P , 16-O ) :   1.1262
B( 13-O , 14-C ) :   0.9117 B( 14-C , 15-C ) :   1.1621 B( 14-C , 31-H ) :   0.9289
B( 14-C , 32-H ) :   0.9073 B( 15-C , 33-H ) :   0.9512 B( 15-C , 34-H ) :   0.9507
B( 15-C , 35-H ) :   0.9418 B( 16-O , 17-C ) :   0.8947 B( 17-C , 18-C ) :   1.1657
B( 17-C , 36-H ) :   0.9330 B( 17-C , 37-H ) :   0.8991 B( 18-C , 38-H ) :   0.9356
B( 18-C , 39-H ) :   0.9471 B( 18-C , 40-H ) :   0.9390

Dispersion correction           -0.066831849
FINAL SINGLE POINT ENERGY     -2929.516529698346

DIPOLE MOMENT
-------------

Method             : SCF
Type of density    : Electron Density
Multiplicity       :   1
Irrep              :   0
Energy             : -2929.6342692455586985 Eh
Relativity type    :
Basis              : AO
                                X                 Y                 Z
Electronic contribution:      3.909473914      -3.973417267      13.858637494
Nuclear contribution   :     -4.881378389       3.928861290     -14.773202511
                        -----------------------------------------
Total Dipole Moment    :     -0.971904475      -0.044555977      -0.914565017
                        -----------------------------------------
Magnitude (a.u.)       :      1.335294991
Magnitude (Debye)      :      3.394050138

Rotational constants in cm-1:             0.010767             0.005778             0.005170
Rotational constants in MHz :           322.790368           173.221008           155.002292

                             ****ORCA TERMINATED NORMALLY****
TOTAL RUN TIME: 0 days 0 hours 0 minutes 21 seconds 341 msec
