                         Program Version 6.0.1  -  RELEASE   -
|  1> ! r2scan-3c def2/J RI DEFGRID2 scfconv6 printgap
|  2> %output
|  3>     printlevel normal
|  4> end
|  5> * xyz 0 1
|  6> C 4.2641979993 -3.7605198033 -1.0052918094
|  7> C 2.7514198742 -3.7292144066 -0.8562309026
|  8> O 2.3147813531 -2.4832861784 -0.2779900624
|  9> C 2.1299381231 -1.4529830152 -1.0775744241
| 10> O 2.2542676482 -1.4795110012 -2.2816312411
| 11> C 1.726989889 -0.2148018992 -0.2981838784
| 12> C 0.6633426691 0.5583632323 -1.0689588953
| 13> H 1.0062169691 0.700643159 -2.1000054909
| 14> C 0.3498106018 1.913351983 -0.4641383471
| 15> O -0.7881359365 2.2872535715 -0.2605718871
| 16> O 1.4302752381 2.6060474828 -0.2356704281
| 17> C 1.3048561979 3.8971369854 0.401361326
| 18> C 1.4688959294 3.75517002 1.9052792942
| 19> S -0.890516699 -0.3787390909 -1.230793272
| 20> P -1.8329314282 0.044735244 0.6363919777
| 21> S -0.7389776155 0.4634274623 2.2039532919
| 22> O -3.0634554791 1.0129769819 0.4389273858
| 23> C -4.0101354843 0.8657736215 -0.635607295
| 24> O -2.6375120202 -1.3377353881 0.825477536
| 25> C -1.9582560281 -2.5540374797 1.1430806935
| 26> H 4.586283965 -3.0005813184 -1.7135129963
| 27> H 4.7387240974 -3.5755652338 -0.0455293382
| 28> H 4.5677801035 -4.7350727889 -1.3730129955
| 29> H 2.4052771333 -4.4892654027 -0.1559623404
| 30> H 2.263709541 -3.8511861434 -1.8275460908
| 31> H 2.6081919019 0.421901555 -0.1893542307
| 32> H 1.3788580987 -0.5021862526 0.6951883781
| 33> H 2.1042211097 4.49657966 -0.0345970963
| 34> H 0.3273525294 4.3172221754 0.1512268409
| 35> H 0.701265561 3.0958782245 2.3072479217
| 36> H 2.4426997866 3.3365981681 2.1413088538
| 37> H 1.3744014553 4.7306615473 2.3702123651
| 38> H -3.5044021692 0.9918992935 -1.592812508
| 39> H -4.7369852119 1.6586411104 -0.4796788956
| 40> H -4.4831203272 -0.1134984253 -0.5850148975
| 41> H -2.7365439839 -3.2649610714 1.4079715547
| 42> H -1.2824407955 -2.3967441061 1.9856923364
| 43> H -1.3969493952 -2.9040313589 0.2763881891
| 44> *
| 45>
| 46>                          ****END OF INPUT****

CARTESIAN COORDINATES (ANGSTROEM)
---------------------------------
  C      4.264198   -3.760520   -1.005292
  C      2.751420   -3.729214   -0.856231
  O      2.314781   -2.483286   -0.277990
  C      2.129938   -1.452983   -1.077574
  O      2.254268   -1.479511   -2.281631
  C      1.726990   -0.214802   -0.298184
  C      0.663343    0.558363   -1.068959
  H      1.006217    0.700643   -2.100005
  C      0.349811    1.913352   -0.464138
  O     -0.788136    2.287254   -0.260572
  O      1.430275    2.606047   -0.235670
  C      1.304856    3.897137    0.401361
  C      1.468896    3.755170    1.905279
  S     -0.890517   -0.378739   -1.230793
  P     -1.832931    0.044735    0.636392
  S     -0.738978    0.463427    2.203953
  O     -3.063455    1.012977    0.438927
  C     -4.010135    0.865774   -0.635607
  O     -2.637512   -1.337735    0.825478
  C     -1.958256   -2.554037    1.143081
  H      4.586284   -3.000581   -1.713513
  H      4.738724   -3.575565   -0.045529
  H      4.567780   -4.735073   -1.373013
  H      2.405277   -4.489265   -0.155962
  H      2.263710   -3.851186   -1.827546
  H      2.608192    0.421902   -0.189354
  H      1.378858   -0.502186    0.695188
  H      2.104221    4.496580   -0.034597
  H      0.327353    4.317222    0.151227
  H      0.701266    3.095878    2.307248
  H      2.442700    3.336598    2.141309
  H      1.374401    4.730662    2.370212
  H     -3.504402    0.991899   -1.592813
  H     -4.736985    1.658641   -0.479679
  H     -4.483120   -0.113498   -0.585015
  H     -2.736544   -3.264961    1.407972
  H     -1.282441   -2.396744    1.985692
  H     -1.396949   -2.904031    0.276388

 Total Charge           Charge          ....    0
 Multiplicity           Mult            ....    1
 Number of Electrons    NEL             ....  174
 Basis Dimension        Dim             ....  510

ORBITAL ENERGIES
----------------

  NO   OCC          E(Eh)            E(eV)
   0   2.0000     -88.572001     -2410.1667
   1   2.0000     -88.510619     -2408.4964
   2   2.0000     -76.909146     -2092.8042
   3   2.0000     -19.014343      -517.4066
   4   2.0000     -19.005958      -517.1784
   5   2.0000     -18.982860      -516.5499
   6   2.0000     -18.980406      -516.4831
   7   2.0000     -18.941366      -515.4208
   8   2.0000     -18.937291      -515.3099
   9   2.0000     -10.170501      -276.7534
  10   2.0000     -10.161791      -276.5164
  11   2.0000     -10.098918      -274.8055
  12   2.0000     -10.098360      -274.7904
  13   2.0000     -10.097415      -274.7646
  14   2.0000     -10.088857      -274.5318
  15   2.0000     -10.083203      -274.3779
  16   2.0000     -10.054213      -273.5890
  17   2.0000     -10.033671      -273.0301
  18   2.0000     -10.027911      -272.8733
  19   2.0000      -7.866182      -214.0497
  20   2.0000      -7.805825      -212.4073
  21   2.0000      -6.586767      -179.2350
  22   2.0000      -5.813204      -158.1853
  23   2.0000      -5.809949      -158.0968
  24   2.0000      -5.803258      -157.9147
  25   2.0000      -5.753732      -156.5670
  26   2.0000      -5.746217      -156.3625
  27   2.0000      -5.745373      -156.3395
  28   2.0000      -4.732504      -128.7780
  29   2.0000      -4.731927      -128.7623
  30   2.0000      -4.730260      -128.7169
  31   2.0000      -1.092566       -29.7302
  32   2.0000      -1.082100       -29.4454
  33   2.0000      -1.040729       -28.3197
  34   2.0000      -0.998665       -27.1751
  35   2.0000      -0.993649       -27.0386
  36   2.0000      -0.987133       -26.8612
  37   2.0000      -0.809941       -22.0396
  38   2.0000      -0.755634       -20.5618
  39   2.0000      -0.748788       -20.3755
  40   2.0000      -0.725550       -19.7432
  41   2.0000      -0.695120       -18.9152
  42   2.0000      -0.667110       -18.1530
  43   2.0000      -0.660948       -17.9853
  44   2.0000      -0.650388       -17.6980
  45   2.0000      -0.630596       -17.1594
  46   2.0000      -0.598237       -16.2788
  47   2.0000      -0.538849       -14.6628
  48   2.0000      -0.531987       -14.4761
  49   2.0000      -0.523588       -14.2476
  50   2.0000      -0.507456       -13.8086
  51   2.0000      -0.485437       -13.2094
  52   2.0000      -0.478822       -13.0294
  53   2.0000      -0.471324       -12.8254
  54   2.0000      -0.459320       -12.4987
  55   2.0000      -0.451936       -12.2978
  56   2.0000      -0.443538       -12.0693
  57   2.0000      -0.442004       -12.0275
  58   2.0000      -0.436144       -11.8681
  59   2.0000      -0.424928       -11.5629
  60   2.0000      -0.418887       -11.3985
  61   2.0000      -0.416065       -11.3217
  62   2.0000      -0.410428       -11.1683
  63   2.0000      -0.405531       -11.0351
  64   2.0000      -0.400735       -10.9046
  65   2.0000      -0.383508       -10.4358
  66   2.0000      -0.377450       -10.2709
  67   2.0000      -0.367265        -9.9938
  68   2.0000      -0.364643        -9.9225
  69   2.0000      -0.350422        -9.5355
  70   2.0000      -0.349769        -9.5177
  71   2.0000      -0.345577        -9.4036
  72   2.0000      -0.341831        -9.3017
  73   2.0000      -0.323789        -8.8107
  74   2.0000      -0.316657        -8.6167
  75   2.0000      -0.314272        -8.5518
  76   2.0000      -0.311336        -8.4719
  77   2.0000      -0.305097        -8.3021
  78   2.0000      -0.286352        -7.7920
  79   2.0000      -0.281018        -7.6469
  80   2.0000      -0.278386        -7.5753
  81   2.0000      -0.268586        -7.3086
  82   2.0000      -0.255376        -6.9491
  83   2.0000      -0.247248        -6.7280
  84   2.0000      -0.234398        -6.3783
  85   2.0000      -0.210217        -5.7203
  86   2.0000      -0.205831        -5.6009
  87   0.0000      -0.042180        -1.1478
  88   0.0000      -0.032059        -0.8724
  89   0.0000      -0.013785        -0.3751
  90   0.0000       0.002283         0.0621
  91   0.0000       0.023587         0.6418

MULLIKEN ATOMIC CHARGES
-----------------------
   0 C :   -0.471609
   1 C :   -0.138229
   2 O :   -0.171151
   3 C :    0.402767
   4 O :   -0.435155
   5 C :   -0.438120
   6 C :   -0.009549
   7 H :    0.213177
   8 C :    0.339865
   9 O :   -0.395244
  10 O :   -0.165728
  11 C :   -0.139909
  12 C :   -0.463494
  13 S :   -0.175503
  14 P :    0.800877
  15 S :   -0.472221
  16 O :   -0.302054
  17 C :   -0.299561
  18 O :   -0.365882
  19 C :   -0.304437
  20 H :    0.172977
  21 H :    0.154197
  22 H :    0.148950
  23 H :    0.150529
  24 H :    0.169829
  25 H :    0.196503
  26 H :    0.216629
  27 H :    0.149356
  28 H :    0.175842
  29 H :    0.188755
  30 H :    0.150121
  31 H :    0.147305
  32 H :    0.169406
  33 H :    0.154933
  34 H :    0.166363
  35 H :    0.149325
  36 H :    0.175291
  37 H :    0.154849
Sum of atomic charges:    0.0000000

LOEWDIN ATOMIC CHARGES
----------------------
   0 C :   -0.388847
   1 C :    0.029604
   2 O :   -0.579940
   3 C :    0.351045
   4 O :   -0.440840
   5 C :   -0.209708
   6 C :   -0.193168
   7 H :    0.216750
   8 C :    0.351672
   9 O :   -0.459003
  10 O :   -0.574681
  11 C :    0.036803
  12 C :   -0.389029
  13 S :    0.215547
  14 P :    0.416186
  15 S :   -0.089302
  16 O :   -0.638711
  17 C :   -0.050214
  18 O :   -0.694290
  19 C :   -0.067373
  20 H :    0.165255
  21 H :    0.158293
  22 H :    0.160136
  23 H :    0.179234
  24 H :    0.188671
  25 H :    0.198897
  26 H :    0.200541
  27 H :    0.178874
  28 H :    0.192245
  29 H :    0.173698
  30 H :    0.156922
  31 H :    0.159770
  32 H :    0.173992
  33 H :    0.180607
  34 H :    0.171947
  35 H :    0.175495
  36 H :    0.175728
  37 H :    0.167192

  Mayer bond orders larger than 0.100000
B(  0-C ,  1-C ) :   0.9379 B(  0-C , 20-H ) :   0.9712 B(  0-C , 21-H ) :   0.9730
B(  0-C , 22-H ) :   0.9641 B(  1-C ,  2-O ) :   0.8089 B(  1-C , 23-H ) :   0.9609
B(  1-C , 24-H ) :   0.9681 B(  2-O ,  3-C ) :   1.0796 B(  3-C ,  4-O ) :   1.8233
B(  3-C ,  5-C ) :   0.9328 B(  5-C ,  6-C ) :   0.9127 B(  5-C , 25-H ) :   0.9316
B(  5-C , 26-H ) :   0.9464 B(  6-C ,  7-H ) :   0.8995 B(  6-C ,  8-C ) :   0.9555
B(  6-C , 13-S ) :   0.8468 B(  8-C ,  9-O ) :   1.8053 B(  8-C , 10-O ) :   1.1542
B( 10-O , 11-C ) :   0.7835 B( 11-C , 12-C ) :   0.9449 B( 11-C , 27-H ) :   0.9613
B( 11-C , 28-H ) :   0.9688 B( 12-C , 29-H ) :   0.9573 B( 12-C , 30-H ) :   0.9726
B( 12-C , 31-H ) :   0.9650 B( 13-S , 14-P ) :   0.9823 B( 14-P , 15-S ) :   1.7552
B( 14-P , 16-O ) :   1.1966 B( 14-P , 18-O ) :   0.9953 B( 16-O , 17-C ) :   0.7983
B( 17-C , 32-H ) :   0.9577 B( 17-C , 33-H ) :   0.9649 B( 17-C , 34-H ) :   0.9640
B( 18-O , 19-C ) :   0.8413 B( 19-C , 35-H ) :   0.9690 B( 19-C , 36-H ) :   0.9583
B( 19-C , 37-H ) :   0.9545

Dispersion correction           -0.017252366
FINAL SINGLE POINT ENERGY     -1981.449901445897

DIPOLE MOMENT
-------------

Method             : SCF
Type of density    : Electron Density
Multiplicity       :   1
Irrep              :   0
Energy             : -1981.4704102620189587 Eh
Relativity type    :
Basis              : AO
                                X                 Y                 Z
Electronic contribution:    -12.674636882       4.440798653      -0.899387093
Nuclear contribution   :     13.277711354      -4.802239568       0.538329007
                        -----------------------------------------
Total Dipole Moment    :      0.603074472      -0.361440916      -0.361058086
                        -----------------------------------------
Magnitude (a.u.)       :      0.790380475
Magnitude (Debye)      :      2.008987510

Rotational constants in cm-1:             0.011491             0.007419             0.005605
Rotational constants in MHz :           344.485900           222.409619           168.041295

                             ****ORCA TERMINATED NORMALLY****
TOTAL RUN TIME: 0 days 0 hours 1 minutes 20 seconds 63 msec
