                         Program Version 6.0.1  -  RELEASE   -
|  1> ! r2scan-3c def2/J RI DEFGRID2 scfconv6 printgap
|  2> %output
|  3>     printlevel normal
|  4> end
|  5> %cpcm
|  6>     smd true
|  7>     smdsolvent "water"
|  8> end
|  9> * xyz 0 1
| 10> C 4.2641979993 -3.7605198033 -1.0052918094
| 11> C 2.7514198742 -3.7292144066 -0.8562309026
| 12> O 2.3147813531 -2.4832861784 -0.2779900624
| 13> C 2.1299381231 -1.4529830152 -1.0775744241
| 14> O 2.2542676482 -1.4795110012 -2.2816312411
| 15> C 1.726989889 -0.2148018992 -0.2981838784
| 16> C 0.6633426691 0.5583632323 -1.0689588953
| 17> H 1.0062169691 0.700643159 -2.1000054909
| 18> C 0.3498106018 1.913351983 -0.4641383471
| 19> O -0.7881359365 2.2872535715 -0.2605718871
| 20> O 1.4302752381 2.6060474828 -0.2356704281
| 21> C 1.3048561979 3.8971369854 0.401361326
| 22> C 1.4688959294 3.75517002 1.9052792942
| 23> S -0.890516699 -0.3787390909 -1.230793272
| 24> P -1.8329314282 0.044735244 0.6363919777
| 25> S -0.7389776155 0.4634274623 2.2039532919
| 26> O -3.0634554791 1.0129769819 0.4389273858
| 27> C -4.0101354843 0.8657736215 -0.635607295
| 28> O -2.6375120202 -1.3377353881 0.825477536
| 29> C -1.9582560281 -2.5540374797 1.1430806935
| 30> H 4.586283965 -3.0005813184 -1.7135129963
| 31> H 4.7387240974 -3.5755652338 -0.0455293382
| 32> H 4.5677801035 -4.7350727889 -1.3730129955
| 33> H 2.4052771333 -4.4892654027 -0.1559623404
| 34> H 2.263709541 -3.8511861434 -1.8275460908
| 35> H 2.6081919019 0.421901555 -0.1893542307
| 36> H 1.3788580987 -0.5021862526 0.6951883781
| 37> H 2.1042211097 4.49657966 -0.0345970963
| 38> H 0.3273525294 4.3172221754 0.1512268409
| 39> H 0.701265561 3.0958782245 2.3072479217
| 40> H 2.4426997866 3.3365981681 2.1413088538
| 41> H 1.3744014553 4.7306615473 2.3702123651
| 42> H -3.5044021692 0.9918992935 -1.592812508
| 43> H -4.7369852119 1.6586411104 -0.4796788956
| 44> H -4.4831203272 -0.1134984253 -0.5850148975
| 45> H -2.7365439839 -3.2649610714 1.4079715547
| 46> H -1.2824407955 -2.3967441061 1.9856923364
| 47> H -1.3969493952 -2.9040313589 0.2763881891
| 48> *
| 49>
| 50>                          ****END OF INPUT****

CARTESIAN COORDINATES (ANGSTROEM)
---------------------------------
  C      4.264198   -3.760520   -1.005292
  C      2.751420   -3.729214   -0.856231
  O      2.314781   -2.483286   -0.277990
  C      2.129938   -1.452983   -1.077574
  O      2.254268   -1.479511   -2.281631
  C      1.726990   -0.214802   -0.298184
  C      0.663343    0.558363   -1.068959
  H      1.006217    0.700643   -2.100005
  C      0.349811    1.913352   -0.464138
  O     -0.788136    2.287254   -0.260572
  O      1.430275    2.606047   -0.235670
  C      1.304856    3.897137    0.401361
  C      1.468896    3.755170    1.905279
  S     -0.890517   -0.378739   -1.230793
  P     -1.832931    0.044735    0.636392
  S     -0.738978    0.463427    2.203953
  O     -3.063455    1.012977    0.438927
  C     -4.010135    0.865774   -0.635607
  O     -2.637512   -1.337735    0.825478
  C     -1.958256   -2.554037    1.143081
  H      4.586284   -3.000581   -1.713513
  H      4.738724   -3.575565   -0.045529
  H      4.567780   -4.735073   -1.373013
  H      2.405277   -4.489265   -0.155962
  H      2.263710   -3.851186   -1.827546
  H      2.608192    0.421902   -0.189354
  H      1.378858   -0.502186    0.695188
  H      2.104221    4.496580   -0.034597
  H      0.327353    4.317222    0.151227
  H      0.701266    3.095878    2.307248
  H      2.442700    3.336598    2.141309
  H      1.374401    4.730662    2.370212
  H     -3.504402    0.991899   -1.592813
  H     -4.736985    1.658641   -0.479679
  H     -4.483120   -0.113498   -0.585015
  H     -2.736544   -3.264961    1.407972
  H     -1.282441   -2.396744    1.985692
  H     -1.396949   -2.904031    0.276388

 Total Charge           Charge          ....    0
 Multiplicity           Mult            ....    1
 Number of Electrons    NEL             ....  174
 Basis Dimension        Dim             ....  510

ORBITAL ENERGIES
----------------

  NO   OCC          E(Eh)            E(eV)
   0   2.0000     -88.579493     -2410.3705
   1   2.0000     -88.525374     -2408.8979
   2   2.0000     -76.920937     -2093.1251
   3   2.0000     -19.016402      -517.4626
   4   2.0000     -19.009535      -517.2757
   5   2.0000     -18.995154      -516.8844
   6   2.0000     -18.988718      -516.7093
   7   2.0000     -18.952994      -515.7372
   8   2.0000     -18.949544      -515.6433
   9   2.0000     -10.179226      -276.9908
  10   2.0000     -10.170934      -276.7652
  11   2.0000     -10.100330      -274.8440
  12   2.0000     -10.089219      -274.5416
  13   2.0000     -10.086127      -274.4575
  14   2.0000     -10.084152      -274.4037
  15   2.0000     -10.078754      -274.2568
  16   2.0000     -10.054277      -273.5908
  17   2.0000     -10.019542      -272.6456
  18   2.0000     -10.019467      -272.6435
  19   2.0000      -7.873679      -214.2537
  20   2.0000      -7.820836      -212.8158
  21   2.0000      -6.598690      -179.5595
  22   2.0000      -5.820707      -158.3895
  23   2.0000      -5.817461      -158.3012
  24   2.0000      -5.810740      -158.1183
  25   2.0000      -5.768649      -156.9729
  26   2.0000      -5.761275      -156.7722
  27   2.0000      -5.760379      -156.7479
  28   2.0000      -4.744395      -129.1015
  29   2.0000      -4.743802      -129.0854
  30   2.0000      -4.742265      -129.0436
  31   2.0000      -1.096404       -29.8347
  32   2.0000      -1.087058       -29.5804
  33   2.0000      -1.051180       -28.6041
  34   2.0000      -1.007863       -27.4253
  35   2.0000      -1.003296       -27.3011
  36   2.0000      -0.997314       -27.1383
  37   2.0000      -0.813000       -22.1228
  38   2.0000      -0.749358       -20.3911
  39   2.0000      -0.746347       -20.3091
  40   2.0000      -0.728336       -19.8190
  41   2.0000      -0.696246       -18.9458
  42   2.0000      -0.666882       -18.1468
  43   2.0000      -0.661778       -18.0079
  44   2.0000      -0.656160       -17.8550
  45   2.0000      -0.624981       -17.0066
  46   2.0000      -0.596446       -16.2301
  47   2.0000      -0.540209       -14.6998
  48   2.0000      -0.528515       -14.3816
  49   2.0000      -0.522390       -14.2149
  50   2.0000      -0.510444       -13.8899
  51   2.0000      -0.490106       -13.3365
  52   2.0000      -0.480343       -13.0708
  53   2.0000      -0.475482       -12.9385
  54   2.0000      -0.465769       -12.6742
  55   2.0000      -0.458401       -12.4737
  56   2.0000      -0.446678       -12.1547
  57   2.0000      -0.446135       -12.1399
  58   2.0000      -0.439581       -11.9616
  59   2.0000      -0.426317       -11.6007
  60   2.0000      -0.417851       -11.3703
  61   2.0000      -0.412628       -11.2282
  62   2.0000      -0.409082       -11.1317
  63   2.0000      -0.406681       -11.0663
  64   2.0000      -0.399764       -10.8781
  65   2.0000      -0.379508       -10.3269
  66   2.0000      -0.373714       -10.1693
  67   2.0000      -0.368768       -10.0347
  68   2.0000      -0.359756        -9.7895
  69   2.0000      -0.352192        -9.5836
  70   2.0000      -0.348896        -9.4939
  71   2.0000      -0.342745        -9.3266
  72   2.0000      -0.340488        -9.2652
  73   2.0000      -0.326703        -8.8900
  74   2.0000      -0.317986        -8.6528
  75   2.0000      -0.311642        -8.4802
  76   2.0000      -0.309641        -8.4258
  77   2.0000      -0.308393        -8.3918
  78   2.0000      -0.291578        -7.9342
  79   2.0000      -0.285887        -7.7794
  80   2.0000      -0.284286        -7.7358
  81   2.0000      -0.275874        -7.5069
  82   2.0000      -0.266869        -7.2619
  83   2.0000      -0.259641        -7.0652
  84   2.0000      -0.244116        -6.6427
  85   2.0000      -0.224571        -6.1109
  86   2.0000      -0.221223        -6.0198
  87   0.0000      -0.050952        -1.3865
  88   0.0000      -0.041282        -1.1233
  89   0.0000      -0.021292        -0.5794
  90   0.0000      -0.003317        -0.0903
  91   0.0000       0.014401         0.3919

MULLIKEN ATOMIC CHARGES
-----------------------
   0 C :   -0.497157
   1 C :   -0.140827
   2 O :   -0.187108
   3 C :    0.427674
   4 O :   -0.498280
   5 C :   -0.438406
   6 C :   -0.007672
   7 H :    0.243785
   8 C :    0.352205
   9 O :   -0.447347
  10 O :   -0.171055
  11 C :   -0.137017
  12 C :   -0.497902
  13 S :   -0.183346
  14 P :    0.802636
  15 S :   -0.506802
  16 O :   -0.351004
  17 C :   -0.305993
  18 O :   -0.397383
  19 C :   -0.311621
  20 H :    0.170712
  21 H :    0.166905
  22 H :    0.172042
  23 H :    0.177309
  24 H :    0.174976
  25 H :    0.230982
  26 H :    0.212489
  27 H :    0.179082
  28 H :    0.181433
  29 H :    0.170537
  30 H :    0.170371
  31 H :    0.172723
  32 H :    0.179873
  33 H :    0.181655
  34 H :    0.185065
  35 H :    0.177758
  36 H :    0.177004
  37 H :    0.171707
Sum of atomic charges:   -0.0000000

LOEWDIN ATOMIC CHARGES
----------------------
   0 C :   -0.391167
   1 C :    0.035668
   2 O :   -0.582717
   3 C :    0.360339
   4 O :   -0.485900
   5 C :   -0.204869
   6 C :   -0.189200
   7 H :    0.228441
   8 C :    0.360456
   9 O :   -0.499970
  10 O :   -0.568641
  11 C :    0.043930
  12 C :   -0.393111
  13 S :    0.216738
  14 P :    0.411621
  15 S :   -0.118602
  16 O :   -0.670417
  17 C :   -0.043770
  18 O :   -0.708451
  19 C :   -0.062053
  20 H :    0.163059
  21 H :    0.162783
  22 H :    0.168676
  23 H :    0.190895
  24 H :    0.190819
  25 H :    0.212806
  26 H :    0.199817
  27 H :    0.192176
  28 H :    0.193734
  29 H :    0.164357
  30 H :    0.162948
  31 H :    0.169029
  32 H :    0.179444
  33 H :    0.191684
  34 H :    0.180921
  35 H :    0.187575
  36 H :    0.176540
  37 H :    0.174414

  Mayer bond orders larger than 0.100000
B(  0-C ,  1-C ) :   0.9359 B(  0-C , 20-H ) :   0.9688 B(  0-C , 21-H ) :   0.9692
B(  0-C , 22-H ) :   0.9591 B(  1-C ,  2-O ) :   0.7913 B(  1-C , 23-H ) :   0.9513
B(  1-C , 24-H ) :   0.9627 B(  2-O ,  3-C ) :   1.0979 B(  3-C ,  4-O ) :   1.7793
B(  3-C ,  5-C ) :   0.9450 B(  5-C ,  6-C ) :   0.9048 B(  5-C , 25-H ) :   0.9167
B(  5-C , 26-H ) :   0.9464 B(  6-C ,  7-H ) :   0.8767 B(  6-C ,  8-C ) :   0.9776
B(  6-C , 13-S ) :   0.8249 B(  8-C ,  9-O ) :   1.7696 B(  8-C , 10-O ) :   1.1737
B( 10-O , 11-C ) :   0.7677 B( 11-C , 12-C ) :   0.9322 B( 11-C , 27-H ) :   0.9509
B( 11-C , 28-H ) :   0.9657 B( 12-C , 29-H ) :   0.9626 B( 12-C , 30-H ) :   0.9698
B( 12-C , 31-H ) :   0.9598 B( 13-S , 14-P ) :   0.9996 B( 14-P , 15-S ) :   1.7605
B( 14-P , 16-O ) :   1.1852 B( 14-P , 18-O ) :   0.9961 B( 16-O , 17-C ) :   0.7919
B( 17-C , 32-H ) :   0.9487 B( 17-C , 33-H ) :   0.9542 B( 17-C , 34-H ) :   0.9543
B( 18-O , 19-C ) :   0.8329 B( 19-C , 35-H ) :   0.9587 B( 19-C , 36-H ) :   0.9546
B( 19-C , 37-H ) :   0.9481

Dispersion correction           -0.017252366
FINAL SINGLE POINT ENERGY     -1981.462714185531

DIPOLE MOMENT
-------------

Method             : SCF
Type of density    : Electron Density
Multiplicity       :   1
Irrep              :   0
Energy             : -1981.4832230016536414 Eh
Relativity type    :
Basis              : AO
                                X                 Y                 Z
Electronic contribution:    -12.248627575       4.189491271      -1.108825713
Nuclear contribution   :     13.277711354      -4.802239568       0.538329007
                        -----------------------------------------
Total Dipole Moment    :      1.029083779      -0.612748297      -0.570496706
                        -----------------------------------------
Magnitude (a.u.)       :      1.326627450
Magnitude (Debye)      :      3.372019000

Rotational constants in cm-1:             0.011491             0.007419             0.005605
Rotational constants in MHz :           344.485900           222.409619           168.041295

                             ****ORCA TERMINATED NORMALLY****
TOTAL RUN TIME: 0 days 0 hours 1 minutes 42 seconds 625 msec
