                         Program Version 6.0.0  -   RELEASE  -
|  1> ! pbe def2-sv(p) def2/J RI DEFGRID1 loosescf d4 GCP(DFT/SV(P)) printgap
|  2> %output
|  3>     printlevel normal
|  4> end
|  5> * xyz 0 1
|  6> C 1.1730775664 -0.1550062752 -3.1892715416
|  7> C 2.3033607406 0.4305808543 -2.366043444
|  8> O 2.7688986827 -0.5320221144 -1.4060492186
|  9> P 2.5340205024 -0.4328024737 0.1538969212
| 10> S 2.7059760647 1.3708174904 0.9166060325
| 11> O 3.656849684 -1.4878206496 0.5152037123
| 12> C 3.7181663544 -2.233645019 1.7436802456
| 13> C 3.8911677967 -1.34222282 2.9573324313
| 14> S 0.7139585102 -1.4560285451 0.5738909666
| 15> C -0.0124268003 -0.3255490542 1.8149949486
| 16> S -1.8051986655 -0.2408371778 1.6707921443
| 17> P -1.9076252541 0.5813896726 -0.2939337496
| 18> S -0.575431606 1.9516694333 -0.7141714963
| 19> O -3.4233937965 1.0455316565 -0.3782791368
| 20> C -3.8964119215 2.1867485502 0.3666415099
| 21> C -5.2580624539 2.5644959757 -0.1798828247
| 22> O -1.8538518572 -0.6284312122 -1.2985043478
| 23> C -2.7538154753 -1.7650619066 -1.2313920653
| 24> C -3.9065073543 -1.5894390714 -2.197489083
| 25> H 0.9081179061 0.5454685002 -3.9747343853
| 26> H 1.4856505761 -1.0975810923 -3.6292605396
| 27> H 0.2972261817 -0.3265701613 -2.566481783
| 28> H 1.98771417 1.3446702797 -1.8503649438
| 29> H 3.170484858 0.6543464842 -2.9909324398
| 30> H 2.8106069528 -2.8391861218 1.8287664434
| 31> H 4.5821328728 -2.8854379806 1.6031203666
| 32> H 3.0247935543 -0.6931036667 3.0772214221
| 33> H 4.0027683806 -1.9574329367 3.8443577477
| 34> H 4.7706933557 -0.7138944924 2.840685606
| 35> H 0.4249630713 0.6674788002 1.6712571588
| 36> H 0.1887952777 -0.7083819236 2.8124851712
| 37> H -3.9517445108 1.9066222928 1.4219886204
| 38> H -3.1751104118 3.0022205136 0.2497949431
| 39> H -5.635334959 3.421587599 0.3680359756
| 40> H -5.1803628573 2.8191231168 -1.2331558609
| 41> H -5.9481482037 1.733624725 -0.0661704506
| 42> H -2.1303374526 -2.6203195967 -1.4981613734
| 43> H -3.1088547827 -1.8747431319 -0.2031269928
| 44> H -4.5297196387 -2.4777454377 -2.16951542
| 45> H -4.501221704 -0.7235927399 -1.9194838406
| 46> H -3.5299137363 -1.4465241823 -3.2065107271
| 47> *
| 48>
| 49>                          ****END OF INPUT****

CARTESIAN COORDINATES (ANGSTROEM)
---------------------------------
  C      1.173078   -0.155006   -3.189272
  C      2.303361    0.430581   -2.366043
  O      2.768899   -0.532022   -1.406049
  P      2.534021   -0.432802    0.153897
  S      2.705976    1.370817    0.916606
  O      3.656850   -1.487821    0.515204
  C      3.718166   -2.233645    1.743680
  C      3.891168   -1.342223    2.957332
  S      0.713959   -1.456029    0.573891
  C     -0.012427   -0.325549    1.814995
  S     -1.805199   -0.240837    1.670792
  P     -1.907625    0.581390   -0.293934
  S     -0.575432    1.951669   -0.714171
  O     -3.423394    1.045532   -0.378279
  C     -3.896412    2.186749    0.366642
  C     -5.258062    2.564496   -0.179883
  O     -1.853852   -0.628431   -1.298504
  C     -2.753815   -1.765062   -1.231392
  C     -3.906507   -1.589439   -2.197489
  H      0.908118    0.545469   -3.974734
  H      1.485651   -1.097581   -3.629261
  H      0.297226   -0.326570   -2.566482
  H      1.987714    1.344670   -1.850365
  H      3.170485    0.654346   -2.990932
  H      2.810607   -2.839186    1.828766
  H      4.582133   -2.885438    1.603120
  H      3.024794   -0.693104    3.077221
  H      4.002768   -1.957433    3.844358
  H      4.770693   -0.713894    2.840686
  H      0.424963    0.667479    1.671257
  H      0.188795   -0.708382    2.812485
  H     -3.951745    1.906622    1.421989
  H     -3.175110    3.002221    0.249795
  H     -5.635335    3.421588    0.368036
  H     -5.180363    2.819123   -1.233156
  H     -5.948148    1.733625   -0.066170
  H     -2.130337   -2.620320   -1.498161
  H     -3.108855   -1.874743   -0.203127
  H     -4.529720   -2.477745   -2.169515
  H     -4.501222   -0.723593   -1.919484
  H     -3.529914   -1.446524   -3.206511

 Total Charge           Charge          ....    0
 Multiplicity           Mult            ....    1
 Number of Electrons    NEL             ....  202
 Basis Dimension        Dim             ....  334

ORBITAL ENERGIES
----------------

  NO   OCC          E(Eh)            E(eV)
   0   2.0000     -88.048438     -2395.9198
   1   2.0000     -88.042305     -2395.7529
   2   2.0000     -87.984792     -2394.1879
   3   2.0000     -87.980255     -2394.0644
   4   2.0000     -76.429011     -2079.7391
   5   2.0000     -76.421077     -2079.5232
   6   2.0000     -18.800396      -511.5848
   7   2.0000     -18.798243      -511.5262
   8   2.0000     -18.783716      -511.1309
   9   2.0000     -18.780434      -511.0416
  10   2.0000      -9.959467      -271.0109
  11   2.0000      -9.958669      -270.9892
  12   2.0000      -9.954591      -270.8782
  13   2.0000      -9.951385      -270.7909
  14   2.0000      -9.935810      -270.3671
  15   2.0000      -9.893773      -269.2232
  16   2.0000      -9.889887      -269.1175
  17   2.0000      -9.881651      -268.8934
  18   2.0000      -9.865991      -268.4673
  19   2.0000      -7.693527      -209.3515
  20   2.0000      -7.686681      -209.1652
  21   2.0000      -7.629689      -207.6144
  22   2.0000      -7.625292      -207.4947
  23   2.0000      -6.426481      -174.8734
  24   2.0000      -6.418179      -174.6475
  25   2.0000      -5.721358      -155.6861
  26   2.0000      -5.717829      -155.5900
  27   2.0000      -5.714521      -155.5000
  28   2.0000      -5.711171      -155.4089
  29   2.0000      -5.710786      -155.3984
  30   2.0000      -5.703827      -155.2090
  31   2.0000      -5.658700      -153.9811
  32   2.0000      -5.654191      -153.8584
  33   2.0000      -5.650094      -153.7469
  34   2.0000      -5.649950      -153.7430
  35   2.0000      -5.645847      -153.6313
  36   2.0000      -5.645522      -153.6225
  37   2.0000      -4.649331      -126.5147
  38   2.0000      -4.648384      -126.4890
  39   2.0000      -4.646524      -126.4383
  40   2.0000      -4.640403      -126.2718
  41   2.0000      -4.640344      -126.2702
  42   2.0000      -4.638604      -126.2228
  43   2.0000      -0.994941       -27.0737
  44   2.0000      -0.981248       -26.7011
  45   2.0000      -0.952136       -25.9089
  46   2.0000      -0.935588       -25.4586
  47   2.0000      -0.763280       -20.7699
  48   2.0000      -0.722547       -19.6615
  49   2.0000      -0.709973       -19.3193
  50   2.0000      -0.697506       -18.9801
  51   2.0000      -0.679704       -18.4957
  52   2.0000      -0.671094       -18.2614
  53   2.0000      -0.649342       -17.6695
  54   2.0000      -0.632515       -17.2116
  55   2.0000      -0.593202       -16.1418
  56   2.0000      -0.590295       -16.0627
  57   2.0000      -0.575534       -15.6611
  58   2.0000      -0.569461       -15.4958
  59   2.0000      -0.555824       -15.1247
  60   2.0000      -0.512597       -13.9485
  61   2.0000      -0.492535       -13.4026
  62   2.0000      -0.486748       -13.2451
  63   2.0000      -0.463174       -12.6036
  64   2.0000      -0.451554       -12.2874
  65   2.0000      -0.448463       -12.2033
  66   2.0000      -0.446060       -12.1379
  67   2.0000      -0.435599       -11.8532
  68   2.0000      -0.419915       -11.4265
  69   2.0000      -0.413200       -11.2437
  70   2.0000      -0.408596       -11.1185
  71   2.0000      -0.407757       -11.0956
  72   2.0000      -0.393815       -10.7163
  73   2.0000      -0.386906       -10.5282
  74   2.0000      -0.377296       -10.2667
  75   2.0000      -0.370157       -10.0725
  76   2.0000      -0.362789        -9.8720
  77   2.0000      -0.358772        -9.7627
  78   2.0000      -0.356102        -9.6900
  79   2.0000      -0.349954        -9.5227
  80   2.0000      -0.346911        -9.4399
  81   2.0000      -0.345109        -9.3909
  82   2.0000      -0.340765        -9.2727
  83   2.0000      -0.334423        -9.1001
  84   2.0000      -0.322247        -8.7688
  85   2.0000      -0.320705        -8.7268
  86   2.0000      -0.310879        -8.4594
  87   2.0000      -0.305426        -8.3111
  88   2.0000      -0.298026        -8.1097
  89   2.0000      -0.290860        -7.9147
  90   2.0000      -0.280226        -7.6253
  91   2.0000      -0.277162        -7.5420
  92   2.0000      -0.265840        -7.2339
  93   2.0000      -0.263231        -7.1629
  94   2.0000      -0.254868        -6.9353
  95   2.0000      -0.236149        -6.4259
  96   2.0000      -0.223743        -6.0884
  97   2.0000      -0.210582        -5.7302
  98   2.0000      -0.203197        -5.5293
  99   2.0000      -0.195664        -5.3243
 100   2.0000      -0.186155        -5.0655
 101   0.0000      -0.044198        -1.2027
 102   0.0000      -0.033748        -0.9183
 103   0.0000      -0.010094        -0.2747
 104   0.0000       0.011711         0.3187
 105   0.0000       0.014812         0.4031

MULLIKEN ATOMIC CHARGES
-----------------------
   0 C :   -0.307848
   1 C :   -0.010701
   2 O :   -0.356547
   3 P :    0.608243
   4 S :   -0.310563
   5 O :   -0.356205
   6 C :   -0.006776
   7 C :   -0.311459
   8 S :   -0.130843
   9 C :   -0.356597
  10 S :   -0.111871
  11 P :    0.597979
  12 S :   -0.295844
  13 O :   -0.381611
  14 C :   -0.013828
  15 C :   -0.283706
  16 O :   -0.345260
  17 C :   -0.008992
  18 C :   -0.291776
  19 H :    0.102760
  20 H :    0.101761
  21 H :    0.139581
  22 H :    0.122877
  23 H :    0.099304
  24 H :    0.105475
  25 H :    0.107900
  26 H :    0.121913
  27 H :    0.107687
  28 H :    0.125596
  29 H :    0.217368
  30 H :    0.180755
  31 H :    0.106000
  32 H :    0.110473
  33 H :    0.115622
  34 H :    0.123993
  35 H :    0.116163
  36 H :    0.112876
  37 H :    0.101421
  38 H :    0.110820
  39 H :    0.122866
  40 H :    0.120992
Sum of atomic charges:    0.0000000

LOEWDIN ATOMIC CHARGES
----------------------
   0 C :   -0.366198
   1 C :   -0.117934
   2 O :   -0.231677
   3 P :    0.567063
   4 S :   -0.294991
   5 O :   -0.235518
   6 C :   -0.119483
   7 C :   -0.367413
   8 S :    0.060461
   9 C :   -0.482291
  10 S :    0.066795
  11 P :    0.562949
  12 S :   -0.287774
  13 O :   -0.249166
  14 C :   -0.120113
  15 C :   -0.350509
  16 O :   -0.225645
  17 C :   -0.114787
  18 C :   -0.359383
  19 H :    0.127853
  20 H :    0.119517
  21 H :    0.121369
  22 H :    0.105827
  23 H :    0.114819
  24 H :    0.102173
  25 H :    0.120666
  26 H :    0.117761
  27 H :    0.127728
  28 H :    0.131047
  29 H :    0.124319
  30 H :    0.131496
  31 H :    0.109181
  32 H :    0.112390
  33 H :    0.132749
  34 H :    0.130234
  35 H :    0.125717
  36 H :    0.121761
  37 H :    0.103544
  38 H :    0.130125
  39 H :    0.126006
  40 H :    0.129332

  Mayer bond orders larger than 0.100000
B(  0-C ,  1-C ) :   1.1697 B(  0-C , 19-H ) :   0.9409 B(  0-C , 20-H ) :   0.9463
B(  0-C , 21-H ) :   0.9263 B(  1-C ,  2-O ) :   0.9014 B(  1-C , 22-H ) :   0.9010
B(  1-C , 23-H ) :   0.9344 B(  2-O ,  3-P ) :   1.1478 B(  3-P ,  4-S ) :   1.6262
B(  3-P ,  5-O ) :   1.1183 B(  3-P ,  8-S ) :   0.9248 B(  4-S ,  8-S ) :   0.1278
B(  5-O ,  6-C ) :   0.9265 B(  6-C ,  7-C ) :   1.1604 B(  6-C , 24-H ) :   0.9164
B(  6-C , 25-H ) :   0.9341 B(  7-C , 26-H ) :   0.9335 B(  7-C , 27-H ) :   0.9370
B(  7-C , 28-H ) :   0.9447 B(  8-S ,  9-C ) :   0.9897 B(  9-C , 10-S ) :   1.0066
B(  9-C , 29-H ) :   0.8403 B(  9-C , 30-H ) :   0.9059 B( 10-S , 11-P ) :   0.9417
B( 10-S , 12-S ) :   0.1085 B( 11-P , 12-S ) :   1.6702 B( 11-P , 13-O ) :   1.0799
B( 11-P , 16-O ) :   1.1247 B( 13-O , 14-C ) :   0.9019 B( 14-C , 15-C ) :   1.1600
B( 14-C , 31-H ) :   0.9275 B( 14-C , 32-H ) :   0.9115 B( 15-C , 33-H ) :   0.9415
B( 15-C , 34-H ) :   0.9507 B( 15-C , 35-H ) :   0.9506 B( 16-O , 17-C ) :   0.8853
B( 17-C , 18-C ) :   1.1658 B( 17-C , 36-H ) :   0.9342 B( 17-C , 37-H ) :   0.9111
B( 18-C , 38-H ) :   0.9397 B( 18-C , 39-H ) :   0.9412 B( 18-C , 40-H ) :   0.9472

Dispersion correction           -0.065208663
FINAL SINGLE POINT ENERGY     -2929.520937219570

DIPOLE MOMENT
-------------

Method             : SCF
Type of density    : Electron Density
Multiplicity       :   1
Irrep              :   0
Energy             : -2929.6401637957687853 Eh
Relativity type    :
Basis              : AO
                                X                 Y                 Z
Electronic contribution:     12.206333945       3.145353103       5.555985404
Nuclear contribution   :    -13.741693868      -4.208961262      -5.228294891
                        -----------------------------------------
Total Dipole Moment    :     -1.535359923      -1.063608159       0.327690513
                        -----------------------------------------
Magnitude (a.u.)       :      1.896305218
Magnitude (Debye)      :      4.820024811

Rotational constants in cm-1:             0.012931             0.004779             0.004611
Rotational constants in MHz :           387.660046           143.270414           138.243227

                             ****ORCA TERMINATED NORMALLY****
TOTAL RUN TIME: 0 days 0 hours 0 minutes 21 seconds 29 msec
