                         Program Version 6.0.1  -  RELEASE   -
|  1> ! pbe def2-sv(p) def2/J RI DEFGRID1 loosescf d4 GCP(DFT/SV(P)) printgap
|  2> %output
|  3>     printlevel normal
|  4> end
|  5> * xyz 0 1
|  6> C 4.9767080005 0.3128094524 -0.8484955586
|  7> C 4.5762879345 -1.1315797668 -1.1003958254
|  8> O 3.1451732028 -1.2509468195 -1.2185638651
|  9> C 2.4399459853 -1.5350304433 -0.1409629403
| 10> O 2.9057810581 -1.7447158282 0.955115657
| 11> C 0.9556224313 -1.60478834 -0.4616475165
| 12> C 0.4731128212 -0.2808148861 -1.0584103029
| 13> H 1.0741214048 -0.0343478108 -1.9375226808
| 14> C 0.5728142408 0.838959123 -0.0441062329
| 15> O -0.4004329864 1.4547616311 0.3477918351
| 16> O 1.7961020409 1.0324455981 0.3572902485
| 17> C 2.0426709854 2.0333669713 1.3712452989
| 18> C 2.345342689 3.3784498608 0.7336782196
| 19> S -1.2480277252 -0.367210721 -1.6527340812
| 20> P -2.3873979129 -0.0516145119 0.111272723
| 21> S -1.7557566498 -0.7107557682 1.8596129205
| 22> O -3.0995974637 1.363959174 0.0424421599
| 23> C -2.9163160752 2.4374196261 0.9664215734
| 24> O -3.7073046369 -0.8393379206 -0.3522673173
| 25> C -3.7237519062 -2.2635935958 -0.4667800904
| 26> H 6.0587652215 0.3840771884 -0.8122867925
| 27> H 4.6012973518 0.9495664975 -1.6445671617
| 28> H 4.5657696983 0.6503079095 0.099235627
| 29> H 4.9141013184 -1.7772183908 -0.2850538769
| 30> H 4.9628164932 -1.490626313 -2.0547117044
| 31> H 0.4124153294 -1.8418766307 0.4554436193
| 32> H 0.7952564443 -2.3952575284 -1.1957543578
| 33> H 1.1669522426 2.089477266 2.0230996894
| 34> H 2.8969071289 1.6484490903 1.9294255076
| 35> H 3.194940698 3.2940966548 0.061992644
| 36> H 1.4827786633 3.7326140201 0.1742268385
| 37> H 2.5767758656 4.0954801964 1.5141924484
| 38> H -2.2434930818 3.1734432056 0.530389812
| 39> H -2.499546946 2.0677895077 1.9047948341
| 40> H -3.9033991696 2.8637158718 1.1328532022
| 41> H -3.2885826263 -2.7173315379 0.4263087456
| 42> H -3.1702899312 -2.5769454921 -1.3523530772
| 43> H -4.7718599913 -2.5378323061 -0.5559283429
| 44> *
| 45>
| 46>                          ****END OF INPUT****

CARTESIAN COORDINATES (ANGSTROEM)
---------------------------------
  C      4.976708    0.312809   -0.848496
  C      4.576288   -1.131580   -1.100396
  O      3.145173   -1.250947   -1.218564
  C      2.439946   -1.535030   -0.140963
  O      2.905781   -1.744716    0.955116
  C      0.955622   -1.604788   -0.461648
  C      0.473113   -0.280815   -1.058410
  H      1.074121   -0.034348   -1.937523
  C      0.572814    0.838959   -0.044106
  O     -0.400433    1.454762    0.347792
  O      1.796102    1.032446    0.357290
  C      2.042671    2.033367    1.371245
  C      2.345343    3.378450    0.733678
  S     -1.248028   -0.367211   -1.652734
  P     -2.387398   -0.051615    0.111273
  S     -1.755757   -0.710756    1.859613
  O     -3.099597    1.363959    0.042442
  C     -2.916316    2.437420    0.966422
  O     -3.707305   -0.839338   -0.352267
  C     -3.723752   -2.263594   -0.466780
  H      6.058765    0.384077   -0.812287
  H      4.601297    0.949566   -1.644567
  H      4.565770    0.650308    0.099236
  H      4.914101   -1.777218   -0.285054
  H      4.962816   -1.490626   -2.054712
  H      0.412415   -1.841877    0.455444
  H      0.795256   -2.395258   -1.195754
  H      1.166952    2.089477    2.023100
  H      2.896907    1.648449    1.929426
  H      3.194941    3.294097    0.061993
  H      1.482779    3.732614    0.174227
  H      2.576776    4.095480    1.514192
  H     -2.243493    3.173443    0.530390
  H     -2.499547    2.067790    1.904795
  H     -3.903399    2.863716    1.132853
  H     -3.288583   -2.717332    0.426309
  H     -3.170290   -2.576945   -1.352353
  H     -4.771860   -2.537832   -0.555928

 Total Charge           Charge          ....    0
 Multiplicity           Mult            ....    1
 Number of Electrons    NEL             ....  174
 Basis Dimension        Dim             ....  316

ORBITAL ENERGIES
----------------

  NO   OCC          E(Eh)            E(eV)
   0   2.0000     -88.036070     -2395.5833
   1   2.0000     -87.972040     -2393.8409
   2   2.0000     -76.419258     -2079.4737
   3   2.0000     -18.832088      -512.4472
   4   2.0000     -18.806308      -511.7457
   5   2.0000     -18.778074      -510.9774
   6   2.0000     -18.771701      -510.8040
   7   2.0000     -18.765973      -510.6481
   8   2.0000     -18.739521      -509.9283
   9   2.0000     -10.036295      -273.1015
  10   2.0000     -10.012099      -272.4431
  11   2.0000      -9.963981      -271.1337
  12   2.0000      -9.955877      -270.9132
  13   2.0000      -9.953560      -270.8501
  14   2.0000      -9.932644      -270.2810
  15   2.0000      -9.929951      -270.2077
  16   2.0000      -9.909010      -269.6379
  17   2.0000      -9.901982      -269.4466
  18   2.0000      -9.895453      -269.2690
  19   2.0000      -7.681208      -209.0163
  20   2.0000      -7.617013      -207.2695
  21   2.0000      -6.414729      -174.5536
  22   2.0000      -5.709326      -155.3587
  23   2.0000      -5.705655      -155.2588
  24   2.0000      -5.697951      -155.0491
  25   2.0000      -5.646144      -153.6394
  26   2.0000      -5.637934      -153.4160
  27   2.0000      -5.636663      -153.3814
  28   2.0000      -4.637140      -126.1830
  29   2.0000      -4.636887      -126.1761
  30   2.0000      -4.635384      -126.1352
  31   2.0000      -1.041535       -28.3416
  32   2.0000      -1.013487       -27.5784
  33   2.0000      -0.971451       -26.4345
  34   2.0000      -0.945409       -25.7259
  35   2.0000      -0.925218       -25.1765
  36   2.0000      -0.917110       -24.9558
  37   2.0000      -0.771313       -20.9885
  38   2.0000      -0.721073       -19.6214
  39   2.0000      -0.714601       -19.4453
  40   2.0000      -0.687930       -18.7195
  41   2.0000      -0.656148       -17.8547
  42   2.0000      -0.633029       -17.2256
  43   2.0000      -0.620388       -16.8816
  44   2.0000      -0.610010       -16.5992
  45   2.0000      -0.599439       -16.3116
  46   2.0000      -0.574108       -15.6223
  47   2.0000      -0.519447       -14.1349
  48   2.0000      -0.506115       -13.7721
  49   2.0000      -0.505257       -13.7487
  50   2.0000      -0.489652       -13.3241
  51   2.0000      -0.466820       -12.7028
  52   2.0000      -0.466201       -12.6860
  53   2.0000      -0.451342       -12.2816
  54   2.0000      -0.442677       -12.0459
  55   2.0000      -0.435862       -11.8604
  56   2.0000      -0.431976       -11.7547
  57   2.0000      -0.416558       -11.3351
  58   2.0000      -0.410700       -11.1757
  59   2.0000      -0.406741       -11.0680
  60   2.0000      -0.399624       -10.8743
  61   2.0000      -0.396883       -10.7997
  62   2.0000      -0.390568       -10.6279
  63   2.0000      -0.385765       -10.4972
  64   2.0000      -0.382430       -10.4065
  65   2.0000      -0.372132       -10.1262
  66   2.0000      -0.364509        -9.9188
  67   2.0000      -0.362342        -9.8598
  68   2.0000      -0.357687        -9.7332
  69   2.0000      -0.348437        -9.4815
  70   2.0000      -0.342274        -9.3138
  71   2.0000      -0.334815        -9.1108
  72   2.0000      -0.332395        -9.0449
  73   2.0000      -0.313419        -8.5286
  74   2.0000      -0.308730        -8.4010
  75   2.0000      -0.298483        -8.1221
  76   2.0000      -0.293899        -7.9974
  77   2.0000      -0.287577        -7.8254
  78   2.0000      -0.277542        -7.5523
  79   2.0000      -0.263393        -7.1673
  80   2.0000      -0.263110        -7.1596
  81   2.0000      -0.246507        -6.7078
  82   2.0000      -0.245217        -6.6727
  83   2.0000      -0.229870        -6.2551
  84   2.0000      -0.215478        -5.8635
  85   2.0000      -0.191775        -5.2185
  86   2.0000      -0.184740        -5.0270
  87   0.0000      -0.051573        -1.4034
  88   0.0000      -0.038195        -1.0393
  89   0.0000      -0.021940        -0.5970
  90   0.0000       0.008791         0.2392
  91   0.0000       0.021727         0.5912

MULLIKEN ATOMIC CHARGES
-----------------------
   0 C :   -0.312184
   1 C :   -0.015216
   2 O :   -0.244288
   3 C :    0.101743
   4 O :   -0.191053
   5 C :   -0.042890
   6 C :   -0.330497
   7 H :    0.157838
   8 C :    0.230304
   9 O :   -0.195798
  10 O :   -0.217785
  11 C :   -0.018944
  12 C :   -0.308495
  13 S :   -0.085772
  14 P :    0.622545
  15 S :   -0.344886
  16 O :   -0.368363
  17 C :   -0.084014
  18 O :   -0.375198
  19 C :   -0.099658
  20 H :    0.113885
  21 H :    0.113604
  22 H :    0.129757
  23 H :    0.112962
  24 H :    0.104658
  25 H :    0.122399
  26 H :    0.119944
  27 H :    0.126446
  28 H :    0.125335
  29 H :    0.119156
  30 H :    0.126133
  31 H :    0.122093
  32 H :    0.111037
  33 H :    0.116101
  34 H :    0.119080
  35 H :    0.111244
  36 H :    0.107619
  37 H :    0.121158
Sum of atomic charges:    0.0000000

LOEWDIN ATOMIC CHARGES
----------------------
   0 C :   -0.355828
   1 C :   -0.110108
   2 O :   -0.066154
   3 C :    0.022276
   4 O :   -0.159831
   5 C :   -0.247690
   6 C :   -0.268034
   7 H :    0.149530
   8 C :    0.033351
   9 O :   -0.150689
  10 O :   -0.024293
  11 C :   -0.105119
  12 C :   -0.354150
  13 S :    0.104575
  14 P :    0.586296
  15 S :   -0.340258
  16 O :   -0.238478
  17 C :   -0.207817
  18 O :   -0.259406
  19 C :   -0.221919
  20 H :    0.131062
  21 H :    0.123472
  22 H :    0.127053
  23 H :    0.121862
  24 H :    0.118250
  25 H :    0.136238
  26 H :    0.143341
  27 H :    0.128268
  28 H :    0.125261
  29 H :    0.126421
  30 H :    0.130467
  31 H :    0.135708
  32 H :    0.110585
  33 H :    0.108837
  34 H :    0.117293
  35 H :    0.106394
  36 H :    0.102824
  37 H :    0.120408

  Mayer bond orders larger than 0.100000
B(  0-C ,  1-C ) :   1.1764 B(  0-C , 20-H ) :   0.9416 B(  0-C , 21-H ) :   0.9483
B(  0-C , 22-H ) :   0.9396 B(  1-C ,  2-O ) :   0.9176 B(  1-C , 23-H ) :   0.9104
B(  1-C , 24-H ) :   0.9374 B(  2-O ,  3-C ) :   1.1929 B(  3-C ,  4-O ) :   2.0756
B(  3-C ,  5-C ) :   1.0139 B(  5-C ,  6-C ) :   1.0259 B(  5-C , 25-H ) :   0.8781
B(  5-C , 26-H ) :   0.8864 B(  6-C ,  7-H ) :   0.8664 B(  6-C ,  8-C ) :   0.9045
B(  6-C , 13-S ) :   1.0299 B(  8-C ,  9-O ) :   1.9243 B(  8-C , 10-O ) :   1.2745
B(  9-O , 14-P ) :   0.1198 B( 10-O , 11-C ) :   0.8842 B( 11-C , 12-C ) :   1.1782
B( 11-C , 27-H ) :   0.9127 B( 11-C , 28-H ) :   0.9259 B( 12-C , 29-H ) :   0.9478
B( 12-C , 30-H ) :   0.9452 B( 12-C , 31-H ) :   0.9432 B( 13-S , 14-P ) :   0.9304
B( 13-S , 15-S ) :   0.1160 B( 14-P , 15-S ) :   1.5574 B( 14-P , 16-O ) :   1.1343
B( 14-P , 18-O ) :   1.0792 B( 16-O , 17-C ) :   0.9299 B( 17-C , 32-H ) :   0.9548
B( 17-C , 33-H ) :   0.9345 B( 17-C , 34-H ) :   0.9543 B( 18-O , 19-C ) :   0.9459
B( 19-C , 35-H ) :   0.9322 B( 19-C , 36-H ) :   0.9445 B( 19-C , 37-H ) :   0.9596

Dispersion correction           -0.052546119
FINAL SINGLE POINT ENERGY     -1979.013199533334

DIPOLE MOMENT
-------------

Method             : SCF
Type of density    : Electron Density
Multiplicity       :   1
Irrep              :   0
Energy             : -1979.1446477605222753 Eh
Relativity type    :
Basis              : AO
                                X                 Y                 Z
Electronic contribution:    -18.371704022      -8.105990863      -1.129537292
Nuclear contribution   :     19.891341898       9.062975450       0.284741389
                        -----------------------------------------
Total Dipole Moment    :      1.519637877       0.956984587      -0.844795902
                        -----------------------------------------
Magnitude (a.u.)       :      1.984640746
Magnitude (Debye)      :      5.044555880

Rotational constants in cm-1:             0.016119             0.006491             0.005493
Rotational constants in MHz :           483.232336           194.591583           164.690226

                             ****ORCA TERMINATED NORMALLY****
TOTAL RUN TIME: 0 days 0 hours 0 minutes 46 seconds 38 msec
