                         Program Version 6.0.1  -  RELEASE   -
|  1> ! pbe def2-sv(p) def2/J RI DEFGRID1 loosescf d4 GCP(DFT/SV(P)) printgap
|  2> %output
|  3>     printlevel normal
|  4> end
|  5> * xyz 0 1
|  6> C 4.231090559 -3.1989350895 -2.0321712845
|  7> C 2.7257892707 -3.1787453511 -1.8186362883
|  8> O 2.2904572469 -1.8866198373 -1.3555434392
|  9> C 2.3003856015 -1.6466171734 -0.0594617287
| 10> O 2.646548714 -2.4425640442 0.7849569151
| 11> C 1.8323804365 -0.2421696264 0.2720668259
| 12> C 0.9292813874 0.3559932147 -0.8025145856
| 13> H 1.4589613129 0.3976851355 -1.7576188476
| 14> C 0.4638608485 1.7461194344 -0.4182000478
| 15> O -0.7138959106 2.0295321052 -0.3134969968
| 16> O 1.4583492052 2.5649021343 -0.2312214989
| 17> C 1.1691449055 3.9021321404 0.2363740736
| 18> C 1.0958636165 3.9269902875 1.7540003061
| 19> S -0.5435458242 -0.6609059669 -1.1299632406
| 20> P -1.8117015234 -0.1163893657 0.5048417768
| 21> S -1.1240869779 0.5712939332 2.2074005036
| 22> O -3.1280104983 0.5587688152 -0.0991924876
| 23> C -3.4514570558 1.945685343 -0.1860245612
| 24> O -2.4198157416 -1.5548310365 0.8366368724
| 25> C -3.100775516 -2.37124305 -0.1288196973
| 26> H 4.7445563708 -3.054076051 -1.0843718201
| 27> H 4.5211494726 -4.1590748712 -2.4457298422
| 28> H 4.5228904003 -2.4096591507 -2.7192755042
| 29> H 2.4282503461 -3.9315818451 -1.0834368261
| 30> H 2.1865128404 -3.3262231062 -2.7543411314
| 31> H 2.7175544373 0.3892982665 0.3842752318
| 32> H 1.3252313821 -0.2787214731 1.2403241278
| 33> H 1.9986552601 4.5031132442 -0.1353484266
| 34> H 0.2254656695 4.2308475575 -0.2055930616
| 35> H 2.0415922742 3.6104347399 2.1841532624
| 36> H 0.8710458779 4.9346897961 2.0866131159
| 37> H 0.3141635549 3.2556936303 2.106942571
| 38> H -4.5386250267 1.9886352141 -0.1878188212
| 39> H -3.0438244477 2.3618638214 -1.1050719945
| 40> H -3.0480099303 2.4832173241 0.6715859622
| 41> H -3.3096869622 -3.3058771276 0.3856367028
| 42> H -2.4580590501 -2.5438829624 -0.9927635626
| 43> H -4.0238542505 -1.885764484 -0.4402120647
| 44> *
| 45>
| 46>                          ****END OF INPUT****

CARTESIAN COORDINATES (ANGSTROEM)
---------------------------------
  C      4.231091   -3.198935   -2.032171
  C      2.725789   -3.178745   -1.818636
  O      2.290457   -1.886620   -1.355543
  C      2.300386   -1.646617   -0.059462
  O      2.646549   -2.442564    0.784957
  C      1.832380   -0.242170    0.272067
  C      0.929281    0.355993   -0.802515
  H      1.458961    0.397685   -1.757619
  C      0.463861    1.746119   -0.418200
  O     -0.713896    2.029532   -0.313497
  O      1.458349    2.564902   -0.231221
  C      1.169145    3.902132    0.236374
  C      1.095864    3.926990    1.754000
  S     -0.543546   -0.660906   -1.129963
  P     -1.811702   -0.116389    0.504842
  S     -1.124087    0.571294    2.207401
  O     -3.128010    0.558769   -0.099192
  C     -3.451457    1.945685   -0.186025
  O     -2.419816   -1.554831    0.836637
  C     -3.100776   -2.371243   -0.128820
  H      4.744556   -3.054076   -1.084372
  H      4.521149   -4.159075   -2.445730
  H      4.522890   -2.409659   -2.719276
  H      2.428250   -3.931582   -1.083437
  H      2.186513   -3.326223   -2.754341
  H      2.717554    0.389298    0.384275
  H      1.325231   -0.278721    1.240324
  H      1.998655    4.503113   -0.135348
  H      0.225466    4.230848   -0.205593
  H      2.041592    3.610435    2.184153
  H      0.871046    4.934690    2.086613
  H      0.314164    3.255694    2.106943
  H     -4.538625    1.988635   -0.187819
  H     -3.043824    2.361864   -1.105072
  H     -3.048010    2.483217    0.671586
  H     -3.309687   -3.305877    0.385637
  H     -2.458059   -2.543883   -0.992764
  H     -4.023854   -1.885764   -0.440212

 Total Charge           Charge          ....    0
 Multiplicity           Mult            ....    1
 Number of Electrons    NEL             ....  174
 Basis Dimension        Dim             ....  316

ORBITAL ENERGIES
----------------

  NO   OCC          E(Eh)            E(eV)
   0   2.0000     -88.033382     -2395.5101
   1   2.0000     -87.971546     -2393.8275
   2   2.0000     -76.419827     -2079.4892
   3   2.0000     -18.826439      -512.2935
   4   2.0000     -18.804904      -511.7075
   5   2.0000     -18.782714      -511.1036
   6   2.0000     -18.772565      -510.8275
   7   2.0000     -18.760668      -510.5037
   8   2.0000     -18.734022      -509.7786
   9   2.0000     -10.031379      -272.9677
  10   2.0000     -10.008946      -272.3573
  11   2.0000      -9.960352      -271.0349
  12   2.0000      -9.951902      -270.8050
  13   2.0000      -9.949518      -270.7402
  14   2.0000      -9.938121      -270.4300
  15   2.0000      -9.935391      -270.3557
  16   2.0000      -9.907255      -269.5901
  17   2.0000      -9.889201      -269.0989
  18   2.0000      -9.888760      -269.0868
  19   2.0000      -7.678273      -208.9364
  20   2.0000      -7.616800      -207.2637
  21   2.0000      -6.415442      -174.5731
  22   2.0000      -5.706344      -155.2775
  23   2.0000      -5.702938      -155.1848
  24   2.0000      -5.694897      -154.9660
  25   2.0000      -5.646131      -153.6390
  26   2.0000      -5.637608      -153.4071
  27   2.0000      -5.636259      -153.3704
  28   2.0000      -4.638340      -126.2156
  29   2.0000      -4.637370      -126.1893
  30   2.0000      -4.635936      -126.1502
  31   2.0000      -1.035839       -28.1866
  32   2.0000      -1.011382       -27.5211
  33   2.0000      -0.971828       -26.4448
  34   2.0000      -0.940942       -25.6043
  35   2.0000      -0.926044       -25.1989
  36   2.0000      -0.912635       -24.8340
  37   2.0000      -0.767999       -20.8983
  38   2.0000      -0.716324       -19.4922
  39   2.0000      -0.707934       -19.2639
  40   2.0000      -0.688020       -18.7220
  41   2.0000      -0.655126       -17.8269
  42   2.0000      -0.629656       -17.1338
  43   2.0000      -0.627384       -17.0720
  44   2.0000      -0.608378       -16.5548
  45   2.0000      -0.596018       -16.2185
  46   2.0000      -0.571600       -15.5540
  47   2.0000      -0.512829       -13.9548
  48   2.0000      -0.507665       -13.8143
  49   2.0000      -0.500305       -13.6140
  50   2.0000      -0.486950       -13.2506
  51   2.0000      -0.468126       -12.7384
  52   2.0000      -0.462424       -12.5832
  53   2.0000      -0.450887       -12.2693
  54   2.0000      -0.440766       -11.9938
  55   2.0000      -0.433684       -11.8011
  56   2.0000      -0.422697       -11.5022
  57   2.0000      -0.420388       -11.4393
  58   2.0000      -0.410759       -11.1773
  59   2.0000      -0.406600       -11.0641
  60   2.0000      -0.401095       -10.9143
  61   2.0000      -0.398851       -10.8533
  62   2.0000      -0.389674       -10.6036
  63   2.0000      -0.386295       -10.5116
  64   2.0000      -0.380567       -10.3558
  65   2.0000      -0.368971       -10.0402
  66   2.0000      -0.361094        -9.8259
  67   2.0000      -0.354275        -9.6403
  68   2.0000      -0.347917        -9.4673
  69   2.0000      -0.343694        -9.3524
  70   2.0000      -0.333706        -9.0806
  71   2.0000      -0.329553        -8.9676
  72   2.0000      -0.327080        -8.9003
  73   2.0000      -0.308705        -8.4003
  74   2.0000      -0.304144        -8.2762
  75   2.0000      -0.296666        -8.0727
  76   2.0000      -0.292026        -7.9464
  77   2.0000      -0.288497        -7.8504
  78   2.0000      -0.282111        -7.6766
  79   2.0000      -0.263578        -7.1723
  80   2.0000      -0.259177        -7.0526
  81   2.0000      -0.250642        -6.8203
  82   2.0000      -0.248738        -6.7685
  83   2.0000      -0.218007        -5.9323
  84   2.0000      -0.210870        -5.7381
  85   2.0000      -0.192239        -5.2311
  86   2.0000      -0.183707        -4.9989
  87   0.0000      -0.046066        -1.2535
  88   0.0000      -0.037110        -1.0098
  89   0.0000      -0.017920        -0.4876
  90   0.0000      -0.001409        -0.0384
  91   0.0000       0.034659         0.9431

MULLIKEN ATOMIC CHARGES
-----------------------
   0 C :   -0.304478
   1 C :   -0.009338
   2 O :   -0.240932
   3 C :    0.147712
   4 O :   -0.194155
   5 C :   -0.130465
   6 C :   -0.274880
   7 H :    0.146580
   8 C :    0.220207
   9 O :   -0.193608
  10 O :   -0.218500
  11 C :   -0.012732
  12 C :   -0.315839
  13 S :   -0.112144
  14 P :    0.636527
  15 S :   -0.322890
  16 O :   -0.398445
  17 C :   -0.077598
  18 O :   -0.370331
  19 C :   -0.110815
  20 H :    0.127979
  21 H :    0.114327
  22 H :    0.111022
  23 H :    0.113706
  24 H :    0.102621
  25 H :    0.127154
  26 H :    0.133919
  27 H :    0.108309
  28 H :    0.111154
  29 H :    0.116736
  30 H :    0.113737
  31 H :    0.148017
  32 H :    0.115813
  33 H :    0.112913
  34 H :    0.114447
  35 H :    0.128766
  36 H :    0.118008
  37 H :    0.117497
Sum of atomic charges:   -0.0000000

LOEWDIN ATOMIC CHARGES
----------------------
   0 C :   -0.355922
   1 C :   -0.109525
   2 O :   -0.062789
   3 C :    0.030819
   4 O :   -0.160179
   5 C :   -0.258981
   6 C :   -0.264884
   7 H :    0.150272
   8 C :    0.026243
   9 O :   -0.156888
  10 O :   -0.034547
  11 C :   -0.105578
  12 C :   -0.359577
  13 S :    0.093558
  14 P :    0.587307
  15 S :   -0.317830
  16 O :   -0.253920
  17 C :   -0.205823
  18 O :   -0.255091
  19 C :   -0.214137
  20 H :    0.131197
  21 H :    0.131343
  22 H :    0.123349
  23 H :    0.122958
  24 H :    0.117664
  25 H :    0.148181
  26 H :    0.141607
  27 H :    0.120420
  28 H :    0.121139
  29 H :    0.126820
  30 H :    0.131949
  31 H :    0.132074
  32 H :    0.115709
  33 H :    0.111654
  34 H :    0.111393
  35 H :    0.124529
  36 H :    0.103168
  37 H :    0.112317

  Mayer bond orders larger than 0.100000
B(  0-C ,  1-C ) :   1.1756 B(  0-C , 20-H ) :   0.9458 B(  0-C , 21-H ) :   0.9445
B(  0-C , 22-H ) :   0.9491 B(  1-C ,  2-O ) :   0.9111 B(  1-C , 23-H ) :   0.9133
B(  1-C , 24-H ) :   0.9372 B(  2-O ,  3-C ) :   1.2121 B(  3-C ,  4-O ) :   2.0677
B(  3-C ,  5-C ) :   1.0200 B(  5-C ,  6-C ) :   1.0433 B(  5-C , 25-H ) :   0.8697
B(  5-C , 26-H ) :   0.8749 B(  6-C ,  7-H ) :   0.8540 B(  6-C ,  8-C ) :   0.9142
B(  6-C , 13-S ) :   1.0391 B(  8-C ,  9-O ) :   1.9333 B(  8-C , 10-O ) :   1.2834
B(  9-O , 14-P ) :   0.1064 B( 10-O , 11-C ) :   0.8943 B( 11-C , 12-C ) :   1.1782
B( 11-C , 27-H ) :   0.9363 B( 11-C , 28-H ) :   0.9142 B( 12-C , 29-H ) :   0.9481
B( 12-C , 30-H ) :   0.9408 B( 12-C , 31-H ) :   0.9282 B( 13-S , 14-P ) :   0.9209
B( 13-S , 15-S ) :   0.1099 B( 14-P , 15-S ) :   1.5729 B( 14-P , 16-O ) :   1.0866
B( 14-P , 18-O ) :   1.1002 B( 16-O , 17-C ) :   0.9298 B( 17-C , 32-H ) :   0.9538
B( 17-C , 33-H ) :   0.9530 B( 17-C , 34-H ) :   0.9430 B( 18-O , 19-C ) :   0.9357
B( 19-C , 35-H ) :   0.9605 B( 19-C , 36-H ) :   0.9365 B( 19-C , 37-H ) :   0.9463

Dispersion correction           -0.051782195
FINAL SINGLE POINT ENERGY     -1979.009811771856

DIPOLE MOMENT
-------------

Method             : SCF
Type of density    : Electron Density
Multiplicity       :   1
Irrep              :   0
Energy             : -1979.1408906848291736 Eh
Relativity type    :
Basis              : AO
                                X                 Y                 Z
Electronic contribution:     -9.692568555      -2.235249430       4.148905400
Nuclear contribution   :     10.050615978       3.154783463      -5.978092437
                        -----------------------------------------
Total Dipole Moment    :      0.358047423       0.919534033      -1.829187038
                        -----------------------------------------
Magnitude (a.u.)       :      2.078380623
Magnitude (Debye)      :      5.282823710

Rotational constants in cm-1:             0.011844             0.007584             0.005583
Rotational constants in MHz :           355.062746           227.375218           167.376459

                             ****ORCA TERMINATED NORMALLY****
TOTAL RUN TIME: 0 days 0 hours 0 minutes 38 seconds 69 msec
