                         Program Version 6.0.0  -   RELEASE  -
|  1> ! pbe def2-sv(p) def2/J RI DEFGRID1 loosescf d4 GCP(DFT/SV(P)) printgap
|  2> %output
|  3>     printlevel normal
|  4> end
|  5> * xyz 0 1
|  6> C -3.62258e-05 0.8326977932 -4.668e-06
|  7> Cl -1.4616499013 -0.1817853384 2.7264e-06
|  8> Cl 1.4616664639 -0.1817720823 -3.4133e-06
|  9> H 9.85194e-05 1.4324772525 0.9073116093
| 10> H -0.0002494125 1.4325570174 -0.9072318196
| 11> *
| 12>
| 13>                          ****END OF INPUT****

CARTESIAN COORDINATES (ANGSTROEM)
---------------------------------
  C     -0.000036    0.832698   -0.000005
  Cl    -1.461650   -0.181785    0.000003
  Cl     1.461666   -0.181772   -0.000003
  H      0.000099    1.432477    0.907312
  H     -0.000249    1.432557   -0.907232

 Total Charge           Charge          ....    0
 Multiplicity           Mult            ....    1
 Number of Electrons    NEL             ....   42
 Basis Dimension        Dim             ....   54

ORBITAL ENERGIES
----------------

  NO   OCC          E(Eh)            E(eV)
   0   2.0000    -100.639530     -2738.5408
   1   2.0000    -100.639492     -2738.5398
   2   2.0000      -9.998657      -272.0773
   3   2.0000      -9.175696      -249.6834
   4   2.0000      -9.175663      -249.6825
   5   2.0000      -7.007625      -190.6872
   6   2.0000      -7.007608      -190.6867
   7   2.0000      -6.995411      -190.3548
   8   2.0000      -6.995389      -190.3542
   9   2.0000      -6.994768      -190.3373
  10   2.0000      -6.994763      -190.3372
  11   2.0000      -0.821550       -22.3555
  12   2.0000      -0.745130       -20.2760
  13   2.0000      -0.593834       -16.1590
  14   2.0000      -0.446305       -12.1446
  15   2.0000      -0.415528       -11.3071
  16   2.0000      -0.401472       -10.9246
  17   2.0000      -0.283684        -7.7194
  18   2.0000      -0.275380        -7.4935
  19   2.0000      -0.259385        -7.0582
  20   2.0000      -0.257213        -6.9991
  21   0.0000      -0.019742        -0.5372
  22   0.0000       0.006703         0.1824
  23   0.0000       0.048687         1.3248
  24   0.0000       0.075945         2.0666
  25   0.0000       0.351784         9.5725

MULLIKEN ATOMIC CHARGES
-----------------------
   0 C :   -0.148280
   1 Cl:   -0.107796
   2 Cl:   -0.107811
   3 H :    0.181944
   4 H :    0.181943
Sum of atomic charges:   -0.0000000

LOEWDIN ATOMIC CHARGES
----------------------
   0 C :   -0.360069
   1 Cl:    0.048910
   2 Cl:    0.048873
   3 H :    0.131144
   4 H :    0.131143

  Mayer bond orders larger than 0.100000
B(  0-C ,  1-Cl) :   1.0519 B(  0-C ,  2-Cl) :   1.0518 B(  0-C ,  3-H ) :   0.9243
B(  0-C ,  4-H ) :   0.9243

Dispersion correction           -0.003407601
FINAL SINGLE POINT ENERGY      -958.928352372640

DIPOLE MOMENT
-------------

Method             : SCF
Type of density    : Electron Density
Multiplicity       :   1
Irrep              :   0
Energy             :  -958.9428772014733795 Eh
Relativity type    :
Basis              : AO
                                X                 Y                 Z
Electronic contribution:      0.000079634      -2.537279039      -0.000065077
Nuclear contribution   :     -0.000163795       3.175879787       0.000075779
                        -----------------------------------------
Total Dipole Moment    :     -0.000084161       0.638600749       0.000010702
                        -----------------------------------------
Magnitude (a.u.)       :      0.638600754
Magnitude (Debye)      :      1.623194120

Rotational constants in cm-1:             1.023677             0.110076             0.101372
Rotational constants in MHz :         30689.069385          3299.980580          3039.053506

                             ****ORCA TERMINATED NORMALLY****
TOTAL RUN TIME: 0 days 0 hours 0 minutes 3 seconds 513 msec
