                         Program Version 6.0.0  -   RELEASE  -
|  1> ! wb97x-v def2-tzvp def2/J RIJCOSX DEFGRID2 scfconv7 GCP(DFT/TZ) printgap
|  2> %output
|  3>     printlevel normal
|  4> end
|  5> %cpcm
|  6>     smd true
|  7>     smdsolvent "water"
|  8> end
|  9> * xyz 0 1
| 10> C -1.47065417502438 -6.218287316186145e-05 0.10682142050833114
| 11> C -0.05940348140715545 2.0342472976440778e-05 -0.3804557319340477
| 12> F 0.6212226263646573 -1.1059555648043033 0.11272783643304399
| 13> F 0.6210867160995083 1.10609383678193 0.11269462651396918
| 14> H -1.984126667403056 -0.8883853778562236 -0.2692621074826725
| 15> H -1.4891972709619832 3.8234403058006737e-05 1.1999805614930392
| 16> H -1.984294824312938 0.8880933296318247 -0.2694339716270661
| 17> H 0.06142608993318935 1.4714650681597165e-05 -1.467872237296453
| 18> *
| 19>
| 20>                          ****END OF INPUT****

CARTESIAN COORDINATES (ANGSTROEM)
---------------------------------
  C     -1.470654   -0.000062    0.106821
  C     -0.059403    0.000020   -0.380456
  F      0.621223   -1.105956    0.112728
  F      0.621087    1.106094    0.112695
  H     -1.984127   -0.888385   -0.269262
  H     -1.489197    0.000038    1.199981
  H     -1.984295    0.888093   -0.269434
  H      0.061426    0.000015   -1.467872

 Total Charge           Charge          ....    0
 Multiplicity           Mult            ....    1
 Number of Electrons    NEL             ....   34
 Basis Dimension        Dim             ....  148

ORBITAL ENERGIES
----------------

  NO   OCC          E(Eh)            E(eV)
   0   2.0000     -27.566501      -750.1226
   1   2.0000     -27.566403      -750.1200
   2   2.0000     -12.200974      -332.0054
   3   2.0000     -12.042032      -327.6803
   4   2.0000      -1.997579       -54.3569
   5   2.0000      -1.969502       -53.5929
   6   2.0000      -1.342198       -36.5231
   7   2.0000      -1.213562       -33.0227
   8   2.0000      -1.198673       -32.6175
   9   2.0000      -1.149813       -31.2880
  10   2.0000      -1.128284       -30.7022
  11   2.0000      -1.123942       -30.5840
  12   2.0000      -1.114278       -30.3210
  13   2.0000      -0.979162       -26.6443
  14   2.0000      -0.869885       -23.6708
  15   2.0000      -0.831603       -22.6291
  16   2.0000      -0.816620       -22.2213
  17   0.0000      -0.236300        -6.4300
  18   0.0000      -0.205578        -5.5941
  19   0.0000      -0.002630        -0.0716
  20   0.0000       0.008172         0.2224
  21   0.0000       0.045123         1.2279

MULLIKEN ATOMIC CHARGES
-----------------------
   0 C :   -0.348224
   1 C :    0.270811
   2 F :   -0.241797
   3 F :   -0.241795
   4 H :    0.147489
   5 H :    0.143190
   6 H :    0.147489
   7 H :    0.122836
Sum of atomic charges:   -0.0000000

LOEWDIN ATOMIC CHARGES
----------------------
   0 C :   -0.281789
   1 C :   -0.427243
   2 F :    0.081537
   3 F :    0.081538
   4 H :    0.139605
   5 H :    0.134198
   6 H :    0.139606
   7 H :    0.132548

  Mayer bond orders larger than 0.100000
B(  0-C ,  1-C ) :   1.0179 B(  0-C ,  4-H ) :   0.9551 B(  0-C ,  5-H ) :   0.9558
B(  0-C ,  6-H ) :   0.9551 B(  1-C ,  2-F ) :   1.0330 B(  1-C ,  3-F ) :   1.0330
B(  1-C ,  7-H ) :   0.9797

FINAL SINGLE POINT ENERGY      -278.337295034582

DIPOLE MOMENT
-------------

Method             : SCF
Type of density    : Electron Density
Multiplicity       :   1
Irrep              :   0
Energy             :  -278.3440985036822326 Eh
Relativity type    :
Basis              : AO
                                X                 Y                 Z
Electronic contribution:      5.172756787       0.000334592       0.390807963
Nuclear contribution   :     -6.207424595      -0.000406597      -0.970843847
                        -----------------------------------------
Total Dipole Moment    :     -1.034667809      -0.000072005      -0.580035884
                        -----------------------------------------
Magnitude (a.u.)       :      1.186161501
Magnitude (Debye)      :      3.014982930

Rotational constants in cm-1:             0.311044             0.295835             0.170404
Rotational constants in MHz :          9324.871856          8868.902837          5108.568607

                             ****ORCA TERMINATED NORMALLY****
TOTAL RUN TIME: 0 days 0 hours 0 minutes 27 seconds 990 msec
