                         Program Version 6.0.0  -   RELEASE  -
|  1> ! pbe def2-sv(p) def2/J RI DEFGRID1 loosescf d4 GCP(DFT/SV(P)) printgap
|  2> %output
|  3>     printlevel normal
|  4> end
|  5> * xyz 0 1
|  6> C 0.6014540273 1.7000465321 0.0459039444
|  7> C 1.4017623032 0.418852518 -0.2370915433
|  8> H 1.6044235849 0.3614533632 -1.3138020657
|  9> C 0.5548758188 -0.7979316339 0.1822882163
| 10> H 0.3635179746 -0.7622170536 1.2609169142
| 11> C -0.8007903509 -0.7452446641 -0.5492512331
| 12> H -0.6298745016 -0.8712958153 -1.6247776189
| 13> C -1.4672864747 0.6333340263 -0.3063544211
| 14> H -2.3438352229 0.7509349428 -0.9647304902
| 15> O -0.6292633171 1.689346207 -0.6637507993
| 16> O -1.8593613746 0.7439824472 1.0323467373
| 17> O -1.6287320167 -1.7561553424 -0.0241749085
| 18> O 1.2219012036 -2.015257192 -0.018854318
| 19> O 2.6643411769 0.4314917819 0.3727286232
| 20> H 1.1380490214 2.5776184011 -0.3134552576
| 21> H 0.4078024888 1.7978037105 1.1206903507
| 22> H -2.1258980957 -0.141754279 1.3362348227
| 23> H -2.2803818596 -2.0408574333 -0.6793820085
| 24> H 1.5111748184 -2.088652348 -0.9396857504
| 25> H 2.5676584877 0.4000488143 1.3354369023
| 26> *
| 27>
| 28>                          ****END OF INPUT****

CARTESIAN COORDINATES (ANGSTROEM)
---------------------------------
  C      0.601454    1.700047    0.045904
  C      1.401762    0.418853   -0.237092
  H      1.604424    0.361453   -1.313802
  C      0.554876   -0.797932    0.182288
  H      0.363518   -0.762217    1.260917
  C     -0.800790   -0.745245   -0.549251
  H     -0.629875   -0.871296   -1.624778
  C     -1.467286    0.633334   -0.306354
  H     -2.343835    0.750935   -0.964730
  O     -0.629263    1.689346   -0.663751
  O     -1.859361    0.743982    1.032347
  O     -1.628732   -1.756155   -0.024175
  O      1.221901   -2.015257   -0.018854
  O      2.664341    0.431492    0.372729
  H      1.138049    2.577618   -0.313455
  H      0.407802    1.797804    1.120690
  H     -2.125898   -0.141754    1.336235
  H     -2.280382   -2.040857   -0.679382
  H      1.511175   -2.088652   -0.939686
  H      2.567658    0.400049    1.335437

 Total Charge           Charge          ....    0
 Multiplicity           Mult            ....    1
 Number of Electrons    NEL             ....   80
 Basis Dimension        Dim             ....  160

ORBITAL ENERGIES
----------------

  NO   OCC          E(Eh)            E(eV)
   0   2.0000     -18.775391      -510.9044
   1   2.0000     -18.768935      -510.7287
   2   2.0000     -18.755574      -510.3651
   3   2.0000     -18.753461      -510.3076
   4   2.0000     -18.749352      -510.1958
   5   2.0000      -9.984732      -271.6984
   6   2.0000      -9.951534      -270.7950
   7   2.0000      -9.945926      -270.6424
   8   2.0000      -9.944707      -270.6092
   9   2.0000      -9.931768      -270.2572
  10   2.0000      -0.981385       -26.7049
  11   2.0000      -0.949666       -25.8417
  12   2.0000      -0.939722       -25.5711
  13   2.0000      -0.918299       -24.9882
  14   2.0000      -0.908311       -24.7164
  15   2.0000      -0.703263       -19.1368
  16   2.0000      -0.678696       -18.4683
  17   2.0000      -0.589618       -16.0443
  18   2.0000      -0.580280       -15.7902
  19   2.0000      -0.537427       -14.6241
  20   2.0000      -0.505033       -13.7426
  21   2.0000      -0.484085       -13.1726
  22   2.0000      -0.473365       -12.8809
  23   2.0000      -0.453118       -12.3300
  24   2.0000      -0.437387       -11.9019
  25   2.0000      -0.422601       -11.4996
  26   2.0000      -0.407021       -11.0756
  27   2.0000      -0.388473       -10.5709
  28   2.0000      -0.357628        -9.7316
  29   2.0000      -0.351099        -9.5539
  30   2.0000      -0.321612        -8.7515
  31   2.0000      -0.312195        -8.4952
  32   2.0000      -0.297348        -8.0913
  33   2.0000      -0.285832        -7.7779
  34   2.0000      -0.283579        -7.7166
  35   2.0000      -0.265715        -7.2305
  36   2.0000      -0.244578        -6.6553
  37   2.0000      -0.235533        -6.4092
  38   2.0000      -0.211713        -5.7610
  39   2.0000      -0.203741        -5.5441
  40   0.0000       0.003845         0.1046
  41   0.0000       0.023894         0.6502
  42   0.0000       0.029636         0.8064
  43   0.0000       0.048299         1.3143
  44   0.0000       0.061165         1.6644

MULLIKEN ATOMIC CHARGES
-----------------------
   0 C :    0.083680
   1 C :   -0.000793
   2 H :    0.056568
   3 C :    0.084218
   4 H :    0.047565
   5 C :   -0.031179
   6 H :    0.054987
   7 C :    0.195500
   8 H :    0.050973
   9 O :   -0.303752
  10 O :   -0.410689
  11 O :   -0.398875
  12 O :   -0.399821
  13 O :   -0.405609
  14 H :    0.099544
  15 H :    0.067668
  16 H :    0.305732
  17 H :    0.310339
  18 H :    0.293998
  19 H :    0.299948
Sum of atomic charges:   -0.0000000

LOEWDIN ATOMIC CHARGES
----------------------
   0 C :   -0.126993
   1 C :   -0.089119
   2 H :    0.109937
   3 C :   -0.079183
   4 H :    0.112429
   5 C :   -0.104876
   6 H :    0.104065
   7 C :   -0.002588
   8 H :    0.089430
   9 O :   -0.139988
  10 O :   -0.322532
  11 O :   -0.309528
  12 O :   -0.306440
  13 O :   -0.308068
  14 H :    0.120206
  15 H :    0.105244
  16 H :    0.282724
  17 H :    0.295045
  18 H :    0.283364
  19 H :    0.286874

  Mayer bond orders larger than 0.100000
B(  0-C ,  1-C ) :   1.0356 B(  0-C ,  9-O ) :   0.9888 B(  0-C , 14-H ) :   0.9231
B(  0-C , 15-H ) :   0.8915 B(  1-C ,  2-H ) :   0.8705 B(  1-C ,  3-C ) :   1.0000
B(  1-C , 13-O ) :   1.0606 B(  3-C ,  4-H ) :   0.8674 B(  3-C ,  5-C ) :   0.9600
B(  3-C , 12-O ) :   1.0842 B(  5-C ,  6-H ) :   0.8805 B(  5-C ,  7-C ) :   0.9825
B(  5-C , 11-O ) :   1.0785 B(  7-C ,  8-H ) :   0.8995 B(  7-C ,  9-O ) :   1.0902
B(  7-C , 10-O ) :   1.0644 B( 10-O , 16-H ) :   0.8114 B( 11-O , 17-H ) :   0.8457
B( 12-O , 18-H ) :   0.8510 B( 13-O , 19-H ) :   0.8487

Dispersion correction           -0.019189927
FINAL SINGLE POINT ENERGY      -571.411261279334

DIPOLE MOMENT
-------------

Method             : SCF
Type of density    : Electron Density
Multiplicity       :   1
Irrep              :   0
Energy             :  -571.5191634868383517 Eh
Relativity type    :
Basis              : AO
                                X                 Y                 Z
Electronic contribution:     -0.660161169      -0.513123866       0.199053037
Nuclear contribution   :      0.196065553      -0.029302379      -0.723824077
                        -----------------------------------------
Total Dipole Moment    :     -0.464095616      -0.542426245      -0.524771040
                        -----------------------------------------
Magnitude (a.u.)       :      0.885999784
Magnitude (Debye)      :      2.252032478

Rotational constants in cm-1:             0.057348             0.044239             0.028853
Rotational constants in MHz :          1719.256434          1326.247596           864.990433

                             ****ORCA TERMINATED NORMALLY****
TOTAL RUN TIME: 0 days 0 hours 0 minutes 12 seconds 82 msec
