                         Program Version 6.0.0  -   RELEASE  -
|  1> ! pbe def2-sv(p) def2/J RI DEFGRID1 loosescf d4 GCP(DFT/SV(P)) printgap
|  2> %output
|  3>     printlevel normal
|  4> end
|  5> * xyz 0 1
|  6> C 5.3469084927 1.4022757145 -1.858045931
|  7> C 4.0075987773 0.6929651993 -1.8758685835
|  8> O 3.7886293116 0.1189839266 -0.5722579093
|  9> P 2.3352279432 -0.106753594 0.0021204398
| 10> S 1.1124221091 1.4096956225 -0.2779071636
| 11> O 2.8118888216 -0.4388602391 1.4710234412
| 12> C 2.0067421935 -1.064070316 2.4867410109
| 13> C 1.1161981777 -0.0608523965 3.1933470883
| 14> S 1.7187035808 -1.9576918952 -0.8514118045
| 15> C -0.042802564 -1.6490900041 -1.1161817392
| 16> S -0.9835556589 -1.5481918763 0.4484302343
| 17> P -2.1676324155 0.1552895774 0.0658408085
| 18> S -2.1523582803 0.8466504842 -1.7754202648
| 19> O -1.6863802339 1.0512197871 1.2790615175
| 20> C -2.3701499546 2.233656878 1.7439719007
| 21> C -2.1814769578 3.4044185522 0.8003649944
| 22> O -3.6329363383 -0.2248396513 0.5684582627
| 23> C -4.6210607813 -0.7994409892 -0.3011392529
| 24> C -4.2495206539 -2.2031809618 -0.7337241797
| 25> H 5.3327977056 2.2073499666 -1.1286395774
| 26> H 6.1316761826 0.70048541 -1.5917422277
| 27> H 5.5464983229 1.812810354 -2.8424260663
| 28> H 3.998057119 -0.1203299183 -2.6062967467
| 29> H 3.1913907597 1.3895721428 -2.1007346917
| 30> H 1.4117580487 -1.8670175283 2.0385037769
| 31> H 2.7402446768 -1.4927513563 3.1722433227
| 32> H 0.3899580288 0.3588410844 2.4994728359
| 33> H 0.584194074 -0.5592377236 3.997303464
| 34> H 1.7146781175 0.749635396 3.6007189433
| 35> H -0.400590422 -2.5015747058 -1.6878652586
| 36> H -0.1881561766 -0.7141449325 -1.6645070667
| 37> H -3.4283746975 1.9968252847 1.8784266224
| 38> H -1.9071390838 2.4294865415 2.7129693896
| 39> H -2.6913868638 3.2215675226 -0.1437267235
| 40> H -2.584069689 4.3044603866 1.2537428046
| 41> H -1.1223602361 3.5451765247 0.5929360483
| 42> H -5.5341951365 -0.7885003085 0.2954240964
| 43> H -4.7348743816 -0.1474956445 -1.1732305327
| 44> H -4.0191064045 -2.8178876628 0.1327201095
| 45> H -5.0781803086 -2.6422467989 -1.2797494524
| 46> H -3.3774115537 -2.1681347151 -1.3856293263
| 47> *
| 48>
| 49>                          ****END OF INPUT****

CARTESIAN COORDINATES (ANGSTROEM)
---------------------------------
  C      5.346908    1.402276   -1.858046
  C      4.007599    0.692965   -1.875869
  O      3.788629    0.118984   -0.572258
  P      2.335228   -0.106754    0.002120
  S      1.112422    1.409696   -0.277907
  O      2.811889   -0.438860    1.471023
  C      2.006742   -1.064070    2.486741
  C      1.116198   -0.060852    3.193347
  S      1.718704   -1.957692   -0.851412
  C     -0.042803   -1.649090   -1.116182
  S     -0.983556   -1.548192    0.448430
  P     -2.167632    0.155290    0.065841
  S     -2.152358    0.846650   -1.775420
  O     -1.686380    1.051220    1.279062
  C     -2.370150    2.233657    1.743972
  C     -2.181477    3.404419    0.800365
  O     -3.632936   -0.224840    0.568458
  C     -4.621061   -0.799441   -0.301139
  C     -4.249521   -2.203181   -0.733724
  H      5.332798    2.207350   -1.128640
  H      6.131676    0.700485   -1.591742
  H      5.546498    1.812810   -2.842426
  H      3.998057   -0.120330   -2.606297
  H      3.191391    1.389572   -2.100735
  H      1.411758   -1.867018    2.038504
  H      2.740245   -1.492751    3.172243
  H      0.389958    0.358841    2.499473
  H      0.584194   -0.559238    3.997303
  H      1.714678    0.749635    3.600719
  H     -0.400590   -2.501575   -1.687865
  H     -0.188156   -0.714145   -1.664507
  H     -3.428375    1.996825    1.878427
  H     -1.907139    2.429487    2.712969
  H     -2.691387    3.221568   -0.143727
  H     -2.584070    4.304460    1.253743
  H     -1.122360    3.545177    0.592936
  H     -5.534195   -0.788500    0.295424
  H     -4.734874   -0.147496   -1.173231
  H     -4.019106   -2.817888    0.132720
  H     -5.078180   -2.642247   -1.279749
  H     -3.377412   -2.168135   -1.385629

 Total Charge           Charge          ....    0
 Multiplicity           Mult            ....    1
 Number of Electrons    NEL             ....  202
 Basis Dimension        Dim             ....  334

ORBITAL ENERGIES
----------------

  NO   OCC          E(Eh)            E(eV)
   0   2.0000     -88.044660     -2395.8170
   1   2.0000     -88.044233     -2395.8054
   2   2.0000     -87.987872     -2394.2717
   3   2.0000     -87.980970     -2394.0839
   4   2.0000     -76.427768     -2079.7053
   5   2.0000     -76.422316     -2079.5569
   6   2.0000     -18.791943      -511.3548
   7   2.0000     -18.790257      -511.3089
   8   2.0000     -18.785803      -511.1877
   9   2.0000     -18.785470      -511.1786
  10   2.0000      -9.954316      -270.8707
  11   2.0000      -9.952506      -270.8215
  12   2.0000      -9.951723      -270.8001
  13   2.0000      -9.948156      -270.7031
  14   2.0000      -9.946910      -270.6692
  15   2.0000      -9.885033      -268.9854
  16   2.0000      -9.882653      -268.9207
  17   2.0000      -9.877236      -268.7732
  18   2.0000      -9.872724      -268.6505
  19   2.0000      -7.689676      -209.2467
  20   2.0000      -7.688985      -209.2279
  21   2.0000      -7.632746      -207.6976
  22   2.0000      -7.625527      -207.5011
  23   2.0000      -6.424859      -174.8293
  24   2.0000      -6.419560      -174.6851
  25   2.0000      -5.717623      -155.5844
  26   2.0000      -5.716845      -155.5632
  27   2.0000      -5.713846      -155.4817
  28   2.0000      -5.713631      -155.4758
  29   2.0000      -5.706975      -155.2947
  30   2.0000      -5.705842      -155.2639
  31   2.0000      -5.661662      -154.0617
  32   2.0000      -5.654420      -153.8646
  33   2.0000      -5.653577      -153.8416
  34   2.0000      -5.652690      -153.8175
  35   2.0000      -5.646067      -153.6373
  36   2.0000      -5.645842      -153.6312
  37   2.0000      -4.647468      -126.4640
  38   2.0000      -4.646418      -126.4355
  39   2.0000      -4.645544      -126.4117
  40   2.0000      -4.641873      -126.3118
  41   2.0000      -4.641775      -126.3091
  42   2.0000      -4.639796      -126.2553
  43   2.0000      -0.987494       -26.8711
  44   2.0000      -0.984808       -26.7980
  45   2.0000      -0.943162       -25.6647
  46   2.0000      -0.939880       -25.5754
  47   2.0000      -0.761421       -20.7193
  48   2.0000      -0.720427       -19.6038
  49   2.0000      -0.708864       -19.2892
  50   2.0000      -0.686642       -18.6845
  51   2.0000      -0.678880       -18.4733
  52   2.0000      -0.674215       -18.3463
  53   2.0000      -0.648850       -17.6561
  54   2.0000      -0.634265       -17.2592
  55   2.0000      -0.597613       -16.2619
  56   2.0000      -0.589230       -16.0338
  57   2.0000      -0.576361       -15.6836
  58   2.0000      -0.563401       -15.3309
  59   2.0000      -0.556106       -15.1324
  60   2.0000      -0.501095       -13.6355
  61   2.0000      -0.496562       -13.5121
  62   2.0000      -0.470528       -12.8037
  63   2.0000      -0.467627       -12.7248
  64   2.0000      -0.453684       -12.3454
  65   2.0000      -0.444616       -12.0986
  66   2.0000      -0.434291       -11.8177
  67   2.0000      -0.433561       -11.7978
  68   2.0000      -0.425836       -11.5876
  69   2.0000      -0.415468       -11.3054
  70   2.0000      -0.406449       -11.0600
  71   2.0000      -0.401771       -10.9327
  72   2.0000      -0.398612       -10.8468
  73   2.0000      -0.387849       -10.5539
  74   2.0000      -0.375746       -10.2246
  75   2.0000      -0.370565       -10.0836
  76   2.0000      -0.361165        -9.8278
  77   2.0000      -0.352981        -9.6051
  78   2.0000      -0.351531        -9.5657
  79   2.0000      -0.346252        -9.4220
  80   2.0000      -0.344596        -9.3769
  81   2.0000      -0.340345        -9.2613
  82   2.0000      -0.335506        -9.1296
  83   2.0000      -0.334384        -9.0991
  84   2.0000      -0.327367        -8.9081
  85   2.0000      -0.313928        -8.5424
  86   2.0000      -0.310753        -8.4560
  87   2.0000      -0.296845        -8.0776
  88   2.0000      -0.294807        -8.0221
  89   2.0000      -0.289882        -7.8881
  90   2.0000      -0.284210        -7.7338
  91   2.0000      -0.274701        -7.4750
  92   2.0000      -0.263820        -7.1789
  93   2.0000      -0.263307        -7.1649
  94   2.0000      -0.255189        -6.9440
  95   2.0000      -0.240712        -6.5501
  96   2.0000      -0.220430        -5.9982
  97   2.0000      -0.214622        -5.8401
  98   2.0000      -0.201903        -5.4940
  99   2.0000      -0.195415        -5.3175
 100   2.0000      -0.187168        -5.0931
 101   0.0000      -0.044524        -1.2116
 102   0.0000      -0.037505        -1.0206
 103   0.0000      -0.009354        -0.2545
 104   0.0000       0.009622         0.2618
 105   0.0000       0.016064         0.4371

MULLIKEN ATOMIC CHARGES
-----------------------
   0 C :   -0.280098
   1 C :   -0.009090
   2 O :   -0.360562
   3 P :    0.598739
   4 S :   -0.317024
   5 O :   -0.352024
   6 C :   -0.008782
   7 C :   -0.328860
   8 S :   -0.120228
   9 C :   -0.342967
  10 S :   -0.108221
  11 P :    0.641545
  12 S :   -0.312463
  13 O :   -0.357603
  14 C :    0.000507
  15 C :   -0.316123
  16 O :   -0.379558
  17 C :   -0.001867
  18 C :   -0.311414
  19 H :    0.120060
  20 H :    0.116009
  21 H :    0.109923
  22 H :    0.098557
  23 H :    0.106196
  24 H :    0.106608
  25 H :    0.103949
  26 H :    0.161131
  27 H :    0.101686
  28 H :    0.110807
  29 H :    0.180539
  30 H :    0.210897
  31 H :    0.104709
  32 H :    0.107325
  33 H :    0.126854
  34 H :    0.106970
  35 H :    0.133050
  36 H :    0.102723
  37 H :    0.109776
  38 H :    0.118571
  39 H :    0.112505
  40 H :    0.117249
Sum of atomic charges:   -0.0000000

LOEWDIN ATOMIC CHARGES
----------------------
   0 C :   -0.350436
   1 C :   -0.121623
   2 O :   -0.238414
   3 P :    0.559078
   4 S :   -0.300871
   5 O :   -0.230642
   6 C :   -0.116354
   7 C :   -0.371487
   8 S :    0.068938
   9 C :   -0.479176
  10 S :    0.086506
  11 P :    0.575049
  12 S :   -0.295788
  13 O :   -0.230551
  14 C :   -0.109122
  15 C :   -0.367306
  16 O :   -0.248786
  17 C :   -0.121492
  18 C :   -0.368380
  19 H :    0.128986
  20 H :    0.126482
  21 H :    0.129674
  22 H :    0.109769
  23 H :    0.106471
  24 H :    0.096967
  25 H :    0.117832
  26 H :    0.124852
  27 H :    0.126668
  28 H :    0.124874
  29 H :    0.133512
  30 H :    0.124344
  31 H :    0.110360
  32 H :    0.119814
  33 H :    0.121685
  34 H :    0.127802
  35 H :    0.131219
  36 H :    0.117324
  37 H :    0.108864
  38 H :    0.124721
  39 H :    0.130407
  40 H :    0.118228

  Mayer bond orders larger than 0.100000
B(  0-C ,  1-C ) :   1.1611 B(  0-C , 19-H ) :   0.9509 B(  0-C , 20-H ) :   0.9509
B(  0-C , 21-H ) :   0.9422 B(  1-C ,  2-O ) :   0.9093 B(  1-C , 22-H ) :   0.9311
B(  1-C , 23-H ) :   0.9026 B(  2-O ,  3-P ) :   1.1256 B(  3-P ,  4-S ) :   1.6451
B(  3-P ,  5-O ) :   1.1374 B(  3-P ,  8-S ) :   0.9259 B(  4-S ,  8-S ) :   0.1204
B(  5-O ,  6-C ) :   0.9157 B(  6-C ,  7-C ) :   1.1649 B(  6-C , 24-H ) :   0.9076
B(  6-C , 25-H ) :   0.9352 B(  7-C , 26-H ) :   0.9204 B(  7-C , 27-H ) :   0.9390
B(  7-C , 28-H ) :   0.9450 B(  8-S ,  9-C ) :   1.0093 B(  9-C , 10-S ) :   0.9890
B(  9-C , 29-H ) :   0.9062 B(  9-C , 30-H ) :   0.8479 B( 10-S , 11-P ) :   0.9545
B( 10-S , 12-S ) :   0.1211 B( 11-P , 12-S ) :   1.6012 B( 11-P , 13-O ) :   1.1265
B( 11-P , 16-O ) :   1.0842 B( 13-O , 14-C ) :   0.9025 B( 14-C , 15-C ) :   1.1652
B( 14-C , 31-H ) :   0.9267 B( 14-C , 32-H ) :   0.9344 B( 15-C , 33-H ) :   0.9357
B( 15-C , 34-H ) :   0.9378 B( 15-C , 35-H ) :   0.9426 B( 16-O , 17-C ) :   0.9154
B( 17-C , 18-C ) :   1.1650 B( 17-C , 36-H ) :   0.9331 B( 17-C , 37-H ) :   0.9130
B( 18-C , 38-H ) :   0.9440 B( 18-C , 39-H ) :   0.9382 B( 18-C , 40-H ) :   0.9370

Dispersion correction           -0.066222181
FINAL SINGLE POINT ENERGY     -2929.521405129739

DIPOLE MOMENT
-------------

Method             : SCF
Type of density    : Electron Density
Multiplicity       :   1
Irrep              :   0
Energy             : -2929.6395224036032232 Eh
Relativity type    :
Basis              : AO
                                X                 Y                 Z
Electronic contribution:      3.332302297      -6.898416474      -3.921701951
Nuclear contribution   :     -3.897708565       6.470771951       4.338416877
                        -----------------------------------------
Total Dipole Moment    :     -0.565406268      -0.427644523       0.416714926
                        -----------------------------------------
Magnitude (a.u.)       :      0.822323182
Magnitude (Debye)      :      2.090179419

Rotational constants in cm-1:             0.012165             0.005027             0.004845
Rotational constants in MHz :           364.701803           150.706772           145.252898

                             ****ORCA TERMINATED NORMALLY****
TOTAL RUN TIME: 0 days 0 hours 0 minutes 21 seconds 259 msec
