                         Program Version 6.0.0  -   RELEASE  -
|  1> ! pbe def2-sv(p) def2/J RI DEFGRID1 loosescf d4 GCP(DFT/SV(P)) printgap
|  2> %output
|  3>     printlevel normal
|  4> end
|  5> * xyz 0 1
|  6> C 5.6892071868 0.473616676 -1.2439251197
|  7> C 4.2211127984 0.1557580421 -1.4421493379
|  8> O 3.6004345444 0.1094440981 -0.1406658851
|  9> P 2.020757345 0.1192894904 0.0170817031
| 10> S 1.0945409646 1.6088561011 -0.8512430587
| 11> O 1.8238741282 0.1231476792 1.5776523816
| 12> C 2.4323694498 -0.8527092719 2.4629214322
| 13> C 3.7076541484 -0.3025693004 3.0662866684
| 14> S 1.4930223536 -1.8302599976 -0.6650170459
| 15> C -0.2663221858 -1.5455983415 -0.9214728115
| 16> S -1.1136226262 -1.0885496093 0.6347764842
| 17> P -2.5852244034 0.2541676286 -0.1154760684
| 18> S -2.3839231705 0.8156289463 -1.9870836213
| 19> O -2.7074520328 1.3920348329 0.9756187574
| 20> C -1.8147750935 2.5119428123 1.1079145884
| 21> C -0.8778470505 2.3157325765 2.2835230113
| 22> O -3.9706644812 -0.4202130524 0.2482059481
| 23> C -4.7006939385 -1.2444647694 -0.6759474274
| 24> C -3.9777370158 -2.5412453686 -0.9820705937
| 25> H 5.7998881708 1.4341013102 -0.748418059
| 26> H 6.1574033222 -0.2948258408 -0.6358135535
| 27> H 6.178058977 0.5124916748 -2.2117601082
| 28> H 4.0826571606 -0.8171202683 -1.9213581871
| 29> H 3.7200921459 0.9242489847 -2.039979452
| 30> H 1.6731266987 -1.0375815573 3.2249516491
| 31> H 2.6212818888 -1.7711515898 1.9006089435
| 32> H 4.4416242391 -0.1147922551 2.2874366183
| 33> H 3.5028268252 0.6288186195 3.5867838338
| 34> H 4.1070356178 -1.026450664 3.7696915446
| 35> H -0.6661310333 -2.4873450541 -1.2897696218
| 36> H -0.4145894274 -0.7370510424 -1.6433595068
| 37> H -1.258097693 2.653534768 0.1753956194
| 38> H -2.4691912915 3.3716234763 1.2671459932
| 39> H -0.3115401391 3.2284753871 2.438898641
| 40> H -1.4498345717 2.0838315569 3.1773125527
| 41> H -0.1809706859 1.5037942375 2.0864938766
| 42> H -5.6502631309 -1.4216319905 -0.1690665262
| 43> H -4.8693848808 -0.6730754614 -1.5941853822
| 44> H -3.0824776142 -2.3313535785 -1.5664254825
| 45> H -3.6957360521 -3.0431860634 -0.0597361551
| 46> H -4.6295513311 -3.1882436517 -1.5604393874
| 47> *
| 48>
| 49>                          ****END OF INPUT****

CARTESIAN COORDINATES (ANGSTROEM)
---------------------------------
  C      5.689207    0.473617   -1.243925
  C      4.221113    0.155758   -1.442149
  O      3.600435    0.109444   -0.140666
  P      2.020757    0.119289    0.017082
  S      1.094541    1.608856   -0.851243
  O      1.823874    0.123148    1.577652
  C      2.432369   -0.852709    2.462921
  C      3.707654   -0.302569    3.066287
  S      1.493022   -1.830260   -0.665017
  C     -0.266322   -1.545598   -0.921473
  S     -1.113623   -1.088550    0.634776
  P     -2.585224    0.254168   -0.115476
  S     -2.383923    0.815629   -1.987084
  O     -2.707452    1.392035    0.975619
  C     -1.814775    2.511943    1.107915
  C     -0.877847    2.315733    2.283523
  O     -3.970664   -0.420213    0.248206
  C     -4.700694   -1.244465   -0.675947
  C     -3.977737   -2.541245   -0.982071
  H      5.799888    1.434101   -0.748418
  H      6.157403   -0.294826   -0.635814
  H      6.178059    0.512492   -2.211760
  H      4.082657   -0.817120   -1.921358
  H      3.720092    0.924249   -2.039979
  H      1.673127   -1.037582    3.224952
  H      2.621282   -1.771152    1.900609
  H      4.441624   -0.114792    2.287437
  H      3.502827    0.628819    3.586784
  H      4.107036   -1.026451    3.769692
  H     -0.666131   -2.487345   -1.289770
  H     -0.414589   -0.737051   -1.643360
  H     -1.258098    2.653535    0.175396
  H     -2.469191    3.371623    1.267146
  H     -0.311540    3.228475    2.438899
  H     -1.449835    2.083832    3.177313
  H     -0.180971    1.503794    2.086494
  H     -5.650263   -1.421632   -0.169067
  H     -4.869385   -0.673075   -1.594185
  H     -3.082478   -2.331354   -1.566425
  H     -3.695736   -3.043186   -0.059736
  H     -4.629551   -3.188244   -1.560439

 Total Charge           Charge          ....    0
 Multiplicity           Mult            ....    1
 Number of Electrons    NEL             ....  202
 Basis Dimension        Dim             ....  334

ORBITAL ENERGIES
----------------

  NO   OCC          E(Eh)            E(eV)
   0   2.0000     -88.048100     -2395.9106
   1   2.0000     -88.038959     -2395.6619
   2   2.0000     -87.985024     -2394.1942
   3   2.0000     -87.983162     -2394.1436
   4   2.0000     -76.429084     -2079.7411
   5   2.0000     -76.420902     -2079.5185
   6   2.0000     -18.800240      -511.5805
   7   2.0000     -18.798282      -511.5273
   8   2.0000     -18.781320      -511.0657
   9   2.0000     -18.780922      -511.0549
  10   2.0000      -9.959669      -271.0164
  11   2.0000      -9.958452      -270.9833
  12   2.0000      -9.953645      -270.8524
  13   2.0000      -9.948497      -270.7124
  14   2.0000      -9.937853      -270.4227
  15   2.0000      -9.893645      -269.2198
  16   2.0000      -9.889936      -269.1188
  17   2.0000      -9.883982      -268.9568
  18   2.0000      -9.867403      -268.5057
  19   2.0000      -7.693172      -209.3419
  20   2.0000      -7.683546      -209.0799
  21   2.0000      -7.629909      -207.6204
  22   2.0000      -7.628125      -207.5718
  23   2.0000      -6.426579      -174.8761
  24   2.0000      -6.418162      -174.6471
  25   2.0000      -5.720991      -155.6761
  26   2.0000      -5.717498      -155.5810
  27   2.0000      -5.711417      -155.4156
  28   2.0000      -5.710426      -155.3886
  29   2.0000      -5.708153      -155.3267
  30   2.0000      -5.700510      -155.1188
  31   2.0000      -5.658978      -153.9886
  32   2.0000      -5.656913      -153.9324
  33   2.0000      -5.650268      -153.7516
  34   2.0000      -5.650164      -153.7488
  35   2.0000      -5.648706      -153.7091
  36   2.0000      -5.648458      -153.7023
  37   2.0000      -4.649412      -126.5169
  38   2.0000      -4.648465      -126.4912
  39   2.0000      -4.646654      -126.4419
  40   2.0000      -4.640353      -126.2704
  41   2.0000      -4.640065      -126.2626
  42   2.0000      -4.638839      -126.2292
  43   2.0000      -0.994988       -27.0750
  44   2.0000      -0.980620       -26.6840
  45   2.0000      -0.952125       -25.9086
  46   2.0000      -0.935305       -25.4509
  47   2.0000      -0.762226       -20.7412
  48   2.0000      -0.722315       -19.6552
  49   2.0000      -0.709632       -19.3101
  50   2.0000      -0.697475       -18.9793
  51   2.0000      -0.679047       -18.4778
  52   2.0000      -0.671794       -18.2804
  53   2.0000      -0.649507       -17.6740
  54   2.0000      -0.632056       -17.1991
  55   2.0000      -0.596387       -16.2285
  56   2.0000      -0.591669       -16.1001
  57   2.0000      -0.574709       -15.6386
  58   2.0000      -0.566449       -15.4139
  59   2.0000      -0.557304       -15.1650
  60   2.0000      -0.512309       -13.9406
  61   2.0000      -0.490332       -13.3426
  62   2.0000      -0.486822       -13.2471
  63   2.0000      -0.461995       -12.5715
  64   2.0000      -0.451161       -12.2767
  65   2.0000      -0.446100       -12.1390
  66   2.0000      -0.445617       -12.1259
  67   2.0000      -0.435331       -11.8460
  68   2.0000      -0.430663       -11.7189
  69   2.0000      -0.412772       -11.2321
  70   2.0000      -0.409433       -11.1412
  71   2.0000      -0.393982       -10.7208
  72   2.0000      -0.389736       -10.6053
  73   2.0000      -0.386949       -10.5294
  74   2.0000      -0.385316       -10.4850
  75   2.0000      -0.371856       -10.1187
  76   2.0000      -0.364742        -9.9251
  77   2.0000      -0.359472        -9.7817
  78   2.0000      -0.357070        -9.7164
  79   2.0000      -0.351348        -9.5607
  80   2.0000      -0.347770        -9.4633
  81   2.0000      -0.343175        -9.3383
  82   2.0000      -0.341223        -9.2852
  83   2.0000      -0.334911        -9.1134
  84   2.0000      -0.324076        -8.8186
  85   2.0000      -0.321283        -8.7426
  86   2.0000      -0.307872        -8.3776
  87   2.0000      -0.305076        -8.3015
  88   2.0000      -0.298364        -8.1189
  89   2.0000      -0.290452        -7.9036
  90   2.0000      -0.280307        -7.6275
  91   2.0000      -0.278403        -7.5757
  92   2.0000      -0.266057        -7.2398
  93   2.0000      -0.261951        -7.1281
  94   2.0000      -0.254260        -6.9188
  95   2.0000      -0.235834        -6.4174
  96   2.0000      -0.221890        -6.0379
  97   2.0000      -0.209603        -5.7036
  98   2.0000      -0.201429        -5.4812
  99   2.0000      -0.198806        -5.4098
 100   2.0000      -0.189635        -5.1602
 101   0.0000      -0.044149        -1.2014
 102   0.0000      -0.033029        -0.8988
 103   0.0000      -0.010306        -0.2804
 104   0.0000       0.011019         0.2998
 105   0.0000       0.014124         0.3843

MULLIKEN ATOMIC CHARGES
-----------------------
   0 C :   -0.283500
   1 C :   -0.013516
   2 O :   -0.381577
   3 P :    0.598775
   4 S :   -0.298560
   5 O :   -0.345765
   6 C :   -0.009595
   7 C :   -0.292279
   8 S :   -0.111106
   9 C :   -0.364517
  10 S :   -0.118444
  11 P :    0.610094
  12 S :   -0.317671
  13 O :   -0.358747
  14 C :   -0.009824
  15 C :   -0.314893
  16 O :   -0.360313
  17 C :    0.006988
  18 C :   -0.327972
  19 H :    0.123667
  20 H :    0.116069
  21 H :    0.115604
  22 H :    0.105606
  23 H :    0.110591
  24 H :    0.113287
  25 H :    0.102394
  26 H :    0.123254
  27 H :    0.120659
  28 H :    0.111116
  29 H :    0.185983
  30 H :    0.215800
  31 H :    0.124214
  32 H :    0.100299
  33 H :    0.103736
  34 H :    0.103530
  35 H :    0.145515
  36 H :    0.105753
  37 H :    0.110450
  38 H :    0.121537
  39 H :    0.121389
  40 H :    0.111970
Sum of atomic charges:   -0.0000000

LOEWDIN ATOMIC CHARGES
----------------------
   0 C :   -0.350429
   1 C :   -0.120158
   2 O :   -0.249116
   3 P :    0.563557
   4 S :   -0.289779
   5 O :   -0.225352
   6 C :   -0.114458
   7 C :   -0.359562
   8 S :    0.067639
   9 C :   -0.481766
  10 S :    0.060305
  11 P :    0.569994
  12 S :   -0.302201
  13 O :   -0.232948
  14 C :   -0.116174
  15 C :   -0.367741
  16 O :   -0.239586
  17 C :   -0.115580
  18 C :   -0.369985
  19 H :    0.130112
  20 H :    0.125658
  21 H :    0.132724
  22 H :    0.109119
  23 H :    0.112342
  24 H :    0.122045
  25 H :    0.103834
  26 H :    0.126077
  27 H :    0.129259
  28 H :    0.130236
  29 H :    0.130717
  30 H :    0.124273
  31 H :    0.106190
  32 H :    0.115881
  33 H :    0.128416
  34 H :    0.120548
  35 H :    0.121657
  36 H :    0.119435
  37 H :    0.110650
  38 H :    0.118303
  39 H :    0.125578
  40 H :    0.130287

  Mayer bond orders larger than 0.100000
B(  0-C ,  1-C ) :   1.1597 B(  0-C , 19-H ) :   0.9507 B(  0-C , 20-H ) :   0.9507
B(  0-C , 21-H ) :   0.9416 B(  1-C ,  2-O ) :   0.9016 B(  1-C , 22-H ) :   0.9274
B(  1-C , 23-H ) :   0.9115 B(  2-O ,  3-P ) :   1.0809 B(  3-P ,  4-S ) :   1.6643
B(  3-P ,  5-O ) :   1.1253 B(  3-P ,  8-S ) :   0.9441 B(  4-S ,  8-S ) :   0.1089
B(  5-O ,  6-C ) :   0.8856 B(  6-C ,  7-C ) :   1.1653 B(  6-C , 24-H ) :   0.9341
B(  6-C , 25-H ) :   0.9116 B(  7-C , 26-H ) :   0.9411 B(  7-C , 27-H ) :   0.9471
B(  7-C , 28-H ) :   0.9398 B(  8-S ,  9-C ) :   1.0043 B(  9-C , 10-S ) :   0.9944
B(  9-C , 29-H ) :   0.8980 B(  9-C , 30-H ) :   0.8446 B( 10-S , 11-P ) :   0.9357
B( 10-S , 12-S ) :   0.1260 B( 11-P , 12-S ) :   1.6105 B( 11-P , 13-O ) :   1.1490
B( 11-P , 16-O ) :   1.1130 B( 13-O , 14-C ) :   0.9001 B( 14-C , 15-C ) :   1.1712
B( 14-C , 31-H ) :   0.9024 B( 14-C , 32-H ) :   0.9345 B( 15-C , 33-H ) :   0.9403
B( 15-C , 34-H ) :   0.9462 B( 15-C , 35-H ) :   0.9247 B( 16-O , 17-C ) :   0.9236
B( 17-C , 18-C ) :   1.1604 B( 17-C , 36-H ) :   0.9347 B( 17-C , 37-H ) :   0.9177
B( 18-C , 38-H ) :   0.9321 B( 18-C , 39-H ) :   0.9434 B( 18-C , 40-H ) :   0.9376

Dispersion correction           -0.065433895
FINAL SINGLE POINT ENERGY     -2929.522215820537

DIPOLE MOMENT
-------------

Method             : SCF
Type of density    : Electron Density
Multiplicity       :   1
Irrep              :   0
Energy             : -2929.6413496327272696 Eh
Relativity type    :
Basis              : AO
                                X                 Y                 Z
Electronic contribution:    -12.144834195       1.628519723      -7.562167964
Nuclear contribution   :     13.277105287      -2.743496058       8.160810546
                        -----------------------------------------
Total Dipole Moment    :      1.132271091      -1.114976335       0.598642582
                        -----------------------------------------
Magnitude (a.u.)       :      1.698111596
Magnitude (Debye)      :      4.316256659

Rotational constants in cm-1:             0.013052             0.004763             0.004575
Rotational constants in MHz :           391.300651           142.784331           137.155417

                             ****ORCA TERMINATED NORMALLY****
TOTAL RUN TIME: 0 days 0 hours 0 minutes 20 seconds 991 msec
