                         Program Version 6.0.0  -   RELEASE  -
|  1> ! pbe def2-sv(p) def2/J RI DEFGRID1 loosescf d4 GCP(DFT/SV(P)) printgap
|  2> %output
|  3>     printlevel normal
|  4> end
|  5> * xyz 0 1
|  6> C 3.2704803931 2.3165432642 -0.0650402696
|  7> C 2.8464966741 1.8548670753 1.3137397372
|  8> O 1.7761817243 0.8779257697 1.2646420774
|  9> P 1.892207477 -0.6206277941 0.78745368
| 10> S 0.4156935487 -1.70099356 1.4922893186
| 11> O 3.3486762377 -1.0158579357 1.2843265257
| 12> C 3.774776771 -2.3790329456 1.4544557028
| 13> C 3.8260504492 -3.1382854897 0.1447075983
| 14> S 2.0677939417 -0.6090983599 -1.3408932723
| 15> C 0.3137847476 -0.5414853582 -1.7318394233
| 16> S -0.4630374615 0.9773332973 -1.0846661997
| 17> P -2.421789888 0.2294890998 -0.7081331586
| 18> S -2.6288645887 -1.7169311718 -0.7443212432
| 19> O -3.3415747776 0.9011506998 -1.7952551695
| 20> C -3.2136979713 2.2414664393 -2.3326914073
| 21> C -3.1632429713 3.3066806051 -1.2596511895
| 22> O -2.9243032901 0.9357289385 0.624621521
| 23> C -2.5367679349 0.526418374 1.9461990718
| 24> C -1.4846506613 1.4620227987 2.5086833633
| 25> H 3.7914463279 1.5218303442 -0.5935873606
| 26> H 2.3990659115 2.6122033914 -0.6450325457
| 27> H 3.936211943 3.1676053092 0.039050721
| 28> H 2.405790831 2.6706474186 1.8890080914
| 29> H 3.6841803512 1.4210091607 1.8618543866
| 30> H 4.7645721921 -2.2853045331 1.903828316
| 31> H 3.092197286 -2.8686286355 2.1558946493
| 32> H 4.2816516168 -4.1090485982 0.3120449499
| 33> H 2.8183959197 -3.2866856186 -0.2409974706
| 34> H 4.4062329446 -2.5877953786 -0.5915428095
| 35> H -0.2054833672 -1.3995841499 -1.2942887061
| 36> H 0.2417852982 -0.551504784 -2.8166747882
| 37> H -2.3140450781 2.2728389992 -2.9525022294
| 38> H -4.1005759394 2.3398240793 -2.9602369081
| 39> H -2.2530206942 3.2023071058 -0.6713527001
| 40> H -3.1689390016 4.2846689906 -1.7310001976
| 41> H -4.0219422238 3.2181265826 -0.5993865531
| 42> H -3.4562681219 0.5670203319 2.5335202655
| 43> H -2.1754948636 -0.5073397981 1.9183661431
| 44> H -1.2823159115 1.1852194607 3.5384808421
| 45> H -0.5604719613 1.3817709425 1.9403585664
| 46> H -1.8396289952 2.487869049 2.4706808107
| 47> *
| 48>
| 49>                          ****END OF INPUT****

CARTESIAN COORDINATES (ANGSTROEM)
---------------------------------
  C      3.270480    2.316543   -0.065040
  C      2.846497    1.854867    1.313740
  O      1.776182    0.877926    1.264642
  P      1.892207   -0.620628    0.787454
  S      0.415694   -1.700994    1.492289
  O      3.348676   -1.015858    1.284327
  C      3.774777   -2.379033    1.454456
  C      3.826050   -3.138285    0.144708
  S      2.067794   -0.609098   -1.340893
  C      0.313785   -0.541485   -1.731839
  S     -0.463037    0.977333   -1.084666
  P     -2.421790    0.229489   -0.708133
  S     -2.628865   -1.716931   -0.744321
  O     -3.341575    0.901151   -1.795255
  C     -3.213698    2.241466   -2.332691
  C     -3.163243    3.306681   -1.259651
  O     -2.924303    0.935729    0.624622
  C     -2.536768    0.526418    1.946199
  C     -1.484651    1.462023    2.508683
  H      3.791446    1.521830   -0.593587
  H      2.399066    2.612203   -0.645033
  H      3.936212    3.167605    0.039051
  H      2.405791    2.670647    1.889008
  H      3.684180    1.421009    1.861854
  H      4.764572   -2.285305    1.903828
  H      3.092197   -2.868629    2.155895
  H      4.281652   -4.109049    0.312045
  H      2.818396   -3.286686   -0.240997
  H      4.406233   -2.587795   -0.591543
  H     -0.205483   -1.399584   -1.294289
  H      0.241785   -0.551505   -2.816675
  H     -2.314045    2.272839   -2.952502
  H     -4.100576    2.339824   -2.960237
  H     -2.253021    3.202307   -0.671353
  H     -3.168939    4.284669   -1.731000
  H     -4.021942    3.218127   -0.599387
  H     -3.456268    0.567020    2.533520
  H     -2.175495   -0.507340    1.918366
  H     -1.282316    1.185219    3.538481
  H     -0.560472    1.381771    1.940359
  H     -1.839629    2.487869    2.470681

 Total Charge           Charge          ....    0
 Multiplicity           Mult            ....    1
 Number of Electrons    NEL             ....  202
 Basis Dimension        Dim             ....  334

ORBITAL ENERGIES
----------------

  NO   OCC          E(Eh)            E(eV)
   0   2.0000     -88.046749     -2395.8738
   1   2.0000     -88.040725     -2395.7099
   2   2.0000     -87.984502     -2394.1800
   3   2.0000     -87.974441     -2393.9063
   4   2.0000     -76.429750     -2079.7592
   5   2.0000     -76.419068     -2079.4686
   6   2.0000     -18.799840      -511.5697
   7   2.0000     -18.793884      -511.4076
   8   2.0000     -18.784317      -511.1472
   9   2.0000     -18.783484      -511.1246
  10   2.0000      -9.960188      -271.0305
  11   2.0000      -9.958287      -270.9788
  12   2.0000      -9.954123      -270.8655
  13   2.0000      -9.951379      -270.7908
  14   2.0000      -9.938292      -270.4347
  15   2.0000      -9.890225      -269.1267
  16   2.0000      -9.887379      -269.0493
  17   2.0000      -9.887343      -269.0483
  18   2.0000      -9.869847      -268.5722
  19   2.0000      -7.691506      -209.2965
  20   2.0000      -7.684908      -209.1170
  21   2.0000      -7.629292      -207.6036
  22   2.0000      -7.619755      -207.3441
  23   2.0000      -6.426780      -174.8816
  24   2.0000      -6.416457      -174.6007
  25   2.0000      -5.719415      -155.6332
  26   2.0000      -5.715976      -155.5396
  27   2.0000      -5.712687      -155.4501
  28   2.0000      -5.709448      -155.3620
  29   2.0000      -5.708539      -155.3372
  30   2.0000      -5.702088      -155.1617
  31   2.0000      -5.658284      -153.9697
  32   2.0000      -5.649883      -153.7411
  33   2.0000      -5.649423      -153.7286
  34   2.0000      -5.648816      -153.7121
  35   2.0000      -5.640254      -153.4791
  36   2.0000      -5.639819      -153.4673
  37   2.0000      -4.649872      -126.5294
  38   2.0000      -4.648382      -126.4889
  39   2.0000      -4.646972      -126.4505
  40   2.0000      -4.639099      -126.2363
  41   2.0000      -4.638368      -126.2164
  42   2.0000      -4.636743      -126.1722
  43   2.0000      -0.992886       -27.0178
  44   2.0000      -0.979198       -26.6453
  45   2.0000      -0.948900       -25.8209
  46   2.0000      -0.937081       -25.4993
  47   2.0000      -0.762366       -20.7450
  48   2.0000      -0.720595       -19.6084
  49   2.0000      -0.710579       -19.3358
  50   2.0000      -0.694567       -18.9001
  51   2.0000      -0.684463       -18.6252
  52   2.0000      -0.675067       -18.3695
  53   2.0000      -0.649595       -17.6764
  54   2.0000      -0.629375       -17.1262
  55   2.0000      -0.599094       -16.3022
  56   2.0000      -0.589924       -16.0527
  57   2.0000      -0.583916       -15.8892
  58   2.0000      -0.566482       -15.4148
  59   2.0000      -0.556738       -15.1496
  60   2.0000      -0.501125       -13.6363
  61   2.0000      -0.490925       -13.3587
  62   2.0000      -0.474896       -12.9226
  63   2.0000      -0.468826       -12.7574
  64   2.0000      -0.453699       -12.3458
  65   2.0000      -0.449314       -12.2265
  66   2.0000      -0.445380       -12.1194
  67   2.0000      -0.432311       -11.7638
  68   2.0000      -0.431232       -11.7344
  69   2.0000      -0.419698       -11.4206
  70   2.0000      -0.412427       -11.2227
  71   2.0000      -0.402422       -10.9505
  72   2.0000      -0.395920       -10.7735
  73   2.0000      -0.380230       -10.3466
  74   2.0000      -0.376966       -10.2578
  75   2.0000      -0.371028       -10.0962
  76   2.0000      -0.361036        -9.8243
  77   2.0000      -0.359190        -9.7741
  78   2.0000      -0.355587        -9.6760
  79   2.0000      -0.353134        -9.6093
  80   2.0000      -0.350591        -9.5401
  81   2.0000      -0.347468        -9.4551
  82   2.0000      -0.340604        -9.2683
  83   2.0000      -0.335969        -9.1422
  84   2.0000      -0.324366        -8.8264
  85   2.0000      -0.320228        -8.7138
  86   2.0000      -0.310311        -8.4440
  87   2.0000      -0.300820        -8.1857
  88   2.0000      -0.297271        -8.0892
  89   2.0000      -0.285884        -7.7793
  90   2.0000      -0.280102        -7.6220
  91   2.0000      -0.276068        -7.5122
  92   2.0000      -0.269575        -7.3355
  93   2.0000      -0.264643        -7.2013
  94   2.0000      -0.254538        -6.9263
  95   2.0000      -0.232251        -6.3199
  96   2.0000      -0.220344        -5.9959
  97   2.0000      -0.207305        -5.6410
  98   2.0000      -0.201292        -5.4774
  99   2.0000      -0.190504        -5.1839
 100   2.0000      -0.185252        -5.0410
 101   0.0000      -0.046011        -1.2520
 102   0.0000      -0.032960        -0.8969
 103   0.0000      -0.010817        -0.2944
 104   0.0000       0.007071         0.1924
 105   0.0000       0.015578         0.4239

MULLIKEN ATOMIC CHARGES
-----------------------
   0 C :   -0.314708
   1 C :    0.002049
   2 O :   -0.353820
   3 P :    0.617634
   4 S :   -0.301328
   5 O :   -0.386057
   6 C :    0.001004
   7 C :   -0.323059
   8 S :   -0.112164
   9 C :   -0.338519
  10 S :   -0.146966
  11 P :    0.607236
  12 S :   -0.298929
  13 O :   -0.360773
  14 C :    0.001113
  15 C :   -0.314202
  16 O :   -0.374396
  17 C :   -0.010030
  18 C :   -0.321506
  19 H :    0.124058
  20 H :    0.124277
  21 H :    0.112639
  22 H :    0.109703
  23 H :    0.111782
  24 H :    0.104908
  25 H :    0.115285
  26 H :    0.116524
  27 H :    0.135806
  28 H :    0.116946
  29 H :    0.216203
  30 H :    0.179020
  31 H :    0.106105
  32 H :    0.110612
  33 H :    0.123453
  34 H :    0.112289
  35 H :    0.126582
  36 H :    0.100059
  37 H :    0.124100
  38 H :    0.105719
  39 H :    0.149855
  40 H :    0.101496
Sum of atomic charges:    0.0000000

LOEWDIN ATOMIC CHARGES
----------------------
   0 C :   -0.368976
   1 C :   -0.107828
   2 O :   -0.231688
   3 P :    0.570109
   4 S :   -0.294172
   5 O :   -0.248397
   6 C :   -0.115473
   7 C :   -0.371623
   8 S :    0.085227
   9 C :   -0.481912
  10 S :    0.056104
  11 P :    0.566885
  12 S :   -0.294743
  13 O :   -0.239715
  14 C :   -0.113833
  15 C :   -0.366970
  16 O :   -0.240392
  17 C :   -0.118093
  18 C :   -0.369177
  19 H :    0.117807
  20 H :    0.125741
  21 H :    0.130492
  22 H :    0.121687
  23 H :    0.114629
  24 H :    0.118590
  25 H :    0.114754
  26 H :    0.133024
  27 H :    0.124456
  28 H :    0.122726
  29 H :    0.123918
  30 H :    0.134382
  31 H :    0.107827
  32 H :    0.122704
  33 H :    0.116921
  34 H :    0.130629
  35 H :    0.130607
  36 H :    0.115665
  37 H :    0.108175
  38 H :    0.129214
  39 H :    0.122554
  40 H :    0.118165

  Mayer bond orders larger than 0.100000
B(  0-C ,  1-C ) :   1.1707 B(  0-C , 19-H ) :   0.9395 B(  0-C , 20-H ) :   0.9420
B(  0-C , 21-H ) :   0.9359 B(  1-C ,  2-O ) :   0.8986 B(  1-C , 22-H ) :   0.9340
B(  1-C , 23-H ) :   0.9255 B(  2-O ,  3-P ) :   1.1149 B(  3-P ,  4-S ) :   1.6496
B(  3-P ,  5-O ) :   1.0818 B(  3-P ,  8-S ) :   0.9319 B(  4-S ,  8-S ) :   0.1098
B(  5-O ,  6-C ) :   0.9026 B(  6-C ,  7-C ) :   1.1669 B(  6-C , 24-H ) :   0.9343
B(  6-C , 25-H ) :   0.9185 B(  7-C , 26-H ) :   0.9366 B(  7-C , 27-H ) :   0.9339
B(  7-C , 28-H ) :   0.9434 B(  8-S ,  9-C ) :   1.0113 B(  9-C , 10-S ) :   0.9872
B(  9-C , 29-H ) :   0.8391 B(  9-C , 30-H ) :   0.9097 B( 10-S , 11-P ) :   0.9306
B( 10-S , 12-S ) :   0.1167 B( 11-P , 12-S ) :   1.6554 B( 11-P , 13-O ) :   1.1366
B( 11-P , 16-O ) :   1.1038 B( 13-O , 14-C ) :   0.9073 B( 14-C , 15-C ) :   1.1695
B( 14-C , 31-H ) :   0.9214 B( 14-C , 32-H ) :   0.9340 B( 15-C , 33-H ) :   0.9376
B( 15-C , 34-H ) :   0.9349 B( 15-C , 35-H ) :   0.9423 B( 16-O , 17-C ) :   0.8990
B( 17-C , 18-C ) :   1.1704 B( 17-C , 36-H ) :   0.9345 B( 17-C , 37-H ) :   0.9010
B( 18-C , 38-H ) :   0.9404 B( 18-C , 39-H ) :   0.9236 B( 18-C , 40-H ) :   0.9453

Dispersion correction           -0.067125688
FINAL SINGLE POINT ENERGY     -2929.514660398585

DIPOLE MOMENT
-------------

Method             : SCF
Type of density    : Electron Density
Multiplicity       :   1
Irrep              :   0
Energy             : -2929.6335209587973623 Eh
Relativity type    :
Basis              : AO
                                X                 Y                 Z
Electronic contribution:     -8.657124703     -12.777777927      -5.107779335
Nuclear contribution   :     10.271549225      14.288810747       5.126604293
                        -----------------------------------------
Total Dipole Moment    :      1.614424522       1.511032820       0.018824958
                        -----------------------------------------
Magnitude (a.u.)       :      2.211321121
Magnitude (Debye)      :      5.620731602

Rotational constants in cm-1:             0.012499             0.005229             0.004938
Rotational constants in MHz :           374.718176           156.755889           148.028090

                             ****ORCA TERMINATED NORMALLY****
TOTAL RUN TIME: 0 days 0 hours 0 minutes 21 seconds 567 msec
