                         Program Version 6.0.1  -  RELEASE   -
|  1> ! pbe def2-sv(p) def2/J RI DEFGRID1 loosescf d4 GCP(DFT/SV(P)) printgap
|  2> %output
|  3>     printlevel normal
|  4> end
|  5> * xyz 0 1
|  6> C 1.8419592614 -4.3427201954 -1.0828884998
|  7> C 2.9959595174 -3.4924393469 -0.5760100547
|  8> O 2.5192874147 -2.2225666319 -0.0895425784
|  9> C 2.4556723661 -1.2129659743 -0.93271261
| 10> O 2.7847843769 -1.2593527005 -2.0965562125
| 11> C 1.9159404492 0.0372761515 -0.2616270219
| 12> C 0.796904958 0.6223554695 -1.1213359972
| 13> H 1.1710355938 0.7799630453 -2.1376044758
| 14> C 0.275490309 1.9290303799 -0.5612726625
| 15> O -0.8929002081 2.0868570806 -0.2610494142
| 16> O 1.2099956393 2.8267467088 -0.452647981
| 17> C 0.8818235966 4.0932514454 0.1642018755
| 18> C 1.051165276 4.0034843832 1.6717065046
| 19> S -0.6071683674 -0.5285936371 -1.3032776222
| 20> P -1.6946557696 -0.1799537522 0.4951794897
| 21> S -0.7725650521 0.3619181779 2.1485819816
| 22> O -3.089332476 0.4899020027 0.1530539959
| 23> C -3.5218850455 1.7838312574 0.5771990932
| 24> O -2.3296912333 -1.6457813545 0.6514074361
| 25> C -1.5115746787 -2.7676289324 0.9867958697
| 26> H 1.3349162236 -3.8338335386 -1.9002108193
| 27> H 2.2268997488 -5.2910259439 -1.4428945393
| 28> H 1.1302690634 -4.5270200689 -0.282531202
| 29> H 3.7199251084 -3.3076118294 -1.3744893158
| 30> H 3.4830528215 -3.9536552844 0.2831949343
| 31> H 2.7209074875 0.7718378445 -0.1931973707
| 32> H 1.5637195778 -0.2092170084 0.7409960302
| 33> H 1.5849570885 4.7987300497 -0.2777232403
| 34> H -0.1453071054 4.3562129819 -0.0999579889
| 35> H 2.0776208308 3.7526582142 1.922523224
| 36> H 0.7964048512 4.9583170323 2.1189762425
| 37> H 0.3967337526 3.2357940283 2.0815141558
| 38> H -3.3711660481 2.4958172253 -0.2320225146
| 39> H -2.9632963142 2.104153194 1.4580993826
| 40> H -4.5788215882 1.6826827475 0.8143946898
| 41> H -0.9026424705 -2.5407765217 1.8647461189
| 42> H -0.8671462377 -3.0272285831 0.1459478198
| 43> H -2.2012874499 -3.5794026265 1.2030534814
| 44> *
| 45>
| 46>                          ****END OF INPUT****

CARTESIAN COORDINATES (ANGSTROEM)
---------------------------------
  C      1.841959   -4.342720   -1.082888
  C      2.995960   -3.492439   -0.576010
  O      2.519287   -2.222567   -0.089543
  C      2.455672   -1.212966   -0.932713
  O      2.784784   -1.259353   -2.096556
  C      1.915940    0.037276   -0.261627
  C      0.796905    0.622355   -1.121336
  H      1.171036    0.779963   -2.137604
  C      0.275490    1.929030   -0.561273
  O     -0.892900    2.086857   -0.261049
  O      1.209996    2.826747   -0.452648
  C      0.881824    4.093251    0.164202
  C      1.051165    4.003484    1.671707
  S     -0.607168   -0.528594   -1.303278
  P     -1.694656   -0.179954    0.495179
  S     -0.772565    0.361918    2.148582
  O     -3.089332    0.489902    0.153054
  C     -3.521885    1.783831    0.577199
  O     -2.329691   -1.645781    0.651407
  C     -1.511575   -2.767629    0.986796
  H      1.334916   -3.833834   -1.900211
  H      2.226900   -5.291026   -1.442895
  H      1.130269   -4.527020   -0.282531
  H      3.719925   -3.307612   -1.374489
  H      3.483053   -3.953655    0.283195
  H      2.720907    0.771838   -0.193197
  H      1.563720   -0.209217    0.740996
  H      1.584957    4.798730   -0.277723
  H     -0.145307    4.356213   -0.099958
  H      2.077621    3.752658    1.922523
  H      0.796405    4.958317    2.118976
  H      0.396734    3.235794    2.081514
  H     -3.371166    2.495817   -0.232023
  H     -2.963296    2.104153    1.458099
  H     -4.578822    1.682683    0.814395
  H     -0.902642   -2.540777    1.864746
  H     -0.867146   -3.027229    0.145948
  H     -2.201287   -3.579403    1.203053

 Total Charge           Charge          ....    0
 Multiplicity           Mult            ....    1
 Number of Electrons    NEL             ....  174
 Basis Dimension        Dim             ....  316

ORBITAL ENERGIES
----------------

  NO   OCC          E(Eh)            E(eV)
   0   2.0000     -88.037159     -2395.6129
   1   2.0000     -87.977114     -2393.9790
   2   2.0000     -76.422273     -2079.5558
   3   2.0000     -18.827845      -512.3317
   4   2.0000     -18.806255      -511.7442
   5   2.0000     -18.781239      -511.0635
   6   2.0000     -18.774970      -510.8929
   7   2.0000     -18.763290      -510.5751
   8   2.0000     -18.741190      -509.9737
   9   2.0000     -10.033789      -273.0333
  10   2.0000     -10.012469      -272.4531
  11   2.0000      -9.962044      -271.0810
  12   2.0000      -9.952994      -270.8347
  13   2.0000      -9.949825      -270.7485
  14   2.0000      -9.934018      -270.3184
  15   2.0000      -9.932468      -270.2762
  16   2.0000      -9.908345      -269.6198
  17   2.0000      -9.891552      -269.1628
  18   2.0000      -9.889595      -269.1096
  19   2.0000      -7.681831      -209.0332
  20   2.0000      -7.622121      -207.4085
  21   2.0000      -6.417780      -174.6367
  22   2.0000      -5.709899      -155.3743
  23   2.0000      -5.706356      -155.2778
  24   2.0000      -5.698632      -155.0677
  25   2.0000      -5.651082      -153.7738
  26   2.0000      -5.643072      -153.5558
  27   2.0000      -5.641843      -153.5224
  28   2.0000      -4.640202      -126.2663
  29   2.0000      -4.639954      -126.2596
  30   2.0000      -4.638411      -126.2176
  31   2.0000      -1.037851       -28.2414
  32   2.0000      -1.013543       -27.5799
  33   2.0000      -0.974385       -26.5144
  34   2.0000      -0.942788       -25.6546
  35   2.0000      -0.928296       -25.2602
  36   2.0000      -0.919210       -25.0130
  37   2.0000      -0.767988       -20.8980
  38   2.0000      -0.717887       -19.5347
  39   2.0000      -0.710670       -19.3383
  40   2.0000      -0.688792       -18.7430
  41   2.0000      -0.654318       -17.8049
  42   2.0000      -0.631179       -17.1753
  43   2.0000      -0.624470       -16.9927
  44   2.0000      -0.612277       -16.6609
  45   2.0000      -0.598811       -16.2945
  46   2.0000      -0.568461       -15.4686
  47   2.0000      -0.513801       -13.9812
  48   2.0000      -0.507359       -13.8059
  49   2.0000      -0.501032       -13.6338
  50   2.0000      -0.489871       -13.3301
  51   2.0000      -0.466288       -12.6884
  52   2.0000      -0.462739       -12.5918
  53   2.0000      -0.450639       -12.2625
  54   2.0000      -0.436806       -11.8861
  55   2.0000      -0.435116       -11.8401
  56   2.0000      -0.424169       -11.5422
  57   2.0000      -0.421503       -11.4697
  58   2.0000      -0.415485       -11.3059
  59   2.0000      -0.405387       -11.0311
  60   2.0000      -0.400530       -10.8990
  61   2.0000      -0.397897       -10.8273
  62   2.0000      -0.389477       -10.5982
  63   2.0000      -0.388564       -10.5734
  64   2.0000      -0.382410       -10.4059
  65   2.0000      -0.370228       -10.0744
  66   2.0000      -0.364610        -9.9215
  67   2.0000      -0.357908        -9.7392
  68   2.0000      -0.351328        -9.5601
  69   2.0000      -0.341572        -9.2947
  70   2.0000      -0.339137        -9.2284
  71   2.0000      -0.333660        -9.0793
  72   2.0000      -0.329894        -8.9769
  73   2.0000      -0.310810        -8.4576
  74   2.0000      -0.305107        -8.3024
  75   2.0000      -0.296216        -8.0604
  76   2.0000      -0.295242        -8.0340
  77   2.0000      -0.286899        -7.8069
  78   2.0000      -0.278097        -7.5674
  79   2.0000      -0.264517        -7.1979
  80   2.0000      -0.261970        -7.1286
  81   2.0000      -0.248698        -6.7674
  82   2.0000      -0.245441        -6.6788
  83   2.0000      -0.228739        -6.2243
  84   2.0000      -0.221290        -6.0216
  85   2.0000      -0.196504        -5.3471
  86   2.0000      -0.190022        -5.1708
  87   0.0000      -0.051148        -1.3918
  88   0.0000      -0.037807        -1.0288
  89   0.0000      -0.019327        -0.5259
  90   0.0000       0.003019         0.0821
  91   0.0000       0.029701         0.8082

MULLIKEN ATOMIC CHARGES
-----------------------
   0 C :   -0.309995
   1 C :   -0.019884
   2 O :   -0.218789
   3 C :    0.128273
   4 O :   -0.207242
   5 C :   -0.089330
   6 C :   -0.317210
   7 H :    0.160003
   8 C :    0.232964
   9 O :   -0.196230
  10 O :   -0.216357
  11 C :   -0.013781
  12 C :   -0.315473
  13 S :   -0.086086
  14 P :    0.622965
  15 S :   -0.346041
  16 O :   -0.365189
  17 C :   -0.085212
  18 O :   -0.372566
  19 C :   -0.116327
  20 H :    0.130826
  21 H :    0.113907
  22 H :    0.124322
  23 H :    0.110550
  24 H :    0.105824
  25 H :    0.122796
  26 H :    0.117933
  27 H :    0.110629
  28 H :    0.113699
  29 H :    0.116353
  30 H :    0.115139
  31 H :    0.145507
  32 H :    0.116671
  33 H :    0.114459
  34 H :    0.119595
  35 H :    0.112097
  36 H :    0.120151
  37 H :    0.121049
Sum of atomic charges:   -0.0000000

LOEWDIN ATOMIC CHARGES
----------------------
   0 C :   -0.355401
   1 C :   -0.111469
   2 O :   -0.051423
   3 C :    0.027169
   4 O :   -0.171103
   5 C :   -0.257633
   6 C :   -0.260006
   7 H :    0.155765
   8 C :    0.028570
   9 O :   -0.156593
  10 O :   -0.032079
  11 C :   -0.104998
  12 C :   -0.359107
  13 S :    0.110434
  14 P :    0.589992
  15 S :   -0.334449
  16 O :   -0.235717
  17 C :   -0.207374
  18 O :   -0.257270
  19 C :   -0.225116
  20 H :    0.132145
  21 H :    0.131398
  22 H :    0.123629
  23 H :    0.120765
  24 H :    0.118957
  25 H :    0.146653
  26 H :    0.130061
  27 H :    0.121644
  28 H :    0.122134
  29 H :    0.126639
  30 H :    0.132524
  31 H :    0.131840
  32 H :    0.113128
  33 H :    0.108303
  34 H :    0.117658
  35 H :    0.107001
  36 H :    0.102796
  37 H :    0.120533

  Mayer bond orders larger than 0.100000
B(  0-C ,  1-C ) :   1.1776 B(  0-C , 20-H ) :   0.9446 B(  0-C , 21-H ) :   0.9418
B(  0-C , 22-H ) :   0.9397 B(  1-C ,  2-O ) :   0.9141 B(  1-C , 23-H ) :   0.9107
B(  1-C , 24-H ) :   0.9363 B(  2-O ,  3-C ) :   1.2518 B(  3-C ,  4-O ) :   2.0360
B(  3-C ,  5-C ) :   1.0007 B(  5-C ,  6-C ) :   1.0607 B(  5-C , 25-H ) :   0.8678
B(  5-C , 26-H ) :   0.8819 B(  6-C ,  7-H ) :   0.8509 B(  6-C ,  8-C ) :   0.9210
B(  6-C , 13-S ) :   1.0243 B(  8-C ,  9-O ) :   1.9282 B(  8-C , 10-O ) :   1.2890
B(  9-O , 14-P ) :   0.1157 B( 10-O , 11-C ) :   0.8930 B( 11-C , 12-C ) :   1.1778
B( 11-C , 27-H ) :   0.9361 B( 11-C , 28-H ) :   0.9146 B( 12-C , 29-H ) :   0.9483
B( 12-C , 30-H ) :   0.9410 B( 12-C , 31-H ) :   0.9298 B( 13-S , 14-P ) :   0.9275
B( 13-S , 15-S ) :   0.1167 B( 14-P , 15-S ) :   1.5435 B( 14-P , 16-O ) :   1.1425
B( 14-P , 18-O ) :   1.0827 B( 16-O , 17-C ) :   0.9279 B( 17-C , 32-H ) :   0.9538
B( 17-C , 33-H ) :   0.9358 B( 17-C , 34-H ) :   0.9541 B( 18-O , 19-C ) :   0.9447
B( 19-C , 35-H ) :   0.9335 B( 19-C , 36-H ) :   0.9343 B( 19-C , 37-H ) :   0.9577

Dispersion correction           -0.052635647
FINAL SINGLE POINT ENERGY     -1979.019121748213

DIPOLE MOMENT
-------------

Method             : SCF
Type of density    : Electron Density
Multiplicity       :   1
Irrep              :   0
Energy             : -1979.1492369112793313 Eh
Relativity type    :
Basis              : AO
                                X                 Y                 Z
Electronic contribution:     -7.636326505       1.601118904      -3.817342202
Nuclear contribution   :      8.290165520      -1.081450401       3.904715460
                        -----------------------------------------
Total Dipole Moment    :      0.653839015       0.519668503       0.087373258
                        -----------------------------------------
Magnitude (a.u.)       :      0.839758833
Magnitude (Debye)      :      2.134497322

Rotational constants in cm-1:             0.012280             0.008033             0.005870
Rotational constants in MHz :           368.148870           240.837539           175.965089

                             ****ORCA TERMINATED NORMALLY****
TOTAL RUN TIME: 0 days 0 hours 0 minutes 42 seconds 490 msec
