                         Program Version 6.0.0  -   RELEASE  -
|  1> ! pbe def2-sv(p) def2/J RI DEFGRID1 loosescf d4 GCP(DFT/SV(P)) printgap
|  2> %output
|  3>     printlevel normal
|  4> end
|  5> * xyz 0 1
|  6> C 5.1731842754 -0.7037908932 -2.4699244843
|  7> C 3.7605109996 -1.041621094 -2.0391959008
|  8> O 3.468223572 -0.2896398194 -0.8427619045
|  9> P 1.9722257109 -0.0613811147 -0.3602090788
| 10> S 0.8009821256 0.7086375448 -1.7244560507
| 11> O 2.1287432454 0.8778604955 0.8886300869
| 12> C 2.9654765027 0.5865747678 2.0366201284
| 13> C 4.3230883706 1.2407312695 1.8895557001
| 14> S 1.4952443134 -2.0006637032 0.3737120032
| 15> C -0.1407520845 -1.7067371007 1.0997235635
| 16> S -1.4646704148 -1.4558113042 -0.1168484629
| 17> P -2.0334946155 0.5565499805 0.3205990952
| 18> S -0.9519174594 1.4253982764 1.7032834888
| 19> O -3.5730774017 0.4026459383 0.7081135382
| 20> C -3.9728874649 -0.2685889281 1.9188075868
| 21> C -5.4519177458 -0.0125215326 2.1255202082
| 22> O -2.1391666046 1.4120533591 -0.9888129745
| 23> C -3.1285623749 1.2507519983 -2.0359063067
| 24> C -3.0287837032 -0.0956549654 -2.7192230999
| 25> H 5.8752953459 -0.9659680105 -1.6838594818
| 26> H 5.4134253803 -1.2637266428 -3.3676120474
| 27> H 5.2556263191 0.3594396047 -2.6778985727
| 28> H 3.6557797244 -2.1040208722 -1.804417121
| 29> H 3.0293169764 -0.7688827999 -2.8073512575
| 30> H 2.4082545961 0.9979955516 2.8810718301
| 31> H 3.0586376142 -0.4980612527 2.1418232099
| 32> H 4.206112368 2.3111100806 1.7431803094
| 33> H 4.9004573319 1.0625291695 2.7913117042
| 34> H 4.8498926495 0.8249518868 1.034812133
| 35> H -0.1018548362 -0.8283242308 1.751141718
| 36> H -0.3699364484 -2.6102563282 1.6584720147
| 37> H -3.7647286434 -1.3361984524 1.802368134
| 38> H -3.3760459562 0.1268942454 2.747366499
| 39> H -5.7748270496 -0.5110178383 3.0334110395
| 40> H -5.6362132458 1.054208265 2.2170179632
| 41> H -6.0179645074 -0.3973545168 1.2823554294
| 42> H -4.1161829161 1.4033710199 -1.5965929518
| 43> H -2.8897083193 2.0653003234 -2.7214166527
| 44> H -2.0074650172 -0.266158616 -3.0537965498
| 45> H -3.313093706 -0.8937064139 -2.0347189724
| 46> H -3.6942353586 -0.1101566733 -3.5765909654
| 47> *
| 48>
| 49>                          ****END OF INPUT****

CARTESIAN COORDINATES (ANGSTROEM)
---------------------------------
  C      5.173184   -0.703791   -2.469924
  C      3.760511   -1.041621   -2.039196
  O      3.468224   -0.289640   -0.842762
  P      1.972226   -0.061381   -0.360209
  S      0.800982    0.708638   -1.724456
  O      2.128743    0.877860    0.888630
  C      2.965477    0.586575    2.036620
  C      4.323088    1.240731    1.889556
  S      1.495244   -2.000664    0.373712
  C     -0.140752   -1.706737    1.099724
  S     -1.464670   -1.455811   -0.116848
  P     -2.033495    0.556550    0.320599
  S     -0.951917    1.425398    1.703283
  O     -3.573077    0.402646    0.708114
  C     -3.972887   -0.268589    1.918808
  C     -5.451918   -0.012522    2.125520
  O     -2.139167    1.412053   -0.988813
  C     -3.128562    1.250752   -2.035906
  C     -3.028784   -0.095655   -2.719223
  H      5.875295   -0.965968   -1.683859
  H      5.413425   -1.263727   -3.367612
  H      5.255626    0.359440   -2.677899
  H      3.655780   -2.104021   -1.804417
  H      3.029317   -0.768883   -2.807351
  H      2.408255    0.997996    2.881072
  H      3.058638   -0.498061    2.141823
  H      4.206112    2.311110    1.743180
  H      4.900457    1.062529    2.791312
  H      4.849893    0.824952    1.034812
  H     -0.101855   -0.828324    1.751142
  H     -0.369936   -2.610256    1.658472
  H     -3.764729   -1.336198    1.802368
  H     -3.376046    0.126894    2.747366
  H     -5.774827   -0.511018    3.033411
  H     -5.636213    1.054208    2.217018
  H     -6.017965   -0.397355    1.282355
  H     -4.116183    1.403371   -1.596593
  H     -2.889708    2.065300   -2.721417
  H     -2.007465   -0.266159   -3.053797
  H     -3.313094   -0.893706   -2.034719
  H     -3.694235   -0.110157   -3.576591

 Total Charge           Charge          ....    0
 Multiplicity           Mult            ....    1
 Number of Electrons    NEL             ....  202
 Basis Dimension        Dim             ....  334

ORBITAL ENERGIES
----------------

  NO   OCC          E(Eh)            E(eV)
   0   2.0000     -88.037759     -2395.6292
   1   2.0000     -88.036496     -2395.5948
   2   2.0000     -87.977619     -2393.9927
   3   2.0000     -87.972659     -2393.8578
   4   2.0000     -76.420104     -2079.4968
   5   2.0000     -76.417525     -2079.4266
   6   2.0000     -18.787835      -511.2430
   7   2.0000     -18.785592      -511.1819
   8   2.0000     -18.784978      -511.1652
   9   2.0000     -18.784238      -511.1451
  10   2.0000      -9.952658      -270.8256
  11   2.0000      -9.951596      -270.7967
  12   2.0000      -9.950787      -270.7747
  13   2.0000      -9.949429      -270.7377
  14   2.0000      -9.948928      -270.7241
  15   2.0000      -9.887345      -269.0483
  16   2.0000      -9.887012      -269.0393
  17   2.0000      -9.884355      -268.9670
  18   2.0000      -9.881204      -268.8812
  19   2.0000      -7.682944      -209.0635
  20   2.0000      -7.681062      -209.0123
  21   2.0000      -7.622857      -207.4285
  22   2.0000      -7.617734      -207.2891
  23   2.0000      -6.417281      -174.6231
  24   2.0000      -6.415176      -174.5658
  25   2.0000      -5.710530      -155.3914
  26   2.0000      -5.709004      -155.3499
  27   2.0000      -5.707374      -155.3055
  28   2.0000      -5.705552      -155.2560
  29   2.0000      -5.700272      -155.1123
  30   2.0000      -5.698095      -155.0530
  31   2.0000      -5.651771      -153.7925
  32   2.0000      -5.646717      -153.6550
  33   2.0000      -5.643476      -153.5668
  34   2.0000      -5.642928      -153.5519
  35   2.0000      -5.638308      -153.4261
  36   2.0000      -5.637836      -153.4133
  37   2.0000      -4.640143      -126.2647
  38   2.0000      -4.638883      -126.2304
  39   2.0000      -4.638177      -126.2112
  40   2.0000      -4.637656      -126.1970
  41   2.0000      -4.637109      -126.1822
  42   2.0000      -4.635046      -126.1260
  43   2.0000      -0.982981       -26.7483
  44   2.0000      -0.982674       -26.7399
  45   2.0000      -0.940572       -25.5943
  46   2.0000      -0.937833       -25.5197
  47   2.0000      -0.755765       -20.5654
  48   2.0000      -0.716964       -19.5096
  49   2.0000      -0.709249       -19.2996
  50   2.0000      -0.689281       -18.7563
  51   2.0000      -0.688761       -18.7421
  52   2.0000      -0.671627       -18.2759
  53   2.0000      -0.643040       -17.4980
  54   2.0000      -0.628695       -17.1077
  55   2.0000      -0.590179       -16.0596
  56   2.0000      -0.582829       -15.8596
  57   2.0000      -0.569013       -15.4836
  58   2.0000      -0.566636       -15.4189
  59   2.0000      -0.560669       -15.2566
  60   2.0000      -0.504831       -13.7372
  61   2.0000      -0.500662       -13.6237
  62   2.0000      -0.477646       -12.9974
  63   2.0000      -0.469170       -12.7668
  64   2.0000      -0.446642       -12.1537
  65   2.0000      -0.442610       -12.0440
  66   2.0000      -0.439221       -11.9518
  67   2.0000      -0.437455       -11.9038
  68   2.0000      -0.429583       -11.6896
  69   2.0000      -0.423036       -11.5114
  70   2.0000      -0.403856       -10.9895
  71   2.0000      -0.394283       -10.7290
  72   2.0000      -0.386008       -10.5038
  73   2.0000      -0.379380       -10.3235
  74   2.0000      -0.378290       -10.2938
  75   2.0000      -0.363800        -9.8995
  76   2.0000      -0.360070        -9.7980
  77   2.0000      -0.353767        -9.6265
  78   2.0000      -0.353261        -9.6127
  79   2.0000      -0.348972        -9.4960
  80   2.0000      -0.347435        -9.4542
  81   2.0000      -0.341188        -9.2842
  82   2.0000      -0.338486        -9.2107
  83   2.0000      -0.337947        -9.1960
  84   2.0000      -0.332637        -9.0515
  85   2.0000      -0.314285        -8.5521
  86   2.0000      -0.308432        -8.3929
  87   2.0000      -0.299107        -8.1391
  88   2.0000      -0.296117        -8.0577
  89   2.0000      -0.287141        -7.8135
  90   2.0000      -0.285820        -7.7776
  91   2.0000      -0.269547        -7.3348
  92   2.0000      -0.267518        -7.2795
  93   2.0000      -0.256846        -6.9891
  94   2.0000      -0.251716        -6.8495
  95   2.0000      -0.236208        -6.4275
  96   2.0000      -0.218326        -5.9410
  97   2.0000      -0.197421        -5.3721
  98   2.0000      -0.195613        -5.3229
  99   2.0000      -0.184449        -5.0191
 100   2.0000      -0.182301        -4.9607
 101   0.0000      -0.033413        -0.9092
 102   0.0000      -0.027801        -0.7565
 103   0.0000      -0.006778        -0.1844
 104   0.0000       0.005980         0.1627
 105   0.0000       0.021030         0.5722

MULLIKEN ATOMIC CHARGES
-----------------------
   0 C :   -0.283226
   1 C :   -0.011507
   2 O :   -0.385511
   3 P :    0.599548
   4 S :   -0.300159
   5 O :   -0.339435
   6 C :   -0.013519
   7 C :   -0.290184
   8 S :   -0.124225
   9 C :   -0.333086
  10 S :   -0.109003
  11 P :    0.616627
  12 S :   -0.301418
  13 O :   -0.389428
  14 C :   -0.002923
  15 C :   -0.280178
  16 O :   -0.343796
  17 C :    0.005472
  18 C :   -0.335729
  19 H :    0.115492
  20 H :    0.111987
  21 H :    0.123323
  22 H :    0.103876
  23 H :    0.104754
  24 H :    0.110998
  25 H :    0.097245
  26 H :    0.122070
  27 H :    0.106888
  28 H :    0.121303
  29 H :    0.185928
  30 H :    0.176743
  31 H :    0.092961
  32 H :    0.098749
  33 H :    0.110197
  34 H :    0.120800
  35 H :    0.112907
  36 H :    0.109904
  37 H :    0.112901
  38 H :    0.143457
  39 H :    0.124770
  40 H :    0.114426
Sum of atomic charges:    0.0000000

LOEWDIN ATOMIC CHARGES
----------------------
   0 C :   -0.350964
   1 C :   -0.121134
   2 O :   -0.252073
   3 P :    0.559367
   4 S :   -0.304989
   5 O :   -0.221876
   6 C :   -0.115414
   7 C :   -0.359741
   8 S :    0.055614
   9 C :   -0.486570
  10 S :    0.073485
  11 P :    0.573380
  12 S :   -0.295228
  13 O :   -0.257174
  14 C :   -0.124270
  15 C :   -0.350563
  16 O :   -0.219444
  17 C :   -0.106211
  18 C :   -0.371113
  19 H :    0.125232
  20 H :    0.130944
  21 H :    0.130183
  22 H :    0.108765
  23 H :    0.109016
  24 H :    0.120611
  25 H :    0.101385
  26 H :    0.129758
  27 H :    0.128315
  28 H :    0.125122
  29 H :    0.118733
  30 H :    0.135476
  31 H :    0.102203
  32 H :    0.106261
  33 H :    0.129959
  34 H :    0.128815
  35 H :    0.124900
  36 H :    0.113735
  37 H :    0.124663
  38 H :    0.133507
  39 H :    0.115273
  40 H :    0.132061

  Mayer bond orders larger than 0.100000
B(  0-C ,  1-C ) :   1.1603 B(  0-C , 19-H ) :   0.9510 B(  0-C , 20-H ) :   0.9418
B(  0-C , 21-H ) :   0.9507 B(  1-C ,  2-O ) :   0.9071 B(  1-C , 22-H ) :   0.9293
B(  1-C , 23-H ) :   0.9059 B(  2-O ,  3-P ) :   1.0687 B(  3-P ,  4-S ) :   1.6755
B(  3-P ,  5-O ) :   1.1489 B(  3-P ,  8-S ) :   0.9511 B(  4-S ,  8-S ) :   0.1135
B(  5-O ,  6-C ) :   0.8957 B(  6-C ,  7-C ) :   1.1667 B(  6-C , 24-H ) :   0.9319
B(  6-C , 25-H ) :   0.9082 B(  7-C , 26-H ) :   0.9471 B(  7-C , 27-H ) :   0.9398
B(  7-C , 28-H ) :   0.9410 B(  8-S ,  9-C ) :   0.9890 B(  9-C , 10-S ) :   1.0073
B(  9-C , 29-H ) :   0.8444 B(  9-C , 30-H ) :   0.9117 B( 10-S , 11-P ) :   0.9328
B( 10-S , 12-S ) :   0.1196 B( 11-P , 12-S ) :   1.6297 B( 11-P , 13-O ) :   1.0543
B( 11-P , 16-O ) :   1.1594 B( 12-S , 29-H ) :   0.1338 B( 13-O , 14-C ) :   0.9133
B( 14-C , 15-C ) :   1.1604 B( 14-C , 31-H ) :   0.9204 B( 14-C , 32-H ) :   0.9109
B( 15-C , 33-H ) :   0.9424 B( 15-C , 34-H ) :   0.9512 B( 15-C , 35-H ) :   0.9515
B( 16-O , 17-C ) :   0.8957 B( 17-C , 18-C ) :   1.1694 B( 17-C , 36-H ) :   0.9270
B( 17-C , 37-H ) :   0.9326 B( 18-C , 38-H ) :   0.9379 B( 18-C , 39-H ) :   0.9327
B( 18-C , 40-H ) :   0.9355

Dispersion correction           -0.065227464
FINAL SINGLE POINT ENERGY     -2929.512117466517

DIPOLE MOMENT
-------------

Method             : SCF
Type of density    : Electron Density
Multiplicity       :   1
Irrep              :   0
Energy             : -2929.6311043663599776 Eh
Relativity type    :
Basis              : AO
                                X                 Y                 Z
Electronic contribution:     -1.665326119       1.456293178       0.389301545
Nuclear contribution   :      1.548722861      -2.571425256      -0.199997461
                        -----------------------------------------
Total Dipole Moment    :     -0.116603258      -1.115132078       0.189304084
                        -----------------------------------------
Magnitude (a.u.)       :      1.137080431
Magnitude (Debye)      :      2.890228766

Rotational constants in cm-1:             0.013469             0.004873             0.004417
Rotational constants in MHz :           403.796813           146.083395           132.409301

                             ****ORCA TERMINATED NORMALLY****
TOTAL RUN TIME: 0 days 0 hours 0 minutes 20 seconds 990 msec
