                         Program Version 6.0.0  -   RELEASE  -
|  1> ! pbe def2-sv(p) def2/J RI DEFGRID1 loosescf d4 GCP(DFT/SV(P)) printgap
|  2> %output
|  3>     printlevel normal
|  4> end
|  5> * xyz 0 1
|  6> C 3.2277153705 -0.8669912339 -3.1683694455
|  7> C 4.089391277 -0.736862919 -1.9306026969
|  8> O 3.5576033213 0.1994214702 -0.9725980545
|  9> P 2.0725477418 0.1967056585 -0.4080488422
| 10> S 0.7106955823 1.0118685821 -1.5558067561
| 11> O 2.2276355701 1.0656953953 0.8957895575
| 12> C 3.2299022747 0.8789529162 1.9256256377
| 13> C 2.6749946163 0.0777527251 3.0876018494
| 14> S 1.8524075223 -1.8484210363 0.154573008
| 15> C 0.2015675928 -1.8360166219 0.8970593416
| 16> S -1.1380881607 -1.6063078532 -0.3147985798
| 17> P -1.951504976 0.1935286401 0.4296560115
| 18> S -0.9242080988 1.1986170136 1.7542707847
| 19> O -3.2990541209 -0.4462097756 1.0255493907
| 20> C -4.0496044169 0.1830587892 2.0793323396
| 21> C -4.7902975099 1.412913997 1.5928404307
| 22> O -2.3986036467 1.0952625194 -0.7914188024
| 23> C -3.335041196 0.6859462444 -1.8163749072
| 24> C -2.6347971355 0.0033845217 -2.9742503744
| 25> H 2.255686456 -1.2838667241 -2.9075146739
| 26> H 3.0695921017 0.1073818908 -3.6248870961
| 27> H 3.7162732609 -1.5247822603 -3.8798245287
| 28> H 5.0719800135 -0.3258177218 -2.1692723605
| 29> H 4.1998822036 -1.7039887379 -1.4326990689
| 30> H 4.1077306202 0.4015757071 1.4863056972
| 31> H 3.47681724 1.896203843 2.233617002
| 32> H 2.5423597161 -0.9659375761 2.8134665137
| 33> H 3.3683836356 0.1375780684 3.9203338069
| 34> H 1.7161962951 0.4928451116 3.3921026386
| 35> H 0.1368682261 -1.0370522733 1.6405331757
| 36> H 0.0814160376 -2.8163738658 1.3504379808
| 37> H -4.7340331879 -0.5963969391 2.4168108213
| 38> H -3.3576355317 0.4474584534 2.8853401807
| 39> H -4.0765454495 2.158859246 1.2427988003
| 40> H -5.4627042284 1.1576903631 0.7777604946
| 41> H -5.3638052461 1.8337792574 2.4127489649
| 42> H -4.0887028768 0.0335745137 -1.3671828486
| 43> H -3.791440263 1.6257276578 -2.132466933
| 44> H -3.3269450114 -0.085576763 -3.8054651486
| 45> H -1.7734355458 0.5929279482 -3.2804982169
| 46> H -2.2892055351 -0.9879495919 -2.6899835024
| 47> *
| 48>
| 49>                          ****END OF INPUT****

CARTESIAN COORDINATES (ANGSTROEM)
---------------------------------
  C      3.227715   -0.866991   -3.168369
  C      4.089391   -0.736863   -1.930603
  O      3.557603    0.199421   -0.972598
  P      2.072548    0.196706   -0.408049
  S      0.710696    1.011869   -1.555807
  O      2.227636    1.065695    0.895790
  C      3.229902    0.878953    1.925626
  C      2.674995    0.077753    3.087602
  S      1.852408   -1.848421    0.154573
  C      0.201568   -1.836017    0.897059
  S     -1.138088   -1.606308   -0.314799
  P     -1.951505    0.193529    0.429656
  S     -0.924208    1.198617    1.754271
  O     -3.299054   -0.446210    1.025549
  C     -4.049604    0.183059    2.079332
  C     -4.790298    1.412914    1.592840
  O     -2.398604    1.095263   -0.791419
  C     -3.335041    0.685946   -1.816375
  C     -2.634797    0.003385   -2.974250
  H      2.255686   -1.283867   -2.907515
  H      3.069592    0.107382   -3.624887
  H      3.716273   -1.524782   -3.879825
  H      5.071980   -0.325818   -2.169272
  H      4.199882   -1.703989   -1.432699
  H      4.107731    0.401576    1.486306
  H      3.476817    1.896204    2.233617
  H      2.542360   -0.965938    2.813467
  H      3.368384    0.137578    3.920334
  H      1.716196    0.492845    3.392103
  H      0.136868   -1.037052    1.640533
  H      0.081416   -2.816374    1.350438
  H     -4.734033   -0.596397    2.416811
  H     -3.357636    0.447458    2.885340
  H     -4.076545    2.158859    1.242799
  H     -5.462704    1.157690    0.777760
  H     -5.363805    1.833779    2.412749
  H     -4.088703    0.033575   -1.367183
  H     -3.791440    1.625728   -2.132467
  H     -3.326945   -0.085577   -3.805465
  H     -1.773436    0.592928   -3.280498
  H     -2.289206   -0.987950   -2.689984

 Total Charge           Charge          ....    0
 Multiplicity           Mult            ....    1
 Number of Electrons    NEL             ....  202
 Basis Dimension        Dim             ....  334

ORBITAL ENERGIES
----------------

  NO   OCC          E(Eh)            E(eV)
   0   2.0000     -88.041995     -2395.7445
   1   2.0000     -88.034765     -2395.5477
   2   2.0000     -87.980136     -2394.0612
   3   2.0000     -87.970529     -2393.7998
   4   2.0000     -76.419130     -2079.4702
   5   2.0000     -76.418296     -2079.4476
   6   2.0000     -18.787113      -511.2233
   7   2.0000     -18.786654      -511.2108
   8   2.0000     -18.779694      -511.0214
   9   2.0000     -18.779216      -511.0084
  10   2.0000      -9.956027      -270.9173
  11   2.0000      -9.955336      -270.8985
  12   2.0000      -9.953515      -270.8489
  13   2.0000      -9.949209      -270.7317
  14   2.0000      -9.944925      -270.6152
  15   2.0000      -9.881950      -268.9015
  16   2.0000      -9.880292      -268.8564
  17   2.0000      -9.880215      -268.8543
  18   2.0000      -9.879474      -268.8342
  19   2.0000      -7.686838      -209.1695
  20   2.0000      -7.680133      -208.9871
  21   2.0000      -7.625314      -207.4953
  22   2.0000      -7.615479      -207.2277
  23   2.0000      -6.416811      -174.6103
  24   2.0000      -6.415320      -174.5697
  25   2.0000      -5.714420      -155.4973
  26   2.0000      -5.711327      -155.4131
  27   2.0000      -5.708093      -155.3251
  28   2.0000      -5.704948      -155.2395
  29   2.0000      -5.704165      -155.2182
  30   2.0000      -5.696612      -155.0127
  31   2.0000      -5.654262      -153.8603
  32   2.0000      -5.646179      -153.6404
  33   2.0000      -5.645070      -153.6102
  34   2.0000      -5.644651      -153.5988
  35   2.0000      -5.635951      -153.3620
  36   2.0000      -5.635536      -153.3507
  37   2.0000      -4.639737      -126.2537
  38   2.0000      -4.638293      -126.2144
  39   2.0000      -4.638127      -126.2099
  40   2.0000      -4.637466      -126.1919
  41   2.0000      -4.637408      -126.1903
  42   2.0000      -4.635132      -126.1284
  43   2.0000      -0.980609       -26.6837
  44   2.0000      -0.977457       -26.5980
  45   2.0000      -0.936623       -25.4868
  46   2.0000      -0.935268       -25.4499
  47   2.0000      -0.758892       -20.6505
  48   2.0000      -0.715834       -19.4788
  49   2.0000      -0.707355       -19.2481
  50   2.0000      -0.687141       -18.6981
  51   2.0000      -0.685573       -18.6554
  52   2.0000      -0.671048       -18.2602
  53   2.0000      -0.646733       -17.5985
  54   2.0000      -0.630270       -17.1505
  55   2.0000      -0.590341       -16.0640
  56   2.0000      -0.581200       -15.8153
  57   2.0000      -0.574451       -15.6316
  58   2.0000      -0.570623       -15.5274
  59   2.0000      -0.559988       -15.2380
  60   2.0000      -0.497716       -13.5435
  61   2.0000      -0.492371       -13.3981
  62   2.0000      -0.471893       -12.8409
  63   2.0000      -0.465528       -12.6677
  64   2.0000      -0.450501       -12.2587
  65   2.0000      -0.445613       -12.1257
  66   2.0000      -0.437212       -11.8972
  67   2.0000      -0.432198       -11.7607
  68   2.0000      -0.428747       -11.6668
  69   2.0000      -0.415817       -11.3149
  70   2.0000      -0.404975       -11.0199
  71   2.0000      -0.395784       -10.7698
  72   2.0000      -0.391363       -10.6495
  73   2.0000      -0.382322       -10.4035
  74   2.0000      -0.379539       -10.3278
  75   2.0000      -0.367793       -10.0081
  76   2.0000      -0.351385        -9.5617
  77   2.0000      -0.349549        -9.5117
  78   2.0000      -0.347757        -9.4630
  79   2.0000      -0.346151        -9.4192
  80   2.0000      -0.341962        -9.3053
  81   2.0000      -0.341574        -9.2947
  82   2.0000      -0.339792        -9.2462
  83   2.0000      -0.336467        -9.1557
  84   2.0000      -0.333539        -9.0761
  85   2.0000      -0.314103        -8.5472
  86   2.0000      -0.310927        -8.4608
  87   2.0000      -0.298967        -8.1353
  88   2.0000      -0.291587        -7.9345
  89   2.0000      -0.285771        -7.7762
  90   2.0000      -0.271883        -7.3983
  91   2.0000      -0.268737        -7.3127
  92   2.0000      -0.266884        -7.2623
  93   2.0000      -0.262278        -7.1369
  94   2.0000      -0.253931        -6.9098
  95   2.0000      -0.235099        -6.3974
  96   2.0000      -0.214258        -5.8303
  97   2.0000      -0.202307        -5.5051
  98   2.0000      -0.198785        -5.4092
  99   2.0000      -0.178579        -4.8594
 100   2.0000      -0.177286        -4.8242
 101   0.0000      -0.038513        -1.0480
 102   0.0000      -0.029733        -0.8091
 103   0.0000      -0.010176        -0.2769
 104   0.0000       0.003186         0.0867
 105   0.0000       0.024082         0.6553

MULLIKEN ATOMIC CHARGES
-----------------------
   0 C :   -0.309517
   1 C :   -0.012598
   2 O :   -0.381785
   3 P :    0.602819
   4 S :   -0.296573
   5 O :   -0.343196
   6 C :   -0.003161
   7 C :   -0.310015
   8 S :   -0.139023
   9 C :   -0.338802
  10 S :   -0.090222
  11 P :    0.635381
  12 S :   -0.299931
  13 O :   -0.391025
  14 C :   -0.002720
  15 C :   -0.317525
  16 O :   -0.358581
  17 C :   -0.033217
  18 C :   -0.302562
  19 H :    0.127778
  20 H :    0.127879
  21 H :    0.108587
  22 H :    0.108934
  23 H :    0.112782
  24 H :    0.099201
  25 H :    0.110260
  26 H :    0.117533
  27 H :    0.107463
  28 H :    0.136493
  29 H :    0.196027
  30 H :    0.181540
  31 H :    0.100508
  32 H :    0.106505
  33 H :    0.131809
  34 H :    0.111814
  35 H :    0.111604
  36 H :    0.106465
  37 H :    0.110354
  38 H :    0.107559
  39 H :    0.139893
  40 H :    0.131265
Sum of atomic charges:   -0.0000000

LOEWDIN ATOMIC CHARGES
----------------------
   0 C :   -0.371363
   1 C :   -0.115069
   2 O :   -0.247674
   3 P :    0.560905
   4 S :   -0.296826
   5 O :   -0.226226
   6 C :   -0.110168
   7 C :   -0.367388
   8 S :    0.056489
   9 C :   -0.477793
  10 S :    0.085755
  11 P :    0.576567
  12 S :   -0.287429
  13 O :   -0.264763
  14 C :   -0.122334
  15 C :   -0.366090
  16 O :   -0.231211
  17 C :   -0.115431
  18 C :   -0.364231
  19 H :    0.121843
  20 H :    0.130544
  21 H :    0.128686
  22 H :    0.121196
  23 H :    0.106798
  24 H :    0.107659
  25 H :    0.122796
  26 H :    0.116288
  27 H :    0.128409
  28 H :    0.130423
  29 H :    0.121340
  30 H :    0.137546
  31 H :    0.116048
  32 H :    0.106511
  33 H :    0.126905
  34 H :    0.121291
  35 H :    0.130291
  36 H :    0.107559
  37 H :    0.121676
  38 H :    0.128751
  39 H :    0.132815
  40 H :    0.118902

  Mayer bond orders larger than 0.100000
B(  0-C ,  1-C ) :   1.1681 B(  0-C , 19-H ) :   0.9312 B(  0-C , 20-H ) :   0.9414
B(  0-C , 21-H ) :   0.9340 B(  1-C ,  2-O ) :   0.9150 B(  1-C , 22-H ) :   0.9335
B(  1-C , 23-H ) :   0.9261 B(  2-O ,  3-P ) :   1.0798 B(  3-P ,  4-S ) :   1.6663
B(  3-P ,  5-O ) :   1.1387 B(  3-P ,  8-S ) :   0.9293 B(  4-S ,  8-S ) :   0.1181
B(  5-O ,  6-C ) :   0.9013 B(  6-C ,  7-C ) :   1.1685 B(  6-C , 24-H ) :   0.9194
B(  6-C , 25-H ) :   0.9350 B(  7-C , 26-H ) :   0.9331 B(  7-C , 27-H ) :   0.9385
B(  7-C , 28-H ) :   0.9367 B(  8-S ,  9-C ) :   0.9888 B(  9-C , 10-S ) :   1.0136
B(  9-C , 29-H ) :   0.8459 B(  9-C , 30-H ) :   0.9116 B( 10-S , 11-P ) :   0.9507
B( 10-S , 12-S ) :   0.1101 B( 11-P , 12-S ) :   1.6119 B( 11-P , 13-O ) :   1.0585
B( 11-P , 16-O ) :   1.1213 B( 12-S , 29-H ) :   0.1111 B( 13-O , 14-C ) :   0.9218
B( 14-C , 15-C ) :   1.1596 B( 14-C , 31-H ) :   0.9347 B( 14-C , 32-H ) :   0.9106
B( 15-C , 33-H ) :   0.9369 B( 15-C , 34-H ) :   0.9463 B( 15-C , 35-H ) :   0.9398
B( 16-O , 17-C ) :   0.9063 B( 17-C , 18-C ) :   1.1709 B( 17-C , 36-H ) :   0.9155
B( 17-C , 37-H ) :   0.9344 B( 18-C , 38-H ) :   0.9374 B( 18-C , 39-H ) :   0.9385
B( 18-C , 40-H ) :   0.9346

Dispersion correction           -0.068397806
FINAL SINGLE POINT ENERGY     -2929.504618498172

DIPOLE MOMENT
-------------

Method             : SCF
Type of density    : Electron Density
Multiplicity       :   1
Irrep              :   0
Energy             : -2929.6214950762478111 Eh
Relativity type    :
Basis              : AO
                                X                 Y                 Z
Electronic contribution:      4.346659771      -0.232719374       0.855958224
Nuclear contribution   :     -4.363077433      -0.699113470      -0.691257345
                        -----------------------------------------
Total Dipole Moment    :     -0.016417662      -0.931832843       0.164700879
                        -----------------------------------------
Magnitude (a.u.)       :      0.946418706
Magnitude (Debye)      :      2.405605173

Rotational constants in cm-1:             0.012581             0.005656             0.004816
Rotational constants in MHz :           377.169777           169.574769           144.382865

                             ****ORCA TERMINATED NORMALLY****
TOTAL RUN TIME: 0 days 0 hours 0 minutes 21 seconds 245 msec
