                         Program Version 6.0.0  -   RELEASE  -
|  1> ! pbe def2-sv(p) def2/J RI DEFGRID1 loosescf d4 GCP(DFT/SV(P)) printgap
|  2> %output
|  3>     printlevel normal
|  4> end
|  5> * xyz 0 1
|  6> C 0.6572286347 1.8118125471 3.1193038363
|  7> C 1.0418918084 1.983578931 1.6620893019
|  8> O 2.1718401551 1.1574383611 1.3296099278
|  9> P 2.0926299958 -0.3360726535 0.8186852332
| 10> S 1.1326317212 -1.6698055017 1.8981445649
| 11> O 3.6628555881 -0.5339346075 0.7774648296
| 12> C 4.2767925006 -1.8325204253 0.7822619432
| 13> C 4.0140001022 -2.5957841453 -0.5011446355
| 14> S 1.4945536963 -0.167954396 -1.2214486713
| 15> C 0.3421797344 -1.572396281 -1.3441256904
| 16> S -1.2516011774 -1.1667433465 -2.1184142615
| 17> P -2.0107764978 0.3213520555 -0.8037030664
| 18> S -3.9317898358 0.6147624537 -1.0335635395
| 19> O -1.056123944 1.578074895 -0.9936455526
| 20> C -1.0441766397 2.3018979996 -2.2406353363
| 21> C -1.9278581611 3.5302367402 -2.1546359712
| 22> O -1.4954935346 -0.07754805 0.6421818634
| 23> C -2.3438219143 -0.8054980942 1.5560860621
| 24> C -3.040230313 0.1487545609 2.5039672216
| 25> H -0.1519544466 2.4948753205 3.3586592397
| 26> H 0.3304587565 0.7907227143 3.3052765678
| 27> H 1.5098825394 2.0260800231 3.7581757099
| 28> H 1.3856322096 3.0006217224 1.4621025767
| 29> H 0.2017330809 1.7490819128 1.0043157375
| 30> H 5.3384166319 -1.6178364137 0.9116601686
| 31> H 3.9051776012 -2.3929026408 1.6464309096
| 32> H 4.6152445716 -3.4993570545 -0.5109080859
| 33> H 2.9621898957 -2.8732920025 -0.5595587408
| 34> H 4.2692196736 -1.9835308469 -1.3624905194
| 35> H 0.1763320449 -1.9713678301 -0.3394678314
| 36> H 0.7733211832 -2.3225888623 -2.0027998769
| 37> H 0.0032188768 2.5679849841 -2.3998208843
| 38> H -1.3737414738 1.6376673676 -3.0472016639
| 39> H -1.8654279141 4.081075013 -3.0875527363
| 40> H -2.9613253602 3.2361438064 -1.9836974841
| 41> H -1.6051043466 4.1674501057 -1.3363341698
| 42> H -3.0753979 -1.3862370902 0.986260256
| 43> H -1.6697638216 -1.4820341577 2.0868563643
| 44> H -3.6338314039 -0.4230626806 3.2098774221
| 45> H -2.3088651345 0.7419616937 3.045116092
| 46> H -3.694595421 0.8146059894 1.9449358242
| 47> *
| 48>
| 49>                          ****END OF INPUT****

CARTESIAN COORDINATES (ANGSTROEM)
---------------------------------
  C      0.657229    1.811813    3.119304
  C      1.041892    1.983579    1.662089
  O      2.171840    1.157438    1.329610
  P      2.092630   -0.336073    0.818685
  S      1.132632   -1.669806    1.898145
  O      3.662856   -0.533935    0.777465
  C      4.276793   -1.832520    0.782262
  C      4.014000   -2.595784   -0.501145
  S      1.494554   -0.167954   -1.221449
  C      0.342180   -1.572396   -1.344126
  S     -1.251601   -1.166743   -2.118414
  P     -2.010776    0.321352   -0.803703
  S     -3.931790    0.614762   -1.033564
  O     -1.056124    1.578075   -0.993646
  C     -1.044177    2.301898   -2.240635
  C     -1.927858    3.530237   -2.154636
  O     -1.495494   -0.077548    0.642182
  C     -2.343822   -0.805498    1.556086
  C     -3.040230    0.148755    2.503967
  H     -0.151954    2.494875    3.358659
  H      0.330459    0.790723    3.305277
  H      1.509883    2.026080    3.758176
  H      1.385632    3.000622    1.462103
  H      0.201733    1.749082    1.004316
  H      5.338417   -1.617836    0.911660
  H      3.905178   -2.392903    1.646431
  H      4.615245   -3.499357   -0.510908
  H      2.962190   -2.873292   -0.559559
  H      4.269220   -1.983531   -1.362491
  H      0.176332   -1.971368   -0.339468
  H      0.773321   -2.322589   -2.002800
  H      0.003219    2.567985   -2.399821
  H     -1.373741    1.637667   -3.047202
  H     -1.865428    4.081075   -3.087553
  H     -2.961325    3.236144   -1.983697
  H     -1.605104    4.167450   -1.336334
  H     -3.075398   -1.386237    0.986260
  H     -1.669764   -1.482034    2.086856
  H     -3.633831   -0.423063    3.209877
  H     -2.308865    0.741962    3.045116
  H     -3.694595    0.814606    1.944936

 Total Charge           Charge          ....    0
 Multiplicity           Mult            ....    1
 Number of Electrons    NEL             ....  202
 Basis Dimension        Dim             ....  334

ORBITAL ENERGIES
----------------

  NO   OCC          E(Eh)            E(eV)
   0   2.0000     -88.047134     -2395.8843
   1   2.0000     -88.046242     -2395.8600
   2   2.0000     -87.997942     -2394.5457
   3   2.0000     -87.990797     -2394.3513
   4   2.0000     -76.432253     -2079.8273
   5   2.0000     -76.429604     -2079.7553
   6   2.0000     -18.796595      -511.4813
   7   2.0000     -18.793717      -511.4031
   8   2.0000     -18.793143      -511.3874
   9   2.0000     -18.791532      -511.3436
  10   2.0000      -9.958481      -270.9841
  11   2.0000      -9.955321      -270.8981
  12   2.0000      -9.955140      -270.8931
  13   2.0000      -9.949716      -270.7455
  14   2.0000      -9.949044      -270.7272
  15   2.0000      -9.889499      -269.1069
  16   2.0000      -9.882547      -268.9178
  17   2.0000      -9.880666      -268.8666
  18   2.0000      -9.880353      -268.8581
  19   2.0000      -7.691820      -209.3051
  20   2.0000      -7.691272      -209.2902
  21   2.0000      -7.642631      -207.9666
  22   2.0000      -7.635927      -207.7841
  23   2.0000      -6.429570      -174.9575
  24   2.0000      -6.427159      -174.8919
  25   2.0000      -5.719701      -155.6410
  26   2.0000      -5.719501      -155.6355
  27   2.0000      -5.716386      -155.5508
  28   2.0000      -5.715280      -155.5207
  29   2.0000      -5.708781      -155.3438
  30   2.0000      -5.708473      -155.3355
  31   2.0000      -5.671305      -154.3241
  32   2.0000      -5.664920      -154.1503
  33   2.0000      -5.663311      -154.1065
  34   2.0000      -5.662953      -154.0968
  35   2.0000      -5.656669      -153.9258
  36   2.0000      -5.655902      -153.9049
  37   2.0000      -4.651735      -126.5801
  38   2.0000      -4.651500      -126.5738
  39   2.0000      -4.650276      -126.5404
  40   2.0000      -4.649621      -126.5226
  41   2.0000      -4.649298      -126.5138
  42   2.0000      -4.647362      -126.4611
  43   2.0000      -0.992294       -27.0017
  44   2.0000      -0.991386       -26.9770
  45   2.0000      -0.948677       -25.8148
  46   2.0000      -0.946103       -25.7448
  47   2.0000      -0.762619       -20.7519
  48   2.0000      -0.723321       -19.6826
  49   2.0000      -0.712382       -19.3849
  50   2.0000      -0.685500       -18.6534
  51   2.0000      -0.683741       -18.6055
  52   2.0000      -0.680355       -18.5134
  53   2.0000      -0.658686       -17.9237
  54   2.0000      -0.642711       -17.4891
  55   2.0000      -0.603567       -16.4239
  56   2.0000      -0.594941       -16.1892
  57   2.0000      -0.571234       -15.5441
  58   2.0000      -0.568559       -15.4713
  59   2.0000      -0.561696       -15.2845
  60   2.0000      -0.508186       -13.8284
  61   2.0000      -0.497075       -13.5261
  62   2.0000      -0.479317       -13.0429
  63   2.0000      -0.472221       -12.8498
  64   2.0000      -0.453139       -12.3305
  65   2.0000      -0.446409       -12.1474
  66   2.0000      -0.444257       -12.0889
  67   2.0000      -0.436486       -11.8774
  68   2.0000      -0.424208       -11.5433
  69   2.0000      -0.422989       -11.5101
  70   2.0000      -0.410596       -11.1729
  71   2.0000      -0.402889       -10.9632
  72   2.0000      -0.401359       -10.9215
  73   2.0000      -0.393022       -10.6947
  74   2.0000      -0.381944       -10.3932
  75   2.0000      -0.375671       -10.2225
  76   2.0000      -0.364966        -9.9312
  77   2.0000      -0.362130        -9.8541
  78   2.0000      -0.355100        -9.6628
  79   2.0000      -0.350821        -9.5463
  80   2.0000      -0.349820        -9.5191
  81   2.0000      -0.344278        -9.3683
  82   2.0000      -0.339129        -9.2282
  83   2.0000      -0.335800        -9.1376
  84   2.0000      -0.328315        -8.9339
  85   2.0000      -0.327899        -8.9226
  86   2.0000      -0.317580        -8.6418
  87   2.0000      -0.301481        -8.2037
  88   2.0000      -0.297953        -8.1077
  89   2.0000      -0.297321        -8.0905
  90   2.0000      -0.286747        -7.8028
  91   2.0000      -0.276481        -7.5234
  92   2.0000      -0.270761        -7.3678
  93   2.0000      -0.265423        -7.2225
  94   2.0000      -0.260157        -7.0792
  95   2.0000      -0.238957        -6.5023
  96   2.0000      -0.223617        -6.0849
  97   2.0000      -0.217535        -5.9194
  98   2.0000      -0.210869        -5.7380
  99   2.0000      -0.207610        -5.6494
 100   2.0000      -0.201661        -5.4875
 101   0.0000      -0.044044        -1.1985
 102   0.0000      -0.032440        -0.8827
 103   0.0000      -0.024454        -0.6654
 104   0.0000      -0.005751        -0.1565
 105   0.0000       0.004183         0.1138

MULLIKEN ATOMIC CHARGES
-----------------------
   0 C :   -0.308874
   1 C :   -0.043521
   2 O :   -0.357180
   3 P :    0.614025
   4 S :   -0.330128
   5 O :   -0.357546
   6 C :    0.001630
   7 C :   -0.323660
   8 S :   -0.100248
   9 C :   -0.361343
  10 S :   -0.088768
  11 P :    0.597894
  12 S :   -0.309749
  13 O :   -0.356926
  14 C :   -0.012056
  15 C :   -0.283348
  16 O :   -0.368653
  17 C :   -0.015707
  18 C :   -0.300289
  19 H :    0.113521
  20 H :    0.134656
  21 H :    0.113176
  22 H :    0.101604
  23 H :    0.146375
  24 H :    0.108493
  25 H :    0.112883
  26 H :    0.114463
  27 H :    0.121162
  28 H :    0.122632
  29 H :    0.201235
  30 H :    0.185337
  31 H :    0.107266
  32 H :    0.101706
  33 H :    0.108504
  34 H :    0.127433
  35 H :    0.110550
  36 H :    0.105766
  37 H :    0.118682
  38 H :    0.109708
  39 H :    0.117657
  40 H :    0.121636
Sum of atomic charges:   -0.0000000

LOEWDIN ATOMIC CHARGES
----------------------
   0 C :   -0.363588
   1 C :   -0.121638
   2 O :   -0.230188
   3 P :    0.575380
   4 S :   -0.293181
   5 O :   -0.235939
   6 C :   -0.117258
   7 C :   -0.368963
   8 S :    0.077443
   9 C :   -0.486324
  10 S :    0.075698
  11 P :    0.563822
  12 S :   -0.310446
  13 O :   -0.234593
  14 C :   -0.120840
  15 C :   -0.361338
  16 O :   -0.234454
  17 C :   -0.122747
  18 C :   -0.361748
  19 H :    0.128557
  20 H :    0.122395
  21 H :    0.125459
  22 H :    0.117514
  23 H :    0.112838
  24 H :    0.120781
  25 H :    0.110358
  26 H :    0.131414
  27 H :    0.118697
  28 H :    0.126539
  29 H :    0.120723
  30 H :    0.135060
  31 H :    0.115666
  32 H :    0.106270
  33 H :    0.129208
  34 H :    0.125372
  35 H :    0.124462
  36 H :    0.109374
  37 H :    0.111652
  38 H :    0.130887
  39 H :    0.124327
  40 H :    0.123353

  Mayer bond orders larger than 0.100000
B(  0-C ,  1-C ) :   1.1710 B(  0-C , 19-H ) :   0.9353 B(  0-C , 20-H ) :   0.9290
B(  0-C , 21-H ) :   0.9442 B(  1-C ,  2-O ) :   0.8972 B(  1-C , 22-H ) :   0.9350
B(  1-C , 23-H ) :   0.8925 B(  2-O ,  3-P ) :   1.1505 B(  3-P ,  4-S ) :   1.5716
B(  3-P ,  5-O ) :   1.1208 B(  3-P ,  8-S ) :   0.9554 B(  4-S ,  8-S ) :   0.1270
B(  4-S , 29-H ) :   0.1130 B(  5-O ,  6-C ) :   0.9208 B(  6-C ,  7-C ) :   1.1610
B(  6-C , 24-H ) :   0.9341 B(  6-C , 25-H ) :   0.9170 B(  7-C , 26-H ) :   0.9378
B(  7-C , 27-H ) :   0.9375 B(  7-C , 28-H ) :   0.9430 B(  8-S ,  9-C ) :   1.0017
B(  9-C , 10-S ) :   0.9825 B(  9-C , 29-H ) :   0.8500 B(  9-C , 30-H ) :   0.9033
B( 10-S , 11-P ) :   0.9711 B( 11-P , 12-S ) :   1.6501 B( 11-P , 13-O ) :   1.0838
B( 11-P , 16-O ) :   1.0996 B( 13-O , 14-C ) :   0.8977 B( 14-C , 15-C ) :   1.1684
B( 14-C , 31-H ) :   0.9319 B( 14-C , 32-H ) :   0.9099 B( 15-C , 33-H ) :   0.9403
B( 15-C , 34-H ) :   0.9327 B( 15-C , 35-H ) :   0.9484 B( 16-O , 17-C ) :   0.8900
B( 17-C , 18-C ) :   1.1706 B( 17-C , 36-H ) :   0.9128 B( 17-C , 37-H ) :   0.9143
B( 18-C , 38-H ) :   0.9390 B( 18-C , 39-H ) :   0.9425 B( 18-C , 40-H ) :   0.9363

Dispersion correction           -0.067215444
FINAL SINGLE POINT ENERGY     -2929.524273117017

DIPOLE MOMENT
-------------

Method             : SCF
Type of density    : Electron Density
Multiplicity       :   1
Irrep              :   0
Energy             : -2929.6440782670556473 Eh
Relativity type    :
Basis              : AO
                                X                 Y                 Z
Electronic contribution:     -1.954331390      -6.908734021      -9.549914918
Nuclear contribution   :      2.986728373       7.015035685       9.550265323
                        -----------------------------------------
Total Dipole Moment    :      1.032396983       0.106301664       0.000350405
                        -----------------------------------------
Magnitude (a.u.)       :      1.037855335
Magnitude (Debye)      :      2.638018615

Rotational constants in cm-1:             0.011570             0.005598             0.005223
Rotational constants in MHz :           346.853049           167.819736           156.594671

                             ****ORCA TERMINATED NORMALLY****
TOTAL RUN TIME: 0 days 0 hours 0 minutes 22 seconds 203 msec
