                         Program Version 6.0.0  -   RELEASE  -
|  1> ! pbe def2-sv(p) def2/J RI DEFGRID1 loosescf d4 GCP(DFT/SV(P)) printgap
|  2> %output
|  3>     printlevel normal
|  4> end
|  5> * xyz 0 1
|  6> C 2.707199683 -0.8772720176 -2.768129679
|  7> C 1.6386047682 0.0130389407 -2.1721563657
|  8> O 1.1007080449 -0.5404223759 -0.9554874742
|  9> P 1.9711240436 -0.6104140605 0.3773985961
| 10> S 3.3213107018 0.7929757979 0.6276306437
| 11> O 2.5489188779 -2.0868488684 0.2828874252
| 12> C 3.6539347052 -2.5374797164 1.0872198377
| 13> C 3.2831439353 -2.6489244379 2.5519063571
| 14> S 0.4344998968 -0.8005408816 1.8041894964
| 15> C 0.0020827383 0.9564897465 1.9989813694
| 16> S -0.0874132675 1.8817278857 0.4385181439
| 17> P -1.8156711204 1.0327145119 -0.4342283455
| 18> S -1.9093832132 1.3007202331 -2.372354826
| 19> O -2.8696426219 1.7542729567 0.5103390609
| 20> C -4.2415045104 1.3276065329 0.6596400103
| 21> C -5.0549002473 1.5619999309 -0.5965443258
| 22> O -1.9556129738 -0.4789103455 0.0368440151
| 23> C -1.802199674 -1.6288982979 -0.8099536755
| 24> C -3.0657363112 -2.4624429568 -0.7319018256
| 25> H 2.3249597475 -1.8860770118 -2.8989517173
| 26> H 3.0105995346 -0.4758468904 -3.7298520023
| 27> H 3.5725910906 -0.9077622431 -2.106985139
| 28> H 0.7721123934 0.1109231345 -2.8298473471
| 29> H 2.0362494295 1.0100330332 -1.9518126352
| 30> H 3.9098422661 -3.5076745253 0.6595359381
| 31> H 4.4856919544 -1.8383648082 0.9539663518
| 32> H 3.0935012432 -1.6585298202 2.9634297828
| 33> H 2.3884781868 -3.2547177683 2.6708194018
| 34> H 4.1040367493 -3.1047463189 3.096131132
| 35> H 0.7772930685 1.4543032285 2.5788770597
| 36> H -0.9568765789 0.9889040964 2.5099806517
| 37> H -4.2473881895 0.2714831198 0.9395615353
| 38> H -4.6075754608 1.9345569549 1.4894639606
| 39> H -4.668841489 0.9590613173 -1.4170438927
| 40> H -6.0896868418 1.2912010121 -0.4115182846
| 41> H -5.0033802941 2.6076882202 -0.8896897941
| 42> H -1.6114776793 -1.2917465275 -1.8342401352
| 43> H -0.9345434949 -2.1806112143 -0.4402233807
| 44> H -2.9317549013 -3.3631474957 -1.3218287587
| 45> H -3.2677262441 -2.7359655488 0.2998846915
| 46> H -3.9102752285 -1.9022912021 -1.1262368787
| 47> *
| 48>
| 49>                          ****END OF INPUT****

CARTESIAN COORDINATES (ANGSTROEM)
---------------------------------
  C      2.707200   -0.877272   -2.768130
  C      1.638605    0.013039   -2.172156
  O      1.100708   -0.540422   -0.955487
  P      1.971124   -0.610414    0.377399
  S      3.321311    0.792976    0.627631
  O      2.548919   -2.086849    0.282887
  C      3.653935   -2.537480    1.087220
  C      3.283144   -2.648924    2.551906
  S      0.434500   -0.800541    1.804189
  C      0.002083    0.956490    1.998981
  S     -0.087413    1.881728    0.438518
  P     -1.815671    1.032715   -0.434228
  S     -1.909383    1.300720   -2.372355
  O     -2.869643    1.754273    0.510339
  C     -4.241505    1.327607    0.659640
  C     -5.054900    1.562000   -0.596544
  O     -1.955613   -0.478910    0.036844
  C     -1.802200   -1.628898   -0.809954
  C     -3.065736   -2.462443   -0.731902
  H      2.324960   -1.886077   -2.898952
  H      3.010600   -0.475847   -3.729852
  H      3.572591   -0.907762   -2.106985
  H      0.772112    0.110923   -2.829847
  H      2.036249    1.010033   -1.951813
  H      3.909842   -3.507675    0.659536
  H      4.485692   -1.838365    0.953966
  H      3.093501   -1.658530    2.963430
  H      2.388478   -3.254718    2.670819
  H      4.104037   -3.104746    3.096131
  H      0.777293    1.454303    2.578877
  H     -0.956877    0.988904    2.509981
  H     -4.247388    0.271483    0.939562
  H     -4.607575    1.934557    1.489464
  H     -4.668841    0.959061   -1.417044
  H     -6.089687    1.291201   -0.411518
  H     -5.003380    2.607688   -0.889690
  H     -1.611478   -1.291747   -1.834240
  H     -0.934543   -2.180611   -0.440223
  H     -2.931755   -3.363147   -1.321829
  H     -3.267726   -2.735966    0.299885
  H     -3.910275   -1.902291   -1.126237

 Total Charge           Charge          ....    0
 Multiplicity           Mult            ....    1
 Number of Electrons    NEL             ....  202
 Basis Dimension        Dim             ....  334

ORBITAL ENERGIES
----------------

  NO   OCC          E(Eh)            E(eV)
   0   2.0000     -88.043578     -2395.7876
   1   2.0000     -88.039989     -2395.6899
   2   2.0000     -87.987974     -2394.2745
   3   2.0000     -87.987562     -2394.2633
   4   2.0000     -76.428074     -2079.7136
   5   2.0000     -76.426779     -2079.6784
   6   2.0000     -18.795992      -511.4649
   7   2.0000     -18.795735      -511.4580
   8   2.0000     -18.792389      -511.3669
   9   2.0000     -18.787561      -511.2355
  10   2.0000      -9.960819      -271.0477
  11   2.0000      -9.956662      -270.9345
  12   2.0000      -9.954378      -270.8724
  13   2.0000      -9.946452      -270.6567
  14   2.0000      -9.939492      -270.4673
  15   2.0000      -9.887598      -269.0552
  16   2.0000      -9.886310      -269.0202
  17   2.0000      -9.884610      -268.9739
  18   2.0000      -9.877791      -268.7884
  19   2.0000      -7.688783      -209.2224
  20   2.0000      -7.684887      -209.1164
  21   2.0000      -7.632906      -207.7019
  22   2.0000      -7.632603      -207.6937
  23   2.0000      -6.425122      -174.8365
  24   2.0000      -6.424324      -174.8148
  25   2.0000      -5.716745      -155.5605
  26   2.0000      -5.713343      -155.4680
  27   2.0000      -5.713219      -155.4646
  28   2.0000      -5.709329      -155.3587
  29   2.0000      -5.705532      -155.2554
  30   2.0000      -5.701413      -155.1433
  31   2.0000      -5.661737      -154.0637
  32   2.0000      -5.661453      -154.0560
  33   2.0000      -5.653581      -153.8418
  34   2.0000      -5.653166      -153.8305
  35   2.0000      -5.653146      -153.8299
  36   2.0000      -5.652898      -153.8232
  37   2.0000      -4.647520      -126.4654
  38   2.0000      -4.647199      -126.4567
  39   2.0000      -4.646927      -126.4493
  40   2.0000      -4.645971      -126.4233
  41   2.0000      -4.645781      -126.4181
  42   2.0000      -4.644676      -126.3881
  43   2.0000      -0.988707       -26.9041
  44   2.0000      -0.986432       -26.8422
  45   2.0000      -0.945313       -25.7233
  46   2.0000      -0.943831       -25.6829
  47   2.0000      -0.764982       -20.8162
  48   2.0000      -0.723541       -19.6886
  49   2.0000      -0.707362       -19.2483
  50   2.0000      -0.689537       -18.7632
  51   2.0000      -0.684560       -18.6278
  52   2.0000      -0.672398       -18.2969
  53   2.0000      -0.655213       -17.8293
  54   2.0000      -0.639264       -17.3952
  55   2.0000      -0.600863       -16.3503
  56   2.0000      -0.591682       -16.1005
  57   2.0000      -0.575800       -15.6683
  58   2.0000      -0.569897       -15.5077
  59   2.0000      -0.564553       -15.3623
  60   2.0000      -0.503183       -13.6923
  61   2.0000      -0.490809       -13.3556
  62   2.0000      -0.477701       -12.9989
  63   2.0000      -0.470261       -12.7965
  64   2.0000      -0.459099       -12.4927
  65   2.0000      -0.442430       -12.0391
  66   2.0000      -0.439582       -11.9616
  67   2.0000      -0.437282       -11.8990
  68   2.0000      -0.425807       -11.5868
  69   2.0000      -0.416618       -11.3368
  70   2.0000      -0.412015       -11.2115
  71   2.0000      -0.395936       -10.7740
  72   2.0000      -0.388817       -10.5802
  73   2.0000      -0.387565       -10.5462
  74   2.0000      -0.386432       -10.5153
  75   2.0000      -0.377523       -10.2729
  76   2.0000      -0.369605       -10.0575
  77   2.0000      -0.358906        -9.7663
  78   2.0000      -0.355571        -9.6756
  79   2.0000      -0.348884        -9.4936
  80   2.0000      -0.347376        -9.4526
  81   2.0000      -0.346011        -9.4154
  82   2.0000      -0.342913        -9.3311
  83   2.0000      -0.338839        -9.2203
  84   2.0000      -0.334791        -9.1101
  85   2.0000      -0.323473        -8.8022
  86   2.0000      -0.309121        -8.4116
  87   2.0000      -0.296910        -8.0793
  88   2.0000      -0.293928        -7.9982
  89   2.0000      -0.290824        -7.9137
  90   2.0000      -0.279881        -7.6159
  91   2.0000      -0.279657        -7.6099
  92   2.0000      -0.272398        -7.4123
  93   2.0000      -0.265781        -7.2323
  94   2.0000      -0.259087        -7.0501
  95   2.0000      -0.230826        -6.2811
  96   2.0000      -0.221210        -6.0194
  97   2.0000      -0.208193        -5.6652
  98   2.0000      -0.205720        -5.5979
  99   2.0000      -0.202083        -5.4990
 100   2.0000      -0.195892        -5.3305
 101   0.0000      -0.046060        -1.2533
 102   0.0000      -0.019858        -0.5404
 103   0.0000      -0.010071        -0.2741
 104   0.0000       0.000224         0.0061
 105   0.0000       0.014206         0.3866

MULLIKEN ATOMIC CHARGES
-----------------------
   0 C :   -0.300941
   1 C :   -0.017042
   2 O :   -0.369983
   3 P :    0.611392
   4 S :   -0.325374
   5 O :   -0.372419
   6 C :   -0.005792
   7 C :   -0.316083
   8 S :   -0.093153
   9 C :   -0.327494
  10 S :   -0.063606
  11 P :    0.636356
  12 S :   -0.322626
  13 O :   -0.374812
  14 C :   -0.011855
  15 C :   -0.315666
  16 O :   -0.380600
  17 C :   -0.012133
  18 C :   -0.289470
  19 H :    0.110485
  20 H :    0.112160
  21 H :    0.117258
  22 H :    0.116273
  23 H :    0.114553
  24 H :    0.105989
  25 H :    0.112691
  26 H :    0.127465
  27 H :    0.117139
  28 H :    0.114237
  29 H :    0.190695
  30 H :    0.178441
  31 H :    0.106589
  32 H :    0.107298
  33 H :    0.132080
  34 H :    0.108935
  35 H :    0.123911
  36 H :    0.109812
  37 H :    0.105255
  38 H :    0.112264
  39 H :    0.114107
  40 H :    0.113664
Sum of atomic charges:    0.0000000

LOEWDIN ATOMIC CHARGES
----------------------
   0 C :   -0.364337
   1 C :   -0.127171
   2 O :   -0.239469
   3 P :    0.569083
   4 S :   -0.324634
   5 O :   -0.243475
   6 C :   -0.119661
   7 C :   -0.369813
   8 S :    0.094173
   9 C :   -0.469592
  10 S :    0.112097
  11 P :    0.568328
  12 S :   -0.308638
  13 O :   -0.249320
  14 C :   -0.115072
  15 C :   -0.367318
  16 O :   -0.238380
  17 C :   -0.125981
  18 C :   -0.355294
  19 H :    0.123459
  20 H :    0.130602
  21 H :    0.119360
  22 H :    0.113070
  23 H :    0.110897
  24 H :    0.119012
  25 H :    0.111158
  26 H :    0.121627
  27 H :    0.123709
  28 H :    0.131643
  29 H :    0.138204
  30 H :    0.133430
  31 H :    0.109395
  32 H :    0.120030
  33 H :    0.120308
  34 H :    0.128750
  35 H :    0.130989
  36 H :    0.105326
  37 H :    0.105659
  38 H :    0.131289
  39 H :    0.124170
  40 H :    0.122388

  Mayer bond orders larger than 0.100000
B(  0-C ,  1-C ) :   1.1620 B(  0-C , 19-H ) :   0.9465 B(  0-C , 20-H ) :   0.9403
B(  0-C , 21-H ) :   0.9362 B(  1-C ,  2-O ) :   0.8926 B(  1-C , 22-H ) :   0.9171
B(  1-C , 23-H ) :   0.9168 B(  2-O ,  3-P ) :   1.0990 B(  3-P ,  4-S ) :   1.5988
B(  3-P ,  5-O ) :   1.1060 B(  3-P ,  8-S ) :   0.9712 B(  4-S ,  8-S ) :   0.1099
B(  5-O ,  6-C ) :   0.9066 B(  6-C ,  7-C ) :   1.1668 B(  6-C , 24-H ) :   0.9338
B(  6-C , 25-H ) :   0.9151 B(  7-C , 26-H ) :   0.9353 B(  7-C , 27-H ) :   0.9445
B(  7-C , 28-H ) :   0.9377 B(  8-S ,  9-C ) :   0.9800 B(  9-C , 10-S ) :   1.0029
B(  9-C , 29-H ) :   0.9013 B(  9-C , 30-H ) :   0.9052 B( 10-S , 11-P ) :   0.9645
B( 11-P , 12-S ) :   1.6413 B( 11-P , 13-O ) :   1.0991 B( 11-P , 16-O ) :   1.0904
B( 13-O , 14-C ) :   0.9118 B( 14-C , 15-C ) :   1.1671 B( 14-C , 31-H ) :   0.9245
B( 14-C , 32-H ) :   0.9353 B( 15-C , 33-H ) :   0.9318 B( 15-C , 34-H ) :   0.9372
B( 15-C , 35-H ) :   0.9452 B( 16-O , 17-C ) :   0.8994 B( 17-C , 18-C ) :   1.1563
B( 17-C , 36-H ) :   0.9039 B( 17-C , 37-H ) :   0.9187 B( 18-C , 38-H ) :   0.9417
B( 18-C , 39-H ) :   0.9484 B( 18-C , 40-H ) :   0.9454

Dispersion correction           -0.068347989
FINAL SINGLE POINT ENERGY     -2929.520671420879

DIPOLE MOMENT
-------------

Method             : SCF
Type of density    : Electron Density
Multiplicity       :   1
Irrep              :   0
Energy             : -2929.6390475013226933 Eh
Relativity type    :
Basis              : AO
                                X                 Y                 Z
Electronic contribution:      6.776963099      15.495267189       3.333191154
Nuclear contribution   :     -7.481972138     -16.887865708      -2.589167061
                        -----------------------------------------
Total Dipole Moment    :     -0.705009038      -1.392598519       0.744024093
                        -----------------------------------------
Magnitude (a.u.)       :      1.729144364
Magnitude (Debye)      :      4.395135685

Rotational constants in cm-1:             0.013289             0.005215             0.005076
Rotational constants in MHz :           398.385633           156.355780           152.163952

                             ****ORCA TERMINATED NORMALLY****
TOTAL RUN TIME: 0 days 0 hours 0 minutes 21 seconds 526 msec
