                         Program Version 6.0.0  -   RELEASE  -
|  1> ! pbe def2-sv(p) def2/J RI DEFGRID1 loosescf d4 GCP(DFT/SV(P)) printgap
|  2> %output
|  3>     printlevel normal
|  4> end
|  5> * xyz 0 1
|  6> C 2.7052252932 -0.8718538219 -2.7694102853
|  7> C 1.6386387346 0.0190779938 -2.1708263412
|  8> O 1.1000308342 -0.5362142496 -0.955223119
|  9> P 1.9712359963 -0.6096417093 0.3771302739
| 10> S 3.3211156423 0.7936462804 0.6305013489
| 11> O 2.5493876573 -2.0856622191 0.2782768404
| 12> C 3.6547599935 -2.5386436141 1.0807256767
| 13> C 3.2839775153 -2.6568134042 2.5448881814
| 14> S 0.4355442976 -0.8042061567 1.8042403235
| 15> C 0.0004370956 0.9517358421 2.0031173361
| 16> S -0.0892166198 1.881457114 0.4453704339
| 17> P -1.8145114525 1.0303345565 -0.4314393117
| 18> S -1.9061952662 1.2986650602 -2.3695744226
| 19> O -2.8713885342 1.750046656 0.5113667305
| 20> C -4.2447986111 1.3257495586 0.652257225
| 21> C -5.0550214217 1.5798912111 -0.602205872
| 22> O -1.9528582618 -0.4817275896 0.0386432831
| 23> C -1.8011401385 -1.6310347189 -0.8093835639
| 24> C -3.0696644755 -2.4577153237 -0.7406246526
| 25> H 3.5710455507 -0.9054532889 -2.1089915395
| 26> H 2.3209271191 -1.879607774 -2.9021820207
| 27> H 3.0086343621 -0.4688472368 -3.7304861042
| 28> H 0.7721742191 0.1203174233 -2.8280277169
| 29> H 2.0384187623 1.0147040368 -1.9482007876
| 30> H 3.9115908332 -3.5067795408 0.6489448485
| 31> H 4.4858853189 -1.8382031222 0.9504745476
| 32> H 3.0926080587 -1.6685006687 2.960543119
| 33> H 2.3902995228 -3.2645778048 2.6610928887
| 34> H 4.1055601671 -3.1135639881 3.0873018726
| 35> H 0.7745825266 1.4490745948 2.5847769158
| 36> H -0.9588123329 0.9813135437 2.5136678823
| 37> H -4.2548054356 0.2660060682 0.9180966314
| 38> H -4.6107625667 1.9226611826 1.4894019089
| 39> H -4.9998442193 2.6293821715 -0.8806419917
| 40> H -4.6693201229 0.9871928802 -1.4302448807
| 41> H -6.0909734233 1.3097090227 -0.4228525143
| 42> H -1.6024377024 -1.2933551535 -1.8319066354
| 43> H -0.9387552598 -2.187802285 -0.4350804088
| 44> H -2.9369211375 -3.358305926 -1.3309656904
| 45> H -3.2797983128 -2.731559472 0.2894425704
| 46> H -3.9084579629 -1.8922690455 -1.1396726906
| 47> *
| 48>
| 49>                          ****END OF INPUT****

CARTESIAN COORDINATES (ANGSTROEM)
---------------------------------
  C      2.705225   -0.871854   -2.769410
  C      1.638639    0.019078   -2.170826
  O      1.100031   -0.536214   -0.955223
  P      1.971236   -0.609642    0.377130
  S      3.321116    0.793646    0.630501
  O      2.549388   -2.085662    0.278277
  C      3.654760   -2.538644    1.080726
  C      3.283978   -2.656813    2.544888
  S      0.435544   -0.804206    1.804240
  C      0.000437    0.951736    2.003117
  S     -0.089217    1.881457    0.445370
  P     -1.814511    1.030335   -0.431439
  S     -1.906195    1.298665   -2.369574
  O     -2.871389    1.750047    0.511367
  C     -4.244799    1.325750    0.652257
  C     -5.055021    1.579891   -0.602206
  O     -1.952858   -0.481728    0.038643
  C     -1.801140   -1.631035   -0.809384
  C     -3.069664   -2.457715   -0.740625
  H      3.571046   -0.905453   -2.108992
  H      2.320927   -1.879608   -2.902182
  H      3.008634   -0.468847   -3.730486
  H      0.772174    0.120317   -2.828028
  H      2.038419    1.014704   -1.948201
  H      3.911591   -3.506780    0.648945
  H      4.485885   -1.838203    0.950475
  H      3.092608   -1.668501    2.960543
  H      2.390300   -3.264578    2.661093
  H      4.105560   -3.113564    3.087302
  H      0.774583    1.449075    2.584777
  H     -0.958812    0.981314    2.513668
  H     -4.254805    0.266006    0.918097
  H     -4.610763    1.922661    1.489402
  H     -4.999844    2.629382   -0.880642
  H     -4.669320    0.987193   -1.430245
  H     -6.090973    1.309709   -0.422853
  H     -1.602438   -1.293355   -1.831907
  H     -0.938755   -2.187802   -0.435080
  H     -2.936921   -3.358306   -1.330966
  H     -3.279798   -2.731559    0.289443
  H     -3.908458   -1.892269   -1.139673

 Total Charge           Charge          ....    0
 Multiplicity           Mult            ....    1
 Number of Electrons    NEL             ....  202
 Basis Dimension        Dim             ....  334

ORBITAL ENERGIES
----------------

  NO   OCC          E(Eh)            E(eV)
   0   2.0000     -88.043565     -2395.7872
   1   2.0000     -88.040054     -2395.6917
   2   2.0000     -87.987932     -2394.2733
   3   2.0000     -87.987592     -2394.2641
   4   2.0000     -76.428044     -2079.7128
   5   2.0000     -76.426802     -2079.6790
   6   2.0000     -18.795989      -511.4649
   7   2.0000     -18.795708      -511.4572
   8   2.0000     -18.792384      -511.3668
   9   2.0000     -18.787536      -511.2348
  10   2.0000      -9.960840      -271.0482
  11   2.0000      -9.956634      -270.9338
  12   2.0000      -9.954369      -270.8722
  13   2.0000      -9.946483      -270.6576
  14   2.0000      -9.939394      -270.4647
  15   2.0000      -9.887594      -269.0551
  16   2.0000      -9.886315      -269.0203
  17   2.0000      -9.884479      -268.9704
  18   2.0000      -9.877760      -268.7875
  19   2.0000      -7.688768      -209.2220
  20   2.0000      -7.684952      -209.1182
  21   2.0000      -7.632862      -207.7007
  22   2.0000      -7.632631      -207.6945
  23   2.0000      -6.425094      -174.8357
  24   2.0000      -6.424350      -174.8154
  25   2.0000      -5.716733      -155.5602
  26   2.0000      -5.713327      -155.4675
  27   2.0000      -5.713285      -155.4664
  28   2.0000      -5.709401      -155.3607
  29   2.0000      -5.705517      -155.2550
  30   2.0000      -5.701474      -155.1450
  31   2.0000      -5.661694      -154.0625
  32   2.0000      -5.661478      -154.0567
  33   2.0000      -5.653536      -153.8405
  34   2.0000      -5.653177      -153.8308
  35   2.0000      -5.653123      -153.8293
  36   2.0000      -5.652923      -153.8239
  37   2.0000      -4.647492      -126.4647
  38   2.0000      -4.647220      -126.4573
  39   2.0000      -4.646899      -126.4485
  40   2.0000      -4.645995      -126.4239
  41   2.0000      -4.645752      -126.4173
  42   2.0000      -4.644706      -126.3889
  43   2.0000      -0.988682       -26.9034
  44   2.0000      -0.986396       -26.8412
  45   2.0000      -0.945294       -25.7228
  46   2.0000      -0.943809       -25.6824
  47   2.0000      -0.764991       -20.8165
  48   2.0000      -0.723537       -19.6884
  49   2.0000      -0.707348       -19.2479
  50   2.0000      -0.689494       -18.7621
  51   2.0000      -0.684541       -18.6273
  52   2.0000      -0.672386       -18.2966
  53   2.0000      -0.655194       -17.8287
  54   2.0000      -0.639260       -17.3952
  55   2.0000      -0.600854       -16.3501
  56   2.0000      -0.591647       -16.0995
  57   2.0000      -0.575844       -15.6695
  58   2.0000      -0.569867       -15.5069
  59   2.0000      -0.564508       -15.3611
  60   2.0000      -0.503163       -13.6918
  61   2.0000      -0.490808       -13.3556
  62   2.0000      -0.477696       -12.9988
  63   2.0000      -0.470269       -12.7967
  64   2.0000      -0.459159       -12.4944
  65   2.0000      -0.442414       -12.0387
  66   2.0000      -0.439511       -11.9597
  67   2.0000      -0.437244       -11.8980
  68   2.0000      -0.425812       -11.5869
  69   2.0000      -0.416582       -11.3358
  70   2.0000      -0.412011       -11.2114
  71   2.0000      -0.395715       -10.7679
  72   2.0000      -0.388775       -10.5791
  73   2.0000      -0.387524       -10.5451
  74   2.0000      -0.386527       -10.5179
  75   2.0000      -0.377521       -10.2729
  76   2.0000      -0.369696       -10.0599
  77   2.0000      -0.358892        -9.7660
  78   2.0000      -0.355557        -9.6752
  79   2.0000      -0.348898        -9.4940
  80   2.0000      -0.347375        -9.4526
  81   2.0000      -0.346010        -9.4154
  82   2.0000      -0.342935        -9.3317
  83   2.0000      -0.338796        -9.2191
  84   2.0000      -0.334775        -9.1097
  85   2.0000      -0.323343        -8.7986
  86   2.0000      -0.309059        -8.4099
  87   2.0000      -0.296882        -8.0786
  88   2.0000      -0.293848        -7.9960
  89   2.0000      -0.290797        -7.9130
  90   2.0000      -0.279914        -7.6168
  91   2.0000      -0.279659        -7.6099
  92   2.0000      -0.272446        -7.4136
  93   2.0000      -0.265769        -7.2319
  94   2.0000      -0.259136        -7.0514
  95   2.0000      -0.230790        -6.2801
  96   2.0000      -0.221212        -6.0195
  97   2.0000      -0.208205        -5.6656
  98   2.0000      -0.205715        -5.5978
  99   2.0000      -0.202016        -5.4971
 100   2.0000      -0.195904        -5.3308
 101   0.0000      -0.046084        -1.2540
 102   0.0000      -0.019962        -0.5432
 103   0.0000      -0.010062        -0.2738
 104   0.0000       0.000158         0.0043
 105   0.0000       0.014304         0.3892

MULLIKEN ATOMIC CHARGES
-----------------------
   0 C :   -0.300894
   1 C :   -0.017215
   2 O :   -0.370053
   3 P :    0.611535
   4 S :   -0.325505
   5 O :   -0.372390
   6 C :   -0.005800
   7 C :   -0.316047
   8 S :   -0.093197
   9 C :   -0.327315
  10 S :   -0.063619
  11 P :    0.636667
  12 S :   -0.322790
  13 O :   -0.374685
  14 C :   -0.012160
  15 C :   -0.315153
  16 O :   -0.380547
  17 C :   -0.012043
  18 C :   -0.289402
  19 H :    0.117208
  20 H :    0.110469
  21 H :    0.112137
  22 H :    0.116437
  23 H :    0.114478
  24 H :    0.105986
  25 H :    0.112664
  26 H :    0.127474
  27 H :    0.117115
  28 H :    0.114241
  29 H :    0.190668
  30 H :    0.178482
  31 H :    0.106514
  32 H :    0.107238
  33 H :    0.123682
  34 H :    0.131987
  35 H :    0.108821
  36 H :    0.109995
  37 H :    0.104964
  38 H :    0.112301
  39 H :    0.114130
  40 H :    0.113622
Sum of atomic charges:   -0.0000000

LOEWDIN ATOMIC CHARGES
----------------------
   0 C :   -0.364310
   1 C :   -0.127309
   2 O :   -0.239601
   3 P :    0.569091
   4 S :   -0.324744
   5 O :   -0.243436
   6 C :   -0.119671
   7 C :   -0.369782
   8 S :    0.094284
   9 C :   -0.469547
  10 S :    0.112121
  11 P :    0.568434
  12 S :   -0.308457
  13 O :   -0.249305
  14 C :   -0.115098
  15 C :   -0.367296
  16 O :   -0.238354
  17 C :   -0.125932
  18 C :   -0.355386
  19 H :    0.119347
  20 H :    0.123456
  21 H :    0.130592
  22 H :    0.112976
  23 H :    0.110862
  24 H :    0.119010
  25 H :    0.111143
  26 H :    0.121631
  27 H :    0.123726
  28 H :    0.131648
  29 H :    0.138217
  30 H :    0.133460
  31 H :    0.109331
  32 H :    0.119984
  33 H :    0.130914
  34 H :    0.120355
  35 H :    0.128710
  36 H :    0.105400
  37 H :    0.105694
  38 H :    0.131300
  39 H :    0.124141
  40 H :    0.122402

  Mayer bond orders larger than 0.100000
B(  0-C ,  1-C ) :   1.1621 B(  0-C , 19-H ) :   0.9363 B(  0-C , 20-H ) :   0.9465
B(  0-C , 21-H ) :   0.9403 B(  1-C ,  2-O ) :   0.8926 B(  1-C , 22-H ) :   0.9169
B(  1-C , 23-H ) :   0.9168 B(  2-O ,  3-P ) :   1.0990 B(  3-P ,  4-S ) :   1.5990
B(  3-P ,  5-O ) :   1.1059 B(  3-P ,  8-S ) :   0.9712 B(  4-S ,  8-S ) :   0.1099
B(  5-O ,  6-C ) :   0.9066 B(  6-C ,  7-C ) :   1.1668 B(  6-C , 24-H ) :   0.9338
B(  6-C , 25-H ) :   0.9150 B(  7-C , 26-H ) :   0.9353 B(  7-C , 27-H ) :   0.9445
B(  7-C , 28-H ) :   0.9378 B(  8-S ,  9-C ) :   0.9799 B(  9-C , 10-S ) :   1.0031
B(  9-C , 29-H ) :   0.9013 B(  9-C , 30-H ) :   0.9052 B( 10-S , 11-P ) :   0.9645
B( 11-P , 12-S ) :   1.6410 B( 11-P , 13-O ) :   1.0992 B( 11-P , 16-O ) :   1.0906
B( 13-O , 14-C ) :   0.9118 B( 14-C , 15-C ) :   1.1671 B( 14-C , 31-H ) :   0.9242
B( 14-C , 32-H ) :   0.9354 B( 15-C , 33-H ) :   0.9453 B( 15-C , 34-H ) :   0.9319
B( 15-C , 35-H ) :   0.9372 B( 16-O , 17-C ) :   0.8995 B( 17-C , 18-C ) :   1.1564
B( 17-C , 36-H ) :   0.9039 B( 17-C , 37-H ) :   0.9189 B( 18-C , 38-H ) :   0.9417
B( 18-C , 39-H ) :   0.9483 B( 18-C , 40-H ) :   0.9453

Dispersion correction           -0.068347796
FINAL SINGLE POINT ENERGY     -2929.520667290959

DIPOLE MOMENT
-------------

Method             : SCF
Type of density    : Electron Density
Multiplicity       :   1
Irrep              :   0
Energy             : -2929.6390352281405285 Eh
Relativity type    :
Basis              : AO
                                X                 Y                 Z
Electronic contribution:      6.799991922      15.446387354       3.413622754
Nuclear contribution   :     -7.506607280     -16.838581589      -2.675237174
                        -----------------------------------------
Total Dipole Moment    :     -0.706615358      -1.392194234       0.738385580
                        -----------------------------------------
Magnitude (a.u.)       :      1.727056257
Magnitude (Debye)      :      4.389828140

Rotational constants in cm-1:             0.013295             0.005214             0.005076
Rotational constants in MHz :           398.567652           156.313486           152.162728

                             ****ORCA TERMINATED NORMALLY****
TOTAL RUN TIME: 0 days 0 hours 0 minutes 21 seconds 907 msec
