                         Program Version 6.0.0  -   RELEASE  -
|  1> ! pbe def2-sv(p) def2/J RI DEFGRID1 loosescf d4 GCP(DFT/SV(P)) printgap
|  2> %output
|  3>     printlevel normal
|  4> end
|  5> * xyz 0 1
|  6> C 2.5656327433 -0.8561911623 -2.91798722
|  7> C 2.7983882756 0.4742800201 -2.2308217004
|  8> O 3.214039592 0.2809817578 -0.8655303127
|  9> P 2.2847135205 0.3310467304 0.4183749148
| 10> S 1.2922073518 1.9824541727 0.7641794873
| 11> O 3.3467233809 0.1201913142 1.5637554848
| 12> C 4.2476718426 -1.0175369354 1.625385383
| 13> C 3.855441186 -1.9294050991 2.7707888672
| 14> S 1.1509029724 -1.4687688802 0.3621102958
| 15> C -0.1455944026 -0.9743430437 1.5433760056
| 16> S -1.8160856039 -1.3201806662 0.9494131863
| 17> P -2.033847613 0.26677029 -0.4627978493
| 18> S -0.7365120251 0.4236995346 -1.9159783336
| 19> O -2.0365902139 1.6009129045 0.3734477725
| 20> C -2.9319140534 1.8734107176 1.4779917681
| 21> C -4.108180169 2.708904962 1.0161401887
| 22> O -3.5577918747 0.1095816637 -0.881640361
| 23> C -4.177689988 -1.1194594488 -1.3086778274
| 24> C -3.4008507872 -1.8255862512 -2.3992041487
| 25> H 2.360294658 -0.6755736458 -3.9678414562
| 26> H 3.4446472005 -1.4871717542 -2.8223027763
| 27> H 1.7081858496 -1.3628384399 -2.481415425
| 28> H 1.895935853 1.0912544724 -2.2555409199
| 29> H 3.6251155492 1.0200538626 -2.6895216839
| 30> H 4.2269331576 -1.5446645654 0.669645799
| 31> H 5.2354728769 -0.5821723576 1.7824121555
| 32> H 3.7862586216 -1.3578896809 3.6921362021
| 33> H 2.8963539531 -2.4008064032 2.5715709371
| 34> H 4.6113431348 -2.7000849925 2.8830719973
| 35> H -0.0367781772 0.0969138835 1.7352691941
| 36> H -0.0335975725 -1.5569904672 2.4539751521
| 37> H -3.2649587642 0.9256889974 1.9110929743
| 38> H -2.315910211 2.4161963387 2.1982655909
| 39> H -4.7312380659 2.948555195 1.8720981017
| 40> H -3.75231094 3.6292828129 0.5610568314
| 41> H -4.6948866751 2.1608587305 0.2836121582
| 42> H -4.2861984478 -1.7640198085 -0.432092183
| 43> H -5.1605667152 -0.801770075 -1.661235107
| 44> H -2.4294615456 -2.1441768024 -2.0227429605
| 45> H -3.955539443 -2.6979200327 -2.7293296089
| 46> H -3.2388268641 -1.1591301432 -3.243301678
| 47> *
| 48>
| 49>                          ****END OF INPUT****

CARTESIAN COORDINATES (ANGSTROEM)
---------------------------------
  C      2.565633   -0.856191   -2.917987
  C      2.798388    0.474280   -2.230822
  O      3.214040    0.280982   -0.865530
  P      2.284714    0.331047    0.418375
  S      1.292207    1.982454    0.764179
  O      3.346723    0.120191    1.563755
  C      4.247672   -1.017537    1.625385
  C      3.855441   -1.929405    2.770789
  S      1.150903   -1.468769    0.362110
  C     -0.145594   -0.974343    1.543376
  S     -1.816086   -1.320181    0.949413
  P     -2.033848    0.266770   -0.462798
  S     -0.736512    0.423700   -1.915978
  O     -2.036590    1.600913    0.373448
  C     -2.931914    1.873411    1.477992
  C     -4.108180    2.708905    1.016140
  O     -3.557792    0.109582   -0.881640
  C     -4.177690   -1.119459   -1.308678
  C     -3.400851   -1.825586   -2.399204
  H      2.360295   -0.675574   -3.967841
  H      3.444647   -1.487172   -2.822303
  H      1.708186   -1.362838   -2.481415
  H      1.895936    1.091254   -2.255541
  H      3.625116    1.020054   -2.689522
  H      4.226933   -1.544665    0.669646
  H      5.235473   -0.582172    1.782412
  H      3.786259   -1.357890    3.692136
  H      2.896354   -2.400806    2.571571
  H      4.611343   -2.700085    2.883072
  H     -0.036778    0.096914    1.735269
  H     -0.033598   -1.556990    2.453975
  H     -3.264959    0.925689    1.911093
  H     -2.315910    2.416196    2.198266
  H     -4.731238    2.948555    1.872098
  H     -3.752311    3.629283    0.561057
  H     -4.694887    2.160859    0.283612
  H     -4.286198   -1.764020   -0.432092
  H     -5.160567   -0.801770   -1.661235
  H     -2.429462   -2.144177   -2.022743
  H     -3.955539   -2.697920   -2.729330
  H     -3.238827   -1.159130   -3.243302

 Total Charge           Charge          ....    0
 Multiplicity           Mult            ....    1
 Number of Electrons    NEL             ....  202
 Basis Dimension        Dim             ....  334

ORBITAL ENERGIES
----------------

  NO   OCC          E(Eh)            E(eV)
   0   2.0000     -88.046391     -2395.8641
   1   2.0000     -88.038018     -2395.6363
   2   2.0000     -87.975964     -2393.9477
   3   2.0000     -87.974479     -2393.9073
   4   2.0000     -76.423874     -2079.5993
   5   2.0000     -76.418400     -2079.4504
   6   2.0000     -18.793550      -511.3985
   7   2.0000     -18.788147      -511.2515
   8   2.0000     -18.786418      -511.2044
   9   2.0000     -18.780540      -511.0445
  10   2.0000      -9.960760      -271.0461
  11   2.0000      -9.956169      -270.9211
  12   2.0000      -9.952094      -270.8102
  13   2.0000      -9.951208      -270.7861
  14   2.0000      -9.945446      -270.6293
  15   2.0000      -9.884870      -268.9810
  16   2.0000      -9.883674      -268.9484
  17   2.0000      -9.882978      -268.9295
  18   2.0000      -9.877160      -268.7712
  19   2.0000      -7.691222      -209.2888
  20   2.0000      -7.682729      -209.0577
  21   2.0000      -7.621110      -207.3810
  22   2.0000      -7.619767      -207.3444
  23   2.0000      -6.420968      -174.7234
  24   2.0000      -6.415951      -174.5869
  25   2.0000      -5.718872      -155.6184
  26   2.0000      -5.715610      -155.5297
  27   2.0000      -5.710538      -155.3916
  28   2.0000      -5.708589      -155.3386
  29   2.0000      -5.707367      -155.3053
  30   2.0000      -5.699675      -155.0960
  31   2.0000      -5.650192      -153.7495
  32   2.0000      -5.648946      -153.7156
  33   2.0000      -5.641518      -153.5135
  34   2.0000      -5.641253      -153.5063
  35   2.0000      -5.640520      -153.4863
  36   2.0000      -5.639480      -153.4581
  37   2.0000      -4.643916      -126.3674
  38   2.0000      -4.643167      -126.3470
  39   2.0000      -4.640752      -126.2813
  40   2.0000      -4.638722      -126.2260
  41   2.0000      -4.637771      -126.2002
  42   2.0000      -4.636162      -126.1564
  43   2.0000      -0.986757       -26.8510
  44   2.0000      -0.981095       -26.6970
  45   2.0000      -0.943689       -25.6791
  46   2.0000      -0.936548       -25.4848
  47   2.0000      -0.760985       -20.7075
  48   2.0000      -0.718220       -19.5438
  49   2.0000      -0.710143       -19.3240
  50   2.0000      -0.690682       -18.7944
  51   2.0000      -0.684605       -18.6290
  52   2.0000      -0.675224       -18.3738
  53   2.0000      -0.647799       -17.6275
  54   2.0000      -0.630054       -17.1446
  55   2.0000      -0.588990       -16.0272
  56   2.0000      -0.585108       -15.9216
  57   2.0000      -0.572910       -15.5897
  58   2.0000      -0.569875       -15.5071
  59   2.0000      -0.563453       -15.3323
  60   2.0000      -0.502879       -13.6840
  61   2.0000      -0.497356       -13.5338
  62   2.0000      -0.472789       -12.8653
  63   2.0000      -0.472390       -12.8544
  64   2.0000      -0.454775       -12.3751
  65   2.0000      -0.448633       -12.2079
  66   2.0000      -0.437471       -11.9042
  67   2.0000      -0.434690       -11.8285
  68   2.0000      -0.431824       -11.7505
  69   2.0000      -0.414393       -11.2762
  70   2.0000      -0.411630       -11.2010
  71   2.0000      -0.397034       -10.8038
  72   2.0000      -0.393912       -10.7189
  73   2.0000      -0.384607       -10.4657
  74   2.0000      -0.375531       -10.2187
  75   2.0000      -0.364725        -9.9247
  76   2.0000      -0.355280        -9.6677
  77   2.0000      -0.354250        -9.6396
  78   2.0000      -0.353941        -9.6312
  79   2.0000      -0.347513        -9.4563
  80   2.0000      -0.346072        -9.4171
  81   2.0000      -0.344274        -9.3682
  82   2.0000      -0.340716        -9.2714
  83   2.0000      -0.338499        -9.2110
  84   2.0000      -0.328259        -8.9324
  85   2.0000      -0.319466        -8.6931
  86   2.0000      -0.309065        -8.4101
  87   2.0000      -0.296937        -8.0801
  88   2.0000      -0.292929        -7.9710
  89   2.0000      -0.287184        -7.8147
  90   2.0000      -0.283715        -7.7203
  91   2.0000      -0.275323        -7.4919
  92   2.0000      -0.268989        -7.3196
  93   2.0000      -0.262145        -7.1333
  94   2.0000      -0.255015        -6.9393
  95   2.0000      -0.241427        -6.5696
  96   2.0000      -0.220402        -5.9974
  97   2.0000      -0.200931        -5.4676
  98   2.0000      -0.195034        -5.3071
  99   2.0000      -0.185330        -5.0431
 100   2.0000      -0.177558        -4.8316
 101   0.0000      -0.039505        -1.0750
 102   0.0000      -0.028688        -0.7806
 103   0.0000      -0.017030        -0.4634
 104   0.0000       0.002296         0.0625
 105   0.0000       0.023436         0.6377

MULLIKEN ATOMIC CHARGES
-----------------------
   0 C :   -0.312840
   1 C :   -0.010427
   2 O :   -0.379723
   3 P :    0.598152
   4 S :   -0.291941
   5 O :   -0.359461
   6 C :   -0.008292
   7 C :   -0.288545
   8 S :   -0.104419
   9 C :   -0.336737
  10 S :   -0.126231
  11 P :    0.603542
  12 S :   -0.305000
  13 O :   -0.341564
  14 C :   -0.013181
  15 C :   -0.287221
  16 O :   -0.380128
  17 C :   -0.013174
  18 C :   -0.312002
  19 H :    0.111168
  20 H :    0.107850
  21 H :    0.140638
  22 H :    0.131446
  23 H :    0.103992
  24 H :    0.102352
  25 H :    0.110178
  26 H :    0.118434
  27 H :    0.114492
  28 H :    0.107648
  29 H :    0.191285
  30 H :    0.180066
  31 H :    0.093776
  32 H :    0.112886
  33 H :    0.107319
  34 H :    0.123131
  35 H :    0.118694
  36 H :    0.114041
  37 H :    0.110852
  38 H :    0.128754
  39 H :    0.110860
  40 H :    0.129333
Sum of atomic charges:   -0.0000000

LOEWDIN ATOMIC CHARGES
----------------------
   0 C :   -0.366217
   1 C :   -0.114062
   2 O :   -0.241725
   3 P :    0.565057
   4 S :   -0.296029
   5 O :   -0.243904
   6 C :   -0.113835
   7 C :   -0.360536
   8 S :    0.067582
   9 C :   -0.480251
  10 S :    0.062017
  11 P :    0.568211
  12 S :   -0.297024
  13 O :   -0.224192
  14 C :   -0.117099
  15 C :   -0.358469
  16 O :   -0.246325
  17 C :   -0.114661
  18 C :   -0.371526
  19 H :    0.131739
  20 H :    0.121300
  21 H :    0.121933
  22 H :    0.111831
  23 H :    0.118456
  24 H :    0.106565
  25 H :    0.121351
  26 H :    0.128185
  27 H :    0.118034
  28 H :    0.128653
  29 H :    0.121824
  30 H :    0.134345
  31 H :    0.100180
  32 H :    0.121884
  33 H :    0.128295
  34 H :    0.130232
  35 H :    0.125190
  36 H :    0.108206
  37 H :    0.121918
  38 H :    0.121920
  39 H :    0.129883
  40 H :    0.131066

  Mayer bond orders larger than 0.100000
B(  0-C ,  1-C ) :   1.1713 B(  0-C , 19-H ) :   0.9400 B(  0-C , 20-H ) :   0.9470
B(  0-C , 21-H ) :   0.9310 B(  1-C ,  2-O ) :   0.8948 B(  1-C , 22-H ) :   0.9048
B(  1-C , 23-H ) :   0.9340 B(  2-O ,  3-P ) :   1.1124 B(  3-P ,  4-S ) :   1.6517
B(  3-P ,  5-O ) :   1.1243 B(  3-P ,  8-S ) :   0.9327 B(  4-S ,  8-S ) :   0.1148
B(  4-S , 29-H ) :   0.1192 B(  5-O ,  6-C ) :   0.8941 B(  6-C ,  7-C ) :   1.1630
B(  6-C , 24-H ) :   0.9176 B(  6-C , 25-H ) :   0.9348 B(  7-C , 26-H ) :   0.9465
B(  7-C , 27-H ) :   0.9382 B(  7-C , 28-H ) :   0.9403 B(  8-S ,  9-C ) :   0.9946
B(  9-C , 10-S ) :   1.0029 B(  9-C , 29-H ) :   0.8475 B(  9-C , 30-H ) :   0.9103
B( 10-S , 11-P ) :   0.9360 B( 10-S , 12-S ) :   0.1146 B( 11-P , 12-S ) :   1.6723
B( 11-P , 13-O ) :   1.1393 B( 11-P , 16-O ) :   1.0766 B( 13-O , 14-C ) :   0.8964
B( 14-C , 15-C ) :   1.1663 B( 14-C , 31-H ) :   0.9104 B( 14-C , 32-H ) :   0.9325
B( 15-C , 33-H ) :   0.9403 B( 15-C , 34-H ) :   0.9472 B( 15-C , 35-H ) :   0.9434
B( 16-O , 17-C ) :   0.9128 B( 17-C , 18-C ) :   1.1682 B( 17-C , 36-H ) :   0.9268
B( 17-C , 37-H ) :   0.9331 B( 18-C , 38-H ) :   0.9312 B( 18-C , 39-H ) :   0.9333
B( 18-C , 40-H ) :   0.9410

Dispersion correction           -0.066249417
FINAL SINGLE POINT ENERGY     -2929.509490838684

DIPOLE MOMENT
-------------

Method             : SCF
Type of density    : Electron Density
Multiplicity       :   1
Irrep              :   0
Energy             : -2929.6278184770435473 Eh
Relativity type    :
Basis              : AO
                                X                 Y                 Z
Electronic contribution:      3.484564353       6.666373206       1.962623211
Nuclear contribution   :     -4.062303600      -7.946890613      -1.548675148
                        -----------------------------------------
Total Dipole Moment    :     -0.577739248      -1.280517408       0.413948064
                        -----------------------------------------
Magnitude (a.u.)       :      1.464534216
Magnitude (Debye)      :      3.722550141

Rotational constants in cm-1:             0.012103             0.005121             0.004835
Rotational constants in MHz :           362.836453           153.517891           144.946095

                             ****ORCA TERMINATED NORMALLY****
TOTAL RUN TIME: 0 days 0 hours 0 minutes 21 seconds 183 msec
