                         Program Version 6.0.0  -   RELEASE  -
|  1> ! r2scan-3c def2/J RI DEFGRID2 scfconv6 printgap
|  2> %output
|  3>     printlevel normal
|  4> end
|  5> * xyz 0 1
|  6> C -0.0023408825 -1.8217267029 0.1640357127
|  7> C -7.2009e-05 -0.4444742982 -0.447111907
|  8> Cl 1.4500159049 0.4815878973 0.056706574
|  9> Cl -1.4489574353 0.4832665502 0.0566369505
| 10> H -0.889603343 -2.3572258958 -0.1626275825
| 11> H 0.8838752238 -2.3588720914 -0.1625753832
| 12> H -0.0023948824 -1.7606864675 1.248852091
| 13> H -0.0003549298 -0.456344087 -1.5371846816
| 14> *
| 15>
| 16>                          ****END OF INPUT****

CARTESIAN COORDINATES (ANGSTROEM)
---------------------------------
  C     -0.002341   -1.821727    0.164036
  C     -0.000072   -0.444474   -0.447112
  Cl     1.450016    0.481588    0.056707
  Cl    -1.448957    0.483267    0.056637
  H     -0.889603   -2.357226   -0.162628
  H      0.883875   -2.358872   -0.162575
  H     -0.002395   -1.760686    1.248852
  H     -0.000355   -0.456344   -1.537185

 Total Charge           Charge          ....    0
 Multiplicity           Mult            ....    1
 Number of Electrons    NEL             ....   50
 Basis Dimension        Dim             ....  112

ORBITAL ENERGIES
----------------

  NO   OCC          E(Eh)            E(eV)
   0   2.0000    -101.218829     -2754.3044
   1   2.0000    -101.218746     -2754.3021
   2   2.0000     -10.166704      -276.6501
   3   2.0000     -10.054601      -273.5996
   4   2.0000      -9.374939      -255.1051
   5   2.0000      -9.374864      -255.1030
   6   2.0000      -7.121458      -193.7847
   7   2.0000      -7.121382      -193.7827
   8   2.0000      -7.110977      -193.4995
   9   2.0000      -7.110904      -193.4975
  10   2.0000      -7.110678      -193.4914
  11   2.0000      -7.110602      -193.4893
  12   2.0000      -0.873374       -23.7657
  13   2.0000      -0.782797       -21.3010
  14   2.0000      -0.720493       -19.6056
  15   2.0000      -0.589057       -16.0291
  16   2.0000      -0.468296       -12.7430
  17   2.0000      -0.446906       -12.1609
  18   2.0000      -0.418467       -11.3871
  19   2.0000      -0.371677       -10.1138
  20   2.0000      -0.371661       -10.1134
  21   2.0000      -0.304070        -8.2742
  22   2.0000      -0.292976        -7.9723
  23   2.0000      -0.278594        -7.5809
  24   2.0000      -0.273976        -7.4553
  25   0.0000      -0.029298        -0.7972
  26   0.0000       0.001870         0.0509
  27   0.0000       0.088762         2.4153
  28   0.0000       0.110571         3.0088
  29   0.0000       0.143408         3.9023

MULLIKEN ATOMIC CHARGES
-----------------------
   0 C :   -0.443216
   1 C :    0.058852
   2 Cl:   -0.143699
   3 Cl:   -0.143872
   4 H :    0.159568
   5 H :    0.159440
   6 H :    0.172041
   7 H :    0.180887
Sum of atomic charges:    0.0000000

LOEWDIN ATOMIC CHARGES
----------------------
   0 C :   -0.437006
   1 C :   -0.316715
   2 Cl:    0.045066
   3 Cl:    0.044944
   4 H :    0.165731
   5 H :    0.165659
   6 H :    0.169539
   7 H :    0.162783

  Mayer bond orders larger than 0.100000
B(  0-C ,  1-C ) :   0.9467 B(  0-C ,  4-H ) :   0.9539 B(  0-C ,  5-H ) :   0.9539
B(  0-C ,  6-H ) :   0.9653 B(  1-C ,  2-Cl) :   0.9964 B(  1-C ,  3-Cl) :   0.9963
B(  1-C ,  7-H ) :   0.9355

Dispersion correction           -0.001895052
FINAL SINGLE POINT ENERGY      -998.949321763962

DIPOLE MOMENT
-------------

Method             : SCF
Type of density    : Electron Density
Multiplicity       :   1
Irrep              :   0
Energy             :  -998.9549010039004315 Eh
Relativity type    :
Basis              : AO
                                X                 Y                 Z
Electronic contribution:      0.008808055       6.968244785       0.438541934
Nuclear contribution   :     -0.009374470      -7.799522269      -0.727733989
                        -----------------------------------------
Total Dipole Moment    :     -0.000566415      -0.831277484      -0.289192055
                        -----------------------------------------
Magnitude (a.u.)       :      0.880144659
Magnitude (Debye)      :      2.237149934

Rotational constants in cm-1:             0.210091             0.107020             0.075311
Rotational constants in MHz :          6298.362448          3208.373477          2257.769288

                             ****ORCA TERMINATED NORMALLY****
TOTAL RUN TIME: 0 days 0 hours 0 minutes 9 seconds 889 msec
