                         Program Version 6.0.1  -  RELEASE   -
|  1> ! pbe def2-sv(p) def2/J RI DEFGRID1 loosescf d4 GCP(DFT/SV(P)) printgap
|  2> %output
|  3>     printlevel normal
|  4> end
|  5> * xyz 0 1
|  6> C 3.4921099576 -3.0032935943 0.5519005346
|  7> C 2.8890259689 -1.6840114378 1.0061098487
|  8> O 2.662854317 -0.8045356208 -0.1119899408
|  9> C 1.5864716658 -0.9766801864 -0.8492069013
| 10> O 0.7310482192 -1.81526829 -0.6472732086
| 11> C 1.516324038 0.0253652661 -1.9836574673
| 12> C 0.2857453722 0.921563913 -1.818050794
| 13> H 0.2129448922 1.603052318 -2.6702598004
| 14> C 0.3329310038 1.7384822286 -0.5430621479
| 15> O -0.634690954 1.8605886973 0.1882752282
| 16> O 1.4994571911 2.2658925662 -0.3221463953
| 17> C 1.6974751213 3.0009312574 0.9070285023
| 18> C 3.1866937052 3.2260634546 1.0700764284
| 19> S -1.286537518 -0.0117974045 -1.8313342716
| 20> P -1.7538643923 -0.3559147253 0.2166496676
| 21> S -0.5656768518 -0.5307498707 1.7816702238
| 22> O -3.0463936017 0.538735041 0.4632324791
| 23> C -3.1608733095 1.5835599307 1.4278680029
| 24> O -2.6101715369 -1.6960306363 0.0043995477
| 25> C -2.0288695893 -2.9799313514 -0.2172849772
| 26> H 2.7888370987 -3.5383919148 -0.0821732663
| 27> H 4.4085062221 -2.8240273741 -0.0037365438
| 28> H 3.7122938469 -3.611798085 1.4226162103
| 29> H 3.5758524433 -1.1322337459 1.6475991072
| 30> H 1.939390114 -1.8402978541 1.5266339394
| 31> H 1.4200338067 -0.5222026285 -2.9213034526
| 32> H 2.4186769578 0.6351296563 -1.9825354366
| 33> H 1.1470591405 3.9428832242 0.8320578634
| 34> H 1.2758048764 2.4129607126 1.7284664498
| 35> H 3.7039406888 2.272102833 1.1115594632
| 36> H 3.5706243011 3.8004405838 0.2328461845
| 37> H 3.3656913217 3.7696511434 1.9914902221
| 38> H -4.1787287339 1.5317145378 1.8077900744
| 39> H -2.9725907977 2.5409311429 0.9447664469
| 40> H -2.4433365898 1.4348322169 2.2371768985
| 41> H -1.2588772631 -3.1784914827 0.5296819212
| 42> H -1.5838448219 -3.0284361719 -1.2108547947
| 43> H -2.8473950929 -3.6891722985 -0.1234321456
| 44> *
| 45>
| 46>                          ****END OF INPUT****

CARTESIAN COORDINATES (ANGSTROEM)
---------------------------------
  C      3.492110   -3.003294    0.551901
  C      2.889026   -1.684011    1.006110
  O      2.662854   -0.804536   -0.111990
  C      1.586472   -0.976680   -0.849207
  O      0.731048   -1.815268   -0.647273
  C      1.516324    0.025365   -1.983657
  C      0.285745    0.921564   -1.818051
  H      0.212945    1.603052   -2.670260
  C      0.332931    1.738482   -0.543062
  O     -0.634691    1.860589    0.188275
  O      1.499457    2.265893   -0.322146
  C      1.697475    3.000931    0.907029
  C      3.186694    3.226063    1.070076
  S     -1.286538   -0.011797   -1.831334
  P     -1.753864   -0.355915    0.216650
  S     -0.565677   -0.530750    1.781670
  O     -3.046394    0.538735    0.463232
  C     -3.160873    1.583560    1.427868
  O     -2.610172   -1.696031    0.004400
  C     -2.028870   -2.979931   -0.217285
  H      2.788837   -3.538392   -0.082173
  H      4.408506   -2.824027   -0.003737
  H      3.712294   -3.611798    1.422616
  H      3.575852   -1.132234    1.647599
  H      1.939390   -1.840298    1.526634
  H      1.420034   -0.522203   -2.921303
  H      2.418677    0.635130   -1.982535
  H      1.147059    3.942883    0.832058
  H      1.275805    2.412961    1.728466
  H      3.703941    2.272103    1.111559
  H      3.570624    3.800441    0.232846
  H      3.365691    3.769651    1.991490
  H     -4.178729    1.531715    1.807790
  H     -2.972591    2.540931    0.944766
  H     -2.443337    1.434832    2.237177
  H     -1.258877   -3.178491    0.529682
  H     -1.583845   -3.028436   -1.210855
  H     -2.847395   -3.689172   -0.123432

 Total Charge           Charge          ....    0
 Multiplicity           Mult            ....    1
 Number of Electrons    NEL             ....  174
 Basis Dimension        Dim             ....  316

ORBITAL ENERGIES
----------------

  NO   OCC          E(Eh)            E(eV)
   0   2.0000     -88.026448     -2395.3214
   1   2.0000     -87.964829     -2393.6447
   2   2.0000     -76.412528     -2079.2906
   3   2.0000     -18.826338      -512.2907
   4   2.0000     -18.805505      -511.7238
   5   2.0000     -18.765303      -510.6299
   6   2.0000     -18.763264      -510.5744
   7   2.0000     -18.762957      -510.5660
   8   2.0000     -18.737037      -509.8607
   9   2.0000     -10.030864      -272.9537
  10   2.0000     -10.010710      -272.4053
  11   2.0000      -9.960646      -271.0430
  12   2.0000      -9.956154      -270.9207
  13   2.0000      -9.943032      -270.5637
  14   2.0000      -9.922227      -269.9975
  15   2.0000      -9.917391      -269.8659
  16   2.0000      -9.914930      -269.7990
  17   2.0000      -9.898107      -269.3412
  18   2.0000      -9.884926      -268.9825
  19   2.0000      -7.671666      -208.7567
  20   2.0000      -7.609850      -207.0745
  21   2.0000      -6.407404      -174.3543
  22   2.0000      -5.700087      -155.1073
  23   2.0000      -5.696364      -155.0059
  24   2.0000      -5.687821      -154.7735
  25   2.0000      -5.639023      -153.4456
  26   2.0000      -5.630463      -153.2127
  27   2.0000      -5.629668      -153.1910
  28   2.0000      -4.630034      -125.9896
  29   2.0000      -4.629606      -125.9780
  30   2.0000      -4.627949      -125.9329
  31   2.0000      -1.037190       -28.2234
  32   2.0000      -1.010896       -27.5079
  33   2.0000      -0.960546       -26.1378
  34   2.0000      -0.939701       -25.5706
  35   2.0000      -0.916041       -24.9268
  36   2.0000      -0.913894       -24.8683
  37   2.0000      -0.767885       -20.8952
  38   2.0000      -0.719704       -19.5841
  39   2.0000      -0.707515       -19.2525
  40   2.0000      -0.681941       -18.5566
  41   2.0000      -0.650572       -17.7030
  42   2.0000      -0.623192       -16.9579
  43   2.0000      -0.613255       -16.6875
  44   2.0000      -0.599402       -16.3106
  45   2.0000      -0.596273       -16.2254
  46   2.0000      -0.566887       -15.4258
  47   2.0000      -0.524292       -14.2667
  48   2.0000      -0.501538       -13.6475
  49   2.0000      -0.495336       -13.4788
  50   2.0000      -0.482974       -13.1424
  51   2.0000      -0.464780       -12.6473
  52   2.0000      -0.457014       -12.4360
  53   2.0000      -0.451109       -12.2753
  54   2.0000      -0.438341       -11.9279
  55   2.0000      -0.435211       -11.8427
  56   2.0000      -0.422436       -11.4951
  57   2.0000      -0.406133       -11.0514
  58   2.0000      -0.405726       -11.0404
  59   2.0000      -0.398737       -10.8502
  60   2.0000      -0.390451       -10.6247
  61   2.0000      -0.388665       -10.5761
  62   2.0000      -0.384828       -10.4717
  63   2.0000      -0.376437       -10.2434
  64   2.0000      -0.374253       -10.1839
  65   2.0000      -0.371182       -10.1004
  66   2.0000      -0.368482       -10.0269
  67   2.0000      -0.361450        -9.8356
  68   2.0000      -0.354134        -9.6365
  69   2.0000      -0.338980        -9.2241
  70   2.0000      -0.336699        -9.1620
  71   2.0000      -0.329174        -8.9573
  72   2.0000      -0.323229        -8.7955
  73   2.0000      -0.317964        -8.6523
  74   2.0000      -0.297509        -8.0956
  75   2.0000      -0.293150        -7.9770
  76   2.0000      -0.287032        -7.8105
  77   2.0000      -0.279363        -7.6018
  78   2.0000      -0.267075        -7.2675
  79   2.0000      -0.262704        -7.1485
  80   2.0000      -0.253863        -6.9080
  81   2.0000      -0.241862        -6.5814
  82   2.0000      -0.236493        -6.4353
  83   2.0000      -0.229457        -6.2438
  84   2.0000      -0.196581        -5.3492
  85   2.0000      -0.180329        -4.9070
  86   2.0000      -0.176368        -4.7992
  87   0.0000      -0.050944        -1.3863
  88   0.0000      -0.038564        -1.0494
  89   0.0000      -0.029548        -0.8041
  90   0.0000       0.007769         0.2114
  91   0.0000       0.025884         0.7044

MULLIKEN ATOMIC CHARGES
-----------------------
   0 C :   -0.307480
   1 C :   -0.028988
   2 O :   -0.226137
   3 C :    0.089369
   4 O :   -0.191006
   5 C :   -0.017864
   6 C :   -0.322642
   7 H :    0.157408
   8 C :    0.215276
   9 O :   -0.195501
  10 O :   -0.215003
  11 C :   -0.034380
  12 C :   -0.280179
  13 S :   -0.081618
  14 P :    0.641239
  15 S :   -0.356576
  16 O :   -0.372733
  17 C :   -0.083153
  18 O :   -0.378469
  19 C :   -0.090213
  20 H :    0.127587
  21 H :    0.108660
  22 H :    0.113910
  23 H :    0.097181
  24 H :    0.135273
  25 H :    0.121510
  26 H :    0.111949
  27 H :    0.109124
  28 H :    0.128916
  29 H :    0.124438
  30 H :    0.115701
  31 H :    0.116636
  32 H :    0.113720
  33 H :    0.107106
  34 H :    0.110854
  35 H :    0.112763
  36 H :    0.111512
  37 H :    0.111812
Sum of atomic charges:   -0.0000000

LOEWDIN ATOMIC CHARGES
----------------------
   0 C :   -0.357382
   1 C :   -0.115934
   2 O :   -0.051201
   3 C :    0.023086
   4 O :   -0.163619
   5 C :   -0.249153
   6 C :   -0.261503
   7 H :    0.152979
   8 C :    0.018859
   9 O :   -0.149212
  10 O :   -0.033737
  11 C :   -0.103471
  12 C :   -0.350581
  13 S :    0.109879
  14 P :    0.595965
  15 S :   -0.331829
  16 O :   -0.246169
  17 C :   -0.210843
  18 O :   -0.256143
  19 C :   -0.215316
  20 H :    0.130056
  21 H :    0.121994
  22 H :    0.131476
  23 H :    0.115229
  24 H :    0.120754
  25 H :    0.145248
  26 H :    0.137115
  27 H :    0.119188
  28 H :    0.126491
  29 H :    0.130155
  30 H :    0.126972
  31 H :    0.133814
  32 H :    0.114941
  33 H :    0.108355
  34 H :    0.104743
  35 H :    0.107547
  36 H :    0.106863
  37 H :    0.114388

  Mayer bond orders larger than 0.100000
B(  0-C ,  1-C ) :   1.1677 B(  0-C , 20-H ) :   0.9453 B(  0-C , 21-H ) :   0.9479
B(  0-C , 22-H ) :   0.9445 B(  1-C ,  2-O ) :   0.9104 B(  1-C , 23-H ) :   0.9377
B(  1-C , 24-H ) :   0.9044 B(  2-O ,  3-C ) :   1.2419 B(  3-C ,  4-O ) :   1.9857
B(  3-C ,  5-C ) :   1.0042 B(  5-C ,  6-C ) :   1.0224 B(  5-C , 25-H ) :   0.8903
B(  5-C , 26-H ) :   0.8837 B(  6-C ,  7-H ) :   0.8724 B(  6-C ,  8-C ) :   0.9105
B(  6-C , 13-S ) :   1.0474 B(  8-C ,  9-O ) :   1.9252 B(  8-C , 10-O ) :   1.2856
B(  9-O , 14-P ) :   0.1187 B( 10-O , 11-C ) :   0.8826 B( 11-C , 12-C ) :   1.1573
B( 11-C , 27-H ) :   0.9335 B( 11-C , 28-H ) :   0.9210 B( 12-C , 29-H ) :   0.9483
B( 12-C , 30-H ) :   0.9488 B( 12-C , 31-H ) :   0.9421 B( 13-S , 14-P ) :   0.9202
B( 13-S , 15-S ) :   0.1235 B( 14-P , 15-S ) :   1.5151 B( 14-P , 16-O ) :   1.1228
B( 14-P , 18-O ) :   1.0948 B( 16-O , 17-C ) :   0.9385 B( 17-C , 32-H ) :   0.9561
B( 17-C , 33-H ) :   0.9533 B( 17-C , 34-H ) :   0.9297 B( 18-O , 19-C ) :   0.9431
B( 19-C , 35-H ) :   0.9385 B( 19-C , 36-H ) :   0.9467 B( 19-C , 37-H ) :   0.9575

Dispersion correction           -0.055390234
FINAL SINGLE POINT ENERGY     -1979.001002838164

DIPOLE MOMENT
-------------

Method             : SCF
Type of density    : Electron Density
Multiplicity       :   1
Irrep              :   0
Energy             : -1979.1300820236783693 Eh
Relativity type    :
Basis              : AO
                                X                 Y                 Z
Electronic contribution:    -16.999910246       0.084475255      -6.693667808
Nuclear contribution   :     18.726212726       0.881762460       6.386009624
                        -----------------------------------------
Total Dipole Moment    :      1.726302480       0.966237715      -0.307658185
                        -----------------------------------------
Magnitude (a.u.)       :      2.002096185
Magnitude (Debye)      :      5.088924078

Rotational constants in cm-1:             0.012035             0.009344             0.007187
Rotational constants in MHz :           360.813990           280.131092           215.452677

                             ****ORCA TERMINATED NORMALLY****
TOTAL RUN TIME: 0 days 0 hours 0 minutes 41 seconds 756 msec
