                         Program Version 6.0.0  -   RELEASE  -
|  1> ! pbe def2-sv(p) def2/J RI DEFGRID1 loosescf d4 GCP(DFT/SV(P)) printgap
|  2> %output
|  3>     printlevel normal
|  4> end
|  5> * xyz 0 1
|  6> C -1.238543993 1.4542e-06 3.8777e-06
|  7> Cl 0.5533275016 -6.429e-07 1.2694e-06
|  8> H -1.5678674114 -0.0825607977 -1.0293675874
|  9> H -1.5679987257 -0.850181378 0.5861370564
| 10> H -1.567941795 0.932747459 0.4431396705
| 11> *
| 12>
| 13>                          ****END OF INPUT****

CARTESIAN COORDINATES (ANGSTROEM)
---------------------------------
  C     -1.238544    0.000001    0.000004
  Cl     0.553328   -0.000001    0.000001
  H     -1.567867   -0.082561   -1.029368
  H     -1.567999   -0.850181    0.586137
  H     -1.567942    0.932747    0.443140

 Total Charge           Charge          ....    0
 Multiplicity           Mult            ....    1
 Number of Electrons    NEL             ....   26
 Basis Dimension        Dim             ....   38

ORBITAL ENERGIES
----------------

  NO   OCC          E(Eh)            E(eV)
   0   2.0000    -100.617883     -2737.9518
   1   2.0000      -9.934141      -270.3217
   2   2.0000      -9.153410      -249.0769
   3   2.0000      -6.985469      -190.0843
   4   2.0000      -6.972818      -189.7400
   5   2.0000      -6.972818      -189.7400
   6   2.0000      -0.766219       -20.8499
   7   2.0000      -0.602109       -16.3842
   8   2.0000      -0.400923       -10.9097
   9   2.0000      -0.400919       -10.9096
  10   2.0000      -0.367075        -9.9886
  11   2.0000      -0.244487        -6.6528
  12   2.0000      -0.244483        -6.6527
  13   0.0000       0.008483         0.2308
  14   0.0000       0.055829         1.5192
  15   0.0000       0.098305         2.6750
  16   0.0000       0.098312         2.6752
  17   0.0000       0.363851         9.9009

MULLIKEN ATOMIC CHARGES
-----------------------
   0 C :   -0.288898
   1 Cl:   -0.172668
   2 H :    0.153864
   3 H :    0.153852
   4 H :    0.153850
Sum of atomic charges:   -0.0000000

LOEWDIN ATOMIC CHARGES
----------------------
   0 C :   -0.391660
   1 Cl:    0.006802
   2 H :    0.128289
   3 H :    0.128286
   4 H :    0.128283

  Mayer bond orders larger than 0.100000
B(  0-C ,  1-Cl) :   1.0380 B(  0-C ,  2-H ) :   0.9539 B(  0-C ,  3-H ) :   0.9539
B(  0-C ,  4-H ) :   0.9539

Dispersion correction           -0.001845581
FINAL SINGLE POINT ENERGY      -499.655761172494

DIPOLE MOMENT
-------------

Method             : SCF
Type of density    : Electron Density
Multiplicity       :   1
Irrep              :   0
Energy             :  -499.6722636856315489 Eh
Relativity type    :
Basis              : AO
                                X                 Y                 Z
Electronic contribution:      4.445792417      -0.000018667       0.000054608
Nuclear contribution   :     -5.155668245       0.000005820      -0.000086947
                        -----------------------------------------
Total Dipole Moment    :     -0.709875828      -0.000012847      -0.000032339
                        -----------------------------------------
Magnitude (a.u.)       :      0.709875829
Magnitude (Debye)      :      1.804360963

Rotational constants in cm-1:             5.227561             0.439848             0.439847
Rotational constants in MHz :        156718.337920         13186.315974         13186.275940

                             ****ORCA TERMINATED NORMALLY****
TOTAL RUN TIME: 0 days 0 hours 0 minutes 3 seconds 94 msec
