                         Program Version 6.0.0  -   RELEASE  -
|  1> ! pbe def2-sv(p) def2/J RI DEFGRID1 loosescf d4 GCP(DFT/SV(P)) printgap
|  2> %output
|  3>     printlevel normal
|  4> end
|  5> * xyz 0 1
|  6> C 5.4735654843 -1.1090525948 -1.281502474
|  7> C 4.1781219811 -0.4664926434 -1.7326870706
|  8> O 3.626701438 0.3738074326 -0.6869115957
|  9> P 2.5525095389 -0.1086186026 0.3635167
| 10> S 2.2337938776 1.2579620911 1.7225632456
| 11> O 3.1359302654 -1.4882073622 0.894434761
| 12> C 2.6943028094 -2.0784191457 2.1304660769
| 13> C 1.2262927553 -2.4497312465 2.0925847357
| 14> S 0.916566595 -0.7369859956 -0.8675761305
| 15> C 0.4335414892 0.9115152798 -1.4344478052
| 16> S -0.6314515762 1.7968263145 -0.2551089997
| 17> P -2.2335441329 0.4238572383 -0.3195752008
| 18> S -2.6040029815 -0.3921656133 -2.0668833595
| 19> O -3.4382258806 1.2450211753 0.3085737083
| 20> C -4.1766400312 2.2139860738 -0.4626103641
| 21> C -5.5072247214 2.4427292071 0.2256152442
| 22> O -1.8614825878 -0.5605052427 0.8593994398
| 23> C -2.3946974402 -1.9024693765 0.9224633909
| 24> C -3.8871146653 -1.8984579216 1.1746173405
| 25> H 5.2896373841 -1.7934347503 -0.4581134561
| 26> H 5.9052145522 -1.6565771627 -2.1135860377
| 27> H 6.172811425 -0.344825517 -0.9533410553
| 28> H 3.4363967227 -1.2202315708 -2.010404785
| 29> H 4.3451500434 0.2163287391 -2.567831653
| 30> H 3.3302861306 -2.9575418097 2.2428220624
| 31> H 2.8892328269 -1.3680560349 2.9395694564
| 32> H 0.9677312761 -2.9855148278 3.0004386958
| 33> H 0.6204165623 -1.5453496791 2.0305591666
| 34> H 1.0155317617 -3.0748511041 1.2277554458
| 35> H -0.1115218168 0.7704198139 -2.3675108697
| 36> H 1.3172620285 1.5303313409 -1.5776073898
| 37> H -3.5870826274 3.1337261807 -0.5086928294
| 38> H -4.3107556475 1.8231993425 -1.477235404
| 39> H -6.065236346 3.1958814674 -0.3208503791
| 40> H -6.0801526594 1.5201869806 0.2514032686
| 41> H -5.3423503711 2.7837642222 1.2435338713
| 42> H -2.1583338272 -2.4104815416 -0.0179232168
| 43> H -1.8448348604 -2.3639308755 1.7433307718
| 44> H -4.4031098396 -1.4555828193 0.3233687856
| 45> H -4.2333437977 -2.9187663105 1.3060079472
| 46> H -4.1154939425 -1.3181690298 2.0647744915
| 47> *
| 48>
| 49>                          ****END OF INPUT****

CARTESIAN COORDINATES (ANGSTROEM)
---------------------------------
  C      5.473565   -1.109053   -1.281502
  C      4.178122   -0.466493   -1.732687
  O      3.626701    0.373807   -0.686912
  P      2.552510   -0.108619    0.363517
  S      2.233794    1.257962    1.722563
  O      3.135930   -1.488207    0.894435
  C      2.694303   -2.078419    2.130466
  C      1.226293   -2.449731    2.092585
  S      0.916567   -0.736986   -0.867576
  C      0.433541    0.911515   -1.434448
  S     -0.631452    1.796826   -0.255109
  P     -2.233544    0.423857   -0.319575
  S     -2.604003   -0.392166   -2.066883
  O     -3.438226    1.245021    0.308574
  C     -4.176640    2.213986   -0.462610
  C     -5.507225    2.442729    0.225615
  O     -1.861483   -0.560505    0.859399
  C     -2.394697   -1.902469    0.922463
  C     -3.887115   -1.898458    1.174617
  H      5.289637   -1.793435   -0.458113
  H      5.905215   -1.656577   -2.113586
  H      6.172811   -0.344826   -0.953341
  H      3.436397   -1.220232   -2.010405
  H      4.345150    0.216329   -2.567832
  H      3.330286   -2.957542    2.242822
  H      2.889233   -1.368056    2.939569
  H      0.967731   -2.985515    3.000439
  H      0.620417   -1.545350    2.030559
  H      1.015532   -3.074851    1.227755
  H     -0.111522    0.770420   -2.367511
  H      1.317262    1.530331   -1.577607
  H     -3.587083    3.133726   -0.508693
  H     -4.310756    1.823199   -1.477235
  H     -6.065236    3.195881   -0.320850
  H     -6.080153    1.520187    0.251403
  H     -5.342350    2.783764    1.243534
  H     -2.158334   -2.410482   -0.017923
  H     -1.844835   -2.363931    1.743331
  H     -4.403110   -1.455583    0.323369
  H     -4.233344   -2.918766    1.306008
  H     -4.115494   -1.318169    2.064774

 Total Charge           Charge          ....    0
 Multiplicity           Mult            ....    1
 Number of Electrons    NEL             ....  202
 Basis Dimension        Dim             ....  334

ORBITAL ENERGIES
----------------

  NO   OCC          E(Eh)            E(eV)
   0   2.0000     -88.040300     -2395.6984
   1   2.0000     -88.036414     -2395.5926
   2   2.0000     -87.987547     -2394.2629
   3   2.0000     -87.981245     -2394.0914
   4   2.0000     -76.424523     -2079.6170
   5   2.0000     -76.424144     -2079.6067
   6   2.0000     -18.796365      -511.4751
   7   2.0000     -18.792910      -511.3811
   8   2.0000     -18.792444      -511.3684
   9   2.0000     -18.789592      -511.2908
  10   2.0000      -9.956072      -270.9185
  11   2.0000      -9.955534      -270.9039
  12   2.0000      -9.954628      -270.8792
  13   2.0000      -9.952389      -270.8183
  14   2.0000      -9.950729      -270.7731
  15   2.0000      -9.888185      -269.0712
  16   2.0000      -9.886420      -269.0232
  17   2.0000      -9.886021      -269.0123
  18   2.0000      -9.883237      -268.9366
  19   2.0000      -7.684800      -209.1141
  20   2.0000      -7.681815      -209.0328
  21   2.0000      -7.632506      -207.6910
  22   2.0000      -7.626455      -207.5264
  23   2.0000      -6.421988      -174.7512
  24   2.0000      -6.421917      -174.7492
  25   2.0000      -5.712504      -155.4451
  26   2.0000      -5.709656      -155.3676
  27   2.0000      -5.709448      -155.3620
  28   2.0000      -5.706462      -155.2807
  29   2.0000      -5.701885      -155.1562
  30   2.0000      -5.698625      -155.0675
  31   2.0000      -5.661165      -154.0481
  32   2.0000      -5.655484      -153.8935
  33   2.0000      -5.653175      -153.8307
  34   2.0000      -5.652897      -153.8231
  35   2.0000      -5.647050      -153.6641
  36   2.0000      -5.646538      -153.6501
  37   2.0000      -4.645103      -126.3997
  38   2.0000      -4.644326      -126.3785
  39   2.0000      -4.643719      -126.3620
  40   2.0000      -4.643662      -126.3605
  41   2.0000      -4.642487      -126.3285
  42   2.0000      -4.641965      -126.3143
  43   2.0000      -0.989512       -26.9260
  44   2.0000      -0.986441       -26.8424
  45   2.0000      -0.947840       -25.7920
  46   2.0000      -0.945488       -25.7280
  47   2.0000      -0.761732       -20.7278
  48   2.0000      -0.720732       -19.6121
  49   2.0000      -0.710064       -19.3218
  50   2.0000      -0.692241       -18.8368
  51   2.0000      -0.688275       -18.7289
  52   2.0000      -0.672155       -18.2903
  53   2.0000      -0.649121       -17.6635
  54   2.0000      -0.637607       -17.3502
  55   2.0000      -0.598499       -16.2860
  56   2.0000      -0.593017       -16.1368
  57   2.0000      -0.577284       -15.7087
  58   2.0000      -0.565662       -15.3924
  59   2.0000      -0.558897       -15.2084
  60   2.0000      -0.504434       -13.7263
  61   2.0000      -0.500443       -13.6177
  62   2.0000      -0.477025       -12.9805
  63   2.0000      -0.475585       -12.9413
  64   2.0000      -0.456956       -12.4344
  65   2.0000      -0.449762       -12.2387
  66   2.0000      -0.440602       -11.9894
  67   2.0000      -0.433599       -11.7988
  68   2.0000      -0.429879       -11.6976
  69   2.0000      -0.419614       -11.4183
  70   2.0000      -0.408866       -11.1258
  71   2.0000      -0.397571       -10.8185
  72   2.0000      -0.392739       -10.6870
  73   2.0000      -0.380069       -10.3422
  74   2.0000      -0.378946       -10.3117
  75   2.0000      -0.372123       -10.1260
  76   2.0000      -0.367204        -9.9921
  77   2.0000      -0.360370        -9.8062
  78   2.0000      -0.356526        -9.7016
  79   2.0000      -0.354159        -9.6372
  80   2.0000      -0.349358        -9.5065
  81   2.0000      -0.348004        -9.4697
  82   2.0000      -0.345761        -9.4086
  83   2.0000      -0.341836        -9.3018
  84   2.0000      -0.331017        -9.0074
  85   2.0000      -0.318962        -8.6794
  86   2.0000      -0.313382        -8.5276
  87   2.0000      -0.300245        -8.1701
  88   2.0000      -0.297984        -8.1086
  89   2.0000      -0.293367        -7.9829
  90   2.0000      -0.284963        -7.7542
  91   2.0000      -0.274668        -7.4741
  92   2.0000      -0.271027        -7.3750
  93   2.0000      -0.262631        -7.1465
  94   2.0000      -0.259197        -7.0531
  95   2.0000      -0.235830        -6.4173
  96   2.0000      -0.215197        -5.8558
  97   2.0000      -0.210039        -5.7155
  98   2.0000      -0.205405        -5.5894
  99   2.0000      -0.199690        -5.4339
 100   2.0000      -0.188317        -5.1244
 101   0.0000      -0.040292        -1.0964
 102   0.0000      -0.024459        -0.6656
 103   0.0000      -0.001291        -0.0351
 104   0.0000       0.008890         0.2419
 105   0.0000       0.016452         0.4477

MULLIKEN ATOMIC CHARGES
-----------------------
   0 C :   -0.291372
   1 C :   -0.011066
   2 O :   -0.362154
   3 P :    0.585219
   4 S :   -0.300105
   5 O :   -0.383821
   6 C :    0.015926
   7 C :   -0.364420
   8 S :   -0.084009
   9 C :   -0.364010
  10 S :   -0.050709
  11 P :    0.605905
  12 S :   -0.346173
  13 O :   -0.374398
  14 C :   -0.011674
  15 C :   -0.281933
  16 O :   -0.353368
  17 C :   -0.013914
  18 C :   -0.303452
  19 H :    0.123107
  20 H :    0.109619
  21 H :    0.120162
  22 H :    0.102599
  23 H :    0.106998
  24 H :    0.103371
  25 H :    0.114486
  26 H :    0.115042
  27 H :    0.157308
  28 H :    0.119856
  29 H :    0.194960
  30 H :    0.184734
  31 H :    0.104489
  32 H :    0.105765
  33 H :    0.112379
  34 H :    0.118671
  35 H :    0.119046
  36 H :    0.112608
  37 H :    0.112240
  38 H :    0.123451
  39 H :    0.110626
  40 H :    0.118010
Sum of atomic charges:   -0.0000000

LOEWDIN ATOMIC CHARGES
----------------------
   0 C :   -0.359479
   1 C :   -0.116849
   2 O :   -0.241032
   3 P :    0.565982
   4 S :   -0.306867
   5 O :   -0.248033
   6 C :   -0.114977
   7 C :   -0.378204
   8 S :    0.080369
   9 C :   -0.481022
  10 S :    0.095945
  11 P :    0.568246
  12 S :   -0.331657
  13 O :   -0.246161
  14 C :   -0.120358
  15 C :   -0.350367
  16 O :   -0.233823
  17 C :   -0.116438
  18 C :   -0.365337
  19 H :    0.126385
  20 H :    0.129528
  21 H :    0.128884
  22 H :    0.103800
  23 H :    0.119590
  24 H :    0.117928
  25 H :    0.114636
  26 H :    0.131327
  27 H :    0.128075
  28 H :    0.122533
  29 H :    0.130667
  30 H :    0.133073
  31 H :    0.111299
  32 H :    0.107868
  33 H :    0.131081
  34 H :    0.127506
  35 H :    0.128064
  36 H :    0.110986
  37 H :    0.118182
  38 H :    0.121563
  39 H :    0.130054
  40 H :    0.127032

  Mayer bond orders larger than 0.100000
B(  0-C ,  1-C ) :   1.1665 B(  0-C , 19-H ) :   0.9423 B(  0-C , 20-H ) :   0.9397
B(  0-C , 21-H ) :   0.9471 B(  1-C ,  2-O ) :   0.8937 B(  1-C , 22-H ) :   0.9091
B(  1-C , 23-H ) :   0.9361 B(  2-O ,  3-P ) :   1.1175 B(  3-P ,  4-S ) :   1.6696
B(  3-P ,  5-O ) :   1.0777 B(  3-P ,  8-S ) :   0.9458 B(  4-S ,  8-S ) :   0.1139
B(  5-O ,  6-C ) :   0.9037 B(  6-C ,  7-C ) :   1.1633 B(  6-C , 24-H ) :   0.9325
B(  6-C , 25-H ) :   0.9182 B(  7-C , 26-H ) :   0.9363 B(  7-C , 27-H ) :   0.9222
B(  7-C , 28-H ) :   0.9418 B(  8-S ,  9-C ) :   0.9933 B(  9-C , 10-S ) :   1.0053
B(  9-C , 29-H ) :   0.8817 B(  9-C , 30-H ) :   0.8960 B( 10-S , 11-P ) :   0.9810
B( 10-S , 12-S ) :   0.1106 B( 11-P , 12-S ) :   1.5818 B( 11-P , 13-O ) :   1.1099
B( 11-P , 16-O ) :   1.1360 B( 13-O , 14-C ) :   0.9034 B( 14-C , 15-C ) :   1.1608
B( 14-C , 31-H ) :   0.9290 B( 14-C , 32-H ) :   0.9092 B( 15-C , 33-H ) :   0.9418
B( 15-C , 34-H ) :   0.9515 B( 15-C , 35-H ) :   0.9502 B( 16-O , 17-C ) :   0.9008
B( 17-C , 18-C ) :   1.1658 B( 17-C , 36-H ) :   0.9170 B( 17-C , 37-H ) :   0.9286
B( 18-C , 38-H ) :   0.9336 B( 18-C , 39-H ) :   0.9387 B( 18-C , 40-H ) :   0.9453

Dispersion correction           -0.064196720
FINAL SINGLE POINT ENERGY     -2929.521246380773

DIPOLE MOMENT
-------------

Method             : SCF
Type of density    : Electron Density
Multiplicity       :   1
Irrep              :   0
Energy             : -2929.6413939374047004 Eh
Relativity type    :
Basis              : AO
                                X                 Y                 Z
Electronic contribution:      6.719959277      11.097972609      -3.875327513
Nuclear contribution   :     -6.792931243     -12.014140549       3.776700400
                        -----------------------------------------
Total Dipole Moment    :     -0.072971966      -0.916167940      -0.098627112
                        -----------------------------------------
Magnitude (a.u.)       :      0.924346207
Magnitude (Debye)      :      2.349501340

Rotational constants in cm-1:             0.013933             0.004402             0.004166
Rotational constants in MHz :           417.686105           131.982047           124.892512

                             ****ORCA TERMINATED NORMALLY****
TOTAL RUN TIME: 0 days 0 hours 0 minutes 20 seconds 846 msec
