                         Program Version 6.0.0  -   RELEASE  -
|  1> ! pbe def2-sv(p) def2/J RI DEFGRID1 loosescf d4 GCP(DFT/SV(P)) printgap
|  2> %output
|  3>     printlevel normal
|  4> end
|  5> * xyz 0 1
|  6> C 1.8643392944 -1.4294593035 -0.000262093
|  7> C 0.5602114999 -0.7010196098 0.0002544111
|  8> C -0.6475911294 -1.3882140785 0.0002070689
|  9> C -1.8350996588 -0.6770154234 -5.13747e-05
| 10> N -1.8880992278 0.6460879909 -0.0002235969
| 11> C -0.7370201903 1.301288564 -2.04864e-05
| 12> C 0.5142957059 0.6986277912 0.0002218446
| 13> C 1.7633326299 1.5195929942 3.69597e-05
| 14> H 2.4499226872 -1.1553859748 0.8757331317
| 15> H 1.7049664125 -2.5039925832 0.0044559248
| 16> H 2.444593225 -1.1626176878 -0.8820752805
| 17> H -0.6631278941 -2.4674767537 0.0004829767
| 18> H -2.7917583094 -1.1823230548 0.0001873553
| 19> H -0.8246834647 2.3808010303 -0.0003623696
| 20> H 1.5232318748 2.5791199692 0.0013001427
| 21> H 2.3652496125 1.2948160194 0.8790695869
| 22> H 2.3639984402 1.2965970011 -0.8802880017
| 23> *
| 24>
| 25>                          ****END OF INPUT****

CARTESIAN COORDINATES (ANGSTROEM)
---------------------------------
  C      1.864339   -1.429459   -0.000262
  C      0.560211   -0.701020    0.000254
  C     -0.647591   -1.388214    0.000207
  C     -1.835100   -0.677015   -0.000051
  N     -1.888099    0.646088   -0.000224
  C     -0.737020    1.301289   -0.000020
  C      0.514296    0.698628    0.000222
  C      1.763333    1.519593    0.000037
  H      2.449923   -1.155386    0.875733
  H      1.704966   -2.503993    0.004456
  H      2.444593   -1.162618   -0.882075
  H     -0.663128   -2.467477    0.000483
  H     -2.791758   -1.182323    0.000187
  H     -0.824683    2.380801   -0.000362
  H      1.523232    2.579120    0.001300
  H      2.365250    1.294816    0.879070
  H      2.363998    1.296597   -0.880288

 Total Charge           Charge          ....    0
 Multiplicity           Mult            ....    1
 Number of Electrons    NEL             ....   58
 Basis Dimension        Dim             ....  130

ORBITAL ENERGIES
----------------

  NO   OCC          E(Eh)            E(eV)
   0   2.0000     -13.971214      -380.1761
   1   2.0000      -9.916024      -269.8287
   2   2.0000      -9.912180      -269.7241
   3   2.0000      -9.911201      -269.6975
   4   2.0000      -9.907589      -269.5992
   5   2.0000      -9.894910      -269.2542
   6   2.0000      -9.893548      -269.2171
   7   2.0000      -9.892765      -269.1958
   8   2.0000      -0.850284       -23.1374
   9   2.0000      -0.749209       -20.3870
  10   2.0000      -0.698876       -19.0174
  11   2.0000      -0.647063       -17.6075
  12   2.0000      -0.623302       -16.9609
  13   2.0000      -0.552926       -15.0459
  14   2.0000      -0.527444       -14.3525
  15   2.0000      -0.450561       -12.2604
  16   2.0000      -0.447300       -12.1717
  17   2.0000      -0.405060       -11.0222
  18   2.0000      -0.402314       -10.9475
  19   2.0000      -0.369372       -10.0511
  20   2.0000      -0.368664       -10.0319
  21   2.0000      -0.358174        -9.7464
  22   2.0000      -0.354982        -9.6596
  23   2.0000      -0.342375        -9.3165
  24   2.0000      -0.336441        -9.1550
  25   2.0000      -0.306601        -8.3430
  26   2.0000      -0.244446        -6.6517
  27   2.0000      -0.227599        -6.1933
  28   2.0000      -0.196618        -5.3502
  29   0.0000      -0.047329        -1.2879
  30   0.0000      -0.036123        -0.9830
  31   0.0000       0.033163         0.9024
  32   0.0000       0.059909         1.6302
  33   0.0000       0.071567         1.9474

MULLIKEN ATOMIC CHARGES
-----------------------
   0 C :   -0.200467
   1 C :    0.000934
   2 C :   -0.134414
   3 C :   -0.054647
   4 N :   -0.051023
   5 C :   -0.121649
   6 C :   -0.062871
   7 C :   -0.206402
   8 H :    0.115969
   9 H :    0.106001
  10 H :    0.116183
  11 H :    0.044166
  12 H :    0.062512
  13 H :    0.051083
  14 H :    0.108867
  15 H :    0.112889
  16 H :    0.112869
Sum of atomic charges:   -0.0000000

LOEWDIN ATOMIC CHARGES
----------------------
   0 C :   -0.320958
   1 C :   -0.028464
   2 C :   -0.145175
   3 C :   -0.086401
   4 N :   -0.079757
   5 C :   -0.087466
   6 C :   -0.067880
   7 C :   -0.320783
   8 H :    0.134784
   9 H :    0.127468
  10 H :    0.134942
  11 H :    0.124276
  12 H :    0.112501
  13 H :    0.110918
  14 H :    0.128602
  15 H :    0.131682
  16 H :    0.131712

  Mayer bond orders larger than 0.100000
B(  0-C ,  1-C ) :   1.1528 B(  0-C ,  8-H ) :   0.9210 B(  0-C ,  9-H ) :   0.9352
B(  0-C , 10-H ) :   0.9210 B(  1-C ,  2-C ) :   1.4280 B(  1-C ,  6-C ) :   1.4039
B(  2-C ,  3-C ) :   1.3768 B(  2-C , 11-H ) :   0.9378 B(  3-C ,  4-N ) :   1.5502
B(  3-C , 12-H ) :   0.9508 B(  4-N ,  5-C ) :   1.5537 B(  5-C ,  6-C ) :   1.3829
B(  5-C , 13-H ) :   0.9463 B(  6-C ,  7-C ) :   1.1415 B(  7-C , 14-H ) :   0.9345
B(  7-C , 15-H ) :   0.9236 B(  7-C , 16-H ) :   0.9236

Dispersion correction           -0.016800768
FINAL SINGLE POINT ENERGY      -326.183497666348

DIPOLE MOMENT
-------------

Method             : SCF
Type of density    : Electron Density
Multiplicity       :   1
Irrep              :   0
Energy             :  -326.2319919607725751 Eh
Relativity type    :
Basis              : AO
                                X                 Y                 Z
Electronic contribution:     -6.999761794       0.475885458       0.001002038
Nuclear contribution   :      8.031996516      -0.860006015      -0.001405227
                        -----------------------------------------
Total Dipole Moment    :      1.032234722      -0.384120557      -0.000403189
                        -----------------------------------------
Magnitude (a.u.)       :      1.101388799
Magnitude (Debye)      :      2.799507845

Rotational constants in cm-1:             0.109199             0.073710             0.044734
Rotational constants in MHz :          3273.693935          2209.780021          1341.089866

                             ****ORCA TERMINATED NORMALLY****
TOTAL RUN TIME: 0 days 0 hours 0 minutes 6 seconds 978 msec
