                         Program Version 6.0.0  -   RELEASE  -
|  1> ! r2scan-3c def2/J RI DEFGRID2 scfconv6 printgap
|  2> %output
|  3>     printlevel normal
|  4> end
|  5> * xyz 0 1
|  6> C 0.6277633366 1.6922472086 -0.0094903856
|  7> C 1.4055286995 0.3965397217 -0.2519081501
|  8> H 1.6125065031 0.2891571974 -1.3287199027
|  9> C 0.5429271633 -0.7940620687 0.1872558139
| 10> H 0.3729124845 -0.7251352843 1.2720708289
| 11> C -0.8117814734 -0.7396482448 -0.531783736
| 12> H -0.6403696615 -0.8747189963 -1.6066272786
| 13> C -1.4644992477 0.642374986 -0.2949819965
| 14> H -2.3508433199 0.7617925269 -0.9402707887
| 15> O -0.6183053068 1.68031114 -0.6884559827
| 16> O -1.8321366568 0.7827782513 1.0480000154
| 17> O -1.6208878296 -1.7613131215 0.003361312
| 18> O 1.2455123166 -1.9745339813 -0.1206327189
| 19> O 2.6056131637 0.4595221663 0.4729507506
| 20> H 1.1737979301 2.545857829 -0.4078272391
| 21> H 0.4755946555 1.8254234373 1.0672504413
| 22> H -2.0975354033 -0.0917486198 1.3819416525
| 23> H -2.3624830333 -1.9510692302 -0.5883188617
| 24> H 0.6965895079 -2.7352467698 0.1200633421
| 25> H 3.0410286903 -0.4048740713 0.41298226
| 26> *
| 27>
| 28>                          ****END OF INPUT****

CARTESIAN COORDINATES (ANGSTROEM)
---------------------------------
  C      0.627763    1.692247   -0.009490
  C      1.405529    0.396540   -0.251908
  H      1.612507    0.289157   -1.328720
  C      0.542927   -0.794062    0.187256
  H      0.372912   -0.725135    1.272071
  C     -0.811781   -0.739648   -0.531784
  H     -0.640370   -0.874719   -1.606627
  C     -1.464499    0.642375   -0.294982
  H     -2.350843    0.761793   -0.940271
  O     -0.618305    1.680311   -0.688456
  O     -1.832137    0.782778    1.048000
  O     -1.620888   -1.761313    0.003361
  O      1.245512   -1.974534   -0.120633
  O      2.605613    0.459522    0.472951
  H      1.173798    2.545858   -0.407827
  H      0.475595    1.825423    1.067250
  H     -2.097535   -0.091749    1.381942
  H     -2.362483   -1.951069   -0.588319
  H      0.696590   -2.735247    0.120063
  H      3.041029   -0.404874    0.412982

 Total Charge           Charge          ....    0
 Multiplicity           Mult            ....    1
 Number of Electrons    NEL             ....   80
 Basis Dimension        Dim             ....  265

ORBITAL ENERGIES
----------------

  NO   OCC          E(Eh)            E(eV)
   0   2.0000     -18.989209      -516.7227
   1   2.0000     -18.969257      -516.1797
   2   2.0000     -18.965102      -516.0667
   3   2.0000     -18.959706      -515.9198
   4   2.0000     -18.954201      -515.7700
   5   2.0000     -10.138376      -275.8792
   6   2.0000     -10.100621      -274.8519
   7   2.0000     -10.092808      -274.6393
   8   2.0000     -10.088950      -274.5343
   9   2.0000     -10.078243      -274.2429
  10   2.0000      -1.049662       -28.5628
  11   2.0000      -1.024113       -27.8675
  12   2.0000      -1.008451       -27.4414
  13   2.0000      -0.987090       -26.8601
  14   2.0000      -0.976208       -26.5640
  15   2.0000      -0.752787       -20.4844
  16   2.0000      -0.723972       -19.7003
  17   2.0000      -0.621923       -16.9234
  18   2.0000      -0.616192       -16.7674
  19   2.0000      -0.549694       -14.9579
  20   2.0000      -0.528421       -14.3791
  21   2.0000      -0.507760       -13.8168
  22   2.0000      -0.497008       -13.5243
  23   2.0000      -0.484898       -13.1947
  24   2.0000      -0.456020       -12.4089
  25   2.0000      -0.448954       -12.2167
  26   2.0000      -0.432051       -11.7567
  27   2.0000      -0.395772       -10.7695
  28   2.0000      -0.392487       -10.6801
  29   2.0000      -0.370349       -10.0777
  30   2.0000      -0.355064        -9.6618
  31   2.0000      -0.336333        -9.1521
  32   2.0000      -0.328568        -8.9408
  33   2.0000      -0.314316        -8.5530
  34   2.0000      -0.295439        -8.0393
  35   2.0000      -0.288956        -7.8629
  36   2.0000      -0.265930        -7.2363
  37   2.0000      -0.253957        -6.9105
  38   2.0000      -0.242189        -6.5903
  39   2.0000      -0.228083        -6.2064
  40   0.0000       0.021788         0.5929
  41   0.0000       0.046254         1.2586
  42   0.0000       0.074471         2.0264
  43   0.0000       0.078635         2.1398
  44   0.0000       0.091557         2.4914

MULLIKEN ATOMIC CHARGES
-----------------------
   0 C :   -0.264407
   1 C :   -0.012687
   2 H :    0.157327
   3 C :    0.027970
   4 H :    0.164933
   5 C :   -0.090413
   6 H :    0.160785
   7 C :    0.060593
   8 H :    0.136900
   9 O :   -0.205107
  10 O :   -0.404569
  11 O :   -0.456049
  12 O :   -0.438707
  13 O :   -0.420902
  14 H :    0.153217
  15 H :    0.177686
  16 H :    0.321367
  17 H :    0.307805
  18 H :    0.310197
  19 H :    0.314061
Sum of atomic charges:    0.0000000

LOEWDIN ATOMIC CHARGES
----------------------
   0 C :    0.062163
   1 C :    0.109558
   2 H :    0.177759
   3 C :    0.106532
   4 H :    0.188386
   5 C :    0.107890
   6 H :    0.186787
   7 C :    0.283326
   8 H :    0.191012
   9 O :   -0.658270
  10 O :   -0.523128
  11 O :   -0.588974
  12 O :   -0.579212
  13 O :   -0.571335
  14 H :    0.191241
  15 H :    0.188291
  16 H :    0.287546
  17 H :    0.277043
  18 H :    0.280720
  19 H :    0.282664

  Mayer bond orders larger than 0.100000
B(  0-C ,  1-C ) :   0.9043 B(  0-C ,  9-O ) :   0.9098 B(  0-C , 14-H ) :   0.9401
B(  0-C , 15-H ) :   0.9749 B(  1-C ,  2-H ) :   0.9793 B(  1-C ,  3-C ) :   0.8917
B(  1-C , 13-O ) :   0.9177 B(  3-C ,  4-H ) :   0.9620 B(  3-C ,  5-C ) :   0.9141
B(  3-C , 12-O ) :   0.9268 B(  5-C ,  6-H ) :   0.9656 B(  5-C ,  7-C ) :   0.8836
B(  5-C , 11-O ) :   0.9303 B(  7-C ,  8-H ) :   0.9514 B(  7-C ,  9-O ) :   1.0312
B(  7-C , 10-O ) :   0.9584 B( 10-O , 16-H ) :   0.8532 B( 11-O , 17-H ) :   0.8946
B( 12-O , 18-H ) :   0.8805 B( 13-O , 19-H ) :   0.8778

Dispersion correction           -0.006298331
FINAL SINGLE POINT ENERGY      -572.562458710070

DIPOLE MOMENT
-------------

Method             : SCF
Type of density    : Electron Density
Multiplicity       :   1
Irrep              :   0
Energy             :  -572.5726544584210842 Eh
Relativity type    :
Basis              : AO
                                X                 Y                 Z
Electronic contribution:     -0.608440192       0.076067076       0.143645945
Nuclear contribution   :     -0.077191565      -1.288486265      -0.568682672
                        -----------------------------------------
Total Dipole Moment    :     -0.685631757      -1.212419190      -0.425036727
                        -----------------------------------------
Magnitude (a.u.)       :      1.456264886
Magnitude (Debye)      :      3.701531173

Rotational constants in cm-1:             0.057258             0.044779             0.029045
Rotational constants in MHz :          1716.546661          1342.431106           870.741921

                             ****ORCA TERMINATED NORMALLY****
TOTAL RUN TIME: 0 days 0 hours 0 minutes 45 seconds 396 msec
