                         Program Version 6.0.0  -   RELEASE  -
|  1> ! r2scan-3c def2/J RI DEFGRID2 scfconv6 printgap
|  2> %output
|  3>     printlevel normal
|  4> end
|  5> %cpcm
|  6>     smd true
|  7>     smdsolvent "water"
|  8> end
|  9> * xyz 0 1
| 10> C 0.6277633366 1.6922472086 -0.0094903856
| 11> C 1.4055286995 0.3965397217 -0.2519081501
| 12> H 1.6125065031 0.2891571974 -1.3287199027
| 13> C 0.5429271633 -0.7940620687 0.1872558139
| 14> H 0.3729124845 -0.7251352843 1.2720708289
| 15> C -0.8117814734 -0.7396482448 -0.531783736
| 16> H -0.6403696615 -0.8747189963 -1.6066272786
| 17> C -1.4644992477 0.642374986 -0.2949819965
| 18> H -2.3508433199 0.7617925269 -0.9402707887
| 19> O -0.6183053068 1.68031114 -0.6884559827
| 20> O -1.8321366568 0.7827782513 1.0480000154
| 21> O -1.6208878296 -1.7613131215 0.003361312
| 22> O 1.2455123166 -1.9745339813 -0.1206327189
| 23> O 2.6056131637 0.4595221663 0.4729507506
| 24> H 1.1737979301 2.545857829 -0.4078272391
| 25> H 0.4755946555 1.8254234373 1.0672504413
| 26> H -2.0975354033 -0.0917486198 1.3819416525
| 27> H -2.3624830333 -1.9510692302 -0.5883188617
| 28> H 0.6965895079 -2.7352467698 0.1200633421
| 29> H 3.0410286903 -0.4048740713 0.41298226
| 30> *
| 31>
| 32>                          ****END OF INPUT****

CARTESIAN COORDINATES (ANGSTROEM)
---------------------------------
  C      0.627763    1.692247   -0.009490
  C      1.405529    0.396540   -0.251908
  H      1.612507    0.289157   -1.328720
  C      0.542927   -0.794062    0.187256
  H      0.372912   -0.725135    1.272071
  C     -0.811781   -0.739648   -0.531784
  H     -0.640370   -0.874719   -1.606627
  C     -1.464499    0.642375   -0.294982
  H     -2.350843    0.761793   -0.940271
  O     -0.618305    1.680311   -0.688456
  O     -1.832137    0.782778    1.048000
  O     -1.620888   -1.761313    0.003361
  O      1.245512   -1.974534   -0.120633
  O      2.605613    0.459522    0.472951
  H      1.173798    2.545858   -0.407827
  H      0.475595    1.825423    1.067250
  H     -2.097535   -0.091749    1.381942
  H     -2.362483   -1.951069   -0.588319
  H      0.696590   -2.735247    0.120063
  H      3.041029   -0.404874    0.412982

 Total Charge           Charge          ....    0
 Multiplicity           Mult            ....    1
 Number of Electrons    NEL             ....   80
 Basis Dimension        Dim             ....  265

ORBITAL ENERGIES
----------------

  NO   OCC          E(Eh)            E(eV)
   0   2.0000     -18.975965      -516.3623
   1   2.0000     -18.967463      -516.1309
   2   2.0000     -18.960723      -515.9475
   3   2.0000     -18.960569      -515.9433
   4   2.0000     -18.960154      -515.9320
   5   2.0000     -10.132680      -275.7242
   6   2.0000     -10.087276      -274.4887
   7   2.0000     -10.086882      -274.4780
   8   2.0000     -10.085086      -274.4291
   9   2.0000     -10.078796      -274.2580
  10   2.0000      -1.049614       -28.5615
  11   2.0000      -1.012874       -27.5617
  12   2.0000      -1.003932       -27.3184
  13   2.0000      -0.985796       -26.8249
  14   2.0000      -0.976999       -26.5855
  15   2.0000      -0.746879       -20.3236
  16   2.0000      -0.720173       -19.5969
  17   2.0000      -0.615023       -16.7356
  18   2.0000      -0.611819       -16.6485
  19   2.0000      -0.546792       -14.8790
  20   2.0000      -0.518283       -14.1032
  21   2.0000      -0.500329       -13.6147
  22   2.0000      -0.492878       -13.4119
  23   2.0000      -0.477565       -12.9952
  24   2.0000      -0.453632       -12.3440
  25   2.0000      -0.445798       -12.1308
  26   2.0000      -0.427488       -11.6326
  27   2.0000      -0.395151       -10.7526
  28   2.0000      -0.389296       -10.5933
  29   2.0000      -0.370977       -10.0948
  30   2.0000      -0.349414        -9.5080
  31   2.0000      -0.339584        -9.2406
  32   2.0000      -0.325937        -8.8692
  33   2.0000      -0.311084        -8.4650
  34   2.0000      -0.298734        -8.1290
  35   2.0000      -0.281943        -7.6721
  36   2.0000      -0.264277        -7.1913
  37   2.0000      -0.254382        -6.9221
  38   2.0000      -0.247065        -6.7230
  39   2.0000      -0.225697        -6.1415
  40   0.0000       0.038985         1.0608
  41   0.0000       0.067154         1.8273
  42   0.0000       0.084720         2.3053
  43   0.0000       0.093324         2.5395
  44   0.0000       0.105299         2.8653

MULLIKEN ATOMIC CHARGES
-----------------------
   0 C :   -0.277372
   1 C :    0.005433
   2 H :    0.174584
   3 C :    0.022837
   4 H :    0.178642
   5 C :   -0.080274
   6 H :    0.190332
   7 C :    0.056254
   8 H :    0.159824
   9 O :   -0.262653
  10 O :   -0.468105
  11 O :   -0.493556
  12 O :   -0.495865
  13 O :   -0.488702
  14 H :    0.174824
  15 H :    0.183000
  16 H :    0.360063
  17 H :    0.355553
  18 H :    0.351363
  19 H :    0.353818
Sum of atomic charges:    0.0000000

LOEWDIN ATOMIC CHARGES
----------------------
   0 C :    0.056746
   1 C :    0.108104
   2 H :    0.186032
   3 C :    0.105511
   4 H :    0.193288
   5 C :    0.117582
   6 H :    0.197046
   7 C :    0.285512
   8 H :    0.203743
   9 O :   -0.689629
  10 O :   -0.550010
  11 O :   -0.588069
  12 O :   -0.598513
  13 O :   -0.601362
  14 H :    0.197716
  15 H :    0.188380
  16 H :    0.301337
  17 H :    0.296149
  18 H :    0.294718
  19 H :    0.295720

  Mayer bond orders larger than 0.100000
B(  0-C ,  1-C ) :   0.8967 B(  0-C ,  9-O ) :   0.9077 B(  0-C , 14-H ) :   0.9338
B(  0-C , 15-H ) :   0.9750 B(  1-C ,  2-H ) :   0.9693 B(  1-C ,  3-C ) :   0.8979
B(  1-C , 13-O ) :   0.8970 B(  3-C ,  4-H ) :   0.9549 B(  3-C ,  5-C ) :   0.9121
B(  3-C , 12-O ) :   0.9170 B(  5-C ,  6-H ) :   0.9631 B(  5-C ,  7-C ) :   0.8969
B(  5-C , 11-O ) :   0.9323 B(  7-C ,  8-H ) :   0.9410 B(  7-C ,  9-O ) :   1.0104
B(  7-C , 10-O ) :   0.9634 B( 10-O , 16-H ) :   0.8345 B( 11-O , 17-H ) :   0.8689
B( 12-O , 18-H ) :   0.8596 B( 13-O , 19-H ) :   0.8583

Dispersion correction           -0.006298331
FINAL SINGLE POINT ENERGY      -572.589411884275

DIPOLE MOMENT
-------------

Method             : SCF
Type of density    : Electron Density
Multiplicity       :   1
Irrep              :   0
Energy             :  -572.5996076326264301 Eh
Relativity type    :
Basis              : AO
                                X                 Y                 Z
Electronic contribution:     -0.916195519      -0.404007916      -0.074336442
Nuclear contribution   :     -0.077191565      -1.288486265      -0.568682672
                        -----------------------------------------
Total Dipole Moment    :     -0.993387084      -1.692494181      -0.643019114
                        -----------------------------------------
Magnitude (a.u.)       :      2.065146007
Magnitude (Debye)      :      5.249183991

Rotational constants in cm-1:             0.057258             0.044779             0.029045
Rotational constants in MHz :          1716.546661          1342.431106           870.741921

                             ****ORCA TERMINATED NORMALLY****
TOTAL RUN TIME: 0 days 0 hours 0 minutes 50 seconds 227 msec
