                         Program Version 6.0.1  -  RELEASE   -
|  1> ! r2scan-3c def2/J RI DEFGRID2 scfconv6 printgap
|  2> %output
|  3>     printlevel normal
|  4> end
|  5> * xyz 0 1
|  6> C 4.5699921837 -3.8505508458 -1.2635581288
|  7> C 4.299896164 -2.4578182915 -0.7257352713
|  8> O 3.2781421888 -1.8458817419 -1.54005482
|  9> C 2.4236971131 -1.0217478122 -0.9814035499
| 10> O 2.4244911978 -0.7139688134 0.1937587278
| 11> C 1.4267203181 -0.4780775819 -1.9836766637
| 12> C 0.31561673 0.2580011192 -1.2478675985
| 13> H -0.3129170945 0.8162518097 -1.9498261437
| 14> C 0.9194004421 1.2613513939 -0.2780766178
| 15> O 1.8134115035 2.0086191393 -0.6057128667
| 16> O 0.3062726131 1.2725149342 0.8867666569
| 17> C 0.7848224701 2.1602158993 1.9158835604
| 18> C 1.6539626707 1.3927016621 2.897293675
| 19> S -0.759931135 -0.9368660515 -0.3865102788
| 20> P -2.2458959814 0.414542372 0.3064601542
| 21> S -2.4070398763 2.1150003734 -0.6514206296
| 22> O -3.5628018991 -0.4976121144 0.2308138465
| 23> C -4.1235066468 -0.8877100092 -1.0275827523
| 24> O -2.1333588417 0.5841815395 1.8727321301
| 25> C -2.0151059527 -0.5460041018 2.7586517133
| 26> H 3.6759494335 -4.4628074332 -1.1902998985
| 27> H 4.871676162 -3.7922010796 -2.3048510689
| 28> H 5.3650257351 -4.3088062644 -0.6848429526
| 29> H 5.1904887069 -1.8264434899 -0.7905995837
| 30> H 3.952126189 -2.4778465465 0.3112591571
| 31> H 1.0326677809 -1.291739774 -2.5913131067
| 32> H 1.9565199145 0.2236600332 -2.6317325629
| 33> H 1.3439396997 2.9666106745 1.4331750479
| 34> H -0.1160156629 2.5555420921 2.3890360051
| 35> H 2.4721917074 0.9147365713 2.3626070145
| 36> H 2.056573958 2.080303391 3.6333014002
| 37> H 1.070870922 0.6256719383 3.3986802368
| 38> H -3.4798785306 -1.6253870327 -1.5063638852
| 39> H -4.2374679539 -0.0153571086 -1.6730372083
| 40> H -5.0944685592 -1.3170193269 -0.7944783549
| 41> H -1.955684926 -0.1193971606 3.7566074021
| 42> H -1.1107155184 -1.1071748428 2.5225645031
| 43> H -2.8888937934 -1.1876944166 2.6636830425
| 44> *
| 45>
| 46>                          ****END OF INPUT****

CARTESIAN COORDINATES (ANGSTROEM)
---------------------------------
  C      4.569992   -3.850551   -1.263558
  C      4.299896   -2.457818   -0.725735
  O      3.278142   -1.845882   -1.540055
  C      2.423697   -1.021748   -0.981404
  O      2.424491   -0.713969    0.193759
  C      1.426720   -0.478078   -1.983677
  C      0.315617    0.258001   -1.247868
  H     -0.312917    0.816252   -1.949826
  C      0.919400    1.261351   -0.278077
  O      1.813412    2.008619   -0.605713
  O      0.306273    1.272515    0.886767
  C      0.784822    2.160216    1.915884
  C      1.653963    1.392702    2.897294
  S     -0.759931   -0.936866   -0.386510
  P     -2.245896    0.414542    0.306460
  S     -2.407040    2.115000   -0.651421
  O     -3.562802   -0.497612    0.230814
  C     -4.123507   -0.887710   -1.027583
  O     -2.133359    0.584182    1.872732
  C     -2.015106   -0.546004    2.758652
  H      3.675949   -4.462807   -1.190300
  H      4.871676   -3.792201   -2.304851
  H      5.365026   -4.308806   -0.684843
  H      5.190489   -1.826443   -0.790600
  H      3.952126   -2.477847    0.311259
  H      1.032668   -1.291740   -2.591313
  H      1.956520    0.223660   -2.631733
  H      1.343940    2.966611    1.433175
  H     -0.116016    2.555542    2.389036
  H      2.472192    0.914737    2.362607
  H      2.056574    2.080303    3.633301
  H      1.070871    0.625672    3.398680
  H     -3.479879   -1.625387   -1.506364
  H     -4.237468   -0.015357   -1.673037
  H     -5.094469   -1.317019   -0.794478
  H     -1.955685   -0.119397    3.756607
  H     -1.110716   -1.107175    2.522565
  H     -2.888894   -1.187694    2.663683

 Total Charge           Charge          ....    0
 Multiplicity           Mult            ....    1
 Number of Electrons    NEL             ....  174
 Basis Dimension        Dim             ....  510

ORBITAL ENERGIES
----------------

  NO   OCC          E(Eh)            E(eV)
   0   2.0000     -88.571500     -2410.1530
   1   2.0000     -88.514081     -2408.5906
   2   2.0000     -76.911172     -2092.8594
   3   2.0000     -19.011822      -517.3380
   4   2.0000     -18.991839      -516.7942
   5   2.0000     -18.990932      -516.7695
   6   2.0000     -18.987715      -516.6820
   7   2.0000     -18.943510      -515.4791
   8   2.0000     -18.924133      -514.9518
   9   2.0000     -10.168637      -276.7027
  10   2.0000     -10.154911      -276.3292
  11   2.0000     -10.101726      -274.8820
  12   2.0000     -10.096369      -274.7362
  13   2.0000     -10.091810      -274.6121
  14   2.0000     -10.089055      -274.5371
  15   2.0000     -10.081780      -274.3392
  16   2.0000     -10.066550      -273.9247
  17   2.0000     -10.039882      -273.1991
  18   2.0000     -10.020378      -272.6684
  19   2.0000      -7.865858      -214.0409
  20   2.0000      -7.808786      -212.4879
  21   2.0000      -6.589294      -179.3038
  22   2.0000      -5.812661      -158.1705
  23   2.0000      -5.809800      -158.0927
  24   2.0000      -5.802956      -157.9065
  25   2.0000      -5.756670      -156.6470
  26   2.0000      -5.749040      -156.4393
  27   2.0000      -5.748591      -156.4271
  28   2.0000      -4.735016      -128.8463
  29   2.0000      -4.734378      -128.8290
  30   2.0000      -4.732758      -128.7849
  31   2.0000      -1.089037       -29.6342
  32   2.0000      -1.070267       -29.1234
  33   2.0000      -1.048079       -28.5197
  34   2.0000      -1.005868       -27.3711
  35   2.0000      -0.993133       -27.0245
  36   2.0000      -0.975076       -26.5332
  37   2.0000      -0.809760       -22.0347
  38   2.0000      -0.763587       -20.7783
  39   2.0000      -0.735491       -20.0137
  40   2.0000      -0.732888       -19.9429
  41   2.0000      -0.698741       -19.0137
  42   2.0000      -0.673920       -18.3383
  43   2.0000      -0.656491       -17.8640
  44   2.0000      -0.645216       -17.5572
  45   2.0000      -0.628453       -17.1011
  46   2.0000      -0.593066       -16.1381
  47   2.0000      -0.544882       -14.8270
  48   2.0000      -0.538338       -14.6489
  49   2.0000      -0.519290       -14.1306
  50   2.0000      -0.502763       -13.6809
  51   2.0000      -0.491870       -13.3845
  52   2.0000      -0.485595       -13.2137
  53   2.0000      -0.471708       -12.8358
  54   2.0000      -0.454302       -12.3622
  55   2.0000      -0.452991       -12.3265
  56   2.0000      -0.446786       -12.1577
  57   2.0000      -0.442058       -12.0290
  58   2.0000      -0.434302       -11.8180
  59   2.0000      -0.428244       -11.6531
  60   2.0000      -0.423723       -11.5301
  61   2.0000      -0.416743       -11.3402
  62   2.0000      -0.407626       -11.0921
  63   2.0000      -0.396093       -10.7782
  64   2.0000      -0.390646       -10.6300
  65   2.0000      -0.385337       -10.4856
  66   2.0000      -0.379874       -10.3369
  67   2.0000      -0.369188       -10.0461
  68   2.0000      -0.359794        -9.7905
  69   2.0000      -0.354293        -9.6408
  70   2.0000      -0.347490        -9.4557
  71   2.0000      -0.338568        -9.2129
  72   2.0000      -0.334724        -9.1083
  73   2.0000      -0.333204        -9.0670
  74   2.0000      -0.322481        -8.7751
  75   2.0000      -0.317826        -8.6485
  76   2.0000      -0.312975        -8.5165
  77   2.0000      -0.300970        -8.1898
  78   2.0000      -0.285749        -7.7756
  79   2.0000      -0.284345        -7.7374
  80   2.0000      -0.274368        -7.4659
  81   2.0000      -0.265619        -7.2279
  82   2.0000      -0.255394        -6.9496
  83   2.0000      -0.249377        -6.7859
  84   2.0000      -0.221413        -6.0250
  85   2.0000      -0.213200        -5.8015
  86   2.0000      -0.209614        -5.7039
  87   0.0000      -0.041198        -1.1210
  88   0.0000      -0.023691        -0.6447
  89   0.0000      -0.008969        -0.2440
  90   0.0000       0.008141         0.2215
  91   0.0000       0.019237         0.5235

MULLIKEN ATOMIC CHARGES
-----------------------
   0 C :   -0.440533
   1 C :   -0.157551
   2 O :   -0.149034
   3 C :    0.397656
   4 O :   -0.393839
   5 C :   -0.471306
   6 C :    0.037613
   7 H :    0.247545
   8 C :    0.225487
   9 O :   -0.386480
  10 O :   -0.101236
  11 C :   -0.161840
  12 C :   -0.467644
  13 S :   -0.229891
  14 P :    0.782638
  15 S :   -0.446080
  16 O :   -0.355981
  17 C :   -0.296967
  18 O :   -0.309040
  19 C :   -0.304563
  20 H :    0.152780
  21 H :    0.155176
  22 H :    0.149741
  23 H :    0.149911
  24 H :    0.179438
  25 H :    0.189795
  26 H :    0.201662
  27 H :    0.179930
  28 H :    0.165861
  29 H :    0.181237
  30 H :    0.146805
  31 H :    0.142912
  32 H :    0.157061
  33 H :    0.174980
  34 H :    0.150793
  35 H :    0.157139
  36 H :    0.177804
  37 H :    0.168023
Sum of atomic charges:   -0.0000000

LOEWDIN ATOMIC CHARGES
----------------------
   0 C :   -0.384452
   1 C :    0.036806
   2 O :   -0.574675
   3 C :    0.369618
   4 O :   -0.434744
   5 C :   -0.207146
   6 C :   -0.197073
   7 H :    0.208422
   8 C :    0.352841
   9 O :   -0.421815
  10 O :   -0.625028
  11 C :    0.036301
  12 C :   -0.385403
  13 S :    0.207388
  14 P :    0.399255
  15 S :   -0.086637
  16 O :   -0.687755
  17 C :   -0.062177
  18 O :   -0.647578
  19 C :   -0.054990
  20 H :    0.159147
  21 H :    0.160158
  22 H :    0.160730
  23 H :    0.177763
  24 H :    0.191528
  25 H :    0.189847
  26 H :    0.205714
  27 H :    0.195695
  28 H :    0.184240
  29 H :    0.172464
  30 H :    0.156857
  31 H :    0.153883
  32 H :    0.168198
  33 H :    0.176520
  34 H :    0.176372
  35 H :    0.180021
  36 H :    0.175416
  37 H :    0.174291

  Mayer bond orders larger than 0.100000
B(  0-C ,  1-C ) :   0.9528 B(  0-C , 20-H ) :   0.9731 B(  0-C , 21-H ) :   0.9688
B(  0-C , 22-H ) :   0.9670 B(  1-C ,  2-O ) :   0.7605 B(  1-C , 23-H ) :   0.9441
B(  1-C , 24-H ) :   0.9659 B(  2-O ,  3-C ) :   1.1630 B(  3-C ,  4-O ) :   1.7810
B(  3-C ,  5-C ) :   0.9787 B(  4-O ,  8-C ) :   0.1318 B(  5-C ,  6-C ) :   0.9104
B(  5-C ,  9-O ) :   0.1171 B(  5-C , 25-H ) :   0.9729 B(  5-C , 26-H ) :   0.9167
B(  6-C ,  7-H ) :   0.9177 B(  6-C ,  8-C ) :   0.8198 B(  6-C , 13-S ) :   0.8639
B(  8-C ,  9-O ) :   1.8953 B(  8-C , 10-O ) :   1.1478 B( 10-O , 11-C ) :   0.7527
B( 11-C , 12-C ) :   0.9205 B( 11-C , 27-H ) :   0.9628 B( 11-C , 28-H ) :   0.9595
B( 12-C , 29-H ) :   0.9686 B( 12-C , 30-H ) :   0.9724 B( 12-C , 31-H ) :   0.9750
B( 13-S , 14-P ) :   0.9859 B( 14-P , 15-S ) :   1.8071 B( 14-P , 16-O ) :   1.0281
B( 14-P , 18-O ) :   1.1566 B( 16-O , 17-C ) :   0.8328 B( 17-C , 32-H ) :   0.9568
B( 17-C , 33-H ) :   0.9593 B( 17-C , 34-H ) :   0.9678 B( 18-O , 19-C ) :   0.7875
B( 19-C , 35-H ) :   0.9648 B( 19-C , 36-H ) :   0.9566 B( 19-C , 37-H ) :   0.9604

Dispersion correction           -0.017535907
FINAL SINGLE POINT ENERGY     -1981.452690411920

DIPOLE MOMENT
-------------

Method             : SCF
Type of density    : Electron Density
Multiplicity       :   1
Irrep              :   0
Energy             : -1981.4728147728915246 Eh
Relativity type    :
Basis              : AO
                                X                 Y                 Z
Electronic contribution:    -14.553220648      10.808417356      -5.425638342
Nuclear contribution   :     15.069138671     -12.916278469       5.732336414
                        -----------------------------------------
Total Dipole Moment    :      0.515918023      -2.107861113       0.306698073
                        -----------------------------------------
Magnitude (a.u.)       :      2.191646319
Magnitude (Debye)      :      5.570722229

Rotational constants in cm-1:             0.014836             0.006237             0.005604
Rotational constants in MHz :           444.778478           186.977791           168.001985

                             ****ORCA TERMINATED NORMALLY****
TOTAL RUN TIME: 0 days 0 hours 1 minutes 26 seconds 560 msec
