                         Program Version 6.0.1  -  RELEASE   -
|  1> ! r2scan-3c def2/J RI DEFGRID2 scfconv6 printgap
|  2> %output
|  3>     printlevel normal
|  4> end
|  5> %cpcm
|  6>     smd true
|  7>     smdsolvent "water"
|  8> end
|  9> * xyz 0 1
| 10> C 4.5699921837 -3.8505508458 -1.2635581288
| 11> C 4.299896164 -2.4578182915 -0.7257352713
| 12> O 3.2781421888 -1.8458817419 -1.54005482
| 13> C 2.4236971131 -1.0217478122 -0.9814035499
| 14> O 2.4244911978 -0.7139688134 0.1937587278
| 15> C 1.4267203181 -0.4780775819 -1.9836766637
| 16> C 0.31561673 0.2580011192 -1.2478675985
| 17> H -0.3129170945 0.8162518097 -1.9498261437
| 18> C 0.9194004421 1.2613513939 -0.2780766178
| 19> O 1.8134115035 2.0086191393 -0.6057128667
| 20> O 0.3062726131 1.2725149342 0.8867666569
| 21> C 0.7848224701 2.1602158993 1.9158835604
| 22> C 1.6539626707 1.3927016621 2.897293675
| 23> S -0.759931135 -0.9368660515 -0.3865102788
| 24> P -2.2458959814 0.414542372 0.3064601542
| 25> S -2.4070398763 2.1150003734 -0.6514206296
| 26> O -3.5628018991 -0.4976121144 0.2308138465
| 27> C -4.1235066468 -0.8877100092 -1.0275827523
| 28> O -2.1333588417 0.5841815395 1.8727321301
| 29> C -2.0151059527 -0.5460041018 2.7586517133
| 30> H 3.6759494335 -4.4628074332 -1.1902998985
| 31> H 4.871676162 -3.7922010796 -2.3048510689
| 32> H 5.3650257351 -4.3088062644 -0.6848429526
| 33> H 5.1904887069 -1.8264434899 -0.7905995837
| 34> H 3.952126189 -2.4778465465 0.3112591571
| 35> H 1.0326677809 -1.291739774 -2.5913131067
| 36> H 1.9565199145 0.2236600332 -2.6317325629
| 37> H 1.3439396997 2.9666106745 1.4331750479
| 38> H -0.1160156629 2.5555420921 2.3890360051
| 39> H 2.4721917074 0.9147365713 2.3626070145
| 40> H 2.056573958 2.080303391 3.6333014002
| 41> H 1.070870922 0.6256719383 3.3986802368
| 42> H -3.4798785306 -1.6253870327 -1.5063638852
| 43> H -4.2374679539 -0.0153571086 -1.6730372083
| 44> H -5.0944685592 -1.3170193269 -0.7944783549
| 45> H -1.955684926 -0.1193971606 3.7566074021
| 46> H -1.1107155184 -1.1071748428 2.5225645031
| 47> H -2.8888937934 -1.1876944166 2.6636830425
| 48> *
| 49>
| 50>                          ****END OF INPUT****

CARTESIAN COORDINATES (ANGSTROEM)
---------------------------------
  C      4.569992   -3.850551   -1.263558
  C      4.299896   -2.457818   -0.725735
  O      3.278142   -1.845882   -1.540055
  C      2.423697   -1.021748   -0.981404
  O      2.424491   -0.713969    0.193759
  C      1.426720   -0.478078   -1.983677
  C      0.315617    0.258001   -1.247868
  H     -0.312917    0.816252   -1.949826
  C      0.919400    1.261351   -0.278077
  O      1.813412    2.008619   -0.605713
  O      0.306273    1.272515    0.886767
  C      0.784822    2.160216    1.915884
  C      1.653963    1.392702    2.897294
  S     -0.759931   -0.936866   -0.386510
  P     -2.245896    0.414542    0.306460
  S     -2.407040    2.115000   -0.651421
  O     -3.562802   -0.497612    0.230814
  C     -4.123507   -0.887710   -1.027583
  O     -2.133359    0.584182    1.872732
  C     -2.015106   -0.546004    2.758652
  H      3.675949   -4.462807   -1.190300
  H      4.871676   -3.792201   -2.304851
  H      5.365026   -4.308806   -0.684843
  H      5.190489   -1.826443   -0.790600
  H      3.952126   -2.477847    0.311259
  H      1.032668   -1.291740   -2.591313
  H      1.956520    0.223660   -2.631733
  H      1.343940    2.966611    1.433175
  H     -0.116016    2.555542    2.389036
  H      2.472192    0.914737    2.362607
  H      2.056574    2.080303    3.633301
  H      1.070871    0.625672    3.398680
  H     -3.479879   -1.625387   -1.506364
  H     -4.237468   -0.015357   -1.673037
  H     -5.094469   -1.317019   -0.794478
  H     -1.955685   -0.119397    3.756607
  H     -1.110716   -1.107175    2.522565
  H     -2.888894   -1.187694    2.663683

 Total Charge           Charge          ....    0
 Multiplicity           Mult            ....    1
 Number of Electrons    NEL             ....  174
 Basis Dimension        Dim             ....  510

ORBITAL ENERGIES
----------------

  NO   OCC          E(Eh)            E(eV)
   0   2.0000     -88.577623     -2410.3197
   1   2.0000     -88.528081     -2408.9716
   2   2.0000     -76.920139     -2093.1034
   3   2.0000     -19.010259      -517.2954
   4   2.0000     -19.005900      -517.1768
   5   2.0000     -18.996937      -516.9329
   6   2.0000     -18.992648      -516.8162
   7   2.0000     -18.951901      -515.7075
   8   2.0000     -18.947367      -515.5841
   9   2.0000     -10.173865      -276.8450
  10   2.0000     -10.173147      -276.8254
  11   2.0000     -10.095839      -274.7217
  12   2.0000     -10.086755      -274.4746
  13   2.0000     -10.085439      -274.4388
  14   2.0000     -10.084700      -274.4186
  15   2.0000     -10.080723      -274.3104
  16   2.0000     -10.060819      -273.7688
  17   2.0000     -10.019762      -272.6516
  18   2.0000     -10.019122      -272.6342
  19   2.0000      -7.871917      -214.2057
  20   2.0000      -7.823168      -212.8792
  21   2.0000      -6.598364      -179.5506
  22   2.0000      -5.818772      -158.3368
  23   2.0000      -5.815889      -158.2584
  24   2.0000      -5.808942      -158.0693
  25   2.0000      -5.770910      -157.0345
  26   2.0000      -5.763452      -156.8315
  27   2.0000      -5.763011      -156.8195
  28   2.0000      -4.744034      -129.0917
  29   2.0000      -4.743396      -129.0744
  30   2.0000      -4.741967      -129.0355
  31   2.0000      -1.090632       -29.6776
  32   2.0000      -1.085683       -29.5429
  33   2.0000      -1.052983       -28.6531
  34   2.0000      -1.009923       -27.4814
  35   2.0000      -1.000663       -27.2294
  36   2.0000      -0.995480       -27.0884
  37   2.0000      -0.813056       -22.1244
  38   2.0000      -0.755537       -20.5592
  39   2.0000      -0.737727       -20.0746
  40   2.0000      -0.733322       -19.9547
  41   2.0000      -0.696211       -18.9449
  42   2.0000      -0.669286       -18.2122
  43   2.0000      -0.659592       -17.9484
  44   2.0000      -0.650343       -17.6967
  45   2.0000      -0.624042       -16.9810
  46   2.0000      -0.591087       -16.0843
  47   2.0000      -0.539858       -14.6903
  48   2.0000      -0.537366       -14.6225
  49   2.0000      -0.525437       -14.2979
  50   2.0000      -0.506631       -13.7861
  51   2.0000      -0.491488       -13.3741
  52   2.0000      -0.487024       -13.2526
  53   2.0000      -0.469447       -12.7743
  54   2.0000      -0.462775       -12.5928
  55   2.0000      -0.460288       -12.5251
  56   2.0000      -0.448204       -12.1962
  57   2.0000      -0.444281       -12.0895
  58   2.0000      -0.439419       -11.9572
  59   2.0000      -0.428095       -11.6491
  60   2.0000      -0.424926       -11.5628
  61   2.0000      -0.410236       -11.1631
  62   2.0000      -0.407695       -11.0940
  63   2.0000      -0.398381       -10.8405
  64   2.0000      -0.391606       -10.6561
  65   2.0000      -0.380190       -10.3455
  66   2.0000      -0.371282       -10.1031
  67   2.0000      -0.365576        -9.9478
  68   2.0000      -0.358200        -9.7471
  69   2.0000      -0.352155        -9.5826
  70   2.0000      -0.349365        -9.5067
  71   2.0000      -0.342810        -9.3283
  72   2.0000      -0.336196        -9.1484
  73   2.0000      -0.332239        -9.0407
  74   2.0000      -0.319277        -8.6880
  75   2.0000      -0.315881        -8.5956
  76   2.0000      -0.314013        -8.5447
  77   2.0000      -0.306451        -8.3390
  78   2.0000      -0.287662        -7.8277
  79   2.0000      -0.286167        -7.7870
  80   2.0000      -0.280897        -7.6436
  81   2.0000      -0.277374        -7.5477
  82   2.0000      -0.269247        -7.3266
  83   2.0000      -0.260868        -7.0986
  84   2.0000      -0.235990        -6.4216
  85   2.0000      -0.227778        -6.1982
  86   2.0000      -0.223571        -6.0837
  87   0.0000      -0.048267        -1.3134
  88   0.0000      -0.027414        -0.7460
  89   0.0000      -0.025233        -0.6866
  90   0.0000       0.003844         0.1046
  91   0.0000       0.011569         0.3148

MULLIKEN ATOMIC CHARGES
-----------------------
   0 C :   -0.486334
   1 C :   -0.149640
   2 O :   -0.157247
   3 C :    0.429558
   4 O :   -0.460038
   5 C :   -0.507069
   6 C :    0.052211
   7 H :    0.272397
   8 C :    0.214987
   9 O :   -0.453909
  10 O :   -0.119428
  11 C :   -0.142253
  12 C :   -0.510889
  13 S :   -0.220281
  14 P :    0.802182
  15 S :   -0.506248
  16 O :   -0.384166
  17 C :   -0.305770
  18 O :   -0.347415
  19 C :   -0.302624
  20 H :    0.165923
  21 H :    0.165955
  22 H :    0.170550
  23 H :    0.174457
  24 H :    0.181101
  25 H :    0.226203
  26 H :    0.235546
  27 H :    0.181697
  28 H :    0.180758
  29 H :    0.171830
  30 H :    0.173630
  31 H :    0.171985
  32 H :    0.174597
  33 H :    0.176497
  34 H :    0.178922
  35 H :    0.184985
  36 H :    0.182678
  37 H :    0.184664
Sum of atomic charges:    0.0000000

LOEWDIN ATOMIC CHARGES
----------------------
   0 C :   -0.387903
   1 C :    0.042073
   2 O :   -0.573244
   3 C :    0.376649
   4 O :   -0.480790
   5 C :   -0.198627
   6 C :   -0.192867
   7 H :    0.216909
   8 C :    0.352980
   9 O :   -0.474102
  10 O :   -0.631435
  11 C :    0.040294
  12 C :   -0.387531
  13 S :    0.220633
  14 P :    0.401110
  15 S :   -0.131707
  16 O :   -0.698024
  17 C :   -0.056622
  18 O :   -0.667548
  19 C :   -0.045123
  20 H :    0.162292
  21 H :    0.162920
  22 H :    0.168918
  23 H :    0.186921
  24 H :    0.192924
  25 H :    0.205221
  26 H :    0.215852
  27 H :    0.195940
  28 H :    0.191320
  29 H :    0.166570
  30 H :    0.167928
  31 H :    0.162817
  32 H :    0.175822
  33 H :    0.177221
  34 H :    0.188352
  35 H :    0.192204
  36 H :    0.179808
  37 H :    0.181843

  Mayer bond orders larger than 0.100000
B(  0-C ,  1-C ) :   0.9457 B(  0-C , 20-H ) :   0.9715 B(  0-C , 21-H ) :   0.9666
B(  0-C , 22-H ) :   0.9611 B(  1-C ,  2-O ) :   0.7502 B(  1-C , 23-H ) :   0.9356
B(  1-C , 24-H ) :   0.9610 B(  2-O ,  3-C ) :   1.1812 B(  3-C ,  4-O ) :   1.7281
B(  3-C ,  5-C ) :   0.9531 B(  4-O ,  8-C ) :   0.1325 B(  5-C ,  6-C ) :   0.8869
B(  5-C , 25-H ) :   0.9612 B(  5-C , 26-H ) :   0.9247 B(  6-C ,  7-H ) :   0.9052
B(  6-C ,  8-C ) :   0.8196 B(  6-C , 13-S ) :   0.8615 B(  8-C ,  9-O ) :   1.8349
B(  8-C , 10-O ) :   1.1574 B( 10-O , 11-C ) :   0.7419 B( 11-C , 12-C ) :   0.9077
B( 11-C , 27-H ) :   0.9564 B( 11-C , 28-H ) :   0.9505 B( 12-C , 29-H ) :   0.9706
B( 12-C , 30-H ) :   0.9641 B( 12-C , 31-H ) :   0.9709 B( 13-S , 14-P ) :   1.0032
B( 14-P , 15-S ) :   1.7771 B( 14-P , 16-O ) :   1.0356 B( 14-P , 18-O ) :   1.1613
B( 16-O , 17-C ) :   0.8248 B( 17-C , 32-H ) :   0.9500 B( 17-C , 33-H ) :   0.9556
B( 17-C , 34-H ) :   0.9575 B( 18-O , 19-C ) :   0.7811 B( 19-C , 35-H ) :   0.9538
B( 19-C , 36-H ) :   0.9486 B( 19-C , 37-H ) :   0.9518

Dispersion correction           -0.017535907
FINAL SINGLE POINT ENERGY     -1981.467855802494

DIPOLE MOMENT
-------------

Method             : SCF
Type of density    : Electron Density
Multiplicity       :   1
Irrep              :   0
Energy             : -1981.4879801634651812 Eh
Relativity type    :
Basis              : AO
                                X                 Y                 Z
Electronic contribution:    -14.584580750       9.968441787      -5.465625689
Nuclear contribution   :     15.069138671     -12.916278469       5.732336414
                        -----------------------------------------
Total Dipole Moment    :      0.484557920      -2.947836682       0.266710725
                        -----------------------------------------
Magnitude (a.u.)       :      2.999278595
Magnitude (Debye)      :      7.623560335

Rotational constants in cm-1:             0.014836             0.006237             0.005604
Rotational constants in MHz :           444.778478           186.977791           168.001985

                             ****ORCA TERMINATED NORMALLY****
TOTAL RUN TIME: 0 days 0 hours 1 minutes 52 seconds 503 msec
