                         Program Version 6.0.0  -   RELEASE  -
|  1> ! pbe def2-sv(p) def2/J RI DEFGRID1 loosescf d4 GCP(DFT/SV(P)) printgap
|  2> %output
|  3>     printlevel normal
|  4> end
|  5> * xyz 0 1
|  6> C 5.6521811088 0.1193391193 -0.0111563394
|  7> C 4.4509585523 0.3833700307 -0.8952541229
|  8> O 3.3752408901 0.9978381666 -0.142422011
|  9> P 2.2123294945 0.1939694366 0.5546247458
| 10> S 1.0000958197 1.4103209082 1.4910294685
| 11> O 2.98309042 -0.8534091041 1.4659974765
| 12> C 2.3192258497 -1.6526515196 2.4627568772
| 13> C 1.854631279 -2.9779461134 1.8909610917
| 14> S 1.3504801878 -0.9876066787 -1.0010193475
| 15> C 0.3623090143 0.3456511505 -1.7493071561
| 16> S -1.2553390576 -0.2306913974 -2.3365368417
| 17> P -2.4006571397 -0.0469241492 -0.5779706616
| 18> S -4.3130802655 -0.3591012212 -0.8663908476
| 19> O -2.0490873611 1.367044735 0.0731178131
| 20> C -2.8246010726 2.5422430865 -0.2014250763
| 21> C -2.5236490077 3.1037469051 -1.5766296095
| 22> O -1.5853125933 -1.0404493048 0.3519367385
| 23> C -1.677969074 -1.0815412423 1.7931341588
| 24> C -3.0957187878 -1.2613616781 2.2900939719
| 25> H 5.4068154325 -0.6118480757 0.7538483197
| 26> H 6.4646046416 -0.2607579734 -0.6227230095
| 27> H 5.9681838722 1.0398307891 0.4721820105
| 28> H 4.0812396868 -0.5405194512 -1.348894567
| 29> H 4.684361064 1.1129648939 -1.6727324533
| 30> H 3.0739349565 -1.801690247 3.2372078197
| 31> H 1.4838503083 -1.0779854012 2.8761436759
| 32> H 1.1017671255 -2.824285515 1.1205613994
| 33> H 2.6938194142 -3.5091018291 1.4506681481
| 34> H 1.431127559 -3.5802480137 2.6886470859
| 35> H 0.8777022758 0.7190674076 -2.6301087435
| 36> H 0.2191739386 1.1274677468 -1.0002228571
| 37> H -3.8856074859 2.2846167478 -0.1158987712
| 38> H -2.5419988418 3.2370619533 0.5910577113
| 39> H -1.462322446 3.3180501472 -1.6755132154
| 40> H -2.8153440445 2.3854142456 -2.342336586
| 41> H -3.0875127037 4.0197339182 -1.7202287972
| 42> H -1.0550174131 -1.9375152085 2.0603893867
| 43> H -1.2378188157 -0.16142819 2.1873242233
| 44> H -3.5502244436 -2.1365933149 1.8310450768
| 45> H -3.0825001547 -1.3845848526 3.3685086099
| 46> H -3.6977911702 -0.389023694 2.0399360157
| 47> *
| 48>
| 49>                          ****END OF INPUT****

CARTESIAN COORDINATES (ANGSTROEM)
---------------------------------
  C      5.652181    0.119339   -0.011156
  C      4.450959    0.383370   -0.895254
  O      3.375241    0.997838   -0.142422
  P      2.212329    0.193969    0.554625
  S      1.000096    1.410321    1.491029
  O      2.983090   -0.853409    1.465997
  C      2.319226   -1.652652    2.462757
  C      1.854631   -2.977946    1.890961
  S      1.350480   -0.987607   -1.001019
  C      0.362309    0.345651   -1.749307
  S     -1.255339   -0.230691   -2.336537
  P     -2.400657   -0.046924   -0.577971
  S     -4.313080   -0.359101   -0.866391
  O     -2.049087    1.367045    0.073118
  C     -2.824601    2.542243   -0.201425
  C     -2.523649    3.103747   -1.576630
  O     -1.585313   -1.040449    0.351937
  C     -1.677969   -1.081541    1.793134
  C     -3.095719   -1.261362    2.290094
  H      5.406815   -0.611848    0.753848
  H      6.464605   -0.260758   -0.622723
  H      5.968184    1.039831    0.472182
  H      4.081240   -0.540519   -1.348895
  H      4.684361    1.112965   -1.672732
  H      3.073935   -1.801690    3.237208
  H      1.483850   -1.077985    2.876144
  H      1.101767   -2.824286    1.120561
  H      2.693819   -3.509102    1.450668
  H      1.431128   -3.580248    2.688647
  H      0.877702    0.719067   -2.630109
  H      0.219174    1.127468   -1.000223
  H     -3.885607    2.284617   -0.115899
  H     -2.541999    3.237062    0.591058
  H     -1.462322    3.318050   -1.675513
  H     -2.815344    2.385414   -2.342337
  H     -3.087513    4.019734   -1.720229
  H     -1.055017   -1.937515    2.060389
  H     -1.237819   -0.161428    2.187324
  H     -3.550224   -2.136593    1.831045
  H     -3.082500   -1.384585    3.368509
  H     -3.697791   -0.389024    2.039936

 Total Charge           Charge          ....    0
 Multiplicity           Mult            ....    1
 Number of Electrons    NEL             ....  202
 Basis Dimension        Dim             ....  334

ORBITAL ENERGIES
----------------

  NO   OCC          E(Eh)            E(eV)
   0   2.0000     -88.045307     -2395.8346
   1   2.0000     -88.043139     -2395.7756
   2   2.0000     -87.990770     -2394.3506
   3   2.0000     -87.981681     -2394.1032
   4   2.0000     -76.431926     -2079.8184
   5   2.0000     -76.422649     -2079.5660
   6   2.0000     -18.804632      -511.7001
   7   2.0000     -18.797612      -511.5090
   8   2.0000     -18.789632      -511.2919
   9   2.0000     -18.784313      -511.1472
  10   2.0000      -9.962673      -271.0981
  11   2.0000      -9.961141      -271.0564
  12   2.0000      -9.956624      -270.9335
  13   2.0000      -9.947165      -270.6761
  14   2.0000      -9.946492      -270.6578
  15   2.0000      -9.893280      -269.2098
  16   2.0000      -9.890973      -269.1471
  17   2.0000      -9.881431      -268.8874
  18   2.0000      -9.877719      -268.7864
  19   2.0000      -7.690010      -209.2558
  20   2.0000      -7.688418      -209.2125
  21   2.0000      -7.635873      -207.7827
  22   2.0000      -7.626879      -207.5379
  23   2.0000      -6.429687      -174.9607
  24   2.0000      -6.420066      -174.6989
  25   2.0000      -5.717762      -155.5882
  26   2.0000      -5.716713      -155.5597
  27   2.0000      -5.714637      -155.5032
  28   2.0000      -5.712569      -155.4469
  29   2.0000      -5.707066      -155.2972
  30   2.0000      -5.705306      -155.2493
  31   2.0000      -5.664793      -154.1469
  32   2.0000      -5.656550      -153.9226
  33   2.0000      -5.655900      -153.9049
  34   2.0000      -5.655843      -153.9033
  35   2.0000      -5.647435      -153.6745
  36   2.0000      -5.647072      -153.6646
  37   2.0000      -4.652692      -126.6062
  38   2.0000      -4.651393      -126.5708
  39   2.0000      -4.649762      -126.5265
  40   2.0000      -4.642835      -126.3380
  41   2.0000      -4.641898      -126.3125
  42   2.0000      -4.640354      -126.2705
  43   2.0000      -0.996278       -27.1101
  44   2.0000      -0.982192       -26.7268
  45   2.0000      -0.954171       -25.9643
  46   2.0000      -0.939371       -25.5616
  47   2.0000      -0.762850       -20.7582
  48   2.0000      -0.726051       -19.7568
  49   2.0000      -0.709593       -19.3090
  50   2.0000      -0.698536       -19.0081
  51   2.0000      -0.684045       -18.6138
  52   2.0000      -0.676404       -18.4059
  53   2.0000      -0.654371       -17.8063
  54   2.0000      -0.638899       -17.3853
  55   2.0000      -0.601606       -16.3705
  56   2.0000      -0.589154       -16.0317
  57   2.0000      -0.580669       -15.8008
  58   2.0000      -0.572771       -15.5859
  59   2.0000      -0.561695       -15.2845
  60   2.0000      -0.509497       -13.8641
  61   2.0000      -0.491102       -13.3636
  62   2.0000      -0.487145       -13.2559
  63   2.0000      -0.465680       -12.6718
  64   2.0000      -0.458789       -12.4843
  65   2.0000      -0.450203       -12.2506
  66   2.0000      -0.446350       -12.1458
  67   2.0000      -0.437267       -11.8986
  68   2.0000      -0.428490       -11.6598
  69   2.0000      -0.418463       -11.3870
  70   2.0000      -0.411381       -11.1942
  71   2.0000      -0.400775       -10.9056
  72   2.0000      -0.399828       -10.8799
  73   2.0000      -0.392971       -10.6933
  74   2.0000      -0.386552       -10.5186
  75   2.0000      -0.374956       -10.2031
  76   2.0000      -0.362895        -9.8749
  77   2.0000      -0.362051        -9.8519
  78   2.0000      -0.360615        -9.8128
  79   2.0000      -0.354957        -9.6589
  80   2.0000      -0.347524        -9.4566
  81   2.0000      -0.343166        -9.3380
  82   2.0000      -0.340482        -9.2650
  83   2.0000      -0.334543        -9.1034
  84   2.0000      -0.329799        -8.9743
  85   2.0000      -0.326452        -8.8832
  86   2.0000      -0.316914        -8.6237
  87   2.0000      -0.302326        -8.2267
  88   2.0000      -0.298771        -8.1300
  89   2.0000      -0.288732        -7.8568
  90   2.0000      -0.286082        -7.7847
  91   2.0000      -0.279752        -7.6124
  92   2.0000      -0.271160        -7.3786
  93   2.0000      -0.268176        -7.2975
  94   2.0000      -0.259148        -7.0518
  95   2.0000      -0.233171        -6.3449
  96   2.0000      -0.224142        -6.0992
  97   2.0000      -0.210566        -5.7298
  98   2.0000      -0.204450        -5.5634
  99   2.0000      -0.199577        -5.4308
 100   2.0000      -0.196636        -5.3507
 101   0.0000      -0.039756        -1.0818
 102   0.0000      -0.026641        -0.7249
 103   0.0000      -0.018693        -0.5087
 104   0.0000       0.005810         0.1581
 105   0.0000       0.013008         0.3540

MULLIKEN ATOMIC CHARGES
-----------------------
   0 C :   -0.292936
   1 C :   -0.012790
   2 O :   -0.358072
   3 P :    0.595574
   4 S :   -0.299786
   5 O :   -0.378943
   6 C :   -0.012086
   7 C :   -0.326769
   8 S :   -0.087543
   9 C :   -0.372967
  10 S :   -0.065475
  11 P :    0.617890
  12 S :   -0.321223
  13 O :   -0.373317
  14 C :   -0.004603
  15 C :   -0.319839
  16 O :   -0.371645
  17 C :   -0.031900
  18 C :   -0.308317
  19 H :    0.122766
  20 H :    0.111076
  21 H :    0.121003
  22 H :    0.101509
  23 H :    0.109287
  24 H :    0.110514
  25 H :    0.108497
  26 H :    0.154347
  27 H :    0.116589
  28 H :    0.115591
  29 H :    0.180917
  30 H :    0.209068
  31 H :    0.110290
  32 H :    0.105985
  33 H :    0.119272
  34 H :    0.126863
  35 H :    0.112608
  36 H :    0.103639
  37 H :    0.129086
  38 H :    0.122378
  39 H :    0.106320
  40 H :    0.127138
Sum of atomic charges:    0.0000000

LOEWDIN ATOMIC CHARGES
----------------------
   0 C :   -0.360298
   1 C :   -0.116556
   2 O :   -0.238621
   3 P :    0.568925
   4 S :   -0.290893
   5 O :   -0.242564
   6 C :   -0.116533
   7 C :   -0.369262
   8 S :    0.074995
   9 C :   -0.484105
  10 S :    0.099747
  11 P :    0.568120
  12 S :   -0.317817
  13 O :   -0.237715
  14 C :   -0.123055
  15 C :   -0.366920
  16 O :   -0.243397
  17 C :   -0.119911
  18 C :   -0.368642
  19 H :    0.125759
  20 H :    0.130240
  21 H :    0.129355
  22 H :    0.102718
  23 H :    0.120933
  24 H :    0.121123
  25 H :    0.108885
  26 H :    0.124265
  27 H :    0.127075
  28 H :    0.132220
  29 H :    0.134727
  30 H :    0.123930
  31 H :    0.107784
  32 H :    0.118869
  33 H :    0.124428
  34 H :    0.121951
  35 H :    0.131069
  36 H :    0.114251
  37 H :    0.108105
  38 H :    0.128038
  39 H :    0.127804
  40 H :    0.120972

  Mayer bond orders larger than 0.100000
B(  0-C ,  1-C ) :   1.1647 B(  0-C , 19-H ) :   0.9411 B(  0-C , 20-H ) :   0.9392
B(  0-C , 21-H ) :   0.9472 B(  1-C ,  2-O ) :   0.8973 B(  1-C , 22-H ) :   0.9078
B(  1-C , 23-H ) :   0.9362 B(  2-O ,  3-P ) :   1.1320 B(  3-P ,  4-S ) :   1.6370
B(  3-P ,  5-O ) :   1.0884 B(  3-P ,  8-S ) :   0.9657 B(  4-S ,  8-S ) :   0.1125
B(  5-O ,  6-C ) :   0.9013 B(  6-C ,  7-C ) :   1.1708 B(  6-C , 24-H ) :   0.9335
B(  6-C , 25-H ) :   0.9075 B(  7-C , 26-H ) :   0.9233 B(  7-C , 27-H ) :   0.9449
B(  7-C , 28-H ) :   0.9380 B(  8-S ,  9-C ) :   0.9736 B(  9-C , 10-S ) :   0.9987
B(  9-C , 29-H ) :   0.9102 B(  9-C , 30-H ) :   0.8481 B( 10-S , 11-P ) :   0.9723
B( 11-P , 12-S ) :   1.6500 B( 11-P , 13-O ) :   1.0659 B( 11-P , 16-O ) :   1.1260
B( 13-O , 14-C ) :   0.9100 B( 14-C , 15-C ) :   1.1639 B( 14-C , 31-H ) :   0.9098
B( 14-C , 32-H ) :   0.9313 B( 15-C , 33-H ) :   0.9462 B( 15-C , 34-H ) :   0.9363
B( 15-C , 35-H ) :   0.9399 B( 16-O , 17-C ) :   0.9061 B( 17-C , 18-C ) :   1.1638
B( 17-C , 36-H ) :   0.9260 B( 17-C , 37-H ) :   0.9118 B( 18-C , 38-H ) :   0.9427
B( 18-C , 39-H ) :   0.9352 B( 18-C , 40-H ) :   0.9360

Dispersion correction           -0.065487202
FINAL SINGLE POINT ENERGY     -2929.517682084288

DIPOLE MOMENT
-------------

Method             : SCF
Type of density    : Electron Density
Multiplicity       :   1
Irrep              :   0
Energy             : -2929.6386933190224227 Eh
Relativity type    :
Basis              : AO
                                X                 Y                 Z
Electronic contribution:     -8.894480208       0.907909355     -10.460791950
Nuclear contribution   :     10.687738489      -1.030889008      10.960103957
                        -----------------------------------------
Total Dipole Moment    :      1.793258281      -0.122979653       0.499312007
                        -----------------------------------------
Magnitude (a.u.)       :      1.865532562
Magnitude (Debye)      :      4.741806934

Rotational constants in cm-1:             0.012820             0.005038             0.004546
Rotational constants in MHz :           384.322736           151.044185           136.287851

                             ****ORCA TERMINATED NORMALLY****
TOTAL RUN TIME: 0 days 0 hours 0 minutes 21 seconds 620 msec
