                         Program Version 6.0.0  -   RELEASE  -
|  1> ! r2scan-3c def2/J RI DEFGRID2 scfconv6 printgap
|  2> %output
|  3>     printlevel normal
|  4> end
|  5> * xyz 0 1
|  6> C 1.7694382501 0.3422648339 -3.2608647161
|  7> C 2.3924817775 0.3990683029 -1.8829816197
|  8> O 1.5919418352 -0.4279484167 -1.0088405553
|  9> P 1.9312824974 -0.5569681919 0.5293082624
| 10> S 2.3916043733 1.0699897134 1.5289679012
| 11> O 3.0954938086 -1.6427165337 0.4713440086
| 12> C 3.8916933898 -1.9754749031 1.6274358284
| 13> C 5.2605814538 -1.3320352185 1.5226765091
| 14> S 0.3049293649 -1.6710261125 1.2424251389
| 15> C -0.7058405365 -0.3538224396 2.0115135239
| 16> S -2.3402695167 -0.2000218406 1.2650913565
| 17> P -1.7567786846 0.6682428481 -0.5882937912
| 18> S -0.3964255747 2.0744020551 -0.4925093336
| 19> O -3.1260090907 1.1376440695 -1.2433706964
| 20> C -3.7048475814 2.4299424735 -0.9974426199
| 21> C -4.2057809828 2.575815502 0.4250134203
| 22> O -1.3105054416 -0.5175571988 -1.5245436398
| 23> C -1.9033586621 -1.8375981947 -1.6043300285
| 24> C -3.3868935035 -1.8025841066 -1.8975026427
| 25> H 2.3381166868 0.9736043145 -3.9356488088
| 26> H 1.7695199003 -0.6799424806 -3.6274839103
| 27> H 0.743549614 0.6998703618 -3.2116297107
| 28> H 2.3905034556 1.4192305752 -1.4834924613
| 29> H 3.4151960063 0.0134921453 -1.8826865075
| 30> H 3.3752062892 -1.6402621244 2.5311207772
| 31> H 3.9575422064 -3.0647454721 1.6240506268
| 32> H 5.865976271 -1.6390087547 2.3692158733
| 33> H 5.7480695302 -1.6363675778 0.6007210013
| 34> H 5.162944354 -0.2482617962 1.5305870662
| 35> H -0.1613995878 0.5914499893 1.9309083509
| 36> H -0.8708004357 -0.6247121547 3.0509825063
| 37> H -2.9539853142 3.1943997881 -1.2212983466
| 38> H -4.5206130212 2.489255911 -1.7191832297
| 39> H -3.3658997949 2.5991370215 1.1172031301
| 40> H -4.7590177576 3.5051523229 0.5150844884
| 41> H -4.853222492 1.7429471029 0.6863109295
| 42> H -1.3413369989 -2.3090967465 -2.4118937461
| 43> H -1.7013252343 -2.3618922098 -0.6656820253
| 44> H -3.58163013 -1.2134268382 -2.7896840928
| 45> H -3.7373538589 -2.8183654491 -2.0527061288
| 46> H -3.927301251 -1.3651483012 -1.0607949651
| 47> *
| 48>
| 49>                          ****END OF INPUT****

CARTESIAN COORDINATES (ANGSTROEM)
---------------------------------
  C      1.769438    0.342265   -3.260865
  C      2.392482    0.399068   -1.882982
  O      1.591942   -0.427948   -1.008841
  P      1.931282   -0.556968    0.529308
  S      2.391604    1.069990    1.528968
  O      3.095494   -1.642717    0.471344
  C      3.891693   -1.975475    1.627436
  C      5.260581   -1.332035    1.522677
  S      0.304929   -1.671026    1.242425
  C     -0.705841   -0.353822    2.011514
  S     -2.340270   -0.200022    1.265091
  P     -1.756779    0.668243   -0.588294
  S     -0.396426    2.074402   -0.492509
  O     -3.126009    1.137644   -1.243371
  C     -3.704848    2.429942   -0.997443
  C     -4.205781    2.575816    0.425013
  O     -1.310505   -0.517557   -1.524544
  C     -1.903359   -1.837598   -1.604330
  C     -3.386894   -1.802584   -1.897503
  H      2.338117    0.973604   -3.935649
  H      1.769520   -0.679942   -3.627484
  H      0.743550    0.699870   -3.211630
  H      2.390503    1.419231   -1.483492
  H      3.415196    0.013492   -1.882687
  H      3.375206   -1.640262    2.531121
  H      3.957542   -3.064745    1.624051
  H      5.865976   -1.639009    2.369216
  H      5.748070   -1.636368    0.600721
  H      5.162944   -0.248262    1.530587
  H     -0.161400    0.591450    1.930908
  H     -0.870800   -0.624712    3.050983
  H     -2.953985    3.194400   -1.221298
  H     -4.520613    2.489256   -1.719183
  H     -3.365900    2.599137    1.117203
  H     -4.759018    3.505152    0.515084
  H     -4.853222    1.742947    0.686311
  H     -1.341337   -2.309097   -2.411894
  H     -1.701325   -2.361892   -0.665682
  H     -3.581630   -1.213427   -2.789684
  H     -3.737354   -2.818365   -2.052706
  H     -3.927301   -1.365148   -1.060795

 Total Charge           Charge          ....    0
 Multiplicity           Mult            ....    1
 Number of Electrons    NEL             ....  202
 Basis Dimension        Dim             ....  539

ORBITAL ENERGIES
----------------

  NO   OCC          E(Eh)            E(eV)
   0   2.0000     -88.577594     -2410.3189
   1   2.0000     -88.575208     -2410.2540
   2   2.0000     -88.512635     -2408.5512
   3   2.0000     -88.512247     -2408.5407
   4   2.0000     -76.912040     -2092.8830
   5   2.0000     -76.907604     -2092.7623
   6   2.0000     -18.991207      -516.7770
   7   2.0000     -18.987778      -516.6837
   8   2.0000     -18.984922      -516.6060
   9   2.0000     -18.979008      -516.4451
  10   2.0000     -10.107057      -275.0270
  11   2.0000     -10.098579      -274.7963
  12   2.0000     -10.097344      -274.7627
  13   2.0000     -10.094407      -274.6828
  14   2.0000     -10.086512      -274.4680
  15   2.0000     -10.030811      -272.9522
  16   2.0000     -10.028112      -272.8788
  17   2.0000     -10.023305      -272.7480
  18   2.0000     -10.018922      -272.6287
  19   2.0000      -7.872130      -214.2115
  20   2.0000      -7.869827      -214.1489
  21   2.0000      -7.807504      -212.4530
  22   2.0000      -7.807027      -212.4400
  23   2.0000      -6.590270      -179.3304
  24   2.0000      -6.586059      -179.2158
  25   2.0000      -5.819031      -158.3439
  26   2.0000      -5.816620      -158.2783
  27   2.0000      -5.815749      -158.2546
  28   2.0000      -5.813585      -158.1957
  29   2.0000      -5.809410      -158.0821
  30   2.0000      -5.807053      -158.0180
  31   2.0000      -5.755257      -156.6085
  32   2.0000      -5.754705      -156.5935
  33   2.0000      -5.747765      -156.4046
  34   2.0000      -5.747452      -156.3961
  35   2.0000      -5.747402      -156.3948
  36   2.0000      -5.746858      -156.3800
  37   2.0000      -4.736023      -128.8737
  38   2.0000      -4.735361      -128.8557
  39   2.0000      -4.733643      -128.8090
  40   2.0000      -4.731509      -128.7509
  41   2.0000      -4.730891      -128.7341
  42   2.0000      -4.729932      -128.7080
  43   2.0000      -1.048073       -28.5195
  44   2.0000      -1.041744       -28.3473
  45   2.0000      -1.008711       -27.4484
  46   2.0000      -1.000530       -27.2258
  47   2.0000      -0.800213       -21.7749
  48   2.0000      -0.756051       -20.5732
  49   2.0000      -0.747052       -20.3283
  50   2.0000      -0.733547       -19.9608
  51   2.0000      -0.724118       -19.7043
  52   2.0000      -0.710196       -19.3254
  53   2.0000      -0.682938       -18.5837
  54   2.0000      -0.661090       -17.9892
  55   2.0000      -0.628230       -17.0950
  56   2.0000      -0.616755       -16.7828
  57   2.0000      -0.607953       -16.5432
  58   2.0000      -0.598079       -16.2746
  59   2.0000      -0.586953       -15.9718
  60   2.0000      -0.525898       -14.3104
  61   2.0000      -0.515495       -14.0273
  62   2.0000      -0.492682       -13.4066
  63   2.0000      -0.489126       -13.3098
  64   2.0000      -0.466602       -12.6969
  65   2.0000      -0.461591       -12.5605
  66   2.0000      -0.456574       -12.4240
  67   2.0000      -0.451931       -12.2977
  68   2.0000      -0.442992       -12.0544
  69   2.0000      -0.434964       -11.8360
  70   2.0000      -0.426550       -11.6070
  71   2.0000      -0.415016       -11.2932
  72   2.0000      -0.408255       -11.1092
  73   2.0000      -0.395519       -10.7626
  74   2.0000      -0.391996       -10.6668
  75   2.0000      -0.383957       -10.4480
  76   2.0000      -0.380375       -10.3505
  77   2.0000      -0.370676       -10.0866
  78   2.0000      -0.366553        -9.9744
  79   2.0000      -0.364749        -9.9253
  80   2.0000      -0.360824        -9.8185
  81   2.0000      -0.358093        -9.7442
  82   2.0000      -0.349334        -9.5059
  83   2.0000      -0.343962        -9.3597
  84   2.0000      -0.339284        -9.2324
  85   2.0000      -0.326170        -8.8755
  86   2.0000      -0.323284        -8.7970
  87   2.0000      -0.310721        -8.4552
  88   2.0000      -0.305734        -8.3194
  89   2.0000      -0.305175        -8.3042
  90   2.0000      -0.296819        -8.0769
  91   2.0000      -0.285982        -7.7820
  92   2.0000      -0.277276        -7.5451
  93   2.0000      -0.274073        -7.4579
  94   2.0000      -0.272317        -7.4101
  95   2.0000      -0.250654        -6.8206
  96   2.0000      -0.234131        -6.3710
  97   2.0000      -0.225229        -6.1288
  98   2.0000      -0.214575        -5.8389
  99   2.0000      -0.205446        -5.5905
 100   2.0000      -0.195246        -5.3129
 101   0.0000      -0.043168        -1.1747
 102   0.0000      -0.030340        -0.8256
 103   0.0000      -0.009603        -0.2613
 104   0.0000       0.015412         0.4194
 105   0.0000       0.019724         0.5367

MULLIKEN ATOMIC CHARGES
-----------------------
   0 C :   -0.466722
   1 C :   -0.123894
   2 O :   -0.249268
   3 P :    0.640016
   4 S :   -0.459081
   5 O :   -0.308047
   6 C :   -0.114518
   7 C :   -0.463181
   8 S :   -0.142559
   9 C :   -0.222477
  10 S :   -0.149878
  11 P :    0.639128
  12 S :   -0.424097
  13 O :   -0.277067
  14 C :   -0.166066
  15 C :   -0.456085
  16 O :   -0.251701
  17 C :   -0.144158
  18 C :   -0.438794
  19 H :    0.142471
  20 H :    0.145515
  21 H :    0.179553
  22 H :    0.175209
  23 H :    0.145775
  24 H :    0.155105
  25 H :    0.147893
  26 H :    0.144186
  27 H :    0.149871
  28 H :    0.179217
  29 H :    0.219775
  30 H :    0.196518
  31 H :    0.176830
  32 H :    0.147438
  33 H :    0.181622
  34 H :    0.148429
  35 H :    0.152610
  36 H :    0.154660
  37 H :    0.167429
  38 H :    0.160285
  39 H :    0.149038
  40 H :    0.159021
Sum of atomic charges:   -0.0000000

LOEWDIN ATOMIC CHARGES
----------------------
   0 C :   -0.389738
   1 C :    0.017876
   2 O :   -0.670670
   3 P :    0.363586
   4 S :   -0.126640
   5 O :   -0.667448
   6 C :    0.018038
   7 C :   -0.399473
   8 S :    0.164734
   9 C :   -0.412585
  10 S :    0.131456
  11 P :    0.383785
  12 S :   -0.069239
  13 O :   -0.671576
  14 C :    0.019874
  15 C :   -0.408477
  16 O :   -0.653924
  17 C :    0.019403
  18 C :   -0.400359
  19 H :    0.157950
  20 H :    0.156698
  21 H :    0.170180
  22 H :    0.183216
  23 H :    0.170030
  24 H :    0.177663
  25 H :    0.175492
  26 H :    0.158058
  27 H :    0.156992
  28 H :    0.167684
  29 H :    0.203251
  30 H :    0.181080
  31 H :    0.181536
  32 H :    0.178915
  33 H :    0.166568
  34 H :    0.159571
  35 H :    0.158473
  36 H :    0.183584
  37 H :    0.178179
  38 H :    0.163628
  39 H :    0.159441
  40 H :    0.163187

  Mayer bond orders larger than 0.100000
B(  0-C ,  1-C ) :   0.9356 B(  0-C , 19-H ) :   0.9667 B(  0-C , 20-H ) :   0.9731
B(  0-C , 21-H ) :   0.9685 B(  1-C ,  2-O ) :   0.7554 B(  1-C , 22-H ) :   0.9498
B(  1-C , 23-H ) :   0.9445 B(  2-O ,  3-P ) :   1.2074 B(  3-P ,  4-S ) :   1.7661
B(  3-P ,  5-O ) :   1.0495 B(  3-P ,  8-S ) :   1.1299 B(  5-O ,  6-C ) :   0.7702
B(  6-C ,  7-C ) :   0.9554 B(  6-C , 24-H ) :   0.9625 B(  6-C , 25-H ) :   0.9622
B(  7-C , 26-H ) :   0.9658 B(  7-C , 27-H ) :   0.9753 B(  7-C , 28-H ) :   0.9620
B(  8-S ,  9-C ) :   0.8894 B(  9-C , 10-S ) :   0.9092 B(  9-C , 29-H ) :   0.9046
B(  9-C , 30-H ) :   0.9129 B( 10-S , 11-P ) :   1.0098 B( 11-P , 12-S ) :   1.8274
B( 11-P , 13-O ) :   1.0451 B( 11-P , 16-O ) :   1.1409 B( 13-O , 14-C ) :   0.8150
B( 14-C , 15-C ) :   0.9107 B( 14-C , 31-H ) :   0.9666 B( 14-C , 32-H ) :   0.9616
B( 15-C , 33-H ) :   0.9631 B( 15-C , 34-H ) :   0.9581 B( 15-C , 35-H ) :   0.9697
B( 16-O , 17-C ) :   0.8039 B( 17-C , 18-C ) :   0.9152 B( 17-C , 36-H ) :   0.9595
B( 17-C , 37-H ) :   0.9601 B( 18-C , 38-H ) :   0.9707 B( 18-C , 39-H ) :   0.9586
B( 18-C , 40-H ) :   0.9623

Dispersion correction           -0.022310349
FINAL SINGLE POINT ENERGY     -2932.458887655747

DIPOLE MOMENT
-------------

Method             : SCF
Type of density    : Electron Density
Multiplicity       :   1
Irrep              :   0
Energy             : -2932.4830945753365086 Eh
Relativity type    :
Basis              : AO
                                X                 Y                 Z
Electronic contribution:      0.367899257       1.358074074       9.198716024
Nuclear contribution   :     -1.096025755      -2.383758843      -9.580001605
                        -----------------------------------------
Total Dipole Moment    :     -0.728126499      -1.025684769      -0.381285582
                        -----------------------------------------
Magnitude (a.u.)       :      1.314372907
Magnitude (Debye)      :      3.340870425

Rotational constants in cm-1:             0.013246             0.005174             0.005078
Rotational constants in MHz :           397.117575           155.099997           152.241495

                             ****ORCA TERMINATED NORMALLY****
TOTAL RUN TIME: 0 days 0 hours 1 minutes 26 seconds 271 msec
