                         Program Version 6.0.0  -   RELEASE  -
|  1> ! r2scan-3c def2/J RI DEFGRID2 scfconv6 printgap
|  2> %output
|  3>     printlevel normal
|  4> end
|  5> %cpcm
|  6>     smd true
|  7>     smdsolvent "water"
|  8> end
|  9> * xyz 0 1
| 10> C 1.7694382501 0.3422648339 -3.2608647161
| 11> C 2.3924817775 0.3990683029 -1.8829816197
| 12> O 1.5919418352 -0.4279484167 -1.0088405553
| 13> P 1.9312824974 -0.5569681919 0.5293082624
| 14> S 2.3916043733 1.0699897134 1.5289679012
| 15> O 3.0954938086 -1.6427165337 0.4713440086
| 16> C 3.8916933898 -1.9754749031 1.6274358284
| 17> C 5.2605814538 -1.3320352185 1.5226765091
| 18> S 0.3049293649 -1.6710261125 1.2424251389
| 19> C -0.7058405365 -0.3538224396 2.0115135239
| 20> S -2.3402695167 -0.2000218406 1.2650913565
| 21> P -1.7567786846 0.6682428481 -0.5882937912
| 22> S -0.3964255747 2.0744020551 -0.4925093336
| 23> O -3.1260090907 1.1376440695 -1.2433706964
| 24> C -3.7048475814 2.4299424735 -0.9974426199
| 25> C -4.2057809828 2.575815502 0.4250134203
| 26> O -1.3105054416 -0.5175571988 -1.5245436398
| 27> C -1.9033586621 -1.8375981947 -1.6043300285
| 28> C -3.3868935035 -1.8025841066 -1.8975026427
| 29> H 2.3381166868 0.9736043145 -3.9356488088
| 30> H 1.7695199003 -0.6799424806 -3.6274839103
| 31> H 0.743549614 0.6998703618 -3.2116297107
| 32> H 2.3905034556 1.4192305752 -1.4834924613
| 33> H 3.4151960063 0.0134921453 -1.8826865075
| 34> H 3.3752062892 -1.6402621244 2.5311207772
| 35> H 3.9575422064 -3.0647454721 1.6240506268
| 36> H 5.865976271 -1.6390087547 2.3692158733
| 37> H 5.7480695302 -1.6363675778 0.6007210013
| 38> H 5.162944354 -0.2482617962 1.5305870662
| 39> H -0.1613995878 0.5914499893 1.9309083509
| 40> H -0.8708004357 -0.6247121547 3.0509825063
| 41> H -2.9539853142 3.1943997881 -1.2212983466
| 42> H -4.5206130212 2.489255911 -1.7191832297
| 43> H -3.3658997949 2.5991370215 1.1172031301
| 44> H -4.7590177576 3.5051523229 0.5150844884
| 45> H -4.853222492 1.7429471029 0.6863109295
| 46> H -1.3413369989 -2.3090967465 -2.4118937461
| 47> H -1.7013252343 -2.3618922098 -0.6656820253
| 48> H -3.58163013 -1.2134268382 -2.7896840928
| 49> H -3.7373538589 -2.8183654491 -2.0527061288
| 50> H -3.927301251 -1.3651483012 -1.0607949651
| 51> *
| 52>
| 53>                          ****END OF INPUT****

CARTESIAN COORDINATES (ANGSTROEM)
---------------------------------
  C      1.769438    0.342265   -3.260865
  C      2.392482    0.399068   -1.882982
  O      1.591942   -0.427948   -1.008841
  P      1.931282   -0.556968    0.529308
  S      2.391604    1.069990    1.528968
  O      3.095494   -1.642717    0.471344
  C      3.891693   -1.975475    1.627436
  C      5.260581   -1.332035    1.522677
  S      0.304929   -1.671026    1.242425
  C     -0.705841   -0.353822    2.011514
  S     -2.340270   -0.200022    1.265091
  P     -1.756779    0.668243   -0.588294
  S     -0.396426    2.074402   -0.492509
  O     -3.126009    1.137644   -1.243371
  C     -3.704848    2.429942   -0.997443
  C     -4.205781    2.575816    0.425013
  O     -1.310505   -0.517557   -1.524544
  C     -1.903359   -1.837598   -1.604330
  C     -3.386894   -1.802584   -1.897503
  H      2.338117    0.973604   -3.935649
  H      1.769520   -0.679942   -3.627484
  H      0.743550    0.699870   -3.211630
  H      2.390503    1.419231   -1.483492
  H      3.415196    0.013492   -1.882687
  H      3.375206   -1.640262    2.531121
  H      3.957542   -3.064745    1.624051
  H      5.865976   -1.639009    2.369216
  H      5.748070   -1.636368    0.600721
  H      5.162944   -0.248262    1.530587
  H     -0.161400    0.591450    1.930908
  H     -0.870800   -0.624712    3.050983
  H     -2.953985    3.194400   -1.221298
  H     -4.520613    2.489256   -1.719183
  H     -3.365900    2.599137    1.117203
  H     -4.759018    3.505152    0.515084
  H     -4.853222    1.742947    0.686311
  H     -1.341337   -2.309097   -2.411894
  H     -1.701325   -2.361892   -0.665682
  H     -3.581630   -1.213427   -2.789684
  H     -3.737354   -2.818365   -2.052706
  H     -3.927301   -1.365148   -1.060795

 Total Charge           Charge          ....    0
 Multiplicity           Mult            ....    1
 Number of Electrons    NEL             ....  202
 Basis Dimension        Dim             ....  539

ORBITAL ENERGIES
----------------

  NO   OCC          E(Eh)            E(eV)
   0   2.0000     -88.580259     -2410.3914
   1   2.0000     -88.579958     -2410.3832
   2   2.0000     -88.523596     -2408.8495
   3   2.0000     -88.521775     -2408.7999
   4   2.0000     -76.917943     -2093.0436
   5   2.0000     -76.916902     -2093.0153
   6   2.0000     -18.993385      -516.8363
   7   2.0000     -18.992909      -516.8233
   8   2.0000     -18.991373      -516.7815
   9   2.0000     -18.988824      -516.7122
  10   2.0000     -10.106119      -275.0015
  11   2.0000     -10.091201      -274.5955
  12   2.0000     -10.088925      -274.5336
  13   2.0000     -10.088915      -274.5333
  14   2.0000     -10.087278      -274.4888
  15   2.0000     -10.019541      -272.6456
  16   2.0000     -10.018059      -272.6052
  17   2.0000     -10.017521      -272.5906
  18   2.0000     -10.016771      -272.5702
  19   2.0000      -7.874821      -214.2848
  20   2.0000      -7.874392      -214.2731
  21   2.0000      -7.818699      -212.7576
  22   2.0000      -7.816978      -212.7108
  23   2.0000      -6.596237      -179.4927
  24   2.0000      -6.595391      -179.4697
  25   2.0000      -5.821622      -158.4144
  26   2.0000      -5.821326      -158.4063
  27   2.0000      -5.818572      -158.3314
  28   2.0000      -5.818033      -158.3167
  29   2.0000      -5.812062      -158.1542
  30   2.0000      -5.811633      -158.1426
  31   2.0000      -5.766305      -156.9091
  32   2.0000      -5.764632      -156.8636
  33   2.0000      -5.759131      -156.7139
  34   2.0000      -5.758532      -156.6976
  35   2.0000      -5.757300      -156.6641
  36   2.0000      -5.756850      -156.6518
  37   2.0000      -4.741962      -129.0353
  38   2.0000      -4.741284      -129.0169
  39   2.0000      -4.740813      -129.0041
  40   2.0000      -4.740209      -128.9877
  41   2.0000      -4.739712      -128.9741
  42   2.0000      -4.739335      -128.9639
  43   2.0000      -1.051602       -28.6155
  44   2.0000      -1.049424       -28.5563
  45   2.0000      -1.011771       -27.5317
  46   2.0000      -1.007888       -27.4260
  47   2.0000      -0.802199       -21.8289
  48   2.0000      -0.756196       -20.5771
  49   2.0000      -0.744984       -20.2720
  50   2.0000      -0.725674       -19.7466
  51   2.0000      -0.721772       -19.6404
  52   2.0000      -0.711410       -19.3584
  53   2.0000      -0.687959       -18.7203
  54   2.0000      -0.668870       -18.2009
  55   2.0000      -0.629081       -17.1182
  56   2.0000      -0.617117       -16.7926
  57   2.0000      -0.603327       -16.4174
  58   2.0000      -0.596269       -16.2253
  59   2.0000      -0.587390       -15.9837
  60   2.0000      -0.527644       -14.3579
  61   2.0000      -0.513034       -13.9604
  62   2.0000      -0.495792       -13.4912
  63   2.0000      -0.486602       -13.2411
  64   2.0000      -0.468041       -12.7360
  65   2.0000      -0.459980       -12.5167
  66   2.0000      -0.456400       -12.4193
  67   2.0000      -0.451569       -12.2878
  68   2.0000      -0.440646       -11.9906
  69   2.0000      -0.434732       -11.8297
  70   2.0000      -0.423845       -11.5334
  71   2.0000      -0.416380       -11.3303
  72   2.0000      -0.407769       -11.0959
  73   2.0000      -0.394026       -10.7220
  74   2.0000      -0.391061       -10.6413
  75   2.0000      -0.385447       -10.4885
  76   2.0000      -0.379485       -10.3263
  77   2.0000      -0.369444       -10.0531
  78   2.0000      -0.363102        -9.8805
  79   2.0000      -0.359078        -9.7710
  80   2.0000      -0.355107        -9.6630
  81   2.0000      -0.352875        -9.6022
  82   2.0000      -0.345452        -9.4002
  83   2.0000      -0.343076        -9.3356
  84   2.0000      -0.340563        -9.2672
  85   2.0000      -0.327038        -8.8992
  86   2.0000      -0.321471        -8.7477
  87   2.0000      -0.312165        -8.4944
  88   2.0000      -0.304937        -8.2977
  89   2.0000      -0.302762        -8.2386
  90   2.0000      -0.300208        -8.1691
  91   2.0000      -0.287700        -7.8287
  92   2.0000      -0.280931        -7.6445
  93   2.0000      -0.277284        -7.5453
  94   2.0000      -0.275460        -7.4957
  95   2.0000      -0.254322        -6.9205
  96   2.0000      -0.241226        -6.5641
  97   2.0000      -0.235036        -6.3957
  98   2.0000      -0.225234        -6.1289
  99   2.0000      -0.214679        -5.8417
 100   2.0000      -0.206372        -5.6157
 101   0.0000      -0.047429        -1.2906
 102   0.0000      -0.036623        -0.9966
 103   0.0000      -0.013216        -0.3596
 104   0.0000       0.009556         0.2600
 105   0.0000       0.014365         0.3909

MULLIKEN ATOMIC CHARGES
-----------------------
   0 C :   -0.507693
   1 C :   -0.121726
   2 O :   -0.277673
   3 P :    0.670383
   4 S :   -0.513930
   5 O :   -0.333904
   6 C :   -0.113675
   7 C :   -0.498474
   8 S :   -0.142411
   9 C :   -0.222435
  10 S :   -0.143595
  11 P :    0.657510
  12 S :   -0.476323
  13 O :   -0.299317
  14 C :   -0.160131
  15 C :   -0.491903
  16 O :   -0.287772
  17 C :   -0.137577
  18 C :   -0.480139
  19 H :    0.169574
  20 H :    0.166490
  21 H :    0.170041
  22 H :    0.174046
  23 H :    0.170657
  24 H :    0.164445
  25 H :    0.174514
  26 H :    0.169577
  27 H :    0.165836
  28 H :    0.169884
  29 H :    0.213230
  30 H :    0.238319
  31 H :    0.177950
  32 H :    0.174680
  33 H :    0.174456
  34 H :    0.172582
  35 H :    0.169941
  36 H :    0.179688
  37 H :    0.174012
  38 H :    0.171038
  39 H :    0.174987
  40 H :    0.164835
Sum of atomic charges:    0.0000000

LOEWDIN ATOMIC CHARGES
----------------------
   0 C :   -0.393729
   1 C :    0.019911
   2 O :   -0.689552
   3 P :    0.367637
   4 S :   -0.161603
   5 O :   -0.680277
   6 C :    0.023063
   7 C :   -0.403421
   8 S :    0.168339
   9 C :   -0.406357
  10 S :    0.143204
  11 P :    0.385998
  12 S :   -0.105741
  13 O :   -0.680531
  14 C :    0.024629
  15 C :   -0.411181
  16 O :   -0.675974
  17 C :    0.024260
  18 C :   -0.401690
  19 H :    0.168189
  20 H :    0.162855
  21 H :    0.164337
  22 H :    0.182489
  23 H :    0.179653
  24 H :    0.180547
  25 H :    0.186865
  26 H :    0.167507
  27 H :    0.162012
  28 H :    0.162029
  29 H :    0.200408
  30 H :    0.197847
  31 H :    0.181361
  32 H :    0.190465
  33 H :    0.161615
  34 H :    0.168267
  35 H :    0.163466
  36 H :    0.193417
  37 H :    0.181111
  38 H :    0.165642
  39 H :    0.169672
  40 H :    0.163261

  Mayer bond orders larger than 0.100000
B(  0-C ,  1-C ) :   0.9261 B(  0-C , 19-H ) :   0.9608 B(  0-C , 20-H ) :   0.9694
B(  0-C , 21-H ) :   0.9708 B(  1-C ,  2-O ) :   0.7482 B(  1-C , 22-H ) :   0.9470
B(  1-C , 23-H ) :   0.9362 B(  2-O ,  3-P ) :   1.2056 B(  3-P ,  4-S ) :   1.7165
B(  3-P ,  5-O ) :   1.0557 B(  3-P ,  8-S ) :   1.1539 B(  5-O ,  6-C ) :   0.7558
B(  6-C ,  7-C ) :   0.9460 B(  6-C , 24-H ) :   0.9577 B(  6-C , 25-H ) :   0.9517
B(  7-C , 26-H ) :   0.9605 B(  7-C , 27-H ) :   0.9711 B(  7-C , 28-H ) :   0.9660
B(  8-S ,  9-C ) :   0.8833 B(  9-C , 10-S ) :   0.9039 B(  9-C , 29-H ) :   0.9090
B(  9-C , 30-H ) :   0.8965 B( 10-S , 11-P ) :   1.0304 B( 11-P , 12-S ) :   1.7995
B( 11-P , 13-O ) :   1.0532 B( 11-P , 16-O ) :   1.1406 B( 13-O , 14-C ) :   0.8043
B( 14-C , 15-C ) :   0.9005 B( 14-C , 31-H ) :   0.9649 B( 14-C , 32-H ) :   0.9514
B( 15-C , 33-H ) :   0.9648 B( 15-C , 34-H ) :   0.9529 B( 15-C , 35-H ) :   0.9664
B( 16-O , 17-C ) :   0.7924 B( 17-C , 18-C ) :   0.9092 B( 17-C , 36-H ) :   0.9477
B( 17-C , 37-H ) :   0.9527 B( 18-C , 38-H ) :   0.9701 B( 18-C , 39-H ) :   0.9517
B( 18-C , 40-H ) :   0.9599

Dispersion correction           -0.022310349
FINAL SINGLE POINT ENERGY     -2932.467607696097

DIPOLE MOMENT
-------------

Method             : SCF
Type of density    : Electron Density
Multiplicity       :   1
Irrep              :   0
Energy             : -2932.4918146156865078 Eh
Relativity type    :
Basis              : AO
                                X                 Y                 Z
Electronic contribution:      0.040177305       0.827303906       9.297301162
Nuclear contribution   :     -1.096025755      -2.383758843      -9.580001605
                        -----------------------------------------
Total Dipole Moment    :     -1.055848450      -1.556454937      -0.282700443
                        -----------------------------------------
Magnitude (a.u.)       :      1.901916787
Magnitude (Debye)      :      4.834288284

Rotational constants in cm-1:             0.013246             0.005174             0.005078
Rotational constants in MHz :           397.117575           155.099997           152.241495

                             ****ORCA TERMINATED NORMALLY****
TOTAL RUN TIME: 0 days 0 hours 1 minutes 58 seconds 320 msec
