                         Program Version 6.0.0  -   RELEASE  -
|  1> ! pbe def2-sv(p) def2/J RI DEFGRID1 loosescf d4 GCP(DFT/SV(P)) printgap
|  2> %output
|  3>     printlevel normal
|  4> end
|  5> * xyz 0 1
|  6> C 4.4311142462 -1.6093797353 -1.0432628877
|  7> C 4.6320006211 -0.1340492144 -0.7639674554
|  8> O 3.5785426367 0.4253860717 0.0408009347
|  9> P 2.0713563034 0.5467762888 -0.46781953
| 10> S 1.8782186546 1.0070025545 -2.3571266016
| 11> O 1.5196246656 1.641091241 0.5249167062
| 12> C 1.7270485583 1.5568669727 1.9578807972
| 13> C 0.8711171088 2.6231095141 2.6074610109
| 14> S 1.2296908505 -1.304307654 0.1548954353
| 15> C 0.040089583 -1.6028033592 -1.1935213782
| 16> S -1.628077169 -1.9096047354 -0.5899266682
| 17> P -1.9898336237 0.0242159818 0.2261517077
| 18> S -1.4023813057 1.5032780902 -0.9238982276
| 19> O -1.2778872321 0.1560938811 1.6275046113
| 20> C -1.6723459718 -0.4938861401 2.8640039611
| 21> C -1.4214525087 -1.9878284383 2.8450496005
| 22> O -3.5169147979 -0.0418266862 0.6527771274
| 23> C -4.5872244243 -0.5356729863 -0.1739213229
| 24> C -4.6814670228 0.1855612295 -1.5016122382
| 25> H 4.2577732134 -2.1519254143 -0.1174047005
| 26> H 3.5757525675 -1.747926951 -1.7027837358
| 27> H 5.3167873587 -2.0017056761 -1.5324570439
| 28> H 4.6833285388 0.4297538038 -1.7003811153
| 29> H 5.5299966001 0.0458032823 -0.17111077
| 30> H 1.4405538967 0.5532116121 2.2865278583
| 31> H 2.7895874055 1.7132040858 2.1543520747
| 32> H 0.998034127 2.5782259449 3.6842973308
| 33> H 1.1642311376 3.6053311698 2.2475615784
| 34> H -0.1738810493 2.4619001698 2.3542009076
| 35> H 0.339803897 -2.5038982348 -1.7225021407
| 36> H 0.0468620984 -0.7331778499 -1.8570903601
| 37> H -1.0525600045 0.0044867542 3.6114593674
| 38> H -2.7246783899 -0.2711204464 3.046286996
| 39> H -0.4018330497 -2.1977161514 2.5287894473
| 40> H -1.5714026729 -2.3793471473 3.8463775085
| 41> H -2.1077448082 -2.4864520621 2.1649493521
| 42> H -4.4336473855 -1.607275051 -0.3268139579
| 43> H -5.4780127204 -0.3691149377 0.4343886007
| 44> H -5.5451435884 -0.1766887505 -2.0496668261
| 45> H -4.7755422094 1.2578322532 -1.34628683
| 46> H -3.7843035051 0.004794161 -2.092306852
| 47> *
| 48>
| 49>                          ****END OF INPUT****

CARTESIAN COORDINATES (ANGSTROEM)
---------------------------------
  C      4.431114   -1.609380   -1.043263
  C      4.632001   -0.134049   -0.763967
  O      3.578543    0.425386    0.040801
  P      2.071356    0.546776   -0.467820
  S      1.878219    1.007003   -2.357127
  O      1.519625    1.641091    0.524917
  C      1.727049    1.556867    1.957881
  C      0.871117    2.623110    2.607461
  S      1.229691   -1.304308    0.154895
  C      0.040090   -1.602803   -1.193521
  S     -1.628077   -1.909605   -0.589927
  P     -1.989834    0.024216    0.226152
  S     -1.402381    1.503278   -0.923898
  O     -1.277887    0.156094    1.627505
  C     -1.672346   -0.493886    2.864004
  C     -1.421453   -1.987828    2.845050
  O     -3.516915   -0.041827    0.652777
  C     -4.587224   -0.535673   -0.173921
  C     -4.681467    0.185561   -1.501612
  H      4.257773   -2.151925   -0.117405
  H      3.575753   -1.747927   -1.702784
  H      5.316787   -2.001706   -1.532457
  H      4.683329    0.429754   -1.700381
  H      5.529997    0.045803   -0.171111
  H      1.440554    0.553212    2.286528
  H      2.789587    1.713204    2.154352
  H      0.998034    2.578226    3.684297
  H      1.164231    3.605331    2.247562
  H     -0.173881    2.461900    2.354201
  H      0.339804   -2.503898   -1.722502
  H      0.046862   -0.733178   -1.857090
  H     -1.052560    0.004487    3.611459
  H     -2.724678   -0.271120    3.046287
  H     -0.401833   -2.197716    2.528789
  H     -1.571403   -2.379347    3.846378
  H     -2.107745   -2.486452    2.164949
  H     -4.433647   -1.607275   -0.326814
  H     -5.478013   -0.369115    0.434389
  H     -5.545144   -0.176689   -2.049667
  H     -4.775542    1.257832   -1.346287
  H     -3.784304    0.004794   -2.092307

 Total Charge           Charge          ....    0
 Multiplicity           Mult            ....    1
 Number of Electrons    NEL             ....  202
 Basis Dimension        Dim             ....  334

ORBITAL ENERGIES
----------------

  NO   OCC          E(Eh)            E(eV)
   0   2.0000     -88.044814     -2395.8212
   1   2.0000     -88.038533     -2395.6503
   2   2.0000     -87.979679     -2394.0488
   3   2.0000     -87.974809     -2393.9163
   4   2.0000     -76.424432     -2079.6145
   5   2.0000     -76.419329     -2079.4756
   6   2.0000     -18.796864      -511.4887
   7   2.0000     -18.789971      -511.3011
   8   2.0000     -18.785953      -511.1918
   9   2.0000     -18.780393      -511.0405
  10   2.0000      -9.961721      -271.0722
  11   2.0000      -9.957895      -270.9681
  12   2.0000      -9.953374      -270.8451
  13   2.0000      -9.948404      -270.7098
  14   2.0000      -9.946954      -270.6704
  15   2.0000      -9.888113      -269.0692
  16   2.0000      -9.882966      -268.9292
  17   2.0000      -9.880706      -268.8677
  18   2.0000      -9.877637      -268.7842
  19   2.0000      -7.689741      -209.2485
  20   2.0000      -7.683124      -209.0684
  21   2.0000      -7.624858      -207.4829
  22   2.0000      -7.619692      -207.3424
  23   2.0000      -6.421358      -174.7340
  24   2.0000      -6.416709      -174.6075
  25   2.0000      -5.717529      -155.5819
  26   2.0000      -5.714106      -155.4887
  27   2.0000      -5.710978      -155.4036
  28   2.0000      -5.707614      -155.3121
  29   2.0000      -5.706978      -155.2948
  30   2.0000      -5.700144      -155.1088
  31   2.0000      -5.653917      -153.8509
  32   2.0000      -5.648855      -153.7132
  33   2.0000      -5.645360      -153.6181
  34   2.0000      -5.644959      -153.6071
  35   2.0000      -5.640298      -153.4803
  36   2.0000      -5.639667      -153.4631
  37   2.0000      -4.644416      -126.3810
  38   2.0000      -4.643342      -126.3518
  39   2.0000      -4.641195      -126.2933
  40   2.0000      -4.639483      -126.2467
  41   2.0000      -4.638313      -126.2149
  42   2.0000      -4.637187      -126.1843
  43   2.0000      -0.989803       -26.9339
  44   2.0000      -0.980078       -26.6693
  45   2.0000      -0.945202       -25.7203
  46   2.0000      -0.934850       -25.4386
  47   2.0000      -0.761583       -20.7237
  48   2.0000      -0.718720       -19.5574
  49   2.0000      -0.709163       -19.2973
  50   2.0000      -0.692723       -18.8500
  51   2.0000      -0.683351       -18.5949
  52   2.0000      -0.676285       -18.4026
  53   2.0000      -0.647420       -17.6172
  54   2.0000      -0.630604       -17.1596
  55   2.0000      -0.591347       -16.0914
  56   2.0000      -0.586098       -15.9485
  57   2.0000      -0.582462       -15.8496
  58   2.0000      -0.563115       -15.3231
  59   2.0000      -0.561428       -15.2772
  60   2.0000      -0.502534       -13.6746
  61   2.0000      -0.497435       -13.5359
  62   2.0000      -0.472933       -12.8692
  63   2.0000      -0.467343       -12.7171
  64   2.0000      -0.453120       -12.3300
  65   2.0000      -0.448071       -12.1926
  66   2.0000      -0.441240       -12.0068
  67   2.0000      -0.433320       -11.7912
  68   2.0000      -0.431343       -11.7374
  69   2.0000      -0.419076       -11.4036
  70   2.0000      -0.411324       -11.1927
  71   2.0000      -0.406235       -11.0542
  72   2.0000      -0.387427       -10.5424
  73   2.0000      -0.385181       -10.4813
  74   2.0000      -0.383812       -10.4441
  75   2.0000      -0.358839        -9.7645
  76   2.0000      -0.356071        -9.6892
  77   2.0000      -0.354379        -9.6431
  78   2.0000      -0.350080        -9.5262
  79   2.0000      -0.348147        -9.4736
  80   2.0000      -0.346849        -9.4382
  81   2.0000      -0.342509        -9.3201
  82   2.0000      -0.341052        -9.2805
  83   2.0000      -0.335174        -9.1206
  84   2.0000      -0.330294        -8.9877
  85   2.0000      -0.321916        -8.7598
  86   2.0000      -0.308552        -8.3961
  87   2.0000      -0.298801        -8.1308
  88   2.0000      -0.294493        -8.0136
  89   2.0000      -0.293469        -7.9857
  90   2.0000      -0.289288        -7.8719
  91   2.0000      -0.278353        -7.5744
  92   2.0000      -0.262492        -7.1428
  93   2.0000      -0.259720        -7.0673
  94   2.0000      -0.254449        -6.9239
  95   2.0000      -0.233313        -6.3488
  96   2.0000      -0.216922        -5.9027
  97   2.0000      -0.209874        -5.7110
  98   2.0000      -0.196496        -5.3469
  99   2.0000      -0.185936        -5.0596
 100   2.0000      -0.180949        -4.9239
 101   0.0000      -0.042600        -1.1592
 102   0.0000      -0.031099        -0.8462
 103   0.0000      -0.009440        -0.2569
 104   0.0000       0.010553         0.2872
 105   0.0000       0.020234         0.5506

MULLIKEN ATOMIC CHARGES
-----------------------
   0 C :   -0.310446
   1 C :    0.002765
   2 O :   -0.391596
   3 P :    0.616490
   4 S :   -0.290195
   5 O :   -0.347797
   6 C :   -0.014629
   7 C :   -0.288005
   8 S :   -0.125059
   9 C :   -0.341323
  10 S :   -0.127656
  11 P :    0.595406
  12 S :   -0.275671
  13 O :   -0.353633
  14 C :   -0.002146
  15 C :   -0.318586
  16 O :   -0.383111
  17 C :   -0.015597
  18 C :   -0.307120
  19 H :    0.115156
  20 H :    0.119488
  21 H :    0.110518
  22 H :    0.110860
  23 H :    0.101143
  24 H :    0.099697
  25 H :    0.104905
  26 H :    0.099568
  27 H :    0.119134
  28 H :    0.136872
  29 H :    0.179456
  30 H :    0.210623
  31 H :    0.105744
  32 H :    0.111088
  33 H :    0.130487
  34 H :    0.110673
  35 H :    0.121171
  36 H :    0.114238
  37 H :    0.109022
  38 H :    0.110828
  39 H :    0.127361
  40 H :    0.129879
Sum of atomic charges:   -0.0000000

LOEWDIN ATOMIC CHARGES
----------------------
   0 C :   -0.370887
   1 C :   -0.116777
   2 O :   -0.253337
   3 P :    0.574265
   4 S :   -0.292909
   5 O :   -0.228257
   6 C :   -0.114335
   7 C :   -0.353851
   8 S :    0.067137
   9 C :   -0.478854
  10 S :    0.066648
  11 P :    0.558103
  12 S :   -0.284615
  13 O :   -0.232310
  14 C :   -0.110218
  15 C :   -0.371349
  16 O :   -0.246351
  17 C :   -0.115048
  18 C :   -0.368820
  19 H :    0.121940
  20 H :    0.119061
  21 H :    0.129383
  22 H :    0.111757
  23 H :    0.116827
  24 H :    0.100979
  25 H :    0.111148
  26 H :    0.124484
  27 H :    0.129616
  28 H :    0.131077
  29 H :    0.135226
  30 H :    0.125927
  31 H :    0.117415
  32 H :    0.114196
  33 H :    0.123247
  34 H :    0.129660
  35 H :    0.116840
  36 H :    0.107354
  37 H :    0.120947
  38 H :    0.129979
  39 H :    0.131465
  40 H :    0.123235

  Mayer bond orders larger than 0.100000
B(  0-C ,  1-C ) :   1.1666 B(  0-C , 19-H ) :   0.9427 B(  0-C , 20-H ) :   0.9368
B(  0-C , 21-H ) :   0.9372 B(  1-C ,  2-O ) :   0.9147 B(  1-C , 22-H ) :   0.9179
B(  1-C , 23-H ) :   0.9347 B(  2-O ,  3-P ) :   1.0691 B(  3-P ,  4-S ) :   1.6333
B(  3-P ,  5-O ) :   1.1412 B(  3-P ,  8-S ) :   0.9449 B(  4-S ,  8-S ) :   0.1123
B(  5-O ,  6-C ) :   0.8978 B(  6-C ,  7-C ) :   1.1677 B(  6-C , 24-H ) :   0.9123
B(  6-C , 25-H ) :   0.9269 B(  7-C , 26-H ) :   0.9399 B(  7-C , 27-H ) :   0.9486
B(  7-C , 28-H ) :   0.9381 B(  8-S ,  9-C ) :   0.9980 B(  9-C , 10-S ) :   1.0071
B(  9-C , 29-H ) :   0.9102 B(  9-C , 30-H ) :   0.8427 B( 10-S , 11-P ) :   0.9238
B( 10-S , 12-S ) :   0.1089 B( 11-P , 12-S ) :   1.6813 B( 11-P , 13-O ) :   1.1144
B( 11-P , 16-O ) :   1.0757 B( 13-O , 14-C ) :   0.8982 B( 14-C , 15-C ) :   1.1728
B( 14-C , 31-H ) :   0.9303 B( 14-C , 32-H ) :   0.9266 B( 15-C , 33-H ) :   0.9391
B( 15-C , 34-H ) :   0.9358 B( 15-C , 35-H ) :   0.9386 B( 16-O , 17-C ) :   0.9129
B( 17-C , 18-C ) :   1.1666 B( 17-C , 36-H ) :   0.9256 B( 17-C , 37-H ) :   0.9335
B( 18-C , 38-H ) :   0.9347 B( 18-C , 39-H ) :   0.9433 B( 18-C , 40-H ) :   0.9307

Dispersion correction           -0.068714899
FINAL SINGLE POINT ENERGY     -2929.511742008388

DIPOLE MOMENT
-------------

Method             : SCF
Type of density    : Electron Density
Multiplicity       :   1
Irrep              :   0
Energy             : -2929.6298022362461779 Eh
Relativity type    :
Basis              : AO
                                X                 Y                 Z
Electronic contribution:      1.504351537       4.675083452     -11.707078097
Nuclear contribution   :     -1.858781719      -6.060098664      13.256494193
                        -----------------------------------------
Total Dipole Moment    :     -0.354430182      -1.385015212       1.549416096
                        -----------------------------------------
Magnitude (a.u.)       :      2.108216813
Magnitude (Debye)      :      5.358661280

Rotational constants in cm-1:             0.012370             0.005525             0.005265
Rotational constants in MHz :           370.857705           165.621128           157.840453

                             ****ORCA TERMINATED NORMALLY****
TOTAL RUN TIME: 0 days 0 hours 0 minutes 21 seconds 582 msec
