                         Program Version 6.0.0  -   RELEASE  -
|  1> ! pbe def2-sv(p) def2/J RI DEFGRID1 loosescf d4 GCP(DFT/SV(P)) printgap
|  2> %output
|  3>     printlevel normal
|  4> end
|  5> * xyz 0 1
|  6> C 2.7732677984 1.3794497716 -2.6343208551
|  7> C 2.5717179715 -0.081275018 -2.2874746889
|  8> O 2.9372029525 -0.3591765122 -0.9227894095
|  9> P 2.0459698282 -0.099374473 0.3647748033
| 10> S 1.5759999429 1.7431164911 0.8203792494
| 11> O 2.9596035345 -0.6834316347 1.5074319741
| 12> C 3.6252662886 -1.9724574171 1.4607620094
| 13> C 2.9311096903 -2.9668974173 2.3708762391
| 14> S 0.4918875922 -1.5416566086 0.0958230948
| 15> C -0.4466448519 -1.2466995693 1.6129085142
| 16> S -1.3799303024 0.321431319 1.6782676481
| 17> P -2.0867298372 0.4699512314 -0.3153407244
| 18> S -0.9082365878 0.8718764886 -1.8382704019
| 19> O -3.2770411189 1.506400166 -0.1369480412
| 20> C -3.1948858283 2.7657105561 0.5524174884
| 21> C -2.0253223081 3.615464143 0.0985013566
| 22> O -2.9109512919 -0.8690737554 -0.475412206
| 23> C -2.9066121984 -1.7338615908 -1.6303493717
| 24> C -2.5027790576 -3.1356962076 -1.218542032
| 25> H 2.5901780433 1.5214095143 -3.6942928471
| 26> H 2.0736365374 1.9977473451 -2.0756820285
| 27> H 3.7868176945 1.6886527881 -2.3934979039
| 28> H 3.2350766116 -0.7235652818 -2.8698641392
| 29> H 1.5319805891 -0.3738858219 -2.454206522
| 30> H 3.6525102649 -2.3248653383 0.4285426536
| 31> H 4.639988899 -1.764468895 1.8035326439
| 32> H 2.8256414324 -2.5480230541 3.3680533389
| 33> H 1.9484360843 -3.2243344772 1.9838346456
| 34> H 3.5332478153 -3.8682447134 2.427366769
| 35> H 0.2286644174 -1.214974602 2.4667592375
| 36> H -1.1498505355 -2.0726835443 1.6960640552
| 37> H -4.1478244373 3.2461888853 0.3228325792
| 38> H -3.130781824 2.5639793584 1.6257637601
| 39> H -2.0548362085 3.757763475 -0.9796222449
| 40> H -2.0687731683 4.5821634368 0.5897430773
| 41> H -1.0799952774 3.1362595496 0.3581761559
| 42> H -3.925657087 -1.7125364419 -2.0213462893
| 43> H -2.2211984787 -1.3224065295 -2.3794453259
| 44> H -2.5937802559 -3.7932744087 -2.0767574541
| 45> H -1.4716376471 -3.1461561564 -0.8713309523
| 46> H -3.1529689944 -3.4908163496 -0.4241522847
| 47> *
| 48>
| 49>                          ****END OF INPUT****

CARTESIAN COORDINATES (ANGSTROEM)
---------------------------------
  C      2.773268    1.379450   -2.634321
  C      2.571718   -0.081275   -2.287475
  O      2.937203   -0.359177   -0.922789
  P      2.045970   -0.099374    0.364775
  S      1.576000    1.743116    0.820379
  O      2.959604   -0.683432    1.507432
  C      3.625266   -1.972457    1.460762
  C      2.931110   -2.966897    2.370876
  S      0.491888   -1.541657    0.095823
  C     -0.446645   -1.246700    1.612909
  S     -1.379930    0.321431    1.678268
  P     -2.086730    0.469951   -0.315341
  S     -0.908237    0.871876   -1.838270
  O     -3.277041    1.506400   -0.136948
  C     -3.194886    2.765711    0.552417
  C     -2.025322    3.615464    0.098501
  O     -2.910951   -0.869074   -0.475412
  C     -2.906612   -1.733862   -1.630349
  C     -2.502779   -3.135696   -1.218542
  H      2.590178    1.521410   -3.694293
  H      2.073637    1.997747   -2.075682
  H      3.786818    1.688653   -2.393498
  H      3.235077   -0.723565   -2.869864
  H      1.531981   -0.373886   -2.454207
  H      3.652510   -2.324865    0.428543
  H      4.639989   -1.764469    1.803533
  H      2.825641   -2.548023    3.368053
  H      1.948436   -3.224334    1.983835
  H      3.533248   -3.868245    2.427367
  H      0.228664   -1.214975    2.466759
  H     -1.149851   -2.072684    1.696064
  H     -4.147824    3.246189    0.322833
  H     -3.130782    2.563979    1.625764
  H     -2.054836    3.757763   -0.979622
  H     -2.068773    4.582163    0.589743
  H     -1.079995    3.136260    0.358176
  H     -3.925657   -1.712536   -2.021346
  H     -2.221198   -1.322407   -2.379445
  H     -2.593780   -3.793274   -2.076757
  H     -1.471638   -3.146156   -0.871331
  H     -3.152969   -3.490816   -0.424152

 Total Charge           Charge          ....    0
 Multiplicity           Mult            ....    1
 Number of Electrons    NEL             ....  202
 Basis Dimension        Dim             ....  334

ORBITAL ENERGIES
----------------

  NO   OCC          E(Eh)            E(eV)
   0   2.0000     -88.045475     -2395.8392
   1   2.0000     -88.034819     -2395.5492
   2   2.0000     -87.977305     -2393.9842
   3   2.0000     -87.976552     -2393.9637
   4   2.0000     -76.424748     -2079.6231
   5   2.0000     -76.423400     -2079.5864
   6   2.0000     -18.794655      -511.4286
   7   2.0000     -18.791259      -511.3362
   8   2.0000     -18.790169      -511.3065
   9   2.0000     -18.784605      -511.1551
  10   2.0000      -9.963586      -271.1230
  11   2.0000      -9.956809      -270.9386
  12   2.0000      -9.950414      -270.7645
  13   2.0000      -9.949795      -270.7477
  14   2.0000      -9.948399      -270.7097
  15   2.0000      -9.891739      -269.1679
  16   2.0000      -9.887617      -269.0557
  17   2.0000      -9.873796      -268.6796
  18   2.0000      -9.873187      -268.6631
  19   2.0000      -7.689604      -209.2448
  20   2.0000      -7.680203      -208.9890
  21   2.0000      -7.622178      -207.4100
  22   2.0000      -7.621481      -207.3910
  23   2.0000      -6.421687      -174.7430
  24   2.0000      -6.420178      -174.7019
  25   2.0000      -5.717391      -155.5781
  26   2.0000      -5.714145      -155.4898
  27   2.0000      -5.708371      -155.3327
  28   2.0000      -5.706693      -155.2870
  29   2.0000      -5.704724      -155.2334
  30   2.0000      -5.696773      -155.0171
  31   2.0000      -5.651060      -153.7732
  32   2.0000      -5.650696      -153.7632
  33   2.0000      -5.642817      -153.5488
  34   2.0000      -5.642323      -153.5354
  35   2.0000      -5.641974      -153.5259
  36   2.0000      -5.641458      -153.5119
  37   2.0000      -4.644662      -126.3877
  38   2.0000      -4.643689      -126.3612
  39   2.0000      -4.642812      -126.3373
  40   2.0000      -4.642337      -126.3244
  41   2.0000      -4.641643      -126.3055
  42   2.0000      -4.640331      -126.2698
  43   2.0000      -0.987408       -26.8687
  44   2.0000      -0.981317       -26.7030
  45   2.0000      -0.943436       -25.6722
  46   2.0000      -0.940566       -25.5941
  47   2.0000      -0.762550       -20.7501
  48   2.0000      -0.719428       -19.5766
  49   2.0000      -0.711698       -19.3663
  50   2.0000      -0.687586       -18.7102
  51   2.0000      -0.681698       -18.5500
  52   2.0000      -0.669992       -18.2314
  53   2.0000      -0.649457       -17.6726
  54   2.0000      -0.635904       -17.3038
  55   2.0000      -0.591468       -16.0947
  56   2.0000      -0.581278       -15.8174
  57   2.0000      -0.577394       -15.7117
  58   2.0000      -0.571679       -15.5562
  59   2.0000      -0.565130       -15.3780
  60   2.0000      -0.505571       -13.7573
  61   2.0000      -0.496517       -13.5109
  62   2.0000      -0.476620       -12.9695
  63   2.0000      -0.465803       -12.6751
  64   2.0000      -0.459296       -12.4981
  65   2.0000      -0.443766       -12.0755
  66   2.0000      -0.436250       -11.8710
  67   2.0000      -0.431362       -11.7380
  68   2.0000      -0.428635       -11.6638
  69   2.0000      -0.414188       -11.2706
  70   2.0000      -0.405565       -11.0360
  71   2.0000      -0.398535       -10.8447
  72   2.0000      -0.395722       -10.7681
  73   2.0000      -0.385582       -10.4922
  74   2.0000      -0.379507       -10.3269
  75   2.0000      -0.376547       -10.2464
  76   2.0000      -0.361104        -9.8261
  77   2.0000      -0.360431        -9.8078
  78   2.0000      -0.355088        -9.6624
  79   2.0000      -0.349375        -9.5070
  80   2.0000      -0.341378        -9.2894
  81   2.0000      -0.338653        -9.2152
  82   2.0000      -0.336372        -9.1532
  83   2.0000      -0.332107        -9.0371
  84   2.0000      -0.328143        -8.9292
  85   2.0000      -0.321047        -8.7361
  86   2.0000      -0.311724        -8.4824
  87   2.0000      -0.298479        -8.1220
  88   2.0000      -0.292411        -7.9569
  89   2.0000      -0.289433        -7.8759
  90   2.0000      -0.282304        -7.6819
  91   2.0000      -0.276340        -7.5196
  92   2.0000      -0.270503        -7.3608
  93   2.0000      -0.260456        -7.0874
  94   2.0000      -0.251247        -6.8368
  95   2.0000      -0.248088        -6.7508
  96   2.0000      -0.220556        -6.0016
  97   2.0000      -0.204628        -5.5682
  98   2.0000      -0.185259        -5.0412
  99   2.0000      -0.181941        -4.9509
 100   2.0000      -0.178747        -4.8639
 101   0.0000      -0.052417        -1.4263
 102   0.0000      -0.030968        -0.8427
 103   0.0000      -0.016234        -0.4417
 104   0.0000      -0.002103        -0.0572
 105   0.0000       0.015834         0.4309

MULLIKEN ATOMIC CHARGES
-----------------------
   0 C :   -0.300439
   1 C :   -0.018433
   2 O :   -0.383790
   3 P :    0.617714
   4 S :   -0.280340
   5 O :   -0.363678
   6 C :   -0.006770
   7 C :   -0.298829
   8 S :   -0.137297
   9 C :   -0.316296
  10 S :   -0.105126
  11 P :    0.611433
  12 S :   -0.323166
  13 O :   -0.366634
  14 C :   -0.013115
  15 C :   -0.327744
  16 O :   -0.368762
  17 C :   -0.000342
  18 C :   -0.307352
  19 H :    0.105333
  20 H :    0.143865
  21 H :    0.111149
  22 H :    0.099241
  23 H :    0.122218
  24 H :    0.105504
  25 H :    0.111376
  26 H :    0.120561
  27 H :    0.118350
  28 H :    0.111435
  29 H :    0.184995
  30 H :    0.185618
  31 H :    0.107329
  32 H :    0.114082
  33 H :    0.124190
  34 H :    0.107946
  35 H :    0.152515
  36 H :    0.103930
  37 H :    0.108712
  38 H :    0.110363
  39 H :    0.125721
  40 H :    0.114535
Sum of atomic charges:    0.0000000

LOEWDIN ATOMIC CHARGES
----------------------
   0 C :   -0.364036
   1 C :   -0.115961
   2 O :   -0.245322
   3 P :    0.560176
   4 S :   -0.286770
   5 O :   -0.240975
   6 C :   -0.112490
   7 C :   -0.362505
   8 S :    0.075834
   9 C :   -0.466972
  10 S :    0.076639
  11 P :    0.567701
  12 S :   -0.308688
  13 O :   -0.245418
  14 C :   -0.115465
  15 C :   -0.373490
  16 O :   -0.244030
  17 C :   -0.117978
  18 C :   -0.360035
  19 H :    0.128618
  20 H :    0.127509
  21 H :    0.124856
  22 H :    0.115269
  23 H :    0.106090
  24 H :    0.110328
  25 H :    0.122410
  26 H :    0.127563
  27 H :    0.117573
  28 H :    0.130851
  29 H :    0.133386
  30 H :    0.134346
  31 H :    0.120613
  32 H :    0.107952
  33 H :    0.128424
  34 H :    0.128810
  35 H :    0.124247
  36 H :    0.116890
  37 H :    0.105026
  38 H :    0.130893
  39 H :    0.113723
  40 H :    0.124408

  Mayer bond orders larger than 0.100000
B(  0-C ,  1-C ) :   1.1743 B(  0-C , 19-H ) :   0.9379 B(  0-C , 20-H ) :   0.9295
B(  0-C , 21-H ) :   0.9469 B(  1-C ,  2-O ) :   0.9000 B(  1-C , 22-H ) :   0.9347
B(  1-C , 23-H ) :   0.9104 B(  2-O ,  3-P ) :   1.0960 B(  3-P ,  4-S ) :   1.7043
B(  3-P ,  5-O ) :   1.1186 B(  3-P ,  8-S ) :   0.9095 B(  4-S ,  8-S ) :   0.1142
B(  5-O ,  6-C ) :   0.8971 B(  6-C ,  7-C ) :   1.1657 B(  6-C , 24-H ) :   0.9174
B(  6-C , 25-H ) :   0.9351 B(  7-C , 26-H ) :   0.9449 B(  7-C , 27-H ) :   0.9343
B(  7-C , 28-H ) :   0.9397 B(  8-S ,  9-C ) :   1.0110 B(  9-C , 10-S ) :   0.9935
B(  9-C , 29-H ) :   0.9016 B(  9-C , 30-H ) :   0.9083 B( 10-S , 11-P ) :   0.9629
B( 10-S , 12-S ) :   0.1176 B( 11-P , 12-S ) :   1.6016 B( 11-P , 13-O ) :   1.1233
B( 11-P , 16-O ) :   1.1188 B( 13-O , 14-C ) :   0.9184 B( 14-C , 15-C ) :   1.1643
B( 14-C , 31-H ) :   0.9338 B( 14-C , 32-H ) :   0.9244 B( 15-C , 33-H ) :   0.9409
B( 15-C , 34-H ) :   0.9342 B( 15-C , 35-H ) :   0.9256 B( 16-O , 17-C ) :   0.9050
B( 17-C , 18-C ) :   1.1619 B( 17-C , 36-H ) :   0.9335 B( 17-C , 37-H ) :   0.8956
B( 18-C , 38-H ) :   0.9398 B( 18-C , 39-H ) :   0.9355 B( 18-C , 40-H ) :   0.9481

Dispersion correction           -0.068614817
FINAL SINGLE POINT ENERGY     -2929.504992117838

DIPOLE MOMENT
-------------

Method             : SCF
Type of density    : Electron Density
Multiplicity       :   1
Irrep              :   0
Energy             : -2929.6201338660725924 Eh
Relativity type    :
Basis              : AO
                                X                 Y                 Z
Electronic contribution:     -2.882144923       7.382121523       4.939013836
Nuclear contribution   :      2.898851314      -8.901785014      -4.916376503
                        -----------------------------------------
Total Dipole Moment    :      0.016706391      -1.519663491       0.022637333
                        -----------------------------------------
Magnitude (a.u.)       :      1.519923905
Magnitude (Debye)      :      3.863339543

Rotational constants in cm-1:             0.010566             0.006093             0.005528
Rotational constants in MHz :           316.752034           182.651495           165.737485

                             ****ORCA TERMINATED NORMALLY****
TOTAL RUN TIME: 0 days 0 hours 0 minutes 23 seconds 167 msec
