                         Program Version 6.0.0  -   RELEASE  -
|  1> ! pbe def2-sv(p) def2/J RI DEFGRID1 loosescf d4 GCP(DFT/SV(P)) printgap
|  2> %output
|  3>     printlevel normal
|  4> end
|  5> * xyz 0 1
|  6> C 4.3738007778 -0.8274342452 -1.9367863251
|  7> C 4.5104875693 -0.3910915009 -0.4921234042
|  8> O 3.3496296393 -0.7143048851 0.2905342971
|  9> P 1.9281555783 -0.0210958949 0.0659341737
| 10> S 2.0812645109 1.8970149869 -0.340381733
| 11> O 1.217983367 -0.4296463769 1.4178988018
| 12> C 1.4464595287 0.3085643488 2.6364461604
| 13> C 0.3387935873 -0.0384106183 3.6090153569
| 14> S 0.9685033801 -1.2534294724 -1.3375820212
| 15> C 0.046673765 -0.0002188327 -2.2787093595
| 16> S -1.7663456558 -0.085027362 -2.122106218
| 17> P -2.0259753555 0.066177749 -0.0201148911
| 18> S -3.8780026995 0.3699109947 0.5327309935
| 19> O -0.9407270105 1.1480671268 0.4160959217
| 20> C -1.2843458713 2.5504038476 0.3515021696
| 21> C -1.6927445933 3.0606422138 1.7181780019
| 22> O -1.3228875306 -1.1910547282 0.6342170274
| 23> C -2.0322732253 -2.4223333788 0.8566492311
| 24> C -2.3050392888 -3.1627616543 -0.4378628643
| 25> H 5.3227721789 -0.6848421608 -2.4437222225
| 26> H 4.0888181476 -1.8750691423 -1.9899956954
| 27> H 3.6138615749 -0.2293422488 -2.4375000669
| 28> H 4.676908118 0.6893731396 -0.4312843812
| 29> H 5.3204182675 -0.9191419562 0.012983709
| 30> H 2.4280526256 0.0269174471 3.0275530918
| 31> H 1.4504461752 1.3782773532 2.3982635335
| 32> H 0.361736382 -1.1001752579 3.83592301
| 33> H 0.4725604918 0.5301957899 4.5237819229
| 34> H -0.6270551759 0.2029715136 3.1713245143
| 35> H 0.2305854186 -0.1798478237 -3.3351314175
| 36> H 0.4026659066 0.9890429691 -1.9810417266
| 37> H -0.3812116569 3.0510987658 -0.0064288675
| 38> H -2.0930047106 2.6913226997 -0.3732732
| 39> H -0.8924725698 2.8959520219 2.434438111
| 40> H -1.9012952214 4.1234435647 1.651018367
| 41> H -2.5872006039 2.5427029632 2.0584068589
| 42> H -1.3692991945 -2.9893535064 1.5118395003
| 43> H -2.9679505433 -2.1944746017 1.3781720244
| 44> H -1.3808202782 -3.3040068198 -0.993926668
| 45> H -2.74008167 -4.130755162 -0.2106947803
| 46> H -3.0046455721 -2.5966775473 -1.0522050977
| 47> *
| 48>
| 49>                          ****END OF INPUT****

CARTESIAN COORDINATES (ANGSTROEM)
---------------------------------
  C      4.373801   -0.827434   -1.936786
  C      4.510488   -0.391092   -0.492123
  O      3.349630   -0.714305    0.290534
  P      1.928156   -0.021096    0.065934
  S      2.081265    1.897015   -0.340382
  O      1.217983   -0.429646    1.417899
  C      1.446460    0.308564    2.636446
  C      0.338794   -0.038411    3.609015
  S      0.968503   -1.253429   -1.337582
  C      0.046674   -0.000219   -2.278709
  S     -1.766346   -0.085027   -2.122106
  P     -2.025975    0.066178   -0.020115
  S     -3.878003    0.369911    0.532731
  O     -0.940727    1.148067    0.416096
  C     -1.284346    2.550404    0.351502
  C     -1.692745    3.060642    1.718178
  O     -1.322888   -1.191055    0.634217
  C     -2.032273   -2.422333    0.856649
  C     -2.305039   -3.162762   -0.437863
  H      5.322772   -0.684842   -2.443722
  H      4.088818   -1.875069   -1.989996
  H      3.613862   -0.229342   -2.437500
  H      4.676908    0.689373   -0.431284
  H      5.320418   -0.919142    0.012984
  H      2.428053    0.026917    3.027553
  H      1.450446    1.378277    2.398264
  H      0.361736   -1.100175    3.835923
  H      0.472560    0.530196    4.523782
  H     -0.627055    0.202972    3.171325
  H      0.230585   -0.179848   -3.335131
  H      0.402666    0.989043   -1.981042
  H     -0.381212    3.051099   -0.006429
  H     -2.093005    2.691323   -0.373273
  H     -0.892473    2.895952    2.434438
  H     -1.901295    4.123444    1.651018
  H     -2.587201    2.542703    2.058407
  H     -1.369299   -2.989354    1.511840
  H     -2.967951   -2.194475    1.378172
  H     -1.380820   -3.304007   -0.993927
  H     -2.740082   -4.130755   -0.210695
  H     -3.004646   -2.596678   -1.052205

 Total Charge           Charge          ....    0
 Multiplicity           Mult            ....    1
 Number of Electrons    NEL             ....  202
 Basis Dimension        Dim             ....  334

ORBITAL ENERGIES
----------------

  NO   OCC          E(Eh)            E(eV)
   0   2.0000     -88.050049     -2395.9636
   1   2.0000     -88.042413     -2395.7559
   2   2.0000     -87.993689     -2394.4300
   3   2.0000     -87.987291     -2394.2559
   4   2.0000     -76.429433     -2079.7506
   5   2.0000     -76.425454     -2079.6423
   6   2.0000     -18.793884      -511.4076
   7   2.0000     -18.791123      -511.3325
   8   2.0000     -18.787682      -511.2388
   9   2.0000     -18.787133      -511.2239
  10   2.0000      -9.959389      -271.0088
  11   2.0000      -9.952797      -270.8294
  12   2.0000      -9.950906      -270.7779
  13   2.0000      -9.949452      -270.7384
  14   2.0000      -9.945675      -270.6356
  15   2.0000      -9.885820      -269.0068
  16   2.0000      -9.883288      -268.9379
  17   2.0000      -9.880418      -268.8598
  18   2.0000      -9.878107      -268.7969
  19   2.0000      -7.694983      -209.3911
  20   2.0000      -7.687504      -209.1876
  21   2.0000      -7.638456      -207.8530
  22   2.0000      -7.632450      -207.6895
  23   2.0000      -6.427000      -174.8876
  24   2.0000      -6.422996      -174.7786
  25   2.0000      -5.722890      -155.7278
  26   2.0000      -5.719595      -155.6381
  27   2.0000      -5.715697      -155.5320
  28   2.0000      -5.711720      -155.4238
  29   2.0000      -5.711593      -155.4203
  30   2.0000      -5.704618      -155.2305
  31   2.0000      -5.667132      -154.2105
  32   2.0000      -5.661362      -154.0535
  33   2.0000      -5.659398      -154.0001
  34   2.0000      -5.658494      -153.9755
  35   2.0000      -5.653069      -153.8278
  36   2.0000      -5.652614      -153.8155
  37   2.0000      -4.649265      -126.5129
  38   2.0000      -4.648591      -126.4946
  39   2.0000      -4.647902      -126.4758
  40   2.0000      -4.645359      -126.4066
  41   2.0000      -4.645167      -126.4014
  42   2.0000      -4.643244      -126.3491
  43   2.0000      -0.988767       -26.9057
  44   2.0000      -0.984877       -26.7999
  45   2.0000      -0.944042       -25.6887
  46   2.0000      -0.943382       -25.6707
  47   2.0000      -0.764183       -20.7945
  48   2.0000      -0.721464       -19.6320
  49   2.0000      -0.708237       -19.2721
  50   2.0000      -0.687302       -18.7024
  51   2.0000      -0.680827       -18.5263
  52   2.0000      -0.677660       -18.4401
  53   2.0000      -0.654957       -17.8223
  54   2.0000      -0.640839       -17.4381
  55   2.0000      -0.601262       -16.3612
  56   2.0000      -0.593388       -16.1469
  57   2.0000      -0.571385       -15.5482
  58   2.0000      -0.564154       -15.3514
  59   2.0000      -0.558688       -15.2027
  60   2.0000      -0.504871       -13.7382
  61   2.0000      -0.497185       -13.5291
  62   2.0000      -0.474057       -12.8998
  63   2.0000      -0.469020       -12.7627
  64   2.0000      -0.452196       -12.3049
  65   2.0000      -0.445676       -12.1275
  66   2.0000      -0.440876       -11.9969
  67   2.0000      -0.437646       -11.9090
  68   2.0000      -0.427445       -11.6314
  69   2.0000      -0.419299       -11.4097
  70   2.0000      -0.410801       -11.1785
  71   2.0000      -0.395765       -10.7693
  72   2.0000      -0.394501       -10.7349
  73   2.0000      -0.388683       -10.5766
  74   2.0000      -0.385094       -10.4790
  75   2.0000      -0.374007       -10.1773
  76   2.0000      -0.364190        -9.9101
  77   2.0000      -0.356569        -9.7027
  78   2.0000      -0.353851        -9.6288
  79   2.0000      -0.352276        -9.5859
  80   2.0000      -0.345080        -9.3901
  81   2.0000      -0.341549        -9.2940
  82   2.0000      -0.335589        -9.1318
  83   2.0000      -0.333488        -9.0747
  84   2.0000      -0.328228        -8.9315
  85   2.0000      -0.324313        -8.8250
  86   2.0000      -0.314740        -8.5645
  87   2.0000      -0.299571        -8.1517
  88   2.0000      -0.298670        -8.1272
  89   2.0000      -0.294109        -8.0031
  90   2.0000      -0.282394        -7.6843
  91   2.0000      -0.272658        -7.4194
  92   2.0000      -0.267091        -7.2679
  93   2.0000      -0.262783        -7.1507
  94   2.0000      -0.257611        -7.0100
  95   2.0000      -0.230700        -6.2777
  96   2.0000      -0.224215        -6.1012
  97   2.0000      -0.214469        -5.8360
  98   2.0000      -0.208819        -5.6823
  99   2.0000      -0.204460        -5.5636
 100   2.0000      -0.201469        -5.4823
 101   0.0000      -0.043238        -1.1766
 102   0.0000      -0.031326        -0.8524
 103   0.0000      -0.020470        -0.5570
 104   0.0000       0.000046         0.0012
 105   0.0000       0.013358         0.3635

MULLIKEN ATOMIC CHARGES
-----------------------
   0 C :   -0.310266
   1 C :   -0.002371
   2 O :   -0.380404
   3 P :    0.634938
   4 S :   -0.338705
   5 O :   -0.353201
   6 C :   -0.015737
   7 C :   -0.288548
   8 S :   -0.076692
   9 C :   -0.354119
  10 S :   -0.091587
  11 P :    0.598314
  12 S :   -0.320939
  13 O :   -0.369087
  14 C :   -0.022642
  15 C :   -0.292813
  16 O :   -0.345920
  17 C :   -0.002653
  18 C :   -0.316267
  19 H :    0.112509
  20 H :    0.117951
  21 H :    0.117649
  22 H :    0.110118
  23 H :    0.104057
  24 H :    0.100348
  25 H :    0.109167
  26 H :    0.112072
  27 H :    0.106961
  28 H :    0.136481
  29 H :    0.181648
  30 H :    0.200621
  31 H :    0.117575
  32 H :    0.102108
  33 H :    0.116662
  34 H :    0.108418
  35 H :    0.123349
  36 H :    0.104793
  37 H :    0.110707
  38 H :    0.119627
  39 H :    0.110455
  40 H :    0.125425
Sum of atomic charges:   -0.0000000

LOEWDIN ATOMIC CHARGES
----------------------
   0 C :   -0.369224
   1 C :   -0.120392
   2 O :   -0.251122
   3 P :    0.580156
   4 S :   -0.302486
   5 O :   -0.229006
   6 C :   -0.115413
   7 C :   -0.352978
   8 S :    0.111125
   9 C :   -0.482289
  10 S :    0.072900
  11 P :    0.563438
  12 S :   -0.316810
  13 O :   -0.240084
  14 C :   -0.127414
  15 C :   -0.360741
  16 O :   -0.224859
  17 C :   -0.118260
  18 C :   -0.369269
  19 H :    0.130425
  20 H :    0.124059
  21 H :    0.118298
  22 H :    0.109156
  23 H :    0.118192
  24 H :    0.110990
  25 H :    0.106062
  26 H :    0.125118
  27 H :    0.128677
  28 H :    0.128697
  29 H :    0.138974
  30 H :    0.123185
  31 H :    0.109318
  32 H :    0.107218
  33 H :    0.122803
  34 H :    0.129960
  35 H :    0.122933
  36 H :    0.118461
  37 H :    0.109091
  38 H :    0.121052
  39 H :    0.129496
  40 H :    0.120563

  Mayer bond orders larger than 0.100000
B(  0-C ,  1-C ) :   1.1656 B(  0-C , 19-H ) :   0.9379 B(  0-C , 20-H ) :   0.9441
B(  0-C , 21-H ) :   0.9387 B(  1-C ,  2-O ) :   0.9164 B(  1-C , 22-H ) :   0.9151
B(  1-C , 23-H ) :   0.9340 B(  2-O ,  3-P ) :   1.0960 B(  3-P ,  4-S ) :   1.5663
B(  3-P ,  5-O ) :   1.1510 B(  3-P ,  8-S ) :   0.9808 B(  4-S ,  8-S ) :   0.1151
B(  4-S , 30-H ) :   0.1061 B(  5-O ,  6-C ) :   0.8984 B(  6-C ,  7-C ) :   1.1640
B(  6-C , 24-H ) :   0.9290 B(  6-C , 25-H ) :   0.9102 B(  7-C , 26-H ) :   0.9486
B(  7-C , 27-H ) :   0.9404 B(  7-C , 28-H ) :   0.9398 B(  8-S ,  9-C ) :   1.0098
B(  9-C , 10-S ) :   0.9770 B(  9-C , 29-H ) :   0.9101 B(  9-C , 30-H ) :   0.8549
B( 10-S , 11-P ) :   0.9680 B( 11-P , 12-S ) :   1.6362 B( 11-P , 13-O ) :   1.0821
B( 11-P , 16-O ) :   1.1111 B( 13-O , 14-C ) :   0.8975 B( 14-C , 15-C ) :   1.1728
B( 14-C , 31-H ) :   0.9090 B( 14-C , 32-H ) :   0.9097 B( 15-C , 33-H ) :   0.9432
B( 15-C , 34-H ) :   0.9393 B( 15-C , 35-H ) :   0.9335 B( 16-O , 17-C ) :   0.9102
B( 17-C , 18-C ) :   1.1644 B( 17-C , 36-H ) :   0.9317 B( 17-C , 37-H ) :   0.9148
B( 18-C , 38-H ) :   0.9424 B( 18-C , 39-H ) :   0.9385 B( 18-C , 40-H ) :   0.9377

Dispersion correction           -0.069939193
FINAL SINGLE POINT ENERGY     -2929.521088976559

DIPOLE MOMENT
-------------

Method             : SCF
Type of density    : Electron Density
Multiplicity       :   1
Irrep              :   0
Energy             : -2929.6396721163973780 Eh
Relativity type    :
Basis              : AO
                                X                 Y                 Z
Electronic contribution:     -6.812120572       0.616102855      -9.995661215
Nuclear contribution   :      8.099591427      -1.100202193      10.178438289
                        -----------------------------------------
Total Dipole Moment    :      1.287470855      -0.484099338       0.182777075
                        -----------------------------------------
Magnitude (a.u.)       :      1.387566514
Magnitude (Debye)      :      3.526913790

Rotational constants in cm-1:             0.011399             0.006295             0.005677
Rotational constants in MHz :           341.744959           188.710474           170.200732

                             ****ORCA TERMINATED NORMALLY****
TOTAL RUN TIME: 0 days 0 hours 0 minutes 22 seconds 709 msec
