                         Program Version 6.0.0  -   RELEASE  -
|  1> ! pbe def2-sv(p) def2/J RI DEFGRID1 loosescf d4 GCP(DFT/SV(P)) printgap
|  2> %output
|  3>     printlevel normal
|  4> end
|  5> * xyz 0 1
|  6> C 5.5634531741 -0.9198027625 -1.4154310141
|  7> C 4.1590294504 -1.108849603 -1.9555497578
|  8> O 3.2521526426 -1.4896079301 -0.9003415784
|  9> P 2.3528911642 -0.4302808342 -0.1274313969
| 10> S 3.2898163159 1.1200522698 0.6302280196
| 11> O 1.6163524436 -1.3757275877 0.9035159042
| 12> C 2.0636255681 -1.5328564007 2.2741652185
| 13> C 1.1977604394 -0.7154996924 3.2108192208
| 14> S 0.8224479524 -0.0014279264 -1.5223386389
| 15> C 0.1740275202 1.462328126 -0.6654924152
| 16> S -0.8564651961 1.0367382928 0.7531473603
| 17> P -2.5085978297 0.2885315725 -0.3738772778
| 18> S -2.823462921 1.1495001747 -2.1028983992
| 19> O -3.7377173482 0.3466015572 0.6317533471
| 20> C -4.5796030286 1.5057309174 0.7567995454
| 21> C -3.8498117805 2.684722373 1.3676958591
| 22> O -2.2698627163 -1.2597642208 -0.5502404799
| 23> C -1.7278817519 -2.1860157952 0.4213761555
| 24> C -2.446639398 -2.1350245947 1.7520762986
| 25> H 5.5865833432 -0.0966608529 -0.7045967489
| 26> H 5.8955674723 -1.8254142492 -0.9158214942
| 27> H 6.2350568663 -0.6953437352 -2.2377715028
| 28> H 4.1140999516 -1.9335083397 -2.669289706
| 29> H 3.7953116197 -0.1948982874 -2.4338883295
| 30> H 1.9775394551 -2.6019683984 2.4725318273
| 31> H 3.1105466753 -1.226905675 2.3461773735
| 32> H 0.1549331604 -0.999723111 3.1080558339
| 33> H 1.5201289569 -0.88764579 4.2325714138
| 34> H 1.2931201876 0.3437313603 2.9810766498
| 35> H -0.4231690842 2.009359922 -1.3956479236
| 36> H 1.005963716 2.0622509421 -0.2944379896
| 37> H -4.9631498493 1.7633022804 -0.2354244879
| 38> H -5.3969730682 1.1644824347 1.39352985
| 39> H -4.5598762521 3.4815262183 1.5644295544
| 40> H -3.3676210494 2.3931790328 2.2971840845
| 41> H -3.0919573425 3.0527589855 0.6779649238
| 42> H -1.8497453181 -3.1543278405 -0.0667889344
| 43> H -0.66213652 -1.9712242939 0.5400396332
| 44> H -2.0487529373 -2.9112023687 2.3990404859
| 45> H -2.3002266064 -1.1647218101 2.2233569608
| 46> H -3.5120732153 -2.2961854005 1.610093369
| 47> *
| 48>
| 49>                          ****END OF INPUT****

CARTESIAN COORDINATES (ANGSTROEM)
---------------------------------
  C      5.563453   -0.919803   -1.415431
  C      4.159029   -1.108850   -1.955550
  O      3.252153   -1.489608   -0.900342
  P      2.352891   -0.430281   -0.127431
  S      3.289816    1.120052    0.630228
  O      1.616352   -1.375728    0.903516
  C      2.063626   -1.532856    2.274165
  C      1.197760   -0.715500    3.210819
  S      0.822448   -0.001428   -1.522339
  C      0.174028    1.462328   -0.665492
  S     -0.856465    1.036738    0.753147
  P     -2.508598    0.288532   -0.373877
  S     -2.823463    1.149500   -2.102898
  O     -3.737717    0.346602    0.631753
  C     -4.579603    1.505731    0.756800
  C     -3.849812    2.684722    1.367696
  O     -2.269863   -1.259764   -0.550240
  C     -1.727882   -2.186016    0.421376
  C     -2.446639   -2.135025    1.752076
  H      5.586583   -0.096661   -0.704597
  H      5.895567   -1.825414   -0.915821
  H      6.235057   -0.695344   -2.237772
  H      4.114100   -1.933508   -2.669290
  H      3.795312   -0.194898   -2.433888
  H      1.977539   -2.601968    2.472532
  H      3.110547   -1.226906    2.346177
  H      0.154933   -0.999723    3.108056
  H      1.520129   -0.887646    4.232571
  H      1.293120    0.343731    2.981077
  H     -0.423169    2.009360   -1.395648
  H      1.005964    2.062251   -0.294438
  H     -4.963150    1.763302   -0.235424
  H     -5.396973    1.164482    1.393530
  H     -4.559876    3.481526    1.564430
  H     -3.367621    2.393179    2.297184
  H     -3.091957    3.052759    0.677965
  H     -1.849745   -3.154328   -0.066789
  H     -0.662137   -1.971224    0.540040
  H     -2.048753   -2.911202    2.399040
  H     -2.300227   -1.164722    2.223357
  H     -3.512073   -2.296185    1.610093

 Total Charge           Charge          ....    0
 Multiplicity           Mult            ....    1
 Number of Electrons    NEL             ....  202
 Basis Dimension        Dim             ....  334

ORBITAL ENERGIES
----------------

  NO   OCC          E(Eh)            E(eV)
   0   2.0000     -88.044989     -2395.8259
   1   2.0000     -88.043965     -2395.7981
   2   2.0000     -87.994229     -2394.4447
   3   2.0000     -87.984035     -2394.1673
   4   2.0000     -76.431358     -2079.8030
   5   2.0000     -76.426439     -2079.6691
   6   2.0000     -18.797503      -511.5061
   7   2.0000     -18.795886      -511.4621
   8   2.0000     -18.794569      -511.4262
   9   2.0000     -18.788383      -511.2579
  10   2.0000      -9.959070      -271.0001
  11   2.0000      -9.957312      -270.9522
  12   2.0000      -9.953214      -270.8407
  13   2.0000      -9.952509      -270.8216
  14   2.0000      -9.950265      -270.7605
  15   2.0000      -9.887819      -269.0612
  16   2.0000      -9.886475      -269.0247
  17   2.0000      -9.884419      -268.9687
  18   2.0000      -9.883842      -268.9530
  19   2.0000      -7.690074      -209.2576
  20   2.0000      -7.688530      -209.2155
  21   2.0000      -7.639133      -207.8714
  22   2.0000      -7.629331      -207.6047
  23   2.0000      -6.429112      -174.9450
  24   2.0000      -6.423690      -174.7975
  25   2.0000      -5.717838      -155.5903
  26   2.0000      -5.716245      -155.5469
  27   2.0000      -5.714680      -155.5044
  28   2.0000      -5.713119      -155.4619
  29   2.0000      -5.707072      -155.2973
  30   2.0000      -5.705644      -155.2585
  31   2.0000      -5.667901      -154.2314
  32   2.0000      -5.659816      -154.0114
  33   2.0000      -5.659391      -153.9998
  34   2.0000      -5.658297      -153.9701
  35   2.0000      -5.649864      -153.7406
  36   2.0000      -5.649476      -153.7301
  37   2.0000      -4.651604      -126.5766
  38   2.0000      -4.650865      -126.5565
  39   2.0000      -4.649616      -126.5225
  40   2.0000      -4.646447      -126.4362
  41   2.0000      -4.645504      -126.4106
  42   2.0000      -4.643995      -126.3695
  43   2.0000      -0.991711       -26.9858
  44   2.0000      -0.986028       -26.8312
  45   2.0000      -0.949950       -25.8495
  46   2.0000      -0.944235       -25.6939
  47   2.0000      -0.766120       -20.8472
  48   2.0000      -0.723699       -19.6929
  49   2.0000      -0.711428       -19.3589
  50   2.0000      -0.690308       -18.7842
  51   2.0000      -0.689186       -18.7537
  52   2.0000      -0.678402       -18.4602
  53   2.0000      -0.653555       -17.7841
  54   2.0000      -0.639475       -17.4010
  55   2.0000      -0.601230       -16.3603
  56   2.0000      -0.594892       -16.1878
  57   2.0000      -0.576625       -15.6908
  58   2.0000      -0.575017       -15.6470
  59   2.0000      -0.561038       -15.2666
  60   2.0000      -0.509376       -13.8608
  61   2.0000      -0.491353       -13.3704
  62   2.0000      -0.481326       -13.0976
  63   2.0000      -0.470509       -12.8032
  64   2.0000      -0.459757       -12.5106
  65   2.0000      -0.445751       -12.1295
  66   2.0000      -0.443261       -12.0618
  67   2.0000      -0.438176       -11.9234
  68   2.0000      -0.432069       -11.7572
  69   2.0000      -0.420360       -11.4386
  70   2.0000      -0.406861       -11.0713
  71   2.0000      -0.402302       -10.9472
  72   2.0000      -0.397180       -10.8078
  73   2.0000      -0.388349       -10.5675
  74   2.0000      -0.379612       -10.3298
  75   2.0000      -0.374441       -10.1891
  76   2.0000      -0.369777       -10.0621
  77   2.0000      -0.365295        -9.9402
  78   2.0000      -0.355536        -9.6746
  79   2.0000      -0.352674        -9.5968
  80   2.0000      -0.351204        -9.5568
  81   2.0000      -0.346676        -9.4335
  82   2.0000      -0.344076        -9.3628
  83   2.0000      -0.339689        -9.2434
  84   2.0000      -0.335290        -9.1237
  85   2.0000      -0.321719        -8.7544
  86   2.0000      -0.310000        -8.4355
  87   2.0000      -0.302132        -8.2214
  88   2.0000      -0.294710        -8.0195
  89   2.0000      -0.293311        -7.9814
  90   2.0000      -0.291014        -7.9189
  91   2.0000      -0.282422        -7.6851
  92   2.0000      -0.269992        -7.3469
  93   2.0000      -0.264748        -7.2041
  94   2.0000      -0.261788        -7.1236
  95   2.0000      -0.237308        -6.4575
  96   2.0000      -0.220958        -6.0126
  97   2.0000      -0.214221        -5.8293
  98   2.0000      -0.206857        -5.6289
  99   2.0000      -0.202640        -5.5141
 100   2.0000      -0.200899        -5.4667
 101   0.0000      -0.046113        -1.2548
 102   0.0000      -0.028105        -0.7648
 103   0.0000      -0.006206        -0.1689
 104   0.0000      -0.001880        -0.0512
 105   0.0000       0.012369         0.3366

MULLIKEN ATOMIC CHARGES
-----------------------
   0 C :   -0.292015
   1 C :   -0.009513
   2 O :   -0.370873
   3 P :    0.605490
   4 S :   -0.334987
   5 O :   -0.361936
   6 C :   -0.003472
   7 C :   -0.299203
   8 S :   -0.060272
   9 C :   -0.375021
  10 S :   -0.102744
  11 P :    0.604424
  12 S :   -0.317335
  13 O :   -0.375589
  14 C :   -0.001971
  15 C :   -0.314724
  16 O :   -0.354252
  17 C :   -0.034962
  18 C :   -0.317486
  19 H :    0.128513
  20 H :    0.112154
  21 H :    0.109541
  22 H :    0.110011
  23 H :    0.104827
  24 H :    0.107277
  25 H :    0.109576
  26 H :    0.122227
  27 H :    0.109307
  28 H :    0.125395
  29 H :    0.196326
  30 H :    0.193421
  31 H :    0.114722
  32 H :    0.104668
  33 H :    0.113683
  34 H :    0.115146
  35 H :    0.127116
  36 H :    0.107293
  37 H :    0.143276
  38 H :    0.111942
  39 H :    0.127629
  40 H :    0.122390
Sum of atomic charges:    0.0000000

LOEWDIN ATOMIC CHARGES
----------------------
   0 C :   -0.362458
   1 C :   -0.115453
   2 O :   -0.247446
   3 P :    0.569998
   4 S :   -0.318652
   5 O :   -0.237306
   6 C :   -0.112334
   7 C :   -0.361413
   8 S :    0.096953
   9 C :   -0.489921
  10 S :    0.082081
  11 P :    0.573699
  12 S :   -0.312190
  13 O :   -0.242417
  14 C :   -0.117615
  15 C :   -0.370068
  16 O :   -0.232299
  17 C :   -0.120749
  18 C :   -0.367632
  19 H :    0.124659
  20 H :    0.125175
  21 H :    0.129757
  22 H :    0.120145
  23 H :    0.108985
  24 H :    0.118443
  25 H :    0.110945
  26 H :    0.122881
  27 H :    0.129650
  28 H :    0.123824
  29 H :    0.128879
  30 H :    0.127435
  31 H :    0.113109
  32 H :    0.118513
  33 H :    0.131364
  34 H :    0.122755
  35 H :    0.121343
  36 H :    0.122470
  37 H :    0.110810
  38 H :    0.129357
  39 H :    0.116252
  40 H :    0.128474

  Mayer bond orders larger than 0.100000
B(  0-C ,  1-C ) :   1.1671 B(  0-C , 19-H ) :   0.9336 B(  0-C , 20-H ) :   0.9476
B(  0-C , 21-H ) :   0.9397 B(  1-C ,  2-O ) :   0.8999 B(  1-C , 22-H ) :   0.9356
B(  1-C , 23-H ) :   0.9151 B(  2-O ,  3-P ) :   1.1229 B(  3-P ,  4-S ) :   1.5835
B(  3-P ,  5-O ) :   1.1241 B(  3-P ,  8-S ) :   0.9756 B(  4-S ,  8-S ) :   0.1101
B(  5-O ,  6-C ) :   0.8780 B(  6-C ,  7-C ) :   1.1725 B(  6-C , 24-H ) :   0.9334
B(  6-C , 25-H ) :   0.9111 B(  7-C , 26-H ) :   0.9409 B(  7-C , 27-H ) :   0.9376
B(  7-C , 28-H ) :   0.9363 B(  8-S ,  9-C ) :   1.0035 B(  9-C , 10-S ) :   1.0075
B(  9-C , 29-H ) :   0.8689 B(  9-C , 30-H ) :   0.8670 B( 10-S , 11-P ) :   0.9341
B( 10-S , 12-S ) :   0.1079 B( 11-P , 12-S ) :   1.6206 B( 11-P , 13-O ) :   1.0910
B( 11-P , 16-O ) :   1.1552 B( 13-O , 14-C ) :   0.9060 B( 14-C , 15-C ) :   1.1652
B( 14-C , 31-H ) :   0.9159 B( 14-C , 32-H ) :   0.9341 B( 15-C , 33-H ) :   0.9374
B( 15-C , 34-H ) :   0.9451 B( 15-C , 35-H ) :   0.9352 B( 16-O , 17-C ) :   0.8941
B( 17-C , 18-C ) :   1.1741 B( 17-C , 36-H ) :   0.9328 B( 17-C , 37-H ) :   0.8990
B( 18-C , 38-H ) :   0.9351 B( 18-C , 39-H ) :   0.9278 B( 18-C , 40-H ) :   0.9405

Dispersion correction           -0.066107797
FINAL SINGLE POINT ENERGY     -2929.524155373163

DIPOLE MOMENT
-------------

Method             : SCF
Type of density    : Electron Density
Multiplicity       :   1
Irrep              :   0
Energy             : -2929.6436259480174158 Eh
Relativity type    :
Basis              : AO
                                X                 Y                 Z
Electronic contribution:     -2.229523993       4.548469389     -15.197260550
Nuclear contribution   :      2.467525257      -5.362363018      16.362030957
                        -----------------------------------------
Total Dipole Moment    :      0.238001264      -0.813893629       1.164770407
                        -----------------------------------------
Magnitude (a.u.)       :      1.440748952
Magnitude (Debye)      :      3.662092804

Rotational constants in cm-1:             0.013693             0.004705             0.004395
Rotational constants in MHz :           410.496145           141.045793           131.767554

                             ****ORCA TERMINATED NORMALLY****
TOTAL RUN TIME: 0 days 0 hours 0 minutes 21 seconds 308 msec
