                         Program Version 6.0.0  -   RELEASE  -
|  1> ! r2scan-3c def2/J RI DEFGRID2 scfconv6 printgap
|  2> %output
|  3>     printlevel normal
|  4> end
|  5> * xyz 0 1
|  6> C 1.8279912617 -0.1174387295 1.61265e-05
|  7> C 0.6036497017 0.3991563502 1.97598e-05
|  8> C -0.6036510198 -0.3991538484 -0.0001296228
|  9> C -1.827990135 0.1174368364 5.4623e-05
| 10> H 2.7085550048 0.5009604284 6.12176e-05
| 11> H 1.9888695251 -1.1830406451 8.35121e-05
| 12> H 0.4638284609 1.4723702028 2.11975e-05
| 13> H -0.4638289534 -1.4723683008 0.0001811724
| 14> H -2.7085536746 -0.5009677815 0.0003571696
| 15> H -1.9888680805 1.1830388425 -0.0002381882
| 16> *
| 17>
| 18>                          ****END OF INPUT****

CARTESIAN COORDINATES (ANGSTROEM)
---------------------------------
  C      1.827991   -0.117439    0.000016
  C      0.603650    0.399156    0.000020
  C     -0.603651   -0.399154   -0.000130
  C     -1.827990    0.117437    0.000055
  H      2.708555    0.500960    0.000061
  H      1.988870   -1.183041    0.000084
  H      0.463828    1.472370    0.000021
  H     -0.463829   -1.472368    0.000181
  H     -2.708554   -0.500968    0.000357
  H     -1.988868    1.183039   -0.000238

 Total Charge           Charge          ....    0
 Multiplicity           Mult            ....    1
 Number of Electrons    NEL             ....   30
 Basis Dimension        Dim             ....  106

ORBITAL ENERGIES
----------------

  NO   OCC          E(Eh)            E(eV)
   0   2.0000     -10.040420      -273.2137
   1   2.0000     -10.040150      -273.2064
   2   2.0000     -10.029841      -272.9259
   3   2.0000     -10.029837      -272.9257
   4   2.0000      -0.779377       -21.2079
   5   2.0000      -0.705969       -19.2104
   6   2.0000      -0.577784       -15.7223
   7   2.0000      -0.525009       -14.2862
   8   2.0000      -0.439830       -11.9684
   9   2.0000      -0.434935       -11.8352
  10   2.0000      -0.365484        -9.9453
  11   2.0000      -0.357107        -9.7174
  12   2.0000      -0.316389        -8.6094
  13   2.0000      -0.307818        -8.3762
  14   2.0000      -0.219765        -5.9801
  15   0.0000      -0.058516        -1.5923
  16   0.0000       0.036534         0.9941
  17   0.0000       0.108161         2.9432
  18   0.0000       0.119690         3.2569
  19   0.0000       0.128116         3.4862

MULLIKEN ATOMIC CHARGES
-----------------------
   0 C :   -0.345088
   1 C :   -0.085420
   2 C :   -0.085419
   3 C :   -0.345088
   4 H :    0.143806
   5 H :    0.138618
   6 H :    0.148084
   7 H :    0.148084
   8 H :    0.143806
   9 H :    0.138618
Sum of atomic charges:   -0.0000000

LOEWDIN ATOMIC CHARGES
----------------------
   0 C :   -0.295482
   1 C :   -0.185691
   2 C :   -0.185692
   3 C :   -0.295482
   4 H :    0.158633
   5 H :    0.157376
   6 H :    0.165164
   7 H :    0.165164
   8 H :    0.158634
   9 H :    0.157376

  Mayer bond orders larger than 0.100000
B(  0-C ,  1-C ) :   1.8132 B(  0-C ,  3-C ) :   0.1440 B(  0-C ,  4-H ) :   0.9603
B(  0-C ,  5-H ) :   0.9838 B(  1-C ,  2-C ) :   1.0741 B(  1-C ,  6-H ) :   0.9481
B(  2-C ,  3-C ) :   1.8132 B(  2-C ,  7-H ) :   0.9481 B(  3-C ,  8-H ) :   0.9603
B(  3-C ,  9-H ) :   0.9838

Dispersion correction           -0.001868167
FINAL SINGLE POINT ENERGY      -155.936829138473

DIPOLE MOMENT
-------------

Method             : SCF
Type of density    : Electron Density
Multiplicity       :   1
Irrep              :   0
Energy             :  -155.9375509011177314 Eh
Relativity type    :
Basis              : AO
                                X                 Y                 Z
Electronic contribution:     -0.000002004       0.000006579      -0.000318482
Nuclear contribution   :      0.000002141      -0.000006805       0.000437264
                        -----------------------------------------
Total Dipole Moment    :      0.000000137      -0.000000226       0.000118782
                        -----------------------------------------
Magnitude (a.u.)       :      0.000118783
Magnitude (Debye)      :      0.000301921

Rotational constants in cm-1:             1.421802             0.150217             0.135862
Rotational constants in MHz :         42624.545369          4503.378425          4073.051474

                             ****ORCA TERMINATED NORMALLY****
TOTAL RUN TIME: 0 days 0 hours 0 minutes 13 seconds 714 msec
