                         Program Version 6.0.0  -   RELEASE  -
|  1> ! r2scan-3c def2/J RI DEFGRID2 scfconv6 printgap
|  2> %output
|  3>     printlevel normal
|  4> end
|  5> %cpcm
|  6>     smd true
|  7>     smdsolvent "water"
|  8> end
|  9> * xyz 0 1
| 10> C 1.8279912617 -0.1174387295 1.61265e-05
| 11> C 0.6036497017 0.3991563502 1.97598e-05
| 12> C -0.6036510198 -0.3991538484 -0.0001296228
| 13> C -1.827990135 0.1174368364 5.4623e-05
| 14> H 2.7085550048 0.5009604284 6.12176e-05
| 15> H 1.9888695251 -1.1830406451 8.35121e-05
| 16> H 0.4638284609 1.4723702028 2.11975e-05
| 17> H -0.4638289534 -1.4723683008 0.0001811724
| 18> H -2.7085536746 -0.5009677815 0.0003571696
| 19> H -1.9888680805 1.1830388425 -0.0002381882
| 20> *
| 21>
| 22>                          ****END OF INPUT****

CARTESIAN COORDINATES (ANGSTROEM)
---------------------------------
  C      1.827991   -0.117439    0.000016
  C      0.603650    0.399156    0.000020
  C     -0.603651   -0.399154   -0.000130
  C     -1.827990    0.117437    0.000055
  H      2.708555    0.500960    0.000061
  H      1.988870   -1.183041    0.000084
  H      0.463828    1.472370    0.000021
  H     -0.463829   -1.472368    0.000181
  H     -2.708554   -0.500968    0.000357
  H     -1.988868    1.183039   -0.000238

 Total Charge           Charge          ....    0
 Multiplicity           Mult            ....    1
 Number of Electrons    NEL             ....   30
 Basis Dimension        Dim             ....  106

ORBITAL ENERGIES
----------------

  NO   OCC          E(Eh)            E(eV)
   0   2.0000     -10.036489      -273.1068
   1   2.0000     -10.036220      -273.0994
   2   2.0000     -10.024491      -272.7803
   3   2.0000     -10.024486      -272.7801
   4   2.0000      -0.776306       -21.1244
   5   2.0000      -0.702279       -19.1100
   6   2.0000      -0.572607       -15.5814
   7   2.0000      -0.518391       -14.1061
   8   2.0000      -0.434087       -11.8121
   9   2.0000      -0.428824       -11.6689
  10   2.0000      -0.359877        -9.7927
  11   2.0000      -0.349430        -9.5085
  12   2.0000      -0.308748        -8.4015
  13   2.0000      -0.308438        -8.3930
  14   2.0000      -0.219738        -5.9794
  15   0.0000      -0.057622        -1.5680
  16   0.0000       0.037507         1.0206
  17   0.0000       0.115317         3.1379
  18   0.0000       0.131801         3.5865
  19   0.0000       0.137935         3.7534

MULLIKEN ATOMIC CHARGES
-----------------------
   0 C :   -0.396743
   1 C :   -0.126057
   2 C :   -0.126058
   3 C :   -0.396742
   4 H :    0.171911
   5 H :    0.169122
   6 H :    0.181767
   7 H :    0.181766
   8 H :    0.171911
   9 H :    0.169122
Sum of atomic charges:   -0.0000000

LOEWDIN ATOMIC CHARGES
----------------------
   0 C :   -0.306754
   1 C :   -0.200419
   2 C :   -0.200420
   3 C :   -0.306754
   4 H :    0.166324
   5 H :    0.166163
   6 H :    0.174686
   7 H :    0.174686
   8 H :    0.166324
   9 H :    0.166163

  Mayer bond orders larger than 0.100000
B(  0-C ,  1-C ) :   1.7874 B(  0-C ,  3-C ) :   0.1430 B(  0-C ,  4-H ) :   0.9594
B(  0-C ,  5-H ) :   0.9777 B(  1-C ,  2-C ) :   1.0574 B(  1-C ,  6-H ) :   0.9432
B(  2-C ,  3-C ) :   1.7874 B(  2-C ,  7-H ) :   0.9432 B(  3-C ,  8-H ) :   0.9594
B(  3-C ,  9-H ) :   0.9777

Dispersion correction           -0.001868167
FINAL SINGLE POINT ENERGY      -155.935910994586

DIPOLE MOMENT
-------------

Method             : SCF
Type of density    : Electron Density
Multiplicity       :   1
Irrep              :   0
Energy             :  -155.9366327572309672 Eh
Relativity type    :
Basis              : AO
                                X                 Y                 Z
Electronic contribution:     -0.000002387       0.000006573      -0.000278929
Nuclear contribution   :      0.000002141      -0.000006805       0.000437264
                        -----------------------------------------
Total Dipole Moment    :     -0.000000246      -0.000000232       0.000158335
                        -----------------------------------------
Magnitude (a.u.)       :      0.000158335
Magnitude (Debye)      :      0.000402456

Rotational constants in cm-1:             1.421802             0.150217             0.135862
Rotational constants in MHz :         42624.545369          4503.378425          4073.051474

                             ****ORCA TERMINATED NORMALLY****
TOTAL RUN TIME: 0 days 0 hours 0 minutes 20 seconds 463 msec
