                         Program Version 6.0.0  -   RELEASE  -
|  1> ! pbe def2-sv(p) def2/J RI DEFGRID1 loosescf d4 GCP(DFT/SV(P)) printgap
|  2> %output
|  3>     printlevel normal
|  4> end
|  5> * xyz 0 1
|  6> C 1.5423267532 2.2357214045 2.154890465
|  7> C 2.4794019458 2.3044589474 0.9670745317
|  8> O 3.2719822834 1.1143382803 0.8038506442
|  9> P 2.7213536238 -0.3788981633 0.8035974394
| 10> S 2.3096546655 -1.216737693 2.5210435354
| 11> O 3.9295506605 -1.1371373309 0.1365808249
| 12> C 4.4930626551 -0.8065334988 -1.1575486991
| 13> C 4.0966917729 -1.850276578 -2.1832167813
| 14> S 1.1363566671 -0.3410426494 -0.6480531426
| 15> C -0.139015398 -1.2200756638 0.2894766363
| 16> S -1.4177185055 -0.1193744191 0.9356711944
| 17> P -2.4807977231 0.1095574298 -0.9024923924
| 18> S -2.5333920503 -1.4693395716 -2.0590945214
| 19> O -1.8153208943 1.3289636822 -1.6460213171
| 20> C -1.2936464061 2.5353884887 -1.0388672757
| 21> C -2.317031466 3.2607089008 -0.1931069551
| 22> O -3.9026566299 0.6778054835 -0.4787399297
| 23> C -5.012511067 -0.176784402 -0.1567211984
| 24> C -4.7814408782 -0.9667090059 1.1156040369
| 25> H 1.0405187011 3.190606219 2.2747063416
| 26> H 0.792434351 1.4576696355 2.0111643005
| 27> H 2.0975523251 2.0056105541 3.0611008319
| 28> H 3.2239409816 3.0925476753 1.0934169337
| 29> H 1.924574389 2.4685615571 0.0384021047
| 30> H 4.1596168478 0.1902045372 -1.4528797144
| 31> H 5.5722849943 -0.7999634311 -0.9967887712
| 32> H 3.0233707783 -1.8303968897 -2.3574975467
| 33> H 4.609440594 -1.642968089 -3.1171058961
| 34> H 4.3765876695 -2.8399211836 -1.8328602296
| 35> H 0.3276647057 -1.7080167022 1.1482440386
| 36> H -0.6050511493 -1.9410174823 -0.3835178388
| 37> H -0.4204671214 2.2618101386 -0.4410260451
| 38> H -0.9814514468 3.1291518316 -1.8990526135
| 39> H -2.5787650085 2.6617238394 0.6768758388
| 40> H -1.8969024019 4.2049510345 0.1394142072
| 41> H -3.2168023866 3.4510442638 -0.7719534518
| 42> H -5.8507603721 0.5138200548 -0.0546074691
| 43> H -5.1870012251 -0.8514405353 -1.0009184816
| 44> H -3.9895661674 -1.6985615647 0.9625425667
| 45> H -4.4951582147 -0.30393953 1.928330673
| 46> H -5.6935351763 -1.4907753683 1.3825861704
| 47> *
| 48>
| 49>                          ****END OF INPUT****

CARTESIAN COORDINATES (ANGSTROEM)
---------------------------------
  C      1.542327    2.235721    2.154890
  C      2.479402    2.304459    0.967075
  O      3.271982    1.114338    0.803851
  P      2.721354   -0.378898    0.803597
  S      2.309655   -1.216738    2.521044
  O      3.929551   -1.137137    0.136581
  C      4.493063   -0.806533   -1.157549
  C      4.096692   -1.850277   -2.183217
  S      1.136357   -0.341043   -0.648053
  C     -0.139015   -1.220076    0.289477
  S     -1.417719   -0.119374    0.935671
  P     -2.480798    0.109557   -0.902492
  S     -2.533392   -1.469340   -2.059095
  O     -1.815321    1.328964   -1.646021
  C     -1.293646    2.535388   -1.038867
  C     -2.317031    3.260709   -0.193107
  O     -3.902657    0.677805   -0.478740
  C     -5.012511   -0.176784   -0.156721
  C     -4.781441   -0.966709    1.115604
  H      1.040519    3.190606    2.274706
  H      0.792434    1.457670    2.011164
  H      2.097552    2.005611    3.061101
  H      3.223941    3.092548    1.093417
  H      1.924574    2.468562    0.038402
  H      4.159617    0.190205   -1.452880
  H      5.572285   -0.799963   -0.996789
  H      3.023371   -1.830397   -2.357498
  H      4.609441   -1.642968   -3.117106
  H      4.376588   -2.839921   -1.832860
  H      0.327665   -1.708017    1.148244
  H     -0.605051   -1.941017   -0.383518
  H     -0.420467    2.261810   -0.441026
  H     -0.981451    3.129152   -1.899053
  H     -2.578765    2.661724    0.676876
  H     -1.896902    4.204951    0.139414
  H     -3.216802    3.451044   -0.771953
  H     -5.850760    0.513820   -0.054607
  H     -5.187001   -0.851441   -1.000918
  H     -3.989566   -1.698562    0.962543
  H     -4.495158   -0.303940    1.928331
  H     -5.693535   -1.490775    1.382586

 Total Charge           Charge          ....    0
 Multiplicity           Mult            ....    1
 Number of Electrons    NEL             ....  202
 Basis Dimension        Dim             ....  334

ORBITAL ENERGIES
----------------

  NO   OCC          E(Eh)            E(eV)
   0   2.0000     -88.048692     -2395.9267
   1   2.0000     -88.047360     -2395.8905
   2   2.0000     -87.989145     -2394.3064
   3   2.0000     -87.987336     -2394.2571
   4   2.0000     -76.429887     -2079.7630
   5   2.0000     -76.429593     -2079.7550
   6   2.0000     -18.797377      -511.5026
   7   2.0000     -18.797168      -511.4969
   8   2.0000     -18.794375      -511.4209
   9   2.0000     -18.791730      -511.3490
  10   2.0000      -9.962728      -271.0996
  11   2.0000      -9.960569      -271.0409
  12   2.0000      -9.958733      -270.9909
  13   2.0000      -9.955735      -270.9093
  14   2.0000      -9.951833      -270.8031
  15   2.0000      -9.892568      -269.1905
  16   2.0000      -9.887588      -269.0550
  17   2.0000      -9.886126      -269.0152
  18   2.0000      -9.886020      -269.0123
  19   2.0000      -7.692853      -209.3332
  20   2.0000      -7.691709      -209.3020
  21   2.0000      -7.634409      -207.7428
  22   2.0000      -7.632564      -207.6926
  23   2.0000      -6.427130      -174.8911
  24   2.0000      -6.427081      -174.8898
  25   2.0000      -5.720476      -155.6621
  26   2.0000      -5.719424      -155.6334
  27   2.0000      -5.717435      -155.5793
  28   2.0000      -5.716205      -155.5458
  29   2.0000      -5.710148      -155.3810
  30   2.0000      -5.708976      -155.3491
  31   2.0000      -5.663466      -154.1108
  32   2.0000      -5.661530      -154.0581
  33   2.0000      -5.655016      -153.8808
  34   2.0000      -5.654385      -153.8636
  35   2.0000      -5.653142      -153.8298
  36   2.0000      -5.652680      -153.8172
  37   2.0000      -4.649850      -126.5288
  38   2.0000      -4.649821      -126.5281
  39   2.0000      -4.649084      -126.5080
  40   2.0000      -4.648873      -126.5023
  41   2.0000      -4.647353      -126.4609
  42   2.0000      -4.647337      -126.4605
  43   2.0000      -0.991039       -26.9675
  44   2.0000      -0.990832       -26.9619
  45   2.0000      -0.949876       -25.8474
  46   2.0000      -0.946774       -25.7630
  47   2.0000      -0.765132       -20.8203
  48   2.0000      -0.724938       -19.7266
  49   2.0000      -0.716386       -19.4938
  50   2.0000      -0.694149       -18.8887
  51   2.0000      -0.693020       -18.8580
  52   2.0000      -0.682199       -18.5636
  53   2.0000      -0.653648       -17.7867
  54   2.0000      -0.640757       -17.4359
  55   2.0000      -0.601965       -16.3803
  56   2.0000      -0.594526       -16.1779
  57   2.0000      -0.581474       -15.8227
  58   2.0000      -0.578597       -15.7444
  59   2.0000      -0.563670       -15.3382
  60   2.0000      -0.508577       -13.8391
  61   2.0000      -0.496584       -13.5127
  62   2.0000      -0.476993       -12.9796
  63   2.0000      -0.474506       -12.9120
  64   2.0000      -0.461762       -12.5652
  65   2.0000      -0.448871       -12.2144
  66   2.0000      -0.444995       -12.1089
  67   2.0000      -0.442988       -12.0543
  68   2.0000      -0.435969       -11.8633
  69   2.0000      -0.430696       -11.7198
  70   2.0000      -0.416713       -11.3393
  71   2.0000      -0.403593       -10.9823
  72   2.0000      -0.402080       -10.9412
  73   2.0000      -0.387687       -10.5495
  74   2.0000      -0.381402       -10.3785
  75   2.0000      -0.371607       -10.1119
  76   2.0000      -0.366691        -9.9782
  77   2.0000      -0.359285        -9.7766
  78   2.0000      -0.358302        -9.7499
  79   2.0000      -0.357066        -9.7162
  80   2.0000      -0.351214        -9.5570
  81   2.0000      -0.349934        -9.5222
  82   2.0000      -0.348235        -9.4760
  83   2.0000      -0.343575        -9.3492
  84   2.0000      -0.338764        -9.2182
  85   2.0000      -0.319461        -8.6930
  86   2.0000      -0.312586        -8.5059
  87   2.0000      -0.302343        -8.2272
  88   2.0000      -0.297397        -8.0926
  89   2.0000      -0.296597        -8.0708
  90   2.0000      -0.294976        -8.0267
  91   2.0000      -0.280374        -7.6294
  92   2.0000      -0.278853        -7.5880
  93   2.0000      -0.265549        -7.2260
  94   2.0000      -0.262108        -7.1323
  95   2.0000      -0.239499        -6.5171
  96   2.0000      -0.221873        -6.0375
  97   2.0000      -0.211931        -5.7669
  98   2.0000      -0.205321        -5.5871
  99   2.0000      -0.204090        -5.5536
 100   2.0000      -0.202151        -5.5008
 101   0.0000      -0.047699        -1.2980
 102   0.0000      -0.036177        -0.9844
 103   0.0000      -0.015686        -0.4268
 104   0.0000       0.000838         0.0228
 105   0.0000       0.011033         0.3002

MULLIKEN ATOMIC CHARGES
-----------------------
   0 C :   -0.325026
   1 C :   -0.009533
   2 O :   -0.379623
   3 P :    0.592167
   4 S :   -0.296858
   5 O :   -0.350835
   6 C :   -0.012454
   7 C :   -0.290040
   8 S :   -0.116346
   9 C :   -0.351435
  10 S :   -0.104733
  11 P :    0.600353
  12 S :   -0.311584
  13 O :   -0.354529
  14 C :   -0.036227
  15 C :   -0.304783
  16 O :   -0.374785
  17 C :   -0.002983
  18 C :   -0.317417
  19 H :    0.108711
  20 H :    0.136163
  21 H :    0.130538
  22 H :    0.108217
  23 H :    0.113526
  24 H :    0.100129
  25 H :    0.113103
  26 H :    0.126381
  27 H :    0.109659
  28 H :    0.122177
  29 H :    0.195090
  30 H :    0.196860
  31 H :    0.137284
  32 H :    0.110669
  33 H :    0.119168
  34 H :    0.111782
  35 H :    0.124542
  36 H :    0.105676
  37 H :    0.115599
  38 H :    0.129357
  39 H :    0.116747
  40 H :    0.115296
Sum of atomic charges:    0.0000000

LOEWDIN ATOMIC CHARGES
----------------------
   0 C :   -0.374227
   1 C :   -0.115535
   2 O :   -0.245808
   3 P :    0.567380
   4 S :   -0.290448
   5 O :   -0.235141
   6 C :   -0.112264
   7 C :   -0.360372
   8 S :    0.069238
   9 C :   -0.490605
  10 S :    0.087368
  11 P :    0.571865
  12 S :   -0.308296
  13 O :   -0.233868
  14 C :   -0.118703
  15 C :   -0.365261
  16 O :   -0.241544
  17 C :   -0.117483
  18 C :   -0.370472
  19 H :    0.128896
  20 H :    0.113345
  21 H :    0.132136
  22 H :    0.121735
  23 H :    0.105108
  24 H :    0.106346
  25 H :    0.122924
  26 H :    0.122650
  27 H :    0.129674
  28 H :    0.130374
  29 H :    0.126472
  30 H :    0.127595
  31 H :    0.104262
  32 H :    0.122952
  33 H :    0.118530
  34 H :    0.130397
  35 H :    0.129984
  36 H :    0.119084
  37 H :    0.113697
  38 H :    0.122331
  39 H :    0.123408
  40 H :    0.132277

  Mayer bond orders larger than 0.100000
B(  0-C ,  1-C ) :   1.1702 B(  0-C , 19-H ) :   0.9342 B(  0-C , 20-H ) :   0.9194
B(  0-C , 21-H ) :   0.9393 B(  1-C ,  2-O ) :   0.9103 B(  1-C , 22-H ) :   0.9299
B(  1-C , 23-H ) :   0.9233 B(  2-O ,  3-P ) :   1.0891 B(  3-P ,  4-S ) :   1.6438
B(  3-P ,  5-O ) :   1.1466 B(  3-P ,  8-S ) :   0.9253 B(  4-S ,  8-S ) :   0.1171
B(  4-S , 29-H ) :   0.1180 B(  5-O ,  6-C ) :   0.8908 B(  6-C ,  7-C ) :   1.1640
B(  6-C , 24-H ) :   0.9197 B(  6-C , 25-H ) :   0.9348 B(  7-C , 26-H ) :   0.9380
B(  7-C , 27-H ) :   0.9398 B(  7-C , 28-H ) :   0.9464 B(  8-S ,  9-C ) :   1.0091
B(  9-C , 10-S ) :   1.0101 B(  9-C , 29-H ) :   0.8486 B(  9-C , 30-H ) :   0.8614
B( 10-S , 11-P ) :   0.9363 B( 10-S , 12-S ) :   0.1081 B( 11-P , 12-S ) :   1.6270
B( 11-P , 13-O ) :   1.1467 B( 11-P , 16-O ) :   1.0964 B( 13-O , 14-C ) :   0.9000
B( 14-C , 15-C ) :   1.1695 B( 14-C , 31-H ) :   0.8970 B( 14-C , 32-H ) :   0.9345
B( 15-C , 33-H ) :   0.9373 B( 15-C , 34-H ) :   0.9359 B( 15-C , 35-H ) :   0.9431
B( 16-O , 17-C ) :   0.9043 B( 17-C , 18-C ) :   1.1653 B( 17-C , 36-H ) :   0.9338
B( 17-C , 37-H ) :   0.9166 B( 18-C , 38-H ) :   0.9347 B( 18-C , 39-H ) :   0.9448
B( 18-C , 40-H ) :   0.9374

Dispersion correction           -0.064534275
FINAL SINGLE POINT ENERGY     -2929.516680360819

DIPOLE MOMENT
-------------

Method             : SCF
Type of density    : Electron Density
Multiplicity       :   1
Irrep              :   0
Energy             : -2929.6374021458177594 Eh
Relativity type    :
Basis              : AO
                                X                 Y                 Z
Electronic contribution:      3.607233818     -11.343605582      -0.646284833
Nuclear contribution   :     -3.712883185      13.045862769       0.432439534
                        -----------------------------------------
Total Dipole Moment    :     -0.105649367       1.702257186      -0.213845299
                        -----------------------------------------
Magnitude (a.u.)       :      1.718886596
Magnitude (Debye)      :      4.369062512

Rotational constants in cm-1:             0.012436             0.004505             0.004259
Rotational constants in MHz :           372.811819           135.042106           127.667411

                             ****ORCA TERMINATED NORMALLY****
TOTAL RUN TIME: 0 days 0 hours 0 minutes 21 seconds 426 msec
