                         Program Version 6.0.0  -   RELEASE  -
|  1> ! pbe def2-sv(p) def2/J RI DEFGRID1 loosescf d4 GCP(DFT/SV(P)) printgap
|  2> %output
|  3>     printlevel normal
|  4> end
|  5> * xyz 0 1
|  6> C 5.8137036999 0.3240425198 0.2182182828
|  7> C 4.4322473838 -0.0813811352 0.6901532348
|  8> O 3.5176623436 0.1014865336 -0.4101747657
|  9> P 2.0829938511 -0.5811288513 -0.3977389158
| 10> S 2.092486416 -2.5001390182 -0.0058882526
| 11> O 1.5359032787 -0.2555257564 -1.8366775811
| 12> C 1.917003367 0.887082085 -2.6461876694
| 13> C 1.6562000598 2.2120985708 -1.9636372303
| 14> S 0.9785604836 0.5965281316 1.0023715737
| 15> C 0.0394777834 -0.7181514471 1.8108827695
| 16> S -1.2219149497 -1.4940664928 0.7549145851
| 17> P -2.3626735036 0.2120476201 0.2298345108
| 18> S -1.8590073021 1.2898940764 -1.3298731351
| 19> O -2.4162701375 0.9572937107 1.6199203936
| 20> C -2.5117177016 2.3946670223 1.7636620496
| 21> C -1.4386479523 2.8681553278 2.7229636587
| 22> O -3.8465171725 -0.3608522266 0.1211219961
| 23> C -4.3814282852 -0.8787107022 -1.1056316668
| 24> C -3.7139085737 -2.1795184323 -1.5046895424
| 25> H 5.8078606543 1.3602999758 -0.1068295735
| 26> H 6.5163950319 0.2080014479 1.0366997288
| 27> H 6.1243974011 -0.3045383354 -0.611579849
| 28> H 4.0939576427 0.5433051059 1.5212970144
| 29> H 4.403822172 -1.1328430238 0.9946003743
| 30> H 2.9729214499 0.7763621863 -2.8997151003
| 31> H 1.3005101547 0.7724631737 -3.5389633036
| 32> H 2.2408652471 2.2919713389 -1.0492457074
| 33> H 1.9385237519 3.0150031687 -2.6371759967
| 34> H 0.6011930418 2.3111704318 -1.7198850662
| 35> H -0.4360102623 -0.274366383 2.6814619113
| 36> H 0.7113037894 -1.5307421647 2.0879604526
| 37> H -2.3947853533 2.8572879933 0.7778964571
| 38> H -3.5130502753 2.6005293525 2.1461660358
| 39> H -1.5284303651 3.9419845425 2.8496747622
| 40> H -1.5572513303 2.3826914188 3.6873981028
| 41> H -0.4519829019 2.6359768677 2.3269403253
| 42> H -5.4427754677 -1.0170022245 -0.895802492
| 43> H -4.251253148 -0.1228256155 -1.8877836375
| 44> H -3.7859683095 -2.9057114313 -0.6987833851
| 45> H -4.192104195 -2.5765979363 -2.39433794
| 46> H -2.6584303331 -2.0049780792 -1.7190528419
| 47> *
| 48>
| 49>                          ****END OF INPUT****

CARTESIAN COORDINATES (ANGSTROEM)
---------------------------------
  C      5.813704    0.324043    0.218218
  C      4.432247   -0.081381    0.690153
  O      3.517662    0.101487   -0.410175
  P      2.082994   -0.581129   -0.397739
  S      2.092486   -2.500139   -0.005888
  O      1.535903   -0.255526   -1.836678
  C      1.917003    0.887082   -2.646188
  C      1.656200    2.212099   -1.963637
  S      0.978560    0.596528    1.002372
  C      0.039478   -0.718151    1.810883
  S     -1.221915   -1.494066    0.754915
  P     -2.362674    0.212048    0.229835
  S     -1.859007    1.289894   -1.329873
  O     -2.416270    0.957294    1.619920
  C     -2.511718    2.394667    1.763662
  C     -1.438648    2.868155    2.722964
  O     -3.846517   -0.360852    0.121122
  C     -4.381428   -0.878711   -1.105632
  C     -3.713909   -2.179518   -1.504690
  H      5.807861    1.360300   -0.106830
  H      6.516395    0.208001    1.036700
  H      6.124397   -0.304538   -0.611580
  H      4.093958    0.543305    1.521297
  H      4.403822   -1.132843    0.994600
  H      2.972921    0.776362   -2.899715
  H      1.300510    0.772463   -3.538963
  H      2.240865    2.291971   -1.049246
  H      1.938524    3.015003   -2.637176
  H      0.601193    2.311170   -1.719885
  H     -0.436010   -0.274366    2.681462
  H      0.711304   -1.530742    2.087960
  H     -2.394785    2.857288    0.777896
  H     -3.513050    2.600529    2.146166
  H     -1.528430    3.941985    2.849675
  H     -1.557251    2.382691    3.687398
  H     -0.451983    2.635977    2.326940
  H     -5.442775   -1.017002   -0.895802
  H     -4.251253   -0.122826   -1.887784
  H     -3.785968   -2.905711   -0.698783
  H     -4.192104   -2.576598   -2.394338
  H     -2.658430   -2.004978   -1.719053

 Total Charge           Charge          ....    0
 Multiplicity           Mult            ....    1
 Number of Electrons    NEL             ....  202
 Basis Dimension        Dim             ....  334

ORBITAL ENERGIES
----------------

  NO   OCC          E(Eh)            E(eV)
   0   2.0000     -88.041813     -2395.7395
   1   2.0000     -88.035879     -2395.5781
   2   2.0000     -87.983504     -2394.1529
   3   2.0000     -87.982574     -2394.1276
   4   2.0000     -76.424966     -2079.6291
   5   2.0000     -76.423753     -2079.5961
   6   2.0000     -18.795783      -511.4593
   7   2.0000     -18.793575      -511.3992
   8   2.0000     -18.787218      -511.2262
   9   2.0000     -18.785475      -511.1788
  10   2.0000      -9.954411      -270.8733
  11   2.0000      -9.953751      -270.8553
  12   2.0000      -9.953265      -270.8421
  13   2.0000      -9.951271      -270.7878
  14   2.0000      -9.947513      -270.6856
  15   2.0000      -9.890638      -269.1379
  16   2.0000      -9.888815      -269.0883
  17   2.0000      -9.881094      -268.8782
  18   2.0000      -9.878546      -268.8089
  19   2.0000      -7.686107      -209.1496
  20   2.0000      -7.680974      -209.0099
  21   2.0000      -7.628434      -207.5802
  22   2.0000      -7.627792      -207.5628
  23   2.0000      -6.422436      -174.7634
  24   2.0000      -6.421369      -174.7343
  25   2.0000      -5.713957      -155.4847
  26   2.0000      -5.710610      -155.3936
  27   2.0000      -5.709188      -155.3549
  28   2.0000      -5.705460      -155.2535
  29   2.0000      -5.703250      -155.1933
  30   2.0000      -5.697638      -155.0406
  31   2.0000      -5.657036      -153.9358
  32   2.0000      -5.656844      -153.9305
  33   2.0000      -5.649299      -153.7252
  34   2.0000      -5.648630      -153.7070
  35   2.0000      -5.648124      -153.6933
  36   2.0000      -5.648066      -153.6917
  37   2.0000      -4.645452      -126.4092
  38   2.0000      -4.644111      -126.3727
  39   2.0000      -4.644011      -126.3700
  40   2.0000      -4.643177      -126.3473
  41   2.0000      -4.642674      -126.3336
  42   2.0000      -4.641603      -126.3044
  43   2.0000      -0.987918       -26.8826
  44   2.0000      -0.984685       -26.7946
  45   2.0000      -0.944181       -25.6925
  46   2.0000      -0.942711       -25.6525
  47   2.0000      -0.760177       -20.6855
  48   2.0000      -0.720613       -19.6089
  49   2.0000      -0.709885       -19.3170
  50   2.0000      -0.691346       -18.8125
  51   2.0000      -0.684716       -18.6321
  52   2.0000      -0.671182       -18.2638
  53   2.0000      -0.649259       -17.6672
  54   2.0000      -0.634892       -17.2763
  55   2.0000      -0.597377       -16.2555
  56   2.0000      -0.589827       -16.0500
  57   2.0000      -0.571895       -15.5621
  58   2.0000      -0.571222       -15.5437
  59   2.0000      -0.559317       -15.2198
  60   2.0000      -0.506216       -13.7748
  61   2.0000      -0.500814       -13.6278
  62   2.0000      -0.470602       -12.8057
  63   2.0000      -0.469976       -12.7887
  64   2.0000      -0.459847       -12.5131
  65   2.0000      -0.444042       -12.0830
  66   2.0000      -0.439768       -11.9667
  67   2.0000      -0.435076       -11.8390
  68   2.0000      -0.427977       -11.6458
  69   2.0000      -0.414531       -11.2800
  70   2.0000      -0.409241       -11.1360
  71   2.0000      -0.397192       -10.8081
  72   2.0000      -0.390436       -10.6243
  73   2.0000      -0.388592       -10.5741
  74   2.0000      -0.375901       -10.2288
  75   2.0000      -0.371919       -10.1204
  76   2.0000      -0.369204       -10.0466
  77   2.0000      -0.359054        -9.7703
  78   2.0000      -0.354817        -9.6551
  79   2.0000      -0.351623        -9.5681
  80   2.0000      -0.346191        -9.4203
  81   2.0000      -0.343708        -9.3528
  82   2.0000      -0.341721        -9.2987
  83   2.0000      -0.336647        -9.1606
  84   2.0000      -0.331170        -9.0116
  85   2.0000      -0.323653        -8.8070
  86   2.0000      -0.305017        -8.2999
  87   2.0000      -0.302669        -8.2360
  88   2.0000      -0.294944        -8.0258
  89   2.0000      -0.289803        -7.8859
  90   2.0000      -0.283783        -7.7221
  91   2.0000      -0.273938        -7.4542
  92   2.0000      -0.273175        -7.4335
  93   2.0000      -0.258309        -7.0289
  94   2.0000      -0.256245        -6.9728
  95   2.0000      -0.238273        -6.4837
  96   2.0000      -0.216714        -5.8971
  97   2.0000      -0.203860        -5.5473
  98   2.0000      -0.201908        -5.4942
  99   2.0000      -0.196148        -5.3375
 100   2.0000      -0.190636        -5.1875
 101   0.0000      -0.046566        -1.2671
 102   0.0000      -0.024668        -0.6712
 103   0.0000      -0.015373        -0.4183
 104   0.0000       0.001095         0.0298
 105   0.0000       0.016503         0.4491

MULLIKEN ATOMIC CHARGES
-----------------------
   0 C :   -0.281244
   1 C :   -0.006881
   2 O :   -0.388516
   3 P :    0.631209
   4 S :   -0.314915
   5 O :   -0.356251
   6 C :    0.019631
   7 C :   -0.349341
   8 S :   -0.128623
   9 C :   -0.335809
  10 S :   -0.073891
  11 P :    0.613396
  12 S :   -0.330396
  13 O :   -0.375343
  14 C :   -0.004972
  15 C :   -0.307456
  16 O :   -0.367345
  17 C :   -0.002907
  18 C :   -0.329828
  19 H :    0.114857
  20 H :    0.112988
  21 H :    0.121384
  22 H :    0.099204
  23 H :    0.105504
  24 H :    0.105367
  25 H :    0.111925
  26 H :    0.115483
  27 H :    0.109092
  28 H :    0.153436
  29 H :    0.186218
  30 H :    0.186832
  31 H :    0.110706
  32 H :    0.107042
  33 H :    0.112949
  34 H :    0.116368
  35 H :    0.131602
  36 H :    0.104240
  37 H :    0.109360
  38 H :    0.122993
  39 H :    0.114921
  40 H :    0.137007
Sum of atomic charges:   -0.0000000

LOEWDIN ATOMIC CHARGES
----------------------
   0 C :   -0.350366
   1 C :   -0.122009
   2 O :   -0.248792
   3 P :    0.576384
   4 S :   -0.307467
   5 O :   -0.230275
   6 C :   -0.103001
   7 C :   -0.378575
   8 S :    0.070814
   9 C :   -0.479332
  10 S :    0.093401
  11 P :    0.567829
  12 S :   -0.311918
  13 O :   -0.242788
  14 C :   -0.115406
  15 C :   -0.359032
  16 O :   -0.246316
  17 C :   -0.122233
  18 C :   -0.370734
  19 H :    0.125679
  20 H :    0.131545
  21 H :    0.129250
  22 H :    0.107382
  23 H :    0.108634
  24 H :    0.112804
  25 H :    0.125145
  26 H :    0.113736
  27 H :    0.130796
  28 H :    0.122545
  29 H :    0.132818
  30 H :    0.129081
  31 H :    0.107674
  32 H :    0.117287
  33 H :    0.131999
  34 H :    0.124691
  35 H :    0.119740
  36 H :    0.118390
  37 H :    0.108136
  38 H :    0.126335
  39 H :    0.132194
  40 H :    0.123957

  Mayer bond orders larger than 0.100000
B(  0-C ,  1-C ) :   1.1603 B(  0-C , 19-H ) :   0.9517 B(  0-C , 20-H ) :   0.9417
B(  0-C , 21-H ) :   0.9506 B(  1-C ,  2-O ) :   0.9008 B(  1-C , 22-H ) :   0.9261
B(  1-C , 23-H ) :   0.9081 B(  2-O ,  3-P ) :   1.0683 B(  3-P ,  4-S ) :   1.6445
B(  3-P ,  5-O ) :   1.1628 B(  3-P ,  8-S ) :   0.9259 B(  4-S ,  8-S ) :   0.1122
B(  5-O ,  6-C ) :   0.8892 B(  6-C ,  7-C ) :   1.1705 B(  6-C , 24-H ) :   0.9317
B(  6-C , 25-H ) :   0.9318 B(  7-C , 26-H ) :   0.9358 B(  7-C , 27-H ) :   0.9347
B(  7-C , 28-H ) :   0.9202 B(  8-S ,  9-C ) :   1.0140 B(  9-C , 10-S ) :   1.0018
B(  9-C , 29-H ) :   0.8973 B(  9-C , 30-H ) :   0.8804 B( 10-S , 11-P ) :   0.9711
B( 10-S , 12-S ) :   0.1023 B( 11-P , 12-S ) :   1.6083 B( 11-P , 13-O ) :   1.1193
B( 11-P , 16-O ) :   1.1085 B( 13-O , 14-C ) :   0.8950 B( 14-C , 15-C ) :   1.1653
B( 14-C , 31-H ) :   0.9002 B( 14-C , 32-H ) :   0.9333 B( 15-C , 33-H ) :   0.9395
B( 15-C , 34-H ) :   0.9480 B( 15-C , 35-H ) :   0.9368 B( 16-O , 17-C ) :   0.9155
B( 17-C , 18-C ) :   1.1607 B( 17-C , 36-H ) :   0.9326 B( 17-C , 37-H ) :   0.9132
B( 18-C , 38-H ) :   0.9441 B( 18-C , 39-H ) :   0.9387 B( 18-C , 40-H ) :   0.9320

Dispersion correction           -0.065329619
FINAL SINGLE POINT ENERGY     -2929.518030547205

DIPOLE MOMENT
-------------

Method             : SCF
Type of density    : Electron Density
Multiplicity       :   1
Irrep              :   0
Energy             : -2929.6371389462319712 Eh
Relativity type    :
Basis              : AO
                                X                 Y                 Z
Electronic contribution:     -6.082871250     -12.169031112       0.425802904
Nuclear contribution   :      6.330115382      13.369858591       0.084303786
                        -----------------------------------------
Total Dipole Moment    :      0.247244133       1.200827479       0.510106691
                        -----------------------------------------
Magnitude (a.u.)       :      1.327902530
Magnitude (Debye)      :      3.375259996

Rotational constants in cm-1:             0.011994             0.005086             0.004789
Rotational constants in MHz :           359.557503           152.486503           143.569379

                             ****ORCA TERMINATED NORMALLY****
TOTAL RUN TIME: 0 days 0 hours 0 minutes 22 seconds 171 msec
