                         Program Version 6.0.0  -   RELEASE  -
|  1> ! pbe def2-sv(p) def2/J RI DEFGRID1 loosescf d4 GCP(DFT/SV(P)) printgap
|  2> %output
|  3>     printlevel normal
|  4> end
|  5> * xyz 0 1
|  6> C 0.581720274 1.4044417711 0.5195672024
|  7> C 1.4510546027 0.330906331 -0.1323670231
|  8> H 1.5641394629 0.5701328988 -1.2011389469
|  9> C 0.7347446224 -1.030070748 -0.0338249652
| 10> H 1.0566040844 -1.5145609665 0.8993098424
| 11> C -0.7926884437 -0.8507486798 0.0721535256
| 12> H -1.2877134887 -1.6933294724 -0.4375340888
| 13> C -1.2718599253 0.4250237456 -0.6377155566
| 14> H -1.1097006494 0.3031787435 -1.7263248198
| 15> O -0.6068837073 1.5988482478 -0.2234218079
| 16> O -2.6304880699 0.5557175783 -0.3638126677
| 17> O -1.1462053697 -0.8410143214 1.4308790567
| 18> O 1.1071885556 -1.78349566 -1.1614112043
| 19> O 2.6985374785 0.3217687522 0.5100859779
| 20> H 1.0969952608 2.3647911765 0.510436094
| 21> H 0.3640023505 1.1135591903 1.5537427385
| 22> H -2.9266152691 1.441454471 -0.6230624895
| 23> H -2.0723344906 -0.5562105769 1.4976004786
| 24> H 0.8259616274 -2.7039459393 -1.0573796047
| 25> H 3.2842607275 -0.3043200171 0.0600741558
| 26> *
| 27>
| 28>                          ****END OF INPUT****

CARTESIAN COORDINATES (ANGSTROEM)
---------------------------------
  C      0.581720    1.404442    0.519567
  C      1.451055    0.330906   -0.132367
  H      1.564139    0.570133   -1.201139
  C      0.734745   -1.030071   -0.033825
  H      1.056604   -1.514561    0.899310
  C     -0.792688   -0.850749    0.072154
  H     -1.287713   -1.693329   -0.437534
  C     -1.271860    0.425024   -0.637716
  H     -1.109701    0.303179   -1.726325
  O     -0.606884    1.598848   -0.223422
  O     -2.630488    0.555718   -0.363813
  O     -1.146205   -0.841014    1.430879
  O      1.107189   -1.783496   -1.161411
  O      2.698537    0.321769    0.510086
  H      1.096995    2.364791    0.510436
  H      0.364002    1.113559    1.553743
  H     -2.926615    1.441454   -0.623062
  H     -2.072334   -0.556211    1.497600
  H      0.825962   -2.703946   -1.057380
  H      3.284261   -0.304320    0.060074

 Total Charge           Charge          ....    0
 Multiplicity           Mult            ....    1
 Number of Electrons    NEL             ....   80
 Basis Dimension        Dim             ....  160

ORBITAL ENERGIES
----------------

  NO   OCC          E(Eh)            E(eV)
   0   2.0000     -18.765995      -510.6487
   1   2.0000     -18.761638      -510.5301
   2   2.0000     -18.760499      -510.4991
   3   2.0000     -18.751896      -510.2650
   4   2.0000     -18.749043      -510.1874
   5   2.0000      -9.985164      -271.7101
   6   2.0000      -9.942741      -270.5557
   7   2.0000      -9.941133      -270.5120
   8   2.0000      -9.938612      -270.4434
   9   2.0000      -9.927429      -270.1391
  10   2.0000      -0.980501       -26.6808
  11   2.0000      -0.942530       -25.6476
  12   2.0000      -0.927015       -25.2253
  13   2.0000      -0.921090       -25.0641
  14   2.0000      -0.911276       -24.7971
  15   2.0000      -0.699543       -19.0355
  16   2.0000      -0.672162       -18.2904
  17   2.0000      -0.591983       -16.1087
  18   2.0000      -0.580406       -15.7936
  19   2.0000      -0.520954       -14.1759
  20   2.0000      -0.495648       -13.4873
  21   2.0000      -0.476455       -12.9650
  22   2.0000      -0.469488       -12.7754
  23   2.0000      -0.449490       -12.2312
  24   2.0000      -0.445843       -12.1320
  25   2.0000      -0.411387       -11.1944
  26   2.0000      -0.391068       -10.6415
  27   2.0000      -0.378328       -10.2948
  28   2.0000      -0.370776       -10.0893
  29   2.0000      -0.353900        -9.6301
  30   2.0000      -0.328479        -8.9384
  31   2.0000      -0.307680        -8.3724
  32   2.0000      -0.300367        -8.1734
  33   2.0000      -0.284948        -7.7538
  34   2.0000      -0.271124        -7.3777
  35   2.0000      -0.247645        -6.7388
  36   2.0000      -0.236237        -6.4283
  37   2.0000      -0.227949        -6.2028
  38   2.0000      -0.212628        -5.7859
  39   2.0000      -0.206635        -5.6228
  40   0.0000       0.016811         0.4574
  41   0.0000       0.026031         0.7083
  42   0.0000       0.040394         1.0992
  43   0.0000       0.057757         1.5717
  44   0.0000       0.069964         1.9038

MULLIKEN ATOMIC CHARGES
-----------------------
   0 C :    0.111392
   1 C :   -0.050242
   2 H :    0.069354
   3 C :    0.110430
   4 H :    0.068704
   5 C :    0.001148
   6 H :    0.051975
   7 C :    0.169173
   8 H :    0.058433
   9 O :   -0.335024
  10 O :   -0.400022
  11 O :   -0.424356
  12 O :   -0.419199
  13 O :   -0.414401
  14 H :    0.096645
  15 H :    0.080230
  16 H :    0.310011
  17 H :    0.307371
  18 H :    0.302932
  19 H :    0.305448
Sum of atomic charges:    0.0000000

LOEWDIN ATOMIC CHARGES
----------------------
   0 C :   -0.112225
   1 C :   -0.077088
   2 H :    0.106531
   3 C :   -0.073139
   4 H :    0.111413
   5 C :   -0.087672
   6 H :    0.101910
   7 C :   -0.002780
   8 H :    0.088786
   9 O :   -0.167143
  10 O :   -0.312942
  11 O :   -0.315783
  12 O :   -0.321889
  13 O :   -0.319259
  14 H :    0.118850
  15 H :    0.109287
  16 H :    0.291402
  17 H :    0.284550
  18 H :    0.286976
  19 H :    0.290215

  Mayer bond orders larger than 0.100000
B(  0-C ,  1-C ) :   1.1249 B(  0-C ,  9-O ) :   1.0005 B(  0-C , 14-H ) :   0.9186
B(  0-C , 15-H ) :   0.8809 B(  1-C ,  2-H ) :   0.8685 B(  1-C ,  3-C ) :   1.0401
B(  1-C , 13-O ) :   1.0856 B(  3-C ,  4-H ) :   0.8662 B(  3-C ,  5-C ) :   0.9808
B(  3-C , 12-O ) :   1.0793 B(  5-C ,  6-H ) :   0.8741 B(  5-C ,  7-C ) :   1.0184
B(  5-C , 11-O ) :   1.0165 B(  7-C ,  8-H ) :   0.9141 B(  7-C ,  9-O ) :   1.0485
B(  7-C , 10-O ) :   1.1498 B( 10-O , 16-H ) :   0.8391 B( 11-O , 17-H ) :   0.8235
B( 12-O , 18-H ) :   0.8466 B( 13-O , 19-H ) :   0.8474

Dispersion correction           -0.019121678
FINAL SINGLE POINT ENERGY      -571.409523516673

DIPOLE MOMENT
-------------

Method             : SCF
Type of density    : Electron Density
Multiplicity       :   1
Irrep              :   0
Energy             :  -571.5176139660677563 Eh
Relativity type    :
Basis              : AO
                                X                 Y                 Z
Electronic contribution:     -1.010287563       0.450468077       0.004683560
Nuclear contribution   :      0.737847215      -0.920898693      -0.489011564
                        -----------------------------------------
Total Dipole Moment    :     -0.272440348      -0.470430616      -0.484328005
                        -----------------------------------------
Magnitude (a.u.)       :      0.728081262
Magnitude (Debye)      :      1.850635495

Rotational constants in cm-1:             0.065831             0.037069             0.030542
Rotational constants in MHz :          1973.561171          1111.294762           915.628985

                             ****ORCA TERMINATED NORMALLY****
TOTAL RUN TIME: 0 days 0 hours 0 minutes 11 seconds 997 msec
