                         Program Version 6.0.0  -   RELEASE  -
|  1> ! r2scan-3c def2/J RI DEFGRID2 scfconv6 printgap
|  2> %output
|  3>     printlevel normal
|  4> end
|  5> * xyz 0 1
|  6> C 0.536472896 -1.2767671906 -5.22613e-05
|  7> C -0.8374864105 -1.1029805842 5.3344e-05
|  8> C -1.3739762344 0.1737840714 8.52645e-05
|  9> C -0.5364807747 1.2767656672 -7.67598e-05
| 10> C 0.8374847972 1.1029839252 -2.96572e-05
| 11> C 1.3739855809 -0.1737867273 4.35588e-05
| 12> H 0.9547826783 -2.2723959162 -0.0001280656
| 13> H -1.4905511011 -1.9631118663 -0.0002657168
| 14> H -2.4454480121 0.3093026168 -0.0003098617
| 15> H -0.9548052879 2.2724539764 0.0001644073
| 16> H 1.49058238 1.9630918925 0.0001615329
| 17> H 2.4454410761 -0.3093307144 9.78056e-05
| 18> *
| 19>
| 20>                          ****END OF INPUT****

CARTESIAN COORDINATES (ANGSTROEM)
---------------------------------
  C      0.536473   -1.276767   -0.000052
  C     -0.837486   -1.102981    0.000053
  C     -1.373976    0.173784    0.000085
  C     -0.536481    1.276766   -0.000077
  C      0.837485    1.102984   -0.000030
  C      1.373986   -0.173787    0.000044
  H      0.954783   -2.272396   -0.000128
  H     -1.490551   -1.963112   -0.000266
  H     -2.445448    0.309303   -0.000310
  H     -0.954805    2.272454    0.000164
  H      1.490582    1.963092    0.000162
  H      2.445441   -0.309331    0.000098

 Total Charge           Charge          ....    0
 Multiplicity           Mult            ....    1
 Number of Electrons    NEL             ....   42
 Basis Dimension        Dim             ....  144

ORBITAL ENERGIES
----------------

  NO   OCC          E(Eh)            E(eV)
   0   2.0000     -10.035594      -273.0824
   1   2.0000     -10.035381      -273.0766
   2   2.0000     -10.035376      -273.0765
   3   2.0000     -10.034910      -273.0638
   4   2.0000     -10.034905      -273.0637
   5   2.0000     -10.034677      -273.0574
   6   2.0000      -0.825780       -22.4706
   7   2.0000      -0.716681       -19.5019
   8   2.0000      -0.716679       -19.5018
   9   2.0000      -0.573091       -15.5946
  10   2.0000      -0.573087       -15.5945
  11   2.0000      -0.495549       -13.4846
  12   2.0000      -0.429614       -11.6904
  13   2.0000      -0.417260       -11.3542
  14   2.0000      -0.391209       -10.6453
  15   2.0000      -0.391205       -10.6452
  16   2.0000      -0.346420        -9.4266
  17   2.0000      -0.312605        -8.5064
  18   2.0000      -0.312601        -8.5063
  19   2.0000      -0.238022        -6.4769
  20   2.0000      -0.238019        -6.4768
  21   0.0000      -0.031671        -0.8618
  22   0.0000      -0.031667        -0.8617
  23   0.0000       0.094061         2.5595
  24   0.0000       0.123850         3.3701
  25   0.0000       0.133322         3.6279

MULLIKEN ATOMIC CHARGES
-----------------------
   0 C :   -0.147627
   1 C :   -0.147607
   2 C :   -0.147601
   3 C :   -0.147630
   4 C :   -0.147614
   5 C :   -0.147598
   6 H :    0.147622
   7 H :    0.147614
   8 H :    0.147601
   9 H :    0.147629
  10 H :    0.147614
  11 H :    0.147599
Sum of atomic charges:   -0.0000000

LOEWDIN ATOMIC CHARGES
----------------------
   0 C :   -0.166699
   1 C :   -0.166691
   2 C :   -0.166696
   3 C :   -0.166704
   4 C :   -0.166691
   5 C :   -0.166694
   6 H :    0.166691
   7 H :    0.166693
   8 H :    0.166700
   9 H :    0.166701
  10 H :    0.166693
  11 H :    0.166698

  Mayer bond orders larger than 0.100000
B(  0-C ,  1-C ) :   1.4308 B(  0-C ,  5-C ) :   1.4308 B(  0-C ,  6-H ) :   0.9472
B(  1-C ,  2-C ) :   1.4308 B(  1-C ,  7-H ) :   0.9472 B(  2-C ,  3-C ) :   1.4308
B(  2-C ,  8-H ) :   0.9471 B(  3-C ,  4-C ) :   1.4308 B(  3-C ,  9-H ) :   0.9472
B(  4-C ,  5-C ) :   1.4308 B(  4-C , 10-H ) :   0.9472 B(  5-C , 11-H ) :   0.9472

Dispersion correction           -0.003324674
FINAL SINGLE POINT ENERGY      -232.178017281758

DIPOLE MOMENT
-------------

Method             : SCF
Type of density    : Electron Density
Multiplicity       :   1
Irrep              :   0
Energy             :  -232.1771115791090665 Eh
Relativity type    :
Basis              : AO
                                X                 Y                 Z
Electronic contribution:      0.000008961      -0.000026581       0.000178955
Nuclear contribution   :      0.000001626       0.000009371      -0.000262593
                        -----------------------------------------
Total Dipole Moment    :      0.000010587      -0.000017210      -0.000083638
                        -----------------------------------------
Magnitude (a.u.)       :      0.000086045
Magnitude (Debye)      :      0.000218708

Rotational constants in cm-1:             0.192700             0.192693             0.096348
Rotational constants in MHz :          5776.985739          5776.777848          2888.440912

                             ****ORCA TERMINATED NORMALLY****
TOTAL RUN TIME: 0 days 0 hours 0 minutes 10 seconds 937 msec
