                         Program Version 6.0.0  -   RELEASE  -
|  1> ! r2scan-3c def2/J RI DEFGRID2 scfconv6 printgap
|  2> %output
|  3>     printlevel normal
|  4> end
|  5> %cpcm
|  6>     smd true
|  7>     smdsolvent "water"
|  8> end
|  9> * xyz 0 1
| 10> C 0.536472896 -1.2767671906 -5.22613e-05
| 11> C -0.8374864105 -1.1029805842 5.3344e-05
| 12> C -1.3739762344 0.1737840714 8.52645e-05
| 13> C -0.5364807747 1.2767656672 -7.67598e-05
| 14> C 0.8374847972 1.1029839252 -2.96572e-05
| 15> C 1.3739855809 -0.1737867273 4.35588e-05
| 16> H 0.9547826783 -2.2723959162 -0.0001280656
| 17> H -1.4905511011 -1.9631118663 -0.0002657168
| 18> H -2.4454480121 0.3093026168 -0.0003098617
| 19> H -0.9548052879 2.2724539764 0.0001644073
| 20> H 1.49058238 1.9630918925 0.0001615329
| 21> H 2.4454410761 -0.3093307144 9.78056e-05
| 22> *
| 23>
| 24>                          ****END OF INPUT****

CARTESIAN COORDINATES (ANGSTROEM)
---------------------------------
  C      0.536473   -1.276767   -0.000052
  C     -0.837486   -1.102981    0.000053
  C     -1.373976    0.173784    0.000085
  C     -0.536481    1.276766   -0.000077
  C      0.837485    1.102984   -0.000030
  C      1.373986   -0.173787    0.000044
  H      0.954783   -2.272396   -0.000128
  H     -1.490551   -1.963112   -0.000266
  H     -2.445448    0.309303   -0.000310
  H     -0.954805    2.272454    0.000164
  H      1.490582    1.963092    0.000162
  H      2.445441   -0.309331    0.000098

 Total Charge           Charge          ....    0
 Multiplicity           Mult            ....    1
 Number of Electrons    NEL             ....   42
 Basis Dimension        Dim             ....  144

ORBITAL ENERGIES
----------------

  NO   OCC          E(Eh)            E(eV)
   0   2.0000     -10.033373      -273.0220
   1   2.0000     -10.033161      -273.0162
   2   2.0000     -10.033154      -273.0160
   3   2.0000     -10.032690      -273.0034
   4   2.0000     -10.032683      -273.0032
   5   2.0000     -10.032456      -272.9970
   6   2.0000      -0.825786       -22.4708
   7   2.0000      -0.715323       -19.4649
   8   2.0000      -0.715319       -19.4648
   9   2.0000      -0.570118       -15.5137
  10   2.0000      -0.570106       -15.5134
  11   2.0000      -0.491332       -13.3698
  12   2.0000      -0.423478       -11.5234
  13   2.0000      -0.415475       -11.3056
  14   2.0000      -0.386815       -10.5258
  15   2.0000      -0.386810       -10.5256
  16   2.0000      -0.349442        -9.5088
  17   2.0000      -0.307866        -8.3775
  18   2.0000      -0.307860        -8.3773
  19   2.0000      -0.240193        -6.5360
  20   2.0000      -0.240183        -6.5357
  21   0.0000      -0.032884        -0.8948
  22   0.0000      -0.032873        -0.8945
  23   0.0000       0.102749         2.7959
  24   0.0000       0.123981         3.3737
  25   0.0000       0.142008         3.8642

MULLIKEN ATOMIC CHARGES
-----------------------
   0 C :   -0.181252
   1 C :   -0.180879
   2 C :   -0.180972
   3 C :   -0.181271
   4 C :   -0.180878
   5 C :   -0.180978
   6 H :    0.181010
   7 H :    0.181073
   8 H :    0.181029
   9 H :    0.181017
  10 H :    0.181074
  11 H :    0.181028
Sum of atomic charges:   -0.0000000

LOEWDIN ATOMIC CHARGES
----------------------
   0 C :   -0.177382
   1 C :   -0.177356
   2 C :   -0.177337
   3 C :   -0.177389
   4 C :   -0.177358
   5 C :   -0.177334
   6 H :    0.177344
   7 H :    0.177367
   8 H :    0.177361
   9 H :    0.177356
  10 H :    0.177367
  11 H :    0.177359

  Mayer bond orders larger than 0.100000
B(  0-C ,  1-C ) :   1.3930 B(  0-C ,  5-C ) :   1.3930 B(  0-C ,  6-H ) :   0.9525
B(  1-C ,  2-C ) :   1.3927 B(  1-C ,  7-H ) :   0.9524 B(  2-C ,  3-C ) :   1.3930
B(  2-C ,  8-H ) :   0.9525 B(  3-C ,  4-C ) :   1.3930 B(  3-C ,  9-H ) :   0.9525
B(  4-C ,  5-C ) :   1.3927 B(  4-C , 10-H ) :   0.9524 B(  5-C , 11-H ) :   0.9525

Dispersion correction           -0.003324674
FINAL SINGLE POINT ENERGY      -232.180023072442

DIPOLE MOMENT
-------------

Method             : SCF
Type of density    : Electron Density
Multiplicity       :   1
Irrep              :   0
Energy             :  -232.1791173697934312 Eh
Relativity type    :
Basis              : AO
                                X                 Y                 Z
Electronic contribution:      0.000011987      -0.000032750       0.000148996
Nuclear contribution   :      0.000001626       0.000009371      -0.000262593
                        -----------------------------------------
Total Dipole Moment    :      0.000013613      -0.000023379      -0.000113597
                        -----------------------------------------
Magnitude (a.u.)       :      0.000116774
Magnitude (Debye)      :      0.000296816

Rotational constants in cm-1:             0.192700             0.192693             0.096348
Rotational constants in MHz :          5776.985739          5776.777848          2888.440912

                             ****ORCA TERMINATED NORMALLY****
TOTAL RUN TIME: 0 days 0 hours 0 minutes 13 seconds 542 msec
