                         Program Version 6.0.1  -  RELEASE   -
|  1> ! pbe def2-sv(p) def2/J RI DEFGRID1 loosescf d4 GCP(DFT/SV(P)) printgap
|  2> %output
|  3>     printlevel normal
|  4> end
|  5> * xyz 0 1
|  6> C 0.8931756531 -3.8175321198 -1.5965565283
|  7> C 1.8440496566 -3.5564990039 -0.4391429467
|  8> O 1.7460529966 -2.1918473917 0.0079698649
|  9> C 2.4535463854 -1.2724281031 -0.6201074428
| 10> O 3.2334905418 -1.4894094866 -1.5179570929
| 11> C 2.143164339 0.1088397712 -0.0726033287
| 12> C 1.0986568718 0.7873505801 -0.9702106727
| 13> H 1.5521438059 1.0828502936 -1.9185344096
| 14> C 0.5178731229 1.9935179461 -0.2563547045
| 15> O -0.6376259014 2.0178777306 0.123726435
| 16> O 1.3940060643 2.9351543035 -0.0763729036
| 17> C 0.9912450352 4.129111097 0.6357158252
| 18> C 0.3335826974 5.1240959239 -0.3051766094
| 19> S -0.2965623661 -0.2982431511 -1.4194491673
| 20> P -1.3521805784 -0.3775914611 0.4102179213
| 21> S -0.5905098045 -0.1080066972 2.2088036092
| 22> O -2.8112787461 0.2448221363 0.2097274958
| 23> C -3.2887125683 1.4650357956 0.7747710097
| 24> O -1.7176286867 -1.9206410904 0.1559121045
| 25> C -2.5069342171 -2.6553856727 1.0948937078
| 26> H -0.1178148697 -3.5278044867 -1.3200410716
| 27> H 1.1932444663 -3.2364354179 -2.4654778353
| 28> H 0.9124224588 -4.8725391222 -1.8480064683
| 29> H 2.8792202695 -3.7496409465 -0.7351059594
| 30> H 1.5797320352 -4.1485962696 0.4372554649
| 31> H 3.0485879733 0.7152626146 -0.0690538558
| 32> H 1.7560733315 -0.0016994753 0.9419962277
| 33> H 0.3122606349 3.8397123201 1.4420132073
| 34> H 1.9229821501 4.520165768 1.0433709054
| 35> H 1.0054758608 5.3665149812 -1.1236404232
| 36> H -0.5857188493 4.7092587341 -0.7118126013
| 37> H 0.0972703438 6.0296116843 0.2435631952
| 38> H -4.3501908185 1.3136982891 0.9584063102
| 39> H -3.1290110016 2.278848009 0.0709926682
| 40> H -2.7645529348 1.6773961719 1.7076895309
| 41> H -2.4170292687 -3.699598281 0.8062075559
| 42> H -3.5465445817 -2.3327998442 1.0446480699
| 43> H -2.1215695733 -2.5059115072 2.1058234336
| 44> *
| 45>
| 46>                          ****END OF INPUT****

CARTESIAN COORDINATES (ANGSTROEM)
---------------------------------
  C      0.893176   -3.817532   -1.596557
  C      1.844050   -3.556499   -0.439143
  O      1.746053   -2.191847    0.007970
  C      2.453546   -1.272428   -0.620107
  O      3.233491   -1.489409   -1.517957
  C      2.143164    0.108840   -0.072603
  C      1.098657    0.787351   -0.970211
  H      1.552144    1.082850   -1.918534
  C      0.517873    1.993518   -0.256355
  O     -0.637626    2.017878    0.123726
  O      1.394006    2.935154   -0.076373
  C      0.991245    4.129111    0.635716
  C      0.333583    5.124096   -0.305177
  S     -0.296562   -0.298243   -1.419449
  P     -1.352181   -0.377591    0.410218
  S     -0.590510   -0.108007    2.208804
  O     -2.811279    0.244822    0.209727
  C     -3.288713    1.465036    0.774771
  O     -1.717629   -1.920641    0.155912
  C     -2.506934   -2.655386    1.094894
  H     -0.117815   -3.527804   -1.320041
  H      1.193244   -3.236435   -2.465478
  H      0.912422   -4.872539   -1.848006
  H      2.879220   -3.749641   -0.735106
  H      1.579732   -4.148596    0.437255
  H      3.048588    0.715263   -0.069054
  H      1.756073   -0.001699    0.941996
  H      0.312261    3.839712    1.442013
  H      1.922982    4.520166    1.043371
  H      1.005476    5.366515   -1.123640
  H     -0.585719    4.709259   -0.711813
  H      0.097270    6.029612    0.243563
  H     -4.350191    1.313698    0.958406
  H     -3.129011    2.278848    0.070993
  H     -2.764553    1.677396    1.707690
  H     -2.417029   -3.699598    0.806208
  H     -3.546545   -2.332800    1.044648
  H     -2.121570   -2.505912    2.105823

 Total Charge           Charge          ....    0
 Multiplicity           Mult            ....    1
 Number of Electrons    NEL             ....  174
 Basis Dimension        Dim             ....  316

ORBITAL ENERGIES
----------------

  NO   OCC          E(Eh)            E(eV)
   0   2.0000     -88.036004     -2395.5815
   1   2.0000     -87.973682     -2393.8856
   2   2.0000     -76.420996     -2079.5210
   3   2.0000     -18.830911      -512.4151
   4   2.0000     -18.792713      -511.3757
   5   2.0000     -18.782967      -511.1105
   6   2.0000     -18.776663      -510.9390
   7   2.0000     -18.768131      -510.7068
   8   2.0000     -18.730980      -509.6959
   9   2.0000     -10.035364      -273.0761
  10   2.0000     -10.003282      -272.2031
  11   2.0000      -9.965943      -271.1871
  12   2.0000      -9.955916      -270.9142
  13   2.0000      -9.937409      -270.4106
  14   2.0000      -9.933993      -270.3177
  15   2.0000      -9.933575      -270.3063
  16   2.0000      -9.903852      -269.4975
  17   2.0000      -9.901752      -269.4404
  18   2.0000      -9.872330      -268.6398
  19   2.0000      -7.681006      -209.0108
  20   2.0000      -7.618807      -207.3183
  21   2.0000      -6.416800      -174.6100
  22   2.0000      -5.709292      -155.3577
  23   2.0000      -5.705814      -155.2631
  24   2.0000      -5.697173      -155.0280
  25   2.0000      -5.647944      -153.6884
  26   2.0000      -5.639647      -153.4626
  27   2.0000      -5.638470      -153.4306
  28   2.0000      -4.639438      -126.2455
  29   2.0000      -4.638806      -126.2283
  30   2.0000      -4.637391      -126.1898
  31   2.0000      -1.041186       -28.3321
  32   2.0000      -1.001398       -27.2494
  33   2.0000      -0.972959       -26.4755
  34   2.0000      -0.946577       -25.7577
  35   2.0000      -0.928441       -25.2642
  36   2.0000      -0.908515       -24.7219
  37   2.0000      -0.769285       -20.9333
  38   2.0000      -0.722456       -19.6590
  39   2.0000      -0.701781       -19.0964
  40   2.0000      -0.686366       -18.6770
  41   2.0000      -0.647568       -17.6212
  42   2.0000      -0.632800       -17.2194
  43   2.0000      -0.621983       -16.9250
  44   2.0000      -0.620200       -16.8765
  45   2.0000      -0.592377       -16.1194
  46   2.0000      -0.563526       -15.3343
  47   2.0000      -0.518161       -14.0999
  48   2.0000      -0.506286       -13.7767
  49   2.0000      -0.490333       -13.3426
  50   2.0000      -0.488767       -13.3000
  51   2.0000      -0.469117       -12.7653
  52   2.0000      -0.455822       -12.4035
  53   2.0000      -0.452445       -12.3117
  54   2.0000      -0.440356       -11.9827
  55   2.0000      -0.431725       -11.7478
  56   2.0000      -0.423290       -11.5183
  57   2.0000      -0.417431       -11.3589
  58   2.0000      -0.413428       -11.2500
  59   2.0000      -0.406608       -11.0644
  60   2.0000      -0.401985       -10.9386
  61   2.0000      -0.392040       -10.6680
  62   2.0000      -0.387987       -10.5577
  63   2.0000      -0.382259       -10.4018
  64   2.0000      -0.378229       -10.2921
  65   2.0000      -0.371011       -10.0957
  66   2.0000      -0.363305        -9.8860
  67   2.0000      -0.357205        -9.7200
  68   2.0000      -0.346730        -9.4350
  69   2.0000      -0.342879        -9.3302
  70   2.0000      -0.333509        -9.0753
  71   2.0000      -0.328120        -8.9286
  72   2.0000      -0.318133        -8.6568
  73   2.0000      -0.314876        -8.5682
  74   2.0000      -0.303935        -8.2705
  75   2.0000      -0.295017        -8.0278
  76   2.0000      -0.289593        -7.8802
  77   2.0000      -0.288248        -7.8436
  78   2.0000      -0.276661        -7.5283
  79   2.0000      -0.262730        -7.1493
  80   2.0000      -0.261265        -7.1094
  81   2.0000      -0.251913        -6.8549
  82   2.0000      -0.248812        -6.7705
  83   2.0000      -0.216667        -5.8958
  84   2.0000      -0.211591        -5.7577
  85   2.0000      -0.192942        -5.2502
  86   2.0000      -0.187328        -5.0975
  87   0.0000      -0.050422        -1.3720
  88   0.0000      -0.043717        -1.1896
  89   0.0000      -0.013096        -0.3564
  90   0.0000       0.004839         0.1317
  91   0.0000       0.030985         0.8431

MULLIKEN ATOMIC CHARGES
-----------------------
   0 C :   -0.316645
   1 C :   -0.008490
   2 O :   -0.214707
   3 C :    0.117102
   4 O :   -0.201693
   5 C :   -0.067455
   6 C :   -0.342193
   7 H :    0.152420
   8 C :    0.240244
   9 O :   -0.196881
  10 O :   -0.214581
  11 C :   -0.011477
  12 C :   -0.311920
  13 S :   -0.058193
  14 P :    0.655301
  15 S :   -0.352576
  16 O :   -0.390678
  17 C :   -0.086437
  18 O :   -0.384953
  19 C :   -0.097358
  20 H :    0.133723
  21 H :    0.120232
  22 H :    0.103811
  23 H :    0.103069
  24 H :    0.100272
  25 H :    0.112425
  26 H :    0.125475
  27 H :    0.122368
  28 H :    0.113154
  29 H :    0.120881
  30 H :    0.130584
  31 H :    0.121494
  32 H :    0.114268
  33 H :    0.113774
  34 H :    0.113764
  35 H :    0.118311
  36 H :    0.108801
  37 H :    0.114763
Sum of atomic charges:   -0.0000000

LOEWDIN ATOMIC CHARGES
----------------------
   0 C :   -0.362391
   1 C :   -0.108803
   2 O :   -0.050066
   3 C :    0.021132
   4 O :   -0.169052
   5 C :   -0.256169
   6 C :   -0.257647
   7 H :    0.150915
   8 C :    0.029555
   9 O :   -0.154988
  10 O :   -0.031658
  11 C :   -0.104561
  12 C :   -0.355440
  13 S :    0.136542
  14 P :    0.593909
  15 S :   -0.334975
  16 O :   -0.252867
  17 C :   -0.212288
  18 O :   -0.264331
  19 C :   -0.217176
  20 H :    0.126448
  21 H :    0.126894
  22 H :    0.125381
  23 H :    0.117055
  24 H :    0.117167
  25 H :    0.141493
  26 H :    0.131487
  27 H :    0.126667
  28 H :    0.123781
  29 H :    0.128368
  30 H :    0.130993
  31 H :    0.135337
  32 H :    0.114862
  33 H :    0.111321
  34 H :    0.107566
  35 H :    0.117610
  36 H :    0.109693
  37 H :    0.108234

  Mayer bond orders larger than 0.100000
B(  0-C ,  1-C ) :   1.1769 B(  0-C , 20-H ) :   0.9346 B(  0-C , 21-H ) :   0.9445
B(  0-C , 22-H ) :   0.9427 B(  1-C ,  2-O ) :   0.9173 B(  1-C , 23-H ) :   0.9151
B(  1-C , 24-H ) :   0.9369 B(  2-O ,  3-C ) :   1.2347 B(  3-C ,  4-O ) :   2.0564
B(  3-C ,  5-C ) :   1.0120 B(  5-C ,  6-C ) :   1.0408 B(  5-C , 25-H ) :   0.8828
B(  5-C , 26-H ) :   0.8663 B(  6-C ,  7-H ) :   0.8671 B(  6-C ,  8-C ) :   0.9129
B(  6-C , 13-S ) :   1.0565 B(  8-C ,  9-O ) :   1.9119 B(  8-C , 10-O ) :   1.2906
B(  9-O , 14-P ) :   0.1208 B( 10-O , 11-C ) :   0.8941 B( 11-C , 12-C ) :   1.1743
B( 11-C , 27-H ) :   0.9157 B( 11-C , 28-H ) :   0.9357 B( 12-C , 29-H ) :   0.9472
B( 12-C , 30-H ) :   0.9456 B( 12-C , 31-H ) :   0.9428 B( 13-S , 14-P ) :   0.9257
B( 13-S , 15-S ) :   0.1113 B( 14-P , 15-S ) :   1.5550 B( 14-P , 16-O ) :   1.0951
B( 14-P , 18-O ) :   1.0721 B( 16-O , 17-C ) :   0.9321 B( 17-C , 32-H ) :   0.9546
B( 17-C , 33-H ) :   0.9532 B( 17-C , 34-H ) :   0.9332 B( 18-O , 19-C ) :   0.9406
B( 19-C , 35-H ) :   0.9590 B( 19-C , 36-H ) :   0.9512 B( 19-C , 37-H ) :   0.9327

Dispersion correction           -0.054084417
FINAL SINGLE POINT ENERGY     -1979.012649898354

DIPOLE MOMENT
-------------

Method             : SCF
Type of density    : Electron Density
Multiplicity       :   1
Irrep              :   0
Energy             : -1979.1422694361281174 Eh
Relativity type    :
Basis              : AO
                                X                 Y                 Z
Electronic contribution:      0.859152508      -2.426132271      -0.001699639
Nuclear contribution   :     -1.349828879       3.587628775       0.166930471
                        -----------------------------------------
Total Dipole Moment    :     -0.490676371       1.161496504       0.165230832
                        -----------------------------------------
Magnitude (a.u.)       :      1.271667668
Magnitude (Debye)      :      3.232322335

Rotational constants in cm-1:             0.012491             0.008681             0.006075
Rotational constants in MHz :           374.482581           260.239059           182.130194

                             ****ORCA TERMINATED NORMALLY****
TOTAL RUN TIME: 0 days 0 hours 0 minutes 43 seconds 889 msec
