                         Program Version 6.0.0  -   RELEASE  -
|  1> ! pbe def2-sv(p) def2/J RI DEFGRID1 loosescf d4 GCP(DFT/SV(P)) printgap
|  2> %output
|  3>     printlevel normal
|  4> end
|  5> * xyz 0 1
|  6> C -2.9100150506 -0.3700985498 -0.0045824129
|  7> C -2.6711006426 1.0131731345 -0.0014050245
|  8> C -1.392609585 1.4955840436 0.0023719761
|  9> C -0.2861984614 0.6177279645 0.0025962797
| 10> C 1.0378192732 1.0858832787 0.0104782953
| 11> C 2.1083073514 0.2139090825 0.0107734949
| 12> C 1.8517709614 -1.179156918 0.0073695249
| 13> C 0.5760490473 -1.6572479719 0.0022237341
| 14> C -0.5314927009 -0.7819481779 -0.0001593961
| 15> C -1.8603367357 -1.2471170359 -0.0036720888
| 16> N 3.4033135184 0.6635720532 -0.0531892097
| 17> H -3.9271367647 -0.7336293718 -0.0080652035
| 18> H -3.5098622311 1.694352393 -0.0020179083
| 19> H -1.2086400952 2.5608406188 0.0045860681
| 20> H 1.2130315697 2.1527156501 0.0135003528
| 21> H 2.6909733392 -1.8598563295 0.0078502695
| 22> H 0.3937778577 -2.7226376913 0.0018754347
| 23> H -2.036242812 -2.3139319857 -0.0063018553
| 24> H 4.1225894288 0.0183971585 0.2262051413
| 25> H 3.5605899052 1.6263523158 0.1917622546
| 26> *
| 27>
| 28>                          ****END OF INPUT****

CARTESIAN COORDINATES (ANGSTROEM)
---------------------------------
  C     -2.910015   -0.370099   -0.004582
  C     -2.671101    1.013173   -0.001405
  C     -1.392610    1.495584    0.002372
  C     -0.286198    0.617728    0.002596
  C      1.037819    1.085883    0.010478
  C      2.108307    0.213909    0.010773
  C      1.851771   -1.179157    0.007370
  C      0.576049   -1.657248    0.002224
  C     -0.531493   -0.781948   -0.000159
  C     -1.860337   -1.247117   -0.003672
  N      3.403314    0.663572   -0.053189
  H     -3.927137   -0.733629   -0.008065
  H     -3.509862    1.694352   -0.002018
  H     -1.208640    2.560841    0.004586
  H      1.213032    2.152716    0.013500
  H      2.690973   -1.859856    0.007850
  H      0.393778   -2.722638    0.001875
  H     -2.036243   -2.313932   -0.006302
  H      4.122589    0.018397    0.226205
  H      3.560590    1.626352    0.191762

 Total Charge           Charge          ....    0
 Multiplicity           Mult            ....    1
 Number of Electrons    NEL             ....   76
 Basis Dimension        Dim             ....  172

ORBITAL ENERGIES
----------------

  NO   OCC          E(Eh)            E(eV)
   0   2.0000     -14.000106      -380.9622
   1   2.0000      -9.931595      -270.2524
   2   2.0000      -9.892823      -269.1974
   3   2.0000      -9.889374      -269.1036
   4   2.0000      -9.888332      -269.0752
   5   2.0000      -9.887886      -269.0631
   6   2.0000      -9.883308      -268.9385
   7   2.0000      -9.883036      -268.9311
   8   2.0000      -9.881436      -268.8875
   9   2.0000      -9.879563      -268.8366
  10   2.0000      -9.877862      -268.7903
  11   2.0000      -0.840915       -22.8825
  12   2.0000      -0.779427       -21.2093
  13   2.0000      -0.726684       -19.7741
  14   2.0000      -0.686191       -18.6722
  15   2.0000      -0.652702       -17.7609
  16   2.0000      -0.633252       -17.2317
  17   2.0000      -0.561511       -15.2795
  18   2.0000      -0.542928       -14.7738
  19   2.0000      -0.531194       -14.4545
  20   2.0000      -0.481496       -13.1022
  21   2.0000      -0.468099       -12.7376
  22   2.0000      -0.452977       -12.3261
  23   2.0000      -0.428560       -11.6617
  24   2.0000      -0.395384       -10.7590
  25   2.0000      -0.387993       -10.5578
  26   2.0000      -0.369885       -10.0651
  27   2.0000      -0.361415        -9.8346
  28   2.0000      -0.357881        -9.7384
  29   2.0000      -0.353604        -9.6221
  30   2.0000      -0.323066        -8.7911
  31   2.0000      -0.314274        -8.5518
  32   2.0000      -0.294406        -8.0112
  33   2.0000      -0.281548        -7.6613
  34   2.0000      -0.261293        -7.1102
  35   2.0000      -0.241597        -6.5742
  36   2.0000      -0.200684        -5.4609
  37   2.0000      -0.167304        -4.5526
  38   0.0000      -0.056433        -1.5356
  39   0.0000      -0.021804        -0.5933
  40   0.0000       0.005231         0.1423
  41   0.0000       0.030270         0.8237
  42   0.0000       0.052182         1.4199

MULLIKEN ATOMIC CHARGES
-----------------------
   0 C :   -0.051682
   1 C :   -0.039978
   2 C :   -0.136720
   3 C :    0.165166
   4 C :   -0.245111
   5 C :    0.191794
   6 C :   -0.111593
   7 C :   -0.134705
   8 C :    0.150242
   9 C :   -0.123322
  10 N :   -0.329092
  11 H :    0.045134
  12 H :    0.046682
  13 H :    0.030813
  14 H :    0.005807
  15 H :    0.022654
  16 H :    0.035390
  17 H :    0.031469
  18 H :    0.223044
  19 H :    0.224007
Sum of atomic charges:    0.0000000

LOEWDIN ATOMIC CHARGES
----------------------
   0 C :   -0.141477
   1 C :   -0.124827
   2 C :   -0.123233
   3 C :   -0.017075
   4 C :   -0.166563
   5 C :   -0.008048
   6 C :   -0.148657
   7 C :   -0.103814
   8 C :   -0.042950
   9 C :   -0.111514
  10 N :   -0.308083
  11 H :    0.120874
  12 H :    0.121567
  13 H :    0.119691
  14 H :    0.116971
  15 H :    0.119332
  16 H :    0.123506
  17 H :    0.120607
  18 H :    0.226311
  19 H :    0.227380

  Mayer bond orders larger than 0.100000
B(  0-C ,  1-C ) :   1.2597 B(  0-C ,  9-C ) :   1.4501 B(  0-C , 11-H ) :   0.9619
B(  1-C ,  2-C ) :   1.4630 B(  1-C , 12-H ) :   0.9613 B(  2-C ,  3-C ) :   1.2310
B(  2-C , 13-H ) :   0.9636 B(  3-C ,  4-C ) :   1.2517 B(  3-C ,  8-C ) :   1.2437
B(  4-C ,  5-C ) :   1.3567 B(  4-C , 14-H ) :   0.9639 B(  5-C ,  6-C ) :   1.2154
B(  5-C , 10-N ) :   1.2444 B(  6-C ,  7-C ) :   1.4733 B(  6-C , 15-H ) :   0.9586
B(  7-C ,  8-C ) :   1.2201 B(  7-C , 16-H ) :   0.9627 B(  8-C ,  9-C ) :   1.2555
B(  9-C , 17-H ) :   0.9635 B( 10-N , 18-H ) :   0.8795 B( 10-N , 19-H ) :   0.8821

Dispersion correction           -0.024387492
FINAL SINGLE POINT ENERGY      -440.291709678385

DIPOLE MOMENT
-------------

Method             : SCF
Type of density    : Electron Density
Multiplicity       :   1
Irrep              :   0
Energy             :  -440.3445758317272976 Eh
Relativity type    :
Basis              : AO
                                X                 Y                 Z
Electronic contribution:     -0.279478269      -0.264214611      -0.103776658
Nuclear contribution   :      1.237439362       0.400115762       0.402553357
                        -----------------------------------------
Total Dipole Moment    :      0.957961092       0.135901151       0.298776700
                        -----------------------------------------
Magnitude (a.u.)       :      1.012633247
Magnitude (Debye)      :      2.573909162

Rotational constants in cm-1:             0.095842             0.027957             0.021651
Rotational constants in MHz :          2873.275730           838.139815           649.085885

                             ****ORCA TERMINATED NORMALLY****
TOTAL RUN TIME: 0 days 0 hours 0 minutes 32 seconds 533 msec
