                         Program Version 6.0.0  -   RELEASE  -
|  1> ! pbe def2-sv(p) def2/J RI DEFGRID1 loosescf d4 GCP(DFT/SV(P)) printgap
|  2> %output
|  3>     printlevel normal
|  4> end
|  5> * xyz 0 1
|  6> C 4.2496418364 0.5181901966 -2.4593021042
|  7> C 4.013947326 -0.9510551516 -2.17087852
|  8> O 3.9125693301 -1.2304829396 -0.7643062209
|  9> P 2.8798368035 -0.5552989621 0.2266360249
| 10> S 3.309359952 1.228993614 0.9353527581
| 11> O 2.9444137274 -1.7119617857 1.3039283921
| 12> C 2.5700110407 -1.5155069308 2.6774453007
| 13> C 1.0646723366 -1.528774424 2.8536991112
| 14> S 1.0117663665 -0.7268461655 -0.7973806227
| 15> C 0.3242847987 0.9217755661 -0.4696735067
| 16> S -0.9890299024 0.9210025754 0.7731245243
| 17> P -2.6643442976 0.6026653263 -0.5248462212
| 18> S -2.2739359766 0.1382217876 -2.3826996593
| 19> O -3.4750356269 1.9525653732 -0.4350644989
| 20> C -3.8594724685 2.6103845698 0.7962237366
| 21> C -5.2068201343 2.122568792 1.2877875908
| 22> O -3.5994697911 -0.4200742625 0.2581625518
| 23> C -3.4648156241 -1.8458709363 0.1311888742
| 24> C -2.1929737121 -2.3613736122 0.7735250298
| 25> H 4.4212851633 0.6549849792 -3.522211416
| 26> H 3.3812626693 1.10595919 -2.1631839319
| 27> H 5.1135966985 0.8782284923 -1.9053864804
| 28> H 4.8610531754 -1.5595886319 -2.4922557625
| 29> H 3.1017736607 -1.3018590011 -2.6626382063
| 30> H 3.0423161447 -2.3483411377 3.2006320197
| 31> H 2.9956998578 -0.5693502161 3.0289838632
| 32> H 0.8272642257 -1.5140344171 3.9124310235
| 33> H 0.6220501452 -0.6508885622 2.3842180101
| 34> H 0.6446642619 -2.4235390899 2.4014964064
| 35> H -0.0811135915 1.2924452905 -1.4096539179
| 36> H 1.1229090508 1.5630552566 -0.0878356107
| 37> H -3.0794195873 2.4418274091 1.5443515408
| 38> H -3.893238043 3.6684062643 0.5299223871
| 39> H -5.1529703883 1.0737954782 1.5654784937
| 40> H -5.4992782023 2.7081675859 2.1538543554
| 41> H -5.9527689568 2.2411512803 0.5065478962
| 42> H -4.3530006942 -2.236890731 0.6299102797
| 43> H -3.4926617252 -2.103101066 -0.9322647085
| 44> H -2.1073949129 -1.9888825483 1.791453835
| 45> H -2.2143316252 -3.4464313107 0.7867054335
| 46> H -1.3254546624 -2.0371666668 0.1998780131
| 47> *
| 48>
| 49>                          ****END OF INPUT****

CARTESIAN COORDINATES (ANGSTROEM)
---------------------------------
  C      4.249642    0.518190   -2.459302
  C      4.013947   -0.951055   -2.170879
  O      3.912569   -1.230483   -0.764306
  P      2.879837   -0.555299    0.226636
  S      3.309360    1.228994    0.935353
  O      2.944414   -1.711962    1.303928
  C      2.570011   -1.515507    2.677445
  C      1.064672   -1.528774    2.853699
  S      1.011766   -0.726846   -0.797381
  C      0.324285    0.921776   -0.469674
  S     -0.989030    0.921003    0.773125
  P     -2.664344    0.602665   -0.524846
  S     -2.273936    0.138222   -2.382700
  O     -3.475036    1.952565   -0.435064
  C     -3.859472    2.610385    0.796224
  C     -5.206820    2.122569    1.287788
  O     -3.599470   -0.420074    0.258163
  C     -3.464816   -1.845871    0.131189
  C     -2.192974   -2.361374    0.773525
  H      4.421285    0.654985   -3.522211
  H      3.381263    1.105959   -2.163184
  H      5.113597    0.878228   -1.905386
  H      4.861053   -1.559589   -2.492256
  H      3.101774   -1.301859   -2.662638
  H      3.042316   -2.348341    3.200632
  H      2.995700   -0.569350    3.028984
  H      0.827264   -1.514034    3.912431
  H      0.622050   -0.650889    2.384218
  H      0.644664   -2.423539    2.401496
  H     -0.081114    1.292445   -1.409654
  H      1.122909    1.563055   -0.087836
  H     -3.079420    2.441827    1.544352
  H     -3.893238    3.668406    0.529922
  H     -5.152970    1.073795    1.565478
  H     -5.499278    2.708168    2.153854
  H     -5.952769    2.241151    0.506548
  H     -4.353001   -2.236891    0.629910
  H     -3.492662   -2.103101   -0.932265
  H     -2.107395   -1.988883    1.791454
  H     -2.214332   -3.446431    0.786705
  H     -1.325455   -2.037167    0.199878

 Total Charge           Charge          ....    0
 Multiplicity           Mult            ....    1
 Number of Electrons    NEL             ....  202
 Basis Dimension        Dim             ....  334

ORBITAL ENERGIES
----------------

  NO   OCC          E(Eh)            E(eV)
   0   2.0000     -88.047171     -2395.8853
   1   2.0000     -88.046786     -2395.8748
   2   2.0000     -87.992103     -2394.3869
   3   2.0000     -87.992025     -2394.3847
   4   2.0000     -76.430238     -2079.7725
   5   2.0000     -76.428409     -2079.7227
   6   2.0000     -18.797567      -511.5078
   7   2.0000     -18.794810      -511.4328
   8   2.0000     -18.791161      -511.3335
   9   2.0000     -18.788398      -511.2583
  10   2.0000      -9.960228      -271.0316
  11   2.0000      -9.955545      -270.9041
  12   2.0000      -9.955527      -270.9037
  13   2.0000      -9.952692      -270.8265
  14   2.0000      -9.950011      -270.7536
  15   2.0000      -9.889039      -269.0944
  16   2.0000      -9.884287      -268.9651
  17   2.0000      -9.883805      -268.9520
  18   2.0000      -9.882574      -268.9185
  19   2.0000      -7.691234      -209.2891
  20   2.0000      -7.691045      -209.2840
  21   2.0000      -7.637315      -207.8219
  22   2.0000      -7.636858      -207.8095
  23   2.0000      -6.427911      -174.9124
  24   2.0000      -6.425665      -174.8512
  25   2.0000      -5.718970      -155.6211
  26   2.0000      -5.718806      -155.6166
  27   2.0000      -5.715619      -155.5299
  28   2.0000      -5.715597      -155.5293
  29   2.0000      -5.708622      -155.3395
  30   2.0000      -5.708205      -155.3282
  31   2.0000      -5.666329      -154.1887
  32   2.0000      -5.665603      -154.1689
  33   2.0000      -5.657746      -153.9551
  34   2.0000      -5.657546      -153.9497
  35   2.0000      -5.657459      -153.9473
  36   2.0000      -5.657238      -153.9413
  37   2.0000      -4.650640      -126.5504
  38   2.0000      -4.649571      -126.5212
  39   2.0000      -4.648312      -126.4870
  40   2.0000      -4.647920      -126.4763
  41   2.0000      -4.647691      -126.4701
  42   2.0000      -4.646148      -126.4281
  43   2.0000      -0.991416       -26.9778
  44   2.0000      -0.989267       -26.9193
  45   2.0000      -0.949429       -25.8353
  46   2.0000      -0.944587       -25.7035
  47   2.0000      -0.762825       -20.7575
  48   2.0000      -0.723507       -19.6876
  49   2.0000      -0.713814       -19.4239
  50   2.0000      -0.692638       -18.8476
  51   2.0000      -0.683707       -18.6046
  52   2.0000      -0.680109       -18.5067
  53   2.0000      -0.653901       -17.7936
  54   2.0000      -0.642364       -17.4796
  55   2.0000      -0.603036       -16.4095
  56   2.0000      -0.596571       -16.2335
  57   2.0000      -0.579452       -15.7677
  58   2.0000      -0.571233       -15.5441
  59   2.0000      -0.561128       -15.2691
  60   2.0000      -0.503212       -13.6931
  61   2.0000      -0.496118       -13.5001
  62   2.0000      -0.478547       -13.0219
  63   2.0000      -0.467788       -12.7292
  64   2.0000      -0.459286       -12.4978
  65   2.0000      -0.451550       -12.2873
  66   2.0000      -0.444408       -12.0930
  67   2.0000      -0.433306       -11.7909
  68   2.0000      -0.429662       -11.6917
  69   2.0000      -0.424139       -11.5414
  70   2.0000      -0.413132       -11.2419
  71   2.0000      -0.408498       -11.1158
  72   2.0000      -0.397244       -10.8096
  73   2.0000      -0.387472       -10.5436
  74   2.0000      -0.378526       -10.3002
  75   2.0000      -0.374942       -10.2027
  76   2.0000      -0.371010       -10.0957
  77   2.0000      -0.357614        -9.7312
  78   2.0000      -0.354503        -9.6465
  79   2.0000      -0.350500        -9.5376
  80   2.0000      -0.347961        -9.4685
  81   2.0000      -0.346749        -9.4355
  82   2.0000      -0.346516        -9.4292
  83   2.0000      -0.340125        -9.2553
  84   2.0000      -0.339015        -9.2251
  85   2.0000      -0.320747        -8.7280
  86   2.0000      -0.312821        -8.5123
  87   2.0000      -0.301056        -8.1922
  88   2.0000      -0.299374        -8.1464
  89   2.0000      -0.294187        -8.0052
  90   2.0000      -0.288575        -7.8525
  91   2.0000      -0.276093        -7.5129
  92   2.0000      -0.271549        -7.3892
  93   2.0000      -0.266520        -7.2524
  94   2.0000      -0.259366        -7.0577
  95   2.0000      -0.231174        -6.2906
  96   2.0000      -0.224371        -6.1054
  97   2.0000      -0.214890        -5.8475
  98   2.0000      -0.209979        -5.7138
  99   2.0000      -0.207466        -5.6454
 100   2.0000      -0.204909        -5.5759
 101   0.0000      -0.045752        -1.2450
 102   0.0000      -0.039261        -1.0683
 103   0.0000      -0.017983        -0.4893
 104   0.0000       0.005475         0.1490
 105   0.0000       0.011720         0.3189

MULLIKEN ATOMIC CHARGES
-----------------------
   0 C :   -0.310704
   1 C :   -0.007103
   2 O :   -0.356362
   3 P :    0.592021
   4 S :   -0.326430
   5 O :   -0.352177
   6 C :   -0.000974
   7 C :   -0.330708
   8 S :   -0.089306
   9 C :   -0.350729
  10 S :   -0.113168
  11 P :    0.603417
  12 S :   -0.305833
  13 O :   -0.354027
  14 C :   -0.017335
  15 C :   -0.294014
  16 O :   -0.379693
  17 C :    0.006077
  18 C :   -0.346497
  19 H :    0.113234
  20 H :    0.120823
  21 H :    0.126941
  22 H :    0.109975
  23 H :    0.115043
  24 H :    0.105248
  25 H :    0.112384
  26 H :    0.108797
  27 H :    0.132855
  28 H :    0.123525
  29 H :    0.193360
  30 H :    0.194666
  31 H :    0.107571
  32 H :    0.113430
  33 H :    0.123821
  34 H :    0.111004
  35 H :    0.121217
  36 H :    0.104077
  37 H :    0.112950
  38 H :    0.120524
  39 H :    0.112530
  40 H :    0.149570
Sum of atomic charges:   -0.0000000

LOEWDIN ATOMIC CHARGES
----------------------
   0 C :   -0.367431
   1 C :   -0.117412
   2 O :   -0.232238
   3 P :    0.567907
   4 S :   -0.306217
   5 O :   -0.233240
   6 C :   -0.119674
   7 C :   -0.368579
   8 S :    0.090980
   9 C :   -0.488937
  10 S :    0.082155
  11 P :    0.569958
  12 S :   -0.300088
  13 O :   -0.236661
  14 C :   -0.114045
  15 C :   -0.361334
  16 O :   -0.245989
  17 C :   -0.116158
  18 C :   -0.374179
  19 H :    0.130810
  20 H :    0.119476
  21 H :    0.130341
  22 H :    0.121890
  23 H :    0.108374
  24 H :    0.118807
  25 H :    0.108555
  26 H :    0.129513
  27 H :    0.111540
  28 H :    0.126469
  29 H :    0.128200
  30 H :    0.123286
  31 H :    0.103355
  32 H :    0.123275
  33 H :    0.125789
  34 H :    0.130012
  35 H :    0.129754
  36 H :    0.117990
  37 H :    0.112752
  38 H :    0.124125
  39 H :    0.131015
  40 H :    0.115857

  Mayer bond orders larger than 0.100000
B(  0-C ,  1-C ) :   1.1632 B(  0-C , 19-H ) :   0.9363 B(  0-C , 20-H ) :   0.9366
B(  0-C , 21-H ) :   0.9438 B(  1-C ,  2-O ) :   0.9165 B(  1-C , 22-H ) :   0.9332
B(  1-C , 23-H ) :   0.9218 B(  2-O ,  3-P ) :   1.1351 B(  3-P ,  4-S ) :   1.5887
B(  3-P ,  5-O ) :   1.1308 B(  3-P ,  8-S ) :   0.9377 B(  4-S ,  8-S ) :   0.1225
B(  4-S , 30-H ) :   0.1197 B(  5-O ,  6-C ) :   0.9161 B(  6-C ,  7-C ) :   1.1592
B(  6-C , 24-H ) :   0.9331 B(  6-C , 25-H ) :   0.9104 B(  7-C , 26-H ) :   0.9387
B(  7-C , 27-H ) :   0.9308 B(  7-C , 28-H ) :   0.9424 B(  8-S ,  9-C ) :   1.0103
B(  9-C , 10-S ) :   1.0121 B(  9-C , 29-H ) :   0.8747 B(  9-C , 30-H ) :   0.8458
B( 10-S , 11-P ) :   0.9412 B( 10-S , 12-S ) :   0.1117 B( 11-P , 12-S ) :   1.6385
B( 11-P , 13-O ) :   1.1438 B( 11-P , 16-O ) :   1.0871 B( 13-O , 14-C ) :   0.8992
B( 14-C , 15-C ) :   1.1623 B( 14-C , 31-H ) :   0.9125 B( 14-C , 32-H ) :   0.9361
B( 15-C , 33-H ) :   0.9402 B( 15-C , 34-H ) :   0.9389 B( 15-C , 35-H ) :   0.9468
B( 16-O , 17-C ) :   0.9070 B( 17-C , 18-C ) :   1.1626 B( 17-C , 36-H ) :   0.9335
B( 17-C , 37-H ) :   0.9171 B( 18-C , 38-H ) :   0.9419 B( 18-C , 39-H ) :   0.9366
B( 18-C , 40-H ) :   0.9242

Dispersion correction           -0.063676282
FINAL SINGLE POINT ENERGY     -2929.520377069334

DIPOLE MOMENT
-------------

Method             : SCF
Type of density    : Electron Density
Multiplicity       :   1
Irrep              :   0
Energy             : -2929.6413423219851211 Eh
Relativity type    :
Basis              : AO
                                X                 Y                 Z
Electronic contribution:      6.165473219       3.926616190      -8.389636260
Nuclear contribution   :     -6.810258099      -4.379008193       9.189935139
                        -----------------------------------------
Total Dipole Moment    :     -0.644784881      -0.452392004       0.800298880
                        -----------------------------------------
Magnitude (a.u.)       :      1.122891074
Magnitude (Debye)      :      2.854162286

Rotational constants in cm-1:             0.012797             0.004249             0.004026
Rotational constants in MHz :           383.647388           127.387205           120.701561

                             ****ORCA TERMINATED NORMALLY****
TOTAL RUN TIME: 0 days 0 hours 0 minutes 20 seconds 639 msec
