                         Program Version 6.0.1  -  RELEASE   -
|  1> ! pbe def2-sv(p) def2/J RI DEFGRID1 loosescf d4 GCP(DFT/SV(P)) printgap
|  2> %output
|  3>     printlevel normal
|  4> end
|  5> * xyz 0 1
|  6> C 3.9770787448 -2.7163488198 0.3985236974
|  7> C 2.4630177074 -2.6818979946 0.2701048659
|  8> O 2.0604214076 -1.875602171 -0.853513471
|  9> C 1.9657326706 -0.5742835053 -0.7012247994
| 10> O 2.1627064259 0.0289246696 0.3340089556
| 11> C 1.5658999271 0.1242365025 -1.9875882431
| 12> C 0.3084555704 0.9656114888 -1.7537801673
| 13> H 0.1611331101 1.6520469081 -2.5906838391
| 14> C 0.403274693 1.7616948357 -0.4655748987
| 15> O -0.3629449262 1.5636283785 0.4653269914
| 16> O 1.3080511951 2.6867250083 -0.5197505042
| 17> C 1.5719411673 3.5053210221 0.6440459685
| 18> C 2.9367107333 3.1535960184 1.2089600496
| 19> S -1.2006424505 -0.0604121315 -1.6920980909
| 20> P -1.648033982 -0.4128814789 0.3501577688
| 21> S -0.5140836879 -1.0727558412 1.8040243137
| 22> O -2.7414457288 0.6240467628 0.8950611365
| 23> C -3.7728856365 1.1545079105 0.0474822967
| 24> O -2.5841428902 -1.6407169326 -0.1903675256
| 25> C -3.2799426971 -2.4930414562 0.7154402099
| 26> H 4.2490637291 -3.3875046374 1.2061831121
| 27> H 4.4227434266 -3.0672633219 -0.5282038042
| 28> H 4.3558373982 -1.7223242087 0.624780348
| 29> H 1.9966945662 -2.2789567888 1.1747881342
| 30> H 2.0562893242 -3.6691283896 0.0510906083
| 31> H 1.3855771253 -0.6116885575 -2.7690911542
| 32> H 2.3839839468 0.7878685434 -2.2744432782
| 33> H 1.5415887279 4.5337877899 0.2802297533
| 34> H 0.7822370542 3.3354431705 1.3797786917
| 35> H 2.960603621 2.0999247547 1.4781727763
| 36> H 3.709827223 3.3466004975 0.4715295967
| 37> H 3.1234022036 3.7522708002 2.0941064753
| 38> H -4.0802081601 0.4154134928 -0.6941110835
| 39> H -3.4036354982 2.0500207938 -0.4514866123
| 40> H -4.5984339904 1.402030954 0.7108439099
| 41> H -2.586513639 -2.894713942 1.4573197899
| 42> H -3.6935775111 -3.2930294041 0.1065304671
| 43> H -4.0745001455 -1.9451407391 1.2243118225
| 44> *
| 45>
| 46>                          ****END OF INPUT****

CARTESIAN COORDINATES (ANGSTROEM)
---------------------------------
  C      3.977079   -2.716349    0.398524
  C      2.463018   -2.681898    0.270105
  O      2.060421   -1.875602   -0.853513
  C      1.965733   -0.574284   -0.701225
  O      2.162706    0.028925    0.334009
  C      1.565900    0.124237   -1.987588
  C      0.308456    0.965611   -1.753780
  H      0.161133    1.652047   -2.590684
  C      0.403275    1.761695   -0.465575
  O     -0.362945    1.563628    0.465327
  O      1.308051    2.686725   -0.519751
  C      1.571941    3.505321    0.644046
  C      2.936711    3.153596    1.208960
  S     -1.200642   -0.060412   -1.692098
  P     -1.648034   -0.412881    0.350158
  S     -0.514084   -1.072756    1.804024
  O     -2.741446    0.624047    0.895061
  C     -3.772886    1.154508    0.047482
  O     -2.584143   -1.640717   -0.190368
  C     -3.279943   -2.493041    0.715440
  H      4.249064   -3.387505    1.206183
  H      4.422743   -3.067263   -0.528204
  H      4.355837   -1.722324    0.624780
  H      1.996695   -2.278957    1.174788
  H      2.056289   -3.669128    0.051091
  H      1.385577   -0.611689   -2.769091
  H      2.383984    0.787869   -2.274443
  H      1.541589    4.533788    0.280230
  H      0.782237    3.335443    1.379779
  H      2.960604    2.099925    1.478173
  H      3.709827    3.346600    0.471530
  H      3.123402    3.752271    2.094106
  H     -4.080208    0.415413   -0.694111
  H     -3.403635    2.050021   -0.451487
  H     -4.598434    1.402031    0.710844
  H     -2.586514   -2.894714    1.457320
  H     -3.693578   -3.293029    0.106530
  H     -4.074500   -1.945141    1.224312

 Total Charge           Charge          ....    0
 Multiplicity           Mult            ....    1
 Number of Electrons    NEL             ....  174
 Basis Dimension        Dim             ....  316

ORBITAL ENERGIES
----------------

  NO   OCC          E(Eh)            E(eV)
   0   2.0000     -88.033298     -2395.5078
   1   2.0000     -87.957829     -2393.4542
   2   2.0000     -76.411426     -2079.2606
   3   2.0000     -18.819424      -512.1026
   4   2.0000     -18.803983      -511.6824
   5   2.0000     -18.770910      -510.7824
   6   2.0000     -18.762582      -510.5558
   7   2.0000     -18.759348      -510.4678
   8   2.0000     -18.740803      -509.9632
   9   2.0000     -10.030232      -272.9365
  10   2.0000     -10.012895      -272.4647
  11   2.0000      -9.954565      -270.8775
  12   2.0000      -9.952935      -270.8331
  13   2.0000      -9.938685      -270.4454
  14   2.0000      -9.936313      -270.3808
  15   2.0000      -9.923757      -270.0391
  16   2.0000      -9.916763      -269.8488
  17   2.0000      -9.883270      -268.9375
  18   2.0000      -9.883073      -268.9321
  19   2.0000      -7.678222      -208.9350
  20   2.0000      -7.603243      -206.8948
  21   2.0000      -6.406452      -174.3284
  22   2.0000      -5.706571      -155.2837
  23   2.0000      -5.702441      -155.1713
  24   2.0000      -5.694993      -154.9686
  25   2.0000      -5.632652      -153.2723
  26   2.0000      -5.624000      -153.0368
  27   2.0000      -5.622623      -152.9994
  28   2.0000      -4.629723      -125.9812
  29   2.0000      -4.628527      -125.9486
  30   2.0000      -4.626621      -125.8968
  31   2.0000      -1.030691       -28.0465
  32   2.0000      -1.010588       -27.4995
  33   2.0000      -0.959973       -26.1222
  34   2.0000      -0.936178       -25.4747
  35   2.0000      -0.918566       -24.9954
  36   2.0000      -0.914420       -24.8826
  37   2.0000      -0.767302       -20.8794
  38   2.0000      -0.712327       -19.3834
  39   2.0000      -0.705497       -19.1975
  40   2.0000      -0.683668       -18.6036
  41   2.0000      -0.653044       -17.7702
  42   2.0000      -0.627458       -17.0740
  43   2.0000      -0.613100       -16.6833
  44   2.0000      -0.599628       -16.3167
  45   2.0000      -0.593544       -16.1512
  46   2.0000      -0.562426       -15.3044
  47   2.0000      -0.511299       -13.9132
  48   2.0000      -0.502257       -13.6671
  49   2.0000      -0.497470       -13.5369
  50   2.0000      -0.484394       -13.1810
  51   2.0000      -0.462199       -12.5771
  52   2.0000      -0.459240       -12.4966
  53   2.0000      -0.446613       -12.1529
  54   2.0000      -0.436561       -11.8794
  55   2.0000      -0.429343       -11.6830
  56   2.0000      -0.423310       -11.5189
  57   2.0000      -0.413993       -11.2653
  58   2.0000      -0.411724       -11.2036
  59   2.0000      -0.398765       -10.8510
  60   2.0000      -0.397085       -10.8052
  61   2.0000      -0.393740       -10.7142
  62   2.0000      -0.384082       -10.4514
  63   2.0000      -0.383639       -10.4394
  64   2.0000      -0.375830       -10.2269
  65   2.0000      -0.362293        -9.8585
  66   2.0000      -0.356977        -9.7138
  67   2.0000      -0.353690        -9.6244
  68   2.0000      -0.343893        -9.3578
  69   2.0000      -0.335677        -9.1342
  70   2.0000      -0.331720        -9.0265
  71   2.0000      -0.328963        -8.9515
  72   2.0000      -0.319350        -8.6900
  73   2.0000      -0.307305        -8.3622
  74   2.0000      -0.305365        -8.3094
  75   2.0000      -0.290837        -7.9141
  76   2.0000      -0.289448        -7.8763
  77   2.0000      -0.276556        -7.5255
  78   2.0000      -0.265869        -7.2347
  79   2.0000      -0.258788        -7.0420
  80   2.0000      -0.253250        -6.8913
  81   2.0000      -0.249431        -6.7873
  82   2.0000      -0.236232        -6.4282
  83   2.0000      -0.227376        -6.1872
  84   2.0000      -0.213843        -5.8190
  85   2.0000      -0.179081        -4.8730
  86   2.0000      -0.170047        -4.6272
  87   0.0000      -0.041674        -1.1340
  88   0.0000      -0.034312        -0.9337
  89   0.0000      -0.026572        -0.7230
  90   0.0000       0.007044         0.1917
  91   0.0000       0.037350         1.0163

MULLIKEN ATOMIC CHARGES
-----------------------
   0 C :   -0.306605
   1 C :   -0.024073
   2 O :   -0.214746
   3 C :    0.104199
   4 O :   -0.195724
   5 C :   -0.025456
   6 C :   -0.307022
   7 H :    0.146150
   8 C :    0.230399
   9 O :   -0.198499
  10 O :   -0.218435
  11 C :   -0.025011
  12 C :   -0.303968
  13 S :   -0.082486
  14 P :    0.645894
  15 S :   -0.328824
  16 O :   -0.381975
  17 C :   -0.101160
  18 O :   -0.420441
  19 C :   -0.096851
  20 H :    0.114779
  21 H :    0.109330
  22 H :    0.122368
  23 H :    0.136710
  24 H :    0.104126
  25 H :    0.117370
  26 H :    0.122719
  27 H :    0.106024
  28 H :    0.129492
  29 H :    0.151595
  30 H :    0.107219
  31 H :    0.111499
  32 H :    0.115065
  33 H :    0.109036
  34 H :    0.122555
  35 H :    0.112682
  36 H :    0.113339
  37 H :    0.098725
Sum of atomic charges:   -0.0000000

LOEWDIN ATOMIC CHARGES
----------------------
   0 C :   -0.357158
   1 C :   -0.113010
   2 O :   -0.040635
   3 C :    0.031295
   4 O :   -0.153931
   5 C :   -0.246220
   6 C :   -0.262022
   7 H :    0.146700
   8 C :    0.027930
   9 O :   -0.144932
  10 O :   -0.033024
  11 C :   -0.103067
  12 C :   -0.356478
  13 S :    0.113596
  14 P :    0.585059
  15 S :   -0.314054
  16 O :   -0.256303
  17 C :   -0.214538
  18 O :   -0.295356
  19 C :   -0.220618
  20 H :    0.131830
  21 H :    0.122165
  22 H :    0.127830
  23 H :    0.122045
  24 H :    0.120042
  25 H :    0.136961
  26 H :    0.146152
  27 H :    0.118185
  28 H :    0.128457
  29 H :    0.139517
  30 H :    0.122552
  31 H :    0.130202
  32 H :    0.106817
  33 H :    0.109136
  34 H :    0.120484
  35 H :    0.105414
  36 H :    0.115633
  37 H :    0.103345

  Mayer bond orders larger than 0.100000
B(  0-C ,  1-C ) :   1.1642 B(  0-C , 20-H ) :   0.9449 B(  0-C , 21-H ) :   0.9477
B(  0-C , 22-H ) :   0.9467 B(  1-C ,  2-O ) :   0.9043 B(  1-C , 23-H ) :   0.9047
B(  1-C , 24-H ) :   0.9388 B(  2-O ,  3-C ) :   1.2722 B(  2-O ,  4-O ) :   0.1006
B(  3-C ,  4-O ) :   1.9384 B(  3-C ,  5-C ) :   0.9971 B(  4-O ,  8-C ) :   0.1035
B(  5-C ,  6-C ) :   1.0228 B(  5-C , 25-H ) :   0.9038 B(  5-C , 26-H ) :   0.8780
B(  6-C ,  7-H ) :   0.8777 B(  6-C ,  8-C ) :   0.9039 B(  6-C , 13-S ) :   1.0419
B(  8-C ,  9-O ) :   1.8784 B(  8-C , 10-O ) :   1.2812 B(  9-O , 14-P ) :   0.1803
B( 10-O , 11-C ) :   0.8886 B( 11-C , 12-C ) :   1.1803 B( 11-C , 27-H ) :   0.9367
B( 11-C , 28-H ) :   0.9083 B( 12-C , 29-H ) :   0.9313 B( 12-C , 30-H ) :   0.9502
B( 12-C , 31-H ) :   0.9419 B( 13-S , 14-P ) :   0.9263 B( 13-S , 15-S ) :   0.1071
B( 14-P , 15-S ) :   1.6124 B( 14-P , 16-O ) :   1.0667 B( 14-P , 18-O ) :   0.9914
B( 16-O , 17-C ) :   0.9376 B( 17-C , 32-H ) :   0.9380 B( 17-C , 33-H ) :   0.9521
B( 17-C , 34-H ) :   0.9577 B( 18-O , 19-C ) :   0.9511 B( 19-C , 35-H ) :   0.9323
B( 19-C , 36-H ) :   0.9591 B( 19-C , 37-H ) :   0.9497

Dispersion correction           -0.053885280
FINAL SINGLE POINT ENERGY     -1979.003892994867

DIPOLE MOMENT
-------------

Method             : SCF
Type of density    : Electron Density
Multiplicity       :   1
Irrep              :   0
Energy             : -1979.1337086501766862 Eh
Relativity type    :
Basis              : AO
                                X                 Y                 Z
Electronic contribution:    -11.142405711      -0.131710484      -3.502600565
Nuclear contribution   :     11.550871111       0.896651408       2.454977546
                        -----------------------------------------
Total Dipole Moment    :      0.408465400       0.764940923      -1.047623019
                        -----------------------------------------
Magnitude (a.u.)       :      1.359960510
Magnitude (Debye)      :      3.456744904

Rotational constants in cm-1:             0.012014             0.008780             0.006641
Rotational constants in MHz :           360.185277           263.219125           199.097985

                             ****ORCA TERMINATED NORMALLY****
TOTAL RUN TIME: 0 days 0 hours 0 minutes 46 seconds 126 msec
