                         Program Version 6.0.0  -   RELEASE  -
|  1> ! pbe def2-sv(p) def2/J RI DEFGRID1 loosescf d4 GCP(DFT/SV(P)) printgap
|  2> %output
|  3>     printlevel normal
|  4> end
|  5> * xyz 0 1
|  6> C -1.9358799284 -1.2040306736 -3.83508e-05
|  7> C -0.5560484156 -1.2071711967 0.0003118893
|  8> C 0.121310375 8.8132e-06 0.0006119528
|  9> C -0.5553855581 1.2053159654 0.0003370034
| 10> C -1.9380933626 1.203693011 -2.9598e-05
| 11> C -2.6394030061 0.0006105646 -8.83338e-05
| 12> O -3.9889036284 -0.0558113994 -0.0002519997
| 13> Br 2.0446835673 0.0007436013 -0.0001152368
| 14> H -2.4897782972 -2.1284762543 -0.0001947314
| 15> H -0.012336204 -2.1383529555 0.0003938774
| 16> H -0.0111727926 2.1363869901 0.0001765011
| 17> H -2.4676073279 2.1440410462 -0.0002361962
| 18> H -4.3795666031 0.8321174444 -0.0001661777
| 19> *
| 20>
| 21>                          ****END OF INPUT****

CARTESIAN COORDINATES (ANGSTROEM)
---------------------------------
  C     -1.935880   -1.204031   -0.000038
  C     -0.556048   -1.207171    0.000312
  C      0.121310    0.000009    0.000612
  C     -0.555386    1.205316    0.000337
  C     -1.938093    1.203693   -0.000030
  C     -2.639403    0.000611   -0.000088
  O     -3.988904   -0.055811   -0.000252
  Br     2.044684    0.000744   -0.000115
  H     -2.489778   -2.128476   -0.000195
  H     -0.012336   -2.138353    0.000394
  H     -0.011173    2.136387    0.000177
  H     -2.467607    2.144041   -0.000236
  H     -4.379567    0.832117   -0.000166

 Total Charge           Charge          ....    0
 Multiplicity           Mult            ....    1
 Number of Electrons    NEL             ....   84
 Basis Dimension        Dim             ....  140

ORBITAL ENERGIES
----------------

  NO   OCC          E(Eh)            E(eV)
   0   2.0000    -480.929177    -13086.7482
   1   2.0000     -61.771405     -1680.8854
   2   2.0000     -55.701861     -1515.7247
   3   2.0000     -55.698962     -1515.6458
   4   2.0000     -55.698945     -1515.6453
   5   2.0000     -18.793429      -511.3952
   6   2.0000      -9.964388      -271.1448
   7   2.0000      -9.944498      -270.6036
   8   2.0000      -9.909646      -269.6552
   9   2.0000      -9.908261      -269.6175
  10   2.0000      -9.905778      -269.5499
  11   2.0000      -9.900409      -269.4038
  12   2.0000      -8.396904      -228.4914
  13   2.0000      -6.278798      -170.8548
  14   2.0000      -6.264588      -170.4681
  15   2.0000      -6.264353      -170.4617
  16   2.0000      -2.479952       -67.4829
  17   2.0000      -2.476439       -67.3873
  18   2.0000      -2.476317       -67.3840
  19   2.0000      -2.465630       -67.0932
  20   2.0000      -2.465599       -67.0924
  21   2.0000      -0.977049       -26.5869
  22   2.0000      -0.794963       -21.6321
  23   2.0000      -0.726059       -19.7571
  24   2.0000      -0.689192       -18.7539
  25   2.0000      -0.651774       -17.7357
  26   2.0000      -0.577118       -15.7042
  27   2.0000      -0.548662       -14.9298
  28   2.0000      -0.510192       -13.8830
  29   2.0000      -0.447559       -12.1787
  30   2.0000      -0.426915       -11.6169
  31   2.0000      -0.404853       -11.0166
  32   2.0000      -0.392766       -10.6877
  33   2.0000      -0.378839       -10.3087
  34   2.0000      -0.349936        -9.5222
  35   2.0000      -0.329679        -8.9710
  36   2.0000      -0.325455        -8.8561
  37   2.0000      -0.308346        -8.3905
  38   2.0000      -0.256486        -6.9793
  39   2.0000      -0.245182        -6.6717
  40   2.0000      -0.243983        -6.6391
  41   2.0000      -0.196119        -5.3367
  42   0.0000      -0.048204        -1.3117
  43   0.0000      -0.031367        -0.8535
  44   0.0000      -0.026617        -0.7243
  45   0.0000       0.015330         0.4172
  46   0.0000       0.059009         1.6057

MULLIKEN ATOMIC CHARGES
-----------------------
   0 C :   -0.126721
   1 C :   -0.077954
   2 C :    0.051343
   3 C :   -0.084582
   4 C :   -0.167731
   5 C :    0.251462
   6 O :   -0.325926
   7 Br:   -0.055304
   8 H :    0.056288
   9 H :    0.061555
  10 H :    0.059400
  11 H :    0.037607
  12 H :    0.320564
Sum of atomic charges:    0.0000000

LOEWDIN ATOMIC CHARGES
----------------------
   0 C :   -0.139812
   1 C :   -0.124165
   2 C :   -0.138824
   3 C :   -0.126424
   4 C :   -0.169418
   5 C :    0.020151
   6 O :   -0.225901
   7 Br:    0.076813
   8 H :    0.135554
   9 H :    0.133632
  10 H :    0.132615
  11 H :    0.124773
  12 H :    0.301006

  Mayer bond orders larger than 0.100000
B(  0-C ,  1-C ) :   1.3823 B(  0-C ,  5-C ) :   1.3499 B(  0-C ,  8-H ) :   0.9635
B(  1-C ,  2-C ) :   1.3796 B(  1-C ,  9-H ) :   0.9637 B(  2-C ,  3-C ) :   1.4034
B(  2-C ,  7-Br) :   0.9620 B(  3-C ,  4-C ) :   1.3713 B(  3-C , 10-H ) :   0.9589
B(  4-C ,  5-C ) :   1.3047 B(  4-C , 11-H ) :   0.9582 B(  5-C ,  6-O ) :   1.2008
B(  6-O , 12-H ) :   0.8397

Dispersion correction           -0.014862142
FINAL SINGLE POINT ENERGY     -2879.673093334859

DIPOLE MOMENT
-------------

Method             : SCF
Type of density    : Electron Density
Multiplicity       :   1
Irrep              :   0
Energy             : -2879.7131137824953839 Eh
Relativity type    :
Basis              : AO
                                X                 Y                 Z
Electronic contribution:     26.959956069      -0.252015432      -0.001150469
Nuclear contribution   :    -27.825868270       0.785703151       0.001041194
                        -----------------------------------------
Total Dipole Moment    :     -0.865912201       0.533687719      -0.000109275
                        -----------------------------------------
Magnitude (a.u.)       :      1.017165932
Magnitude (Debye)      :      2.585430332

Rotational constants in cm-1:             0.189571             0.021027             0.018927
Rotational constants in MHz :          5683.192921           630.365356           567.427724

                             ****ORCA TERMINATED NORMALLY****
TOTAL RUN TIME: 0 days 0 hours 0 minutes 7 seconds 692 msec
