                         Program Version 6.0.0  -   RELEASE  -
|  1> ! r2scan-3c def2/J RI DEFGRID2 scfconv6 printgap
|  2> %output
|  3>     printlevel normal
|  4> end
|  5> * xyz 0 1
|  6> C 0.6057583193 1.7000099497 -0.0334145319
|  7> C 1.399358054 0.4067786746 -0.246707281
|  8> H 1.6221288753 0.283000531 -1.3176762934
|  9> C 0.5534504456 -0.7994330942 0.1941130775
| 10> H 0.3857467668 -0.7513076391 1.2792663133
| 11> C -0.809646207 -0.7636334365 -0.5028082625
| 12> H -0.6364196337 -0.8973477188 -1.5810497376
| 13> C -1.4745709818 0.6160644678 -0.287615156
| 14> H -2.3589791191 0.6969617924 -0.9372524437
| 15> O -0.6341135587 1.658620026 -0.7232385438
| 16> O -1.8141832976 0.7419607837 1.0530261773
| 17> O -1.5963181887 -1.7996964278 0.0155052275
| 18> O 1.1920786773 -2.0023075397 -0.1552528721
| 19> O 2.5818411687 0.3796288099 0.5168802974
| 20> H 1.1287860819 2.5643883998 -0.4430348651
| 21> H 0.4390534312 1.8370169512 1.0419251576
| 22> H -2.3873697465 1.5130896206 1.1849008867
| 23> H -2.4081069048 -1.8929153259 -0.503481155
| 24> H 2.0538502639 -2.0222189819 0.2877357235
| 25> H 3.1889390758 1.0682807816 0.2113335156
| 26> *
| 27>
| 28>                          ****END OF INPUT****

CARTESIAN COORDINATES (ANGSTROEM)
---------------------------------
  C      0.605758    1.700010   -0.033415
  C      1.399358    0.406779   -0.246707
  H      1.622129    0.283001   -1.317676
  C      0.553450   -0.799433    0.194113
  H      0.385747   -0.751308    1.279266
  C     -0.809646   -0.763633   -0.502808
  H     -0.636420   -0.897348   -1.581050
  C     -1.474571    0.616064   -0.287615
  H     -2.358979    0.696962   -0.937252
  O     -0.634114    1.658620   -0.723239
  O     -1.814183    0.741961    1.053026
  O     -1.596318   -1.799696    0.015505
  O      1.192079   -2.002308   -0.155253
  O      2.581841    0.379629    0.516880
  H      1.128786    2.564388   -0.443035
  H      0.439053    1.837017    1.041925
  H     -2.387370    1.513090    1.184901
  H     -2.408107   -1.892915   -0.503481
  H      2.053850   -2.022219    0.287736
  H      3.188939    1.068281    0.211334

 Total Charge           Charge          ....    0
 Multiplicity           Mult            ....    1
 Number of Electrons    NEL             ....   80
 Basis Dimension        Dim             ....  265

ORBITAL ENERGIES
----------------

  NO   OCC          E(Eh)            E(eV)
   0   2.0000     -18.967546      -516.1332
   1   2.0000     -18.967008      -516.1185
   2   2.0000     -18.966336      -516.1002
   3   2.0000     -18.951873      -515.7067
   4   2.0000     -18.943542      -515.4800
   5   2.0000     -10.136863      -275.8381
   6   2.0000     -10.088698      -274.5274
   7   2.0000     -10.088473      -274.5213
   8   2.0000     -10.082181      -274.3501
   9   2.0000     -10.081777      -274.3391
  10   2.0000      -1.047350       -28.4998
  11   2.0000      -1.009968       -27.4826
  12   2.0000      -0.996222       -27.1086
  13   2.0000      -0.978521       -26.6269
  14   2.0000      -0.974757       -26.5245
  15   2.0000      -0.745194       -20.2778
  16   2.0000      -0.721704       -19.6386
  17   2.0000      -0.616495       -16.7757
  18   2.0000      -0.613257       -16.6876
  19   2.0000      -0.549216       -14.9449
  20   2.0000      -0.513486       -13.9727
  21   2.0000      -0.506354       -13.7786
  22   2.0000      -0.494468       -13.4552
  23   2.0000      -0.481855       -13.1119
  24   2.0000      -0.464275       -12.6336
  25   2.0000      -0.423119       -11.5137
  26   2.0000      -0.404520       -11.0076
  27   2.0000      -0.392991       -10.6938
  28   2.0000      -0.383866       -10.4455
  29   2.0000      -0.373078       -10.1520
  30   2.0000      -0.358957        -9.7677
  31   2.0000      -0.337193        -9.1755
  32   2.0000      -0.325308        -8.8521
  33   2.0000      -0.293686        -7.9916
  34   2.0000      -0.283758        -7.7214
  35   2.0000      -0.274604        -7.4724
  36   2.0000      -0.264598        -7.2001
  37   2.0000      -0.247167        -6.7258
  38   2.0000      -0.237991        -6.4761
  39   2.0000      -0.222250        -6.0477
  40   0.0000       0.032127         0.8742
  41   0.0000       0.044686         1.2160
  42   0.0000       0.060870         1.6563
  43   0.0000       0.079610         2.1663
  44   0.0000       0.100056         2.7227

MULLIKEN ATOMIC CHARGES
-----------------------
   0 C :   -0.261763
   1 C :    0.025127
   2 H :    0.148616
   3 C :   -0.029982
   4 H :    0.174088
   5 C :   -0.111361
   6 H :    0.157852
   7 C :    0.050455
   8 H :    0.125677
   9 O :   -0.197100
  10 O :   -0.380060
  11 O :   -0.380544
  12 O :   -0.414216
  13 O :   -0.426605
  14 H :    0.141002
  15 H :    0.178073
  16 H :    0.304435
  17 H :    0.291597
  18 H :    0.308058
  19 H :    0.296653
Sum of atomic charges:    0.0000000

LOEWDIN ATOMIC CHARGES
----------------------
   0 C :    0.037039
   1 C :    0.098188
   2 H :    0.177683
   3 C :    0.120490
   4 H :    0.194062
   5 C :    0.127568
   6 H :    0.185827
   7 C :    0.277449
   8 H :    0.190468
   9 O :   -0.682979
  10 O :   -0.509070
  11 O :   -0.541321
  12 O :   -0.557914
  13 O :   -0.590195
  14 H :    0.182242
  15 H :    0.184365
  16 H :    0.278634
  17 H :    0.272626
  18 H :    0.280321
  19 H :    0.274518

  Mayer bond orders larger than 0.100000
B(  0-C ,  1-C ) :   0.8467 B(  0-C ,  9-O ) :   0.9339 B(  0-C , 14-H ) :   0.9374
B(  0-C , 15-H ) :   0.9911 B(  1-C ,  2-H ) :   0.9732 B(  1-C ,  3-C ) :   0.8856
B(  1-C , 13-O ) :   0.9159 B(  3-C ,  4-H ) :   0.9723 B(  3-C ,  5-C ) :   0.9406
B(  3-C , 12-O ) :   0.9460 B(  5-C ,  6-H ) :   0.9823 B(  5-C ,  7-C ) :   0.9041
B(  5-C , 11-O ) :   0.9705 B(  7-C ,  8-H ) :   0.9464 B(  7-C ,  9-O ) :   0.9459
B(  7-C , 10-O ) :   1.0209 B( 10-O , 16-H ) :   0.8907 B( 11-O , 17-H ) :   0.8976
B( 12-O , 18-H ) :   0.8813 B( 13-O , 19-H ) :   0.8977

Dispersion correction           -0.006235697
FINAL SINGLE POINT ENERGY      -572.555507486445

DIPOLE MOMENT
-------------

Method             : SCF
Type of density    : Electron Density
Multiplicity       :   1
Irrep              :   0
Energy             :  -572.5653612126019425 Eh
Relativity type    :
Basis              : AO
                                X                 Y                 Z
Electronic contribution:     -1.029791436      -1.137857235       0.317785927
Nuclear contribution   :      0.960080694       2.235484350      -0.718797832
                        -----------------------------------------
Total Dipole Moment    :     -0.069710743       1.097627116      -0.401011905
                        -----------------------------------------
Magnitude (a.u.)       :      1.170664521
Magnitude (Debye)      :      2.975592738

Rotational constants in cm-1:             0.056943             0.044700             0.028991
Rotational constants in MHz :          1707.109245          1340.079624           869.115454

                             ****ORCA TERMINATED NORMALLY****
TOTAL RUN TIME: 0 days 0 hours 0 minutes 35 seconds 905 msec
