                         Program Version 6.0.0  -   RELEASE  -
|  1> ! r2scan-3c def2/J RI DEFGRID2 scfconv6 printgap
|  2> %output
|  3>     printlevel normal
|  4> end
|  5> %cpcm
|  6>     smd true
|  7>     smdsolvent "water"
|  8> end
|  9> * xyz 0 1
| 10> C 0.6057583193 1.7000099497 -0.0334145319
| 11> C 1.399358054 0.4067786746 -0.246707281
| 12> H 1.6221288753 0.283000531 -1.3176762934
| 13> C 0.5534504456 -0.7994330942 0.1941130775
| 14> H 0.3857467668 -0.7513076391 1.2792663133
| 15> C -0.809646207 -0.7636334365 -0.5028082625
| 16> H -0.6364196337 -0.8973477188 -1.5810497376
| 17> C -1.4745709818 0.6160644678 -0.287615156
| 18> H -2.3589791191 0.6969617924 -0.9372524437
| 19> O -0.6341135587 1.658620026 -0.7232385438
| 20> O -1.8141832976 0.7419607837 1.0530261773
| 21> O -1.5963181887 -1.7996964278 0.0155052275
| 22> O 1.1920786773 -2.0023075397 -0.1552528721
| 23> O 2.5818411687 0.3796288099 0.5168802974
| 24> H 1.1287860819 2.5643883998 -0.4430348651
| 25> H 0.4390534312 1.8370169512 1.0419251576
| 26> H -2.3873697465 1.5130896206 1.1849008867
| 27> H -2.4081069048 -1.8929153259 -0.503481155
| 28> H 2.0538502639 -2.0222189819 0.2877357235
| 29> H 3.1889390758 1.0682807816 0.2113335156
| 30> *
| 31>
| 32>                          ****END OF INPUT****

CARTESIAN COORDINATES (ANGSTROEM)
---------------------------------
  C      0.605758    1.700010   -0.033415
  C      1.399358    0.406779   -0.246707
  H      1.622129    0.283001   -1.317676
  C      0.553450   -0.799433    0.194113
  H      0.385747   -0.751308    1.279266
  C     -0.809646   -0.763633   -0.502808
  H     -0.636420   -0.897348   -1.581050
  C     -1.474571    0.616064   -0.287615
  H     -2.358979    0.696962   -0.937252
  O     -0.634114    1.658620   -0.723239
  O     -1.814183    0.741961    1.053026
  O     -1.596318   -1.799696    0.015505
  O      1.192079   -2.002308   -0.155253
  O      2.581841    0.379629    0.516880
  H      1.128786    2.564388   -0.443035
  H      0.439053    1.837017    1.041925
  H     -2.387370    1.513090    1.184901
  H     -2.408107   -1.892915   -0.503481
  H      2.053850   -2.022219    0.287736
  H      3.188939    1.068281    0.211334

 Total Charge           Charge          ....    0
 Multiplicity           Mult            ....    1
 Number of Electrons    NEL             ....   80
 Basis Dimension        Dim             ....  265

ORBITAL ENERGIES
----------------

  NO   OCC          E(Eh)            E(eV)
   0   2.0000     -18.969593      -516.1889
   1   2.0000     -18.964564      -516.0520
   2   2.0000     -18.961642      -515.9725
   3   2.0000     -18.960730      -515.9477
   4   2.0000     -18.957961      -515.8723
   5   2.0000     -10.132185      -275.7108
   6   2.0000     -10.089099      -274.5384
   7   2.0000     -10.086015      -274.4544
   8   2.0000     -10.084460      -274.4121
   9   2.0000     -10.074521      -274.1417
  10   2.0000      -1.047099       -28.4930
  11   2.0000      -1.011195       -27.5160
  12   2.0000      -1.000616       -27.2282
  13   2.0000      -0.984410       -26.7872
  14   2.0000      -0.976829       -26.5809
  15   2.0000      -0.746149       -20.3038
  16   2.0000      -0.717826       -19.5330
  17   2.0000      -0.615013       -16.7354
  18   2.0000      -0.611965       -16.6524
  19   2.0000      -0.547949       -14.9105
  20   2.0000      -0.512606       -13.9487
  21   2.0000      -0.502616       -13.6769
  22   2.0000      -0.495099       -13.4723
  23   2.0000      -0.481055       -13.0902
  24   2.0000      -0.464021       -12.6266
  25   2.0000      -0.424789       -11.5591
  26   2.0000      -0.403351       -10.9757
  27   2.0000      -0.394068       -10.7231
  28   2.0000      -0.389092       -10.5877
  29   2.0000      -0.375437       -10.2162
  30   2.0000      -0.360609        -9.8127
  31   2.0000      -0.342407        -9.3174
  32   2.0000      -0.333808        -9.0834
  33   2.0000      -0.298065        -8.1107
  34   2.0000      -0.288730        -7.8567
  35   2.0000      -0.275069        -7.4850
  36   2.0000      -0.267904        -7.2900
  37   2.0000      -0.252721        -6.8769
  38   2.0000      -0.247986        -6.7481
  39   2.0000      -0.227749        -6.1974
  40   0.0000       0.042884         1.1669
  41   0.0000       0.064355         1.7512
  42   0.0000       0.080098         2.1796
  43   0.0000       0.094159         2.5622
  44   0.0000       0.105223         2.8633

MULLIKEN ATOMIC CHARGES
-----------------------
   0 C :   -0.279042
   1 C :    0.030382
   2 H :    0.171222
   3 C :   -0.011008
   4 H :    0.177421
   5 C :   -0.086013
   6 H :    0.183290
   7 C :    0.051354
   8 H :    0.161825
   9 O :   -0.257836
  10 O :   -0.451780
  11 O :   -0.474988
  12 O :   -0.490767
  13 O :   -0.489982
  14 H :    0.173619
  15 H :    0.181247
  16 H :    0.356363
  17 H :    0.352685
  18 H :    0.350665
  19 H :    0.351344
Sum of atomic charges:    0.0000000

LOEWDIN ATOMIC CHARGES
----------------------
   0 C :    0.041823
   1 C :    0.104267
   2 H :    0.185877
   3 C :    0.112386
   4 H :    0.194619
   5 C :    0.126421
   6 H :    0.196323
   7 C :    0.284276
   8 H :    0.207059
   9 O :   -0.706079
  10 O :   -0.532116
  11 O :   -0.578617
  12 O :   -0.594853
  13 O :   -0.605684
  14 H :    0.195760
  15 H :    0.186041
  16 H :    0.298507
  17 H :    0.294789
  18 H :    0.294629
  19 H :    0.294571

  Mayer bond orders larger than 0.100000
B(  0-C ,  1-C ) :   0.8531 B(  0-C ,  9-O ) :   0.9171 B(  0-C , 14-H ) :   0.9328
B(  0-C , 15-H ) :   0.9859 B(  1-C ,  2-H ) :   0.9707 B(  1-C ,  3-C ) :   0.9081
B(  1-C , 13-O ) :   0.9107 B(  3-C ,  4-H ) :   0.9514 B(  3-C ,  5-C ) :   0.9362
B(  3-C , 12-O ) :   0.9217 B(  5-C ,  6-H ) :   0.9719 B(  5-C ,  7-C ) :   0.9072
B(  5-C , 11-O ) :   0.9501 B(  7-C ,  8-H ) :   0.9478 B(  7-C ,  9-O ) :   0.9404
B(  7-C , 10-O ) :   1.0080 B( 10-O , 16-H ) :   0.8641 B( 11-O , 17-H ) :   0.8679
B( 12-O , 18-H ) :   0.8608 B( 13-O , 19-H ) :   0.8699

Dispersion correction           -0.006235697
FINAL SINGLE POINT ENERGY      -572.589970100227

DIPOLE MOMENT
-------------

Method             : SCF
Type of density    : Electron Density
Multiplicity       :   1
Irrep              :   0
Energy             :  -572.5998238263840676 Eh
Relativity type    :
Basis              : AO
                                X                 Y                 Z
Electronic contribution:     -1.042538329      -0.603947005       0.019472662
Nuclear contribution   :      0.960080694       2.235484350      -0.718797832
                        -----------------------------------------
Total Dipole Moment    :     -0.082457635       1.631537345      -0.699325170
                        -----------------------------------------
Magnitude (a.u.)       :      1.777011273
Magnitude (Debye)      :      4.516803699

Rotational constants in cm-1:             0.056943             0.044700             0.028991
Rotational constants in MHz :          1707.109245          1340.079624           869.115454

                             ****ORCA TERMINATED NORMALLY****
TOTAL RUN TIME: 0 days 0 hours 0 minutes 46 seconds 501 msec
