                         Program Version 6.0.1  -  RELEASE   -
|  1> ! pbe def2-sv(p) def2/J RI DEFGRID1 loosescf d4 GCP(DFT/SV(P)) printgap
|  2> %output
|  3>     printlevel normal
|  4> end
|  5> * xyz 0 1
|  6> C 3.0833720101 -1.6101139161 1.6200409725
|  7> C 2.941753868 -2.2408818674 0.2446203044
|  8> O 2.6639429052 -1.2345852811 -0.7490193887
|  9> C 1.4251665197 -0.98356299 -1.0873518869
| 10> O 0.4552077227 -1.5700674899 -0.6336955172
| 11> C 1.3231929842 0.1008281448 -2.1326223195
| 12> C 0.1963566911 1.0716002481 -1.8018336884
| 13> H 0.1022660361 1.820551371 -2.5937534457
| 14> C 0.3678772544 1.8105698591 -0.483412172
| 15> O -0.5530353884 2.3817393662 0.0639943761
| 16> O 1.6016452643 1.7793377006 -0.054876451
| 17> C 1.9146171742 2.4435855352 1.187407672
| 18> C 3.4104234649 2.6824822991 1.2256264414
| 19> S -1.4626955515 0.2848846151 -1.78490582
| 20> P -1.6875632147 -0.4689103538 0.1904629056
| 21> S -0.4985653304 -0.2225591991 1.7411170044
| 22> O -3.1509087729 0.1152166107 0.5154518006
| 23> C -3.3972049377 1.48857134 0.808709225
| 24> O -2.2222302587 -1.9442511698 -0.0370170286
| 25> C -1.6066355638 -3.1391977357 0.4447991344
| 26> H 3.8708019467 -0.8623635761 1.6111503001
| 27> H 2.1486590988 -1.1368371971 1.9169564342
| 28> H 3.3293813363 -2.3799086298 2.3437706481
| 29> H 2.1334649823 -2.9771038312 0.2369620456
| 30> H 3.8771559519 -2.6973980459 -0.0806896244
| 31> H 1.1022778196 -0.3724927618 -3.0914155742
| 32> H 2.2750476187 0.6270736222 -2.1916461127
| 33> H 1.3430012388 3.3751331224 1.2344316714
| 34> H 1.5811977156 1.7905676532 2.0007632224
| 35> H 3.9376420306 1.7393216533 1.1210156744
| 36> H 3.707188317 3.3448002693 0.4178992482
| 37> H 3.672507522 3.1354436899 2.175606592
| 38> H -4.4333561723 1.5352546205 1.1338592515
| 39> H -3.2417494993 2.1017643986 -0.0795924136
| 40> H -2.7292498353 1.8337153929 1.6000839065
| 41> H -0.9384779291 -2.9138434283 1.2779250039
| 42> H -1.0443782675 -3.5992771353 -0.365754375
| 43> H -2.4175059251 -3.7861584313 0.7723375894
| 44> *
| 45>
| 46>                          ****END OF INPUT****

CARTESIAN COORDINATES (ANGSTROEM)
---------------------------------
  C      3.083372   -1.610114    1.620041
  C      2.941754   -2.240882    0.244620
  O      2.663943   -1.234585   -0.749019
  C      1.425167   -0.983563   -1.087352
  O      0.455208   -1.570067   -0.633696
  C      1.323193    0.100828   -2.132622
  C      0.196357    1.071600   -1.801834
  H      0.102266    1.820551   -2.593753
  C      0.367877    1.810570   -0.483412
  O     -0.553035    2.381739    0.063994
  O      1.601645    1.779338   -0.054876
  C      1.914617    2.443586    1.187408
  C      3.410423    2.682482    1.225626
  S     -1.462696    0.284885   -1.784906
  P     -1.687563   -0.468910    0.190463
  S     -0.498565   -0.222559    1.741117
  O     -3.150909    0.115217    0.515452
  C     -3.397205    1.488571    0.808709
  O     -2.222230   -1.944251   -0.037017
  C     -1.606636   -3.139198    0.444799
  H      3.870802   -0.862364    1.611150
  H      2.148659   -1.136837    1.916956
  H      3.329381   -2.379909    2.343771
  H      2.133465   -2.977104    0.236962
  H      3.877156   -2.697398   -0.080690
  H      1.102278   -0.372493   -3.091416
  H      2.275048    0.627074   -2.191646
  H      1.343001    3.375133    1.234432
  H      1.581198    1.790568    2.000763
  H      3.937642    1.739322    1.121016
  H      3.707188    3.344800    0.417899
  H      3.672508    3.135444    2.175607
  H     -4.433356    1.535255    1.133859
  H     -3.241749    2.101764   -0.079592
  H     -2.729250    1.833715    1.600084
  H     -0.938478   -2.913843    1.277925
  H     -1.044378   -3.599277   -0.365754
  H     -2.417506   -3.786158    0.772338

 Total Charge           Charge          ....    0
 Multiplicity           Mult            ....    1
 Number of Electrons    NEL             ....  174
 Basis Dimension        Dim             ....  316

ORBITAL ENERGIES
----------------

  NO   OCC          E(Eh)            E(eV)
   0   2.0000     -88.028723     -2395.3833
   1   2.0000     -87.971475     -2393.8255
   2   2.0000     -76.415642     -2079.3753
   3   2.0000     -18.814390      -511.9656
   4   2.0000     -18.814113      -511.9580
   5   2.0000     -18.772464      -510.8247
   6   2.0000     -18.762718      -510.5595
   7   2.0000     -18.752009      -510.2681
   8   2.0000     -18.738330      -509.8959
   9   2.0000     -10.021653      -272.7030
  10   2.0000     -10.018283      -272.6113
  11   2.0000      -9.953506      -270.8487
  12   2.0000      -9.952481      -270.8208
  13   2.0000      -9.948985      -270.7256
  14   2.0000      -9.927627      -270.1445
  15   2.0000      -9.916626      -269.8451
  16   2.0000      -9.916452      -269.8404
  17   2.0000      -9.892705      -269.1942
  18   2.0000      -9.886375      -269.0219
  19   2.0000      -7.673756      -208.8135
  20   2.0000      -7.616386      -207.2524
  21   2.0000      -6.410762      -174.4457
  22   2.0000      -5.702189      -155.1645
  23   2.0000      -5.698573      -155.0661
  24   2.0000      -5.689833      -154.8282
  25   2.0000      -5.645462      -153.6208
  26   2.0000      -5.637096      -153.3932
  27   2.0000      -5.636187      -153.3684
  28   2.0000      -4.633249      -126.0771
  29   2.0000      -4.633041      -126.0714
  30   2.0000      -4.631298      -126.0240
  31   2.0000      -1.023647       -27.8548
  32   2.0000      -1.019852       -27.7516
  33   2.0000      -0.963920       -26.2296
  34   2.0000      -0.927829       -25.2475
  35   2.0000      -0.920339       -25.0437
  36   2.0000      -0.916424       -24.9372
  37   2.0000      -0.765012       -20.8170
  38   2.0000      -0.716256       -19.4903
  39   2.0000      -0.709871       -19.3166
  40   2.0000      -0.685416       -18.6511
  41   2.0000      -0.653578       -17.7848
  42   2.0000      -0.620181       -16.8760
  43   2.0000      -0.617572       -16.8050
  44   2.0000      -0.600660       -16.3448
  45   2.0000      -0.597905       -16.2698
  46   2.0000      -0.566412       -15.4129
  47   2.0000      -0.515515       -14.0279
  48   2.0000      -0.507740       -13.8163
  49   2.0000      -0.495490       -13.4830
  50   2.0000      -0.486347       -13.2342
  51   2.0000      -0.459651       -12.5077
  52   2.0000      -0.456485       -12.4216
  53   2.0000      -0.449176       -12.2227
  54   2.0000      -0.441412       -12.0114
  55   2.0000      -0.429869       -11.6973
  56   2.0000      -0.418565       -11.3897
  57   2.0000      -0.410897       -11.1811
  58   2.0000      -0.407071       -11.0770
  59   2.0000      -0.400979       -10.9112
  60   2.0000      -0.397678       -10.8214
  61   2.0000      -0.388112       -10.5611
  62   2.0000      -0.383005       -10.4221
  63   2.0000      -0.378109       -10.2889
  64   2.0000      -0.377057       -10.2602
  65   2.0000      -0.367763       -10.0073
  66   2.0000      -0.363473        -9.8906
  67   2.0000      -0.358436        -9.7535
  68   2.0000      -0.350333        -9.5331
  69   2.0000      -0.344717        -9.3802
  70   2.0000      -0.339171        -9.2293
  71   2.0000      -0.330727        -8.9995
  72   2.0000      -0.322696        -8.7810
  73   2.0000      -0.308180        -8.3860
  74   2.0000      -0.300362        -8.1733
  75   2.0000      -0.295091        -8.0298
  76   2.0000      -0.285100        -7.7580
  77   2.0000      -0.275803        -7.5050
  78   2.0000      -0.269400        -7.3307
  79   2.0000      -0.264604        -7.2003
  80   2.0000      -0.253792        -6.9060
  81   2.0000      -0.244460        -6.6521
  82   2.0000      -0.231881        -6.3098
  83   2.0000      -0.229408        -6.2425
  84   2.0000      -0.196771        -5.3544
  85   2.0000      -0.191624        -5.2143
  86   2.0000      -0.180904        -4.9226
  87   0.0000      -0.045946        -1.2503
  88   0.0000      -0.037306        -1.0152
  89   0.0000      -0.034895        -0.9495
  90   0.0000       0.008404         0.2287
  91   0.0000       0.026621         0.7244

MULLIKEN ATOMIC CHARGES
-----------------------
   0 C :   -0.328715
   1 C :   -0.020925
   2 O :   -0.213987
   3 C :    0.115520
   4 O :   -0.212299
   5 C :    0.000326
   6 C :   -0.332220
   7 H :    0.153820
   8 C :    0.179428
   9 O :   -0.181104
  10 O :   -0.222919
  11 C :   -0.029284
  12 C :   -0.289645
  13 S :   -0.079564
  14 P :    0.641725
  15 S :   -0.345148
  16 O :   -0.374735
  17 C :   -0.093320
  18 O :   -0.372734
  19 C :   -0.086220
  20 H :    0.119117
  21 H :    0.150013
  22 H :    0.110306
  23 H :    0.112421
  24 H :    0.104734
  25 H :    0.121747
  26 H :    0.108942
  27 H :    0.111570
  28 H :    0.125702
  29 H :    0.124093
  30 H :    0.111759
  31 H :    0.114582
  32 H :    0.111527
  33 H :    0.111070
  34 H :    0.113691
  35 H :    0.113481
  36 H :    0.111618
  37 H :    0.115625
Sum of atomic charges:   -0.0000000

LOEWDIN ATOMIC CHARGES
----------------------
   0 C :   -0.362467
   1 C :   -0.108199
   2 O :   -0.039903
   3 C :    0.041058
   4 O :   -0.170925
   5 C :   -0.253223
   6 C :   -0.260656
   7 H :    0.153806
   8 C :   -0.005601
   9 O :   -0.159001
  10 O :   -0.041409
  11 C :   -0.107459
  12 C :   -0.351852
  13 S :    0.112714
  14 P :    0.598110
  15 S :   -0.305247
  16 O :   -0.257828
  17 C :   -0.218218
  18 O :   -0.241747
  19 C :   -0.209652
  20 H :    0.121596
  21 H :    0.125983
  22 H :    0.131021
  23 H :    0.120620
  24 H :    0.118432
  25 H :    0.148944
  26 H :    0.139440
  27 H :    0.120183
  28 H :    0.119010
  29 H :    0.125579
  30 H :    0.125093
  31 H :    0.132642
  32 H :    0.114560
  33 H :    0.105812
  34 H :    0.108163
  35 H :    0.105013
  36 H :    0.109925
  37 H :    0.115681

  Mayer bond orders larger than 0.100000
B(  0-C ,  1-C ) :   1.1792 B(  0-C , 20-H ) :   0.9405 B(  0-C , 21-H ) :   0.9223
B(  0-C , 22-H ) :   0.9393 B(  1-C ,  2-O ) :   0.9049 B(  1-C , 23-H ) :   0.9104
B(  1-C , 24-H ) :   0.9361 B(  2-O ,  3-C ) :   1.2724 B(  3-C ,  4-O ) :   1.9076
B(  3-C ,  5-C ) :   1.0114 B(  5-C ,  6-C ) :   1.0228 B(  5-C , 25-H ) :   0.8745
B(  5-C , 26-H ) :   0.8834 B(  6-C ,  7-H ) :   0.8705 B(  6-C ,  8-C ) :   0.8946
B(  6-C , 13-S ) :   1.0404 B(  8-C ,  9-O ) :   2.0459 B(  8-C , 10-O ) :   1.2657
B( 10-O , 11-C ) :   0.8880 B( 11-C , 12-C ) :   1.1553 B( 11-C , 27-H ) :   0.9226
B( 11-C , 28-H ) :   0.9192 B( 12-C , 29-H ) :   0.9421 B( 12-C , 30-H ) :   0.9499
B( 12-C , 31-H ) :   0.9431 B( 13-S , 14-P ) :   0.9215 B( 13-S , 15-S ) :   0.1260
B( 14-P , 15-S ) :   1.5208 B( 14-P , 16-O ) :   1.0972 B( 14-P , 18-O ) :   1.1348
B( 16-O , 17-C ) :   0.9445 B( 17-C , 32-H ) :   0.9573 B( 17-C , 33-H ) :   0.9432
B( 17-C , 34-H ) :   0.9391 B( 18-O , 19-C ) :   0.9323 B( 19-C , 35-H ) :   0.9303
B( 19-C , 36-H ) :   0.9535 B( 19-C , 37-H ) :   0.9544

Dispersion correction           -0.056977655
FINAL SINGLE POINT ENERGY     -1979.005041575863

DIPOLE MOMENT
-------------

Method             : SCF
Type of density    : Electron Density
Multiplicity       :   1
Irrep              :   0
Energy             : -1979.1333878085206379 Eh
Relativity type    :
Basis              : AO
                                X                 Y                 Z
Electronic contribution:    -16.868488819      -0.971346692      -9.074871612
Nuclear contribution   :     18.692673881       0.952661491       8.674083166
                        -----------------------------------------
Total Dipole Moment    :      1.824185062      -0.018685200      -0.400788446
                        -----------------------------------------
Magnitude (a.u.)       :      1.867787904
Magnitude (Debye)      :      4.747539559

Rotational constants in cm-1:             0.012991             0.009349             0.007708
Rotational constants in MHz :           389.471695           280.285394           231.084777

                             ****ORCA TERMINATED NORMALLY****
TOTAL RUN TIME: 0 days 0 hours 0 minutes 41 seconds 722 msec
