                         Program Version 6.0.0  -   RELEASE  -
|  1> ! wb97x-v def2-tzvp def2/J RIJCOSX DEFGRID2 scfconv7 GCP(DFT/TZ) printgap
|  2> %output
|  3>     printlevel normal
|  4> end
|  5> * xyz 0 1
|  6> C -1.9579422358539436 0.06306266541711601 -0.002932469586177432
|  7> C -0.7155350302282389 -0.7855704487337675 0.003793396909159668
|  8> N 0.5609982920018949 0.029414272472151653 -0.0004072151432703326
|  9> O 0.49106682546688385 1.2506943309564325 0.00026095064154893315
| 10> O 1.6163649105280125 -0.597030784004456 -0.0008053494318237721
| 11> H -2.819021474843775 -0.6115031721975304 -0.00018086176726651138
| 12> H -2.017354107423211 0.6973709065002178 0.8841657435869253
| 13> H -2.014676540897885 0.6867022353426099 -0.8977919744912218
| 14> H -0.6295271764530507 -1.4294784537719956 -0.8759792301178468
| 15> H -0.6315307756107343 -1.417353089684933 0.8926438290980512
| 16> *
| 17>
| 18>                          ****END OF INPUT****

CARTESIAN COORDINATES (ANGSTROEM)
---------------------------------
  C     -1.957942    0.063063   -0.002932
  C     -0.715535   -0.785570    0.003793
  N      0.560998    0.029414   -0.000407
  O      0.491067    1.250694    0.000261
  O      1.616365   -0.597031   -0.000805
  H     -2.819021   -0.611503   -0.000181
  H     -2.017354    0.697371    0.884166
  H     -2.014677    0.686702   -0.897792
  H     -0.629527   -1.429478   -0.875979
  H     -0.631531   -1.417353    0.892644

 Total Charge           Charge          ....    0
 Multiplicity           Mult            ....    1
 Number of Electrons    NEL             ....   40
 Basis Dimension        Dim             ....  185

ORBITAL ENERGIES
----------------

  NO   OCC          E(Eh)            E(eV)
   0   2.0000     -21.712374      -590.8237
   1   2.0000     -21.707348      -590.6870
   2   2.0000     -16.769856      -456.3310
   3   2.0000     -12.123969      -329.9100
   4   2.0000     -12.067294      -328.3678
   5   2.0000      -1.904464       -51.8231
   6   2.0000      -1.750464       -47.6325
   7   2.0000      -1.390987       -37.8507
   8   2.0000      -1.261802       -34.3354
   9   2.0000      -1.179404       -32.0932
  10   2.0000      -1.140258       -31.0280
  11   2.0000      -1.079731       -29.3810
  12   2.0000      -1.062499       -28.9121
  13   2.0000      -0.923856       -25.1394
  14   2.0000      -0.913860       -24.8674
  15   2.0000      -0.896293       -24.3894
  16   2.0000      -0.894505       -24.3407
  17   2.0000      -0.876903       -23.8618
  18   2.0000      -0.838270       -22.8105
  19   2.0000      -0.815979       -22.2039
  20   0.0000      -0.475631       -12.9426
  21   0.0000      -0.230119        -6.2618
  22   0.0000      -0.122803        -3.3416
  23   0.0000      -0.094154        -2.5621
  24   0.0000      -0.026475        -0.7204

MULLIKEN ATOMIC CHARGES
-----------------------
   0 C :   -0.311428
   1 C :   -0.156274
   2 N :    0.404666
   3 O :   -0.301303
   4 O :   -0.308743
   5 H :    0.120778
   6 H :    0.131743
   7 H :    0.131588
   8 H :    0.144551
   9 H :    0.144421
Sum of atomic charges:    0.0000000

LOEWDIN ATOMIC CHARGES
----------------------
   0 C :   -0.301982
   1 C :   -0.251197
   2 N :   -0.048243
   3 O :   -0.027743
   4 O :   -0.044582
   5 H :    0.129004
   6 H :    0.127319
   7 H :    0.127307
   8 H :    0.144999
   9 H :    0.145118

  Mayer bond orders larger than 0.100000
B(  0-C ,  1-C ) :   1.0013 B(  0-C ,  5-H ) :   0.9611 B(  0-C ,  6-H ) :   0.9696
B(  0-C ,  7-H ) :   0.9698 B(  1-C ,  2-N ) :   0.8826 B(  1-C ,  8-H ) :   0.9578
B(  1-C ,  9-H ) :   0.9575 B(  2-N ,  3-O ) :   1.6671 B(  2-N ,  4-O ) :   1.6545
B(  3-O ,  4-O ) :   0.2088

FINAL SINGLE POINT ENERGY      -284.350105580307

DIPOLE MOMENT
-------------

Method             : SCF
Type of density    : Electron Density
Multiplicity       :   1
Irrep              :   0
Energy             :  -284.3566909033072534 Eh
Relativity type    :
Basis              : AO
                                X                 Y                 Z
Electronic contribution:      6.274469810       1.247698067      -0.000475750
Nuclear contribution   :     -7.657331281      -1.942557255       0.002745642
                        -----------------------------------------
Total Dipole Moment    :     -1.382861470      -0.694859189       0.002269892
                        -----------------------------------------
Magnitude (a.u.)       :      1.547624079
Magnitude (Debye)      :      3.933747790

Rotational constants in cm-1:             0.360202             0.137696             0.103503
Rotational constants in MHz :         10798.582318          4128.036774          3102.926934

                             ****ORCA TERMINATED NORMALLY****
TOTAL RUN TIME: 0 days 0 hours 0 minutes 59 seconds 318 msec
