                         Program Version 6.0.0  -   RELEASE  -
|  1> ! wb97x-v def2-tzvp def2/J RIJCOSX DEFGRID2 scfconv7 GCP(DFT/TZ) printgap
|  2> %output
|  3>     printlevel normal
|  4> end
|  5> %cpcm
|  6>     smd true
|  7>     smdsolvent "water"
|  8> end
|  9> * xyz 0 1
| 10> C -1.9579422358539436 0.06306266541711601 -0.002932469586177432
| 11> C -0.7155350302282389 -0.7855704487337675 0.003793396909159668
| 12> N 0.5609982920018949 0.029414272472151653 -0.0004072151432703326
| 13> O 0.49106682546688385 1.2506943309564325 0.00026095064154893315
| 14> O 1.6163649105280125 -0.597030784004456 -0.0008053494318237721
| 15> H -2.819021474843775 -0.6115031721975304 -0.00018086176726651138
| 16> H -2.017354107423211 0.6973709065002178 0.8841657435869253
| 17> H -2.014676540897885 0.6867022353426099 -0.8977919744912218
| 18> H -0.6295271764530507 -1.4294784537719956 -0.8759792301178468
| 19> H -0.6315307756107343 -1.417353089684933 0.8926438290980512
| 20> *
| 21>
| 22>                          ****END OF INPUT****

CARTESIAN COORDINATES (ANGSTROEM)
---------------------------------
  C     -1.957942    0.063063   -0.002932
  C     -0.715535   -0.785570    0.003793
  N      0.560998    0.029414   -0.000407
  O      0.491067    1.250694    0.000261
  O      1.616365   -0.597031   -0.000805
  H     -2.819021   -0.611503   -0.000181
  H     -2.017354    0.697371    0.884166
  H     -2.014677    0.686702   -0.897792
  H     -0.629527   -1.429478   -0.875979
  H     -0.631531   -1.417353    0.892644

 Total Charge           Charge          ....    0
 Multiplicity           Mult            ....    1
 Number of Electrons    NEL             ....   40
 Basis Dimension        Dim             ....  185

ORBITAL ENERGIES
----------------

  NO   OCC          E(Eh)            E(eV)
   0   2.0000     -21.723058      -591.1144
   1   2.0000     -21.718467      -590.9895
   2   2.0000     -16.776541      -456.5129
   3   2.0000     -12.102430      -329.3239
   4   2.0000     -12.041967      -327.6786
   5   2.0000      -1.914005       -52.0827
   6   2.0000      -1.761181       -47.9242
   7   2.0000      -1.384639       -37.6780
   8   2.0000      -1.254384       -34.1335
   9   2.0000      -1.176075       -32.0026
  10   2.0000      -1.153757       -31.3953
  11   2.0000      -1.086416       -29.5629
  12   2.0000      -1.047902       -28.5149
  13   2.0000      -0.935302       -25.4509
  14   2.0000      -0.910969       -24.7887
  15   2.0000      -0.898916       -24.4607
  16   2.0000      -0.889984       -24.2177
  17   2.0000      -0.856397       -23.3038
  18   2.0000      -0.815080       -22.1794
  19   2.0000      -0.790961       -21.5231
  20   0.0000      -0.481393       -13.0994
  21   0.0000      -0.227114        -6.1801
  22   0.0000      -0.121054        -3.2941
  23   0.0000      -0.093690        -2.5494
  24   0.0000       0.002192         0.0597

MULLIKEN ATOMIC CHARGES
-----------------------
   0 C :   -0.367706
   1 C :   -0.145094
   2 N :    0.472735
   3 O :   -0.366063
   4 O :   -0.381170
   5 H :    0.146968
   6 H :    0.141700
   7 H :    0.141825
   8 H :    0.178316
   9 H :    0.178488
Sum of atomic charges:   -0.0000000

LOEWDIN ATOMIC CHARGES
----------------------
   0 C :   -0.302095
   1 C :   -0.232490
   2 N :   -0.026537
   3 O :   -0.062507
   4 O :   -0.086176
   5 H :    0.138128
   6 H :    0.127703
   7 H :    0.127765
   8 H :    0.157998
   9 H :    0.158210

  Mayer bond orders larger than 0.100000
B(  0-C ,  1-C ) :   1.0070 B(  0-C ,  5-H ) :   0.9575 B(  0-C ,  6-H ) :   0.9680
B(  0-C ,  7-H ) :   0.9682 B(  1-C ,  2-N ) :   0.8792 B(  1-C ,  8-H ) :   0.9415
B(  1-C ,  9-H ) :   0.9411 B(  2-N ,  3-O ) :   1.6348 B(  2-N ,  4-O ) :   1.6107
B(  3-O ,  4-O ) :   0.2036

FINAL SINGLE POINT ENERGY      -284.357506980369

DIPOLE MOMENT
-------------

Method             : SCF
Type of density    : Electron Density
Multiplicity       :   1
Irrep              :   0
Energy             :  -284.3640923033693753 Eh
Relativity type    :
Basis              : AO
                                X                 Y                 Z
Electronic contribution:      5.905133193       0.982779517       0.000537022
Nuclear contribution   :     -7.657331281      -1.942557255       0.002745642
                        -----------------------------------------
Total Dipole Moment    :     -1.752198088      -0.959777738       0.003282664
                        -----------------------------------------
Magnitude (a.u.)       :      1.997844394
Magnitude (Debye)      :      5.078116884

Rotational constants in cm-1:             0.360202             0.137696             0.103503
Rotational constants in MHz :         10798.582318          4128.036774          3102.926934

                             ****ORCA TERMINATED NORMALLY****
TOTAL RUN TIME: 0 days 0 hours 0 minutes 53 seconds 592 msec
