                         Program Version 6.0.0  -   RELEASE  -
|  1> ! r2scan-3c def2/J RI DEFGRID2 scfconv6 printgap
|  2> %output
|  3>     printlevel normal
|  4> end
|  5> %cpcm
|  6>     smd true
|  7>     smdsolvent "water"
|  8> end
|  9> * xyz 0 1
| 10> C 3.8980576549 -1.3703623058 -2.5214582387
| 11> C 4.2040054815 -1.5947883812 -1.055106378
| 12> O 3.006903112 -1.6469272203 -0.2591459733
| 13> P 2.1246831333 -0.354861911 0.0257658514
| 14> S 3.1566929482 1.2999344821 0.273457721
| 15> O 1.2002567357 -0.8628082677 1.2070067097
| 16> C 1.6646958827 -1.4875615735 2.4216358318
| 17> C 2.5295948734 -0.5645950832 3.2548793013
| 18> S 0.6890745318 -0.2916668375 -1.5244821015
| 19> C 0.161829494 1.4191497849 -1.261185074
| 20> S -0.6052268133 1.6857497518 0.3631933186
| 21> P -2.249260055 0.4014627948 0.072875659
| 22> S -3.0099125649 0.273433461 -1.7328716471
| 23> O -3.3054368316 0.8327677232 1.1840941583
| 24> C -4.3268713164 1.815225989 0.9375350395
| 25> C -3.7511321568 3.2074111662 0.777408325
| 26> O -1.6788433769 -0.9293842636 0.7140033003
| 27> C -2.3003600336 -2.2173779773 0.4987456103
| 28> C -1.532023825 -3.0058347094 -0.5434317311
| 29> H 3.4822263364 -0.3742731901 -2.6662334086
| 30> H 4.8139345493 -1.4567167798 -3.0971349264
| 31> H 3.1773314611 -2.1035307433 -2.8744615948
| 32> H 4.8415300666 -0.7932876937 -0.6682249922
| 33> H 4.6760280651 -2.5631778498 -0.8840659875
| 34> H 0.738904206 -1.7418182186 2.9413951287
| 35> H 2.2056675514 -2.3986404263 2.1550235631
| 36> H 2.7675762121 -1.0475817987 4.1974889648
| 37> H 3.4552002879 -0.3355482733 2.7289135885
| 38> H 2.005438656 0.3683998414 3.4499521449
| 39> H -0.5553832514 1.6443406444 -2.0495891163
| 40> H 1.0251439201 2.0828689214 -1.3027592913
| 41> H -4.8776368875 1.5212232333 0.038157327
| 42> H -4.9752877432 1.7439173035 1.8117521101
| 43> H -3.1148064903 3.4533055816 1.6239001409
| 44> H -3.1567049569 3.2619453458 -0.1337193661
| 45> H -4.5615080366 3.9263670324 0.712966077
| 46> H -2.2734403525 -2.7073446983 1.4734496944
| 47> H -3.3394913252 -2.0707352075 0.1903510264
| 48> H -1.5973260825 -2.512808257 -1.5112920905
| 49> H -0.484420426 -3.0744091046 -0.2610406204
| 50> H -1.9525889953 -4.0031954211 -0.621395141
| 51> *
| 52>
| 53>                          ****END OF INPUT****

CARTESIAN COORDINATES (ANGSTROEM)
---------------------------------
  C      3.898058   -1.370362   -2.521458
  C      4.204005   -1.594788   -1.055106
  O      3.006903   -1.646927   -0.259146
  P      2.124683   -0.354862    0.025766
  S      3.156693    1.299934    0.273458
  O      1.200257   -0.862808    1.207007
  C      1.664696   -1.487562    2.421636
  C      2.529595   -0.564595    3.254879
  S      0.689075   -0.291667   -1.524482
  C      0.161829    1.419150   -1.261185
  S     -0.605227    1.685750    0.363193
  P     -2.249260    0.401463    0.072876
  S     -3.009913    0.273433   -1.732872
  O     -3.305437    0.832768    1.184094
  C     -4.326871    1.815226    0.937535
  C     -3.751132    3.207411    0.777408
  O     -1.678843   -0.929384    0.714003
  C     -2.300360   -2.217378    0.498746
  C     -1.532024   -3.005835   -0.543432
  H      3.482226   -0.374273   -2.666233
  H      4.813935   -1.456717   -3.097135
  H      3.177331   -2.103531   -2.874462
  H      4.841530   -0.793288   -0.668225
  H      4.676028   -2.563178   -0.884066
  H      0.738904   -1.741818    2.941395
  H      2.205668   -2.398640    2.155024
  H      2.767576   -1.047582    4.197489
  H      3.455200   -0.335548    2.728914
  H      2.005439    0.368400    3.449952
  H     -0.555383    1.644341   -2.049589
  H      1.025144    2.082869   -1.302759
  H     -4.877637    1.521223    0.038157
  H     -4.975288    1.743917    1.811752
  H     -3.114806    3.453306    1.623900
  H     -3.156705    3.261945   -0.133719
  H     -4.561508    3.926367    0.712966
  H     -2.273440   -2.707345    1.473450
  H     -3.339491   -2.070735    0.190351
  H     -1.597326   -2.512808   -1.511292
  H     -0.484420   -3.074409   -0.261041
  H     -1.952589   -4.003195   -0.621395

 Total Charge           Charge          ....    0
 Multiplicity           Mult            ....    1
 Number of Electrons    NEL             ....  202
 Basis Dimension        Dim             ....  539

ORBITAL ENERGIES
----------------

  NO   OCC          E(Eh)            E(eV)
   0   2.0000     -88.578269     -2410.3373
   1   2.0000     -88.575416     -2410.2596
   2   2.0000     -88.526779     -2408.9361
   3   2.0000     -88.525391     -2408.8983
   4   2.0000     -76.918225     -2093.0513
   5   2.0000     -76.917489     -2093.0313
   6   2.0000     -18.996501      -516.9211
   7   2.0000     -18.993581      -516.8416
   8   2.0000     -18.988172      -516.6944
   9   2.0000     -18.987593      -516.6787
  10   2.0000     -10.104216      -274.9497
  11   2.0000     -10.089660      -274.5536
  12   2.0000     -10.089152      -274.5398
  13   2.0000     -10.088932      -274.5338
  14   2.0000     -10.088234      -274.5148
  15   2.0000     -10.018226      -272.6098
  16   2.0000     -10.017955      -272.6024
  17   2.0000     -10.016971      -272.5756
  18   2.0000     -10.015336      -272.5312
  19   2.0000      -7.872717      -214.2275
  20   2.0000      -7.870012      -214.1539
  21   2.0000      -7.821896      -212.8446
  22   2.0000      -7.820522      -212.8072
  23   2.0000      -6.596506      -179.5000
  24   2.0000      -6.596044      -179.4875
  25   2.0000      -5.819629      -158.3602
  26   2.0000      -5.816964      -158.2876
  27   2.0000      -5.816650      -158.2791
  28   2.0000      -5.813916      -158.2047
  29   2.0000      -5.809704      -158.0901
  30   2.0000      -5.806950      -158.0152
  31   2.0000      -5.769448      -156.9946
  32   2.0000      -5.768076      -156.9573
  33   2.0000      -5.762298      -156.8001
  34   2.0000      -5.761817      -156.7870
  35   2.0000      -5.760781      -156.7588
  36   2.0000      -5.760586      -156.7535
  37   2.0000      -4.742395      -129.0471
  38   2.0000      -4.741443      -129.0212
  39   2.0000      -4.741196      -129.0145
  40   2.0000      -4.740894      -129.0063
  41   2.0000      -4.740177      -128.9868
  42   2.0000      -4.739979      -128.9814
  43   2.0000      -1.051587       -28.6151
  44   2.0000      -1.049486       -28.5580
  45   2.0000      -1.010044       -27.4847
  46   2.0000      -1.008537       -27.4437
  47   2.0000      -0.804549       -21.8929
  48   2.0000      -0.754689       -20.5361
  49   2.0000      -0.741292       -20.1716
  50   2.0000      -0.723506       -19.6876
  51   2.0000      -0.720932       -19.6176
  52   2.0000      -0.709037       -19.2939
  53   2.0000      -0.688919       -18.7464
  54   2.0000      -0.673680       -18.3318
  55   2.0000      -0.631077       -17.1725
  56   2.0000      -0.618736       -16.8367
  57   2.0000      -0.603974       -16.4350
  58   2.0000      -0.599625       -16.3166
  59   2.0000      -0.584925       -15.9166
  60   2.0000      -0.520968       -14.1763
  61   2.0000      -0.516201       -14.0465
  62   2.0000      -0.485863       -13.2210
  63   2.0000      -0.484831       -13.1929
  64   2.0000      -0.476450       -12.9649
  65   2.0000      -0.457412       -12.4468
  66   2.0000      -0.453522       -12.3410
  67   2.0000      -0.444193       -12.0871
  68   2.0000      -0.438614       -11.9353
  69   2.0000      -0.428739       -11.6666
  70   2.0000      -0.425505       -11.5786
  71   2.0000      -0.420658       -11.4467
  72   2.0000      -0.409721       -11.1491
  73   2.0000      -0.394213       -10.7271
  74   2.0000      -0.389060       -10.5869
  75   2.0000      -0.387820       -10.5531
  76   2.0000      -0.380443       -10.3524
  77   2.0000      -0.369100       -10.0437
  78   2.0000      -0.362155        -9.8547
  79   2.0000      -0.359162        -9.7733
  80   2.0000      -0.355381        -9.6704
  81   2.0000      -0.352014        -9.5788
  82   2.0000      -0.347628        -9.4594
  83   2.0000      -0.346713        -9.4345
  84   2.0000      -0.343069        -9.3354
  85   2.0000      -0.334238        -9.0951
  86   2.0000      -0.314938        -8.5699
  87   2.0000      -0.305898        -8.3239
  88   2.0000      -0.304177        -8.2771
  89   2.0000      -0.302795        -8.2395
  90   2.0000      -0.295320        -8.0361
  91   2.0000      -0.288081        -7.8391
  92   2.0000      -0.285659        -7.7732
  93   2.0000      -0.278703        -7.5839
  94   2.0000      -0.277000        -7.5375
  95   2.0000      -0.248391        -6.7591
  96   2.0000      -0.235012        -6.3950
  97   2.0000      -0.230980        -6.2853
  98   2.0000      -0.224320        -6.1041
  99   2.0000      -0.220511        -6.0004
 100   2.0000      -0.215019        -5.8510
 101   0.0000      -0.052154        -1.4192
 102   0.0000      -0.031651        -0.8613
 103   0.0000      -0.005146        -0.1400
 104   0.0000      -0.003322        -0.0904
 105   0.0000       0.012141         0.3304

MULLIKEN ATOMIC CHARGES
-----------------------
   0 C :   -0.485868
   1 C :   -0.151129
   2 O :   -0.339882
   3 P :    0.726020
   4 S :   -0.521500
   5 O :   -0.277809
   6 C :   -0.156593
   7 C :   -0.478286
   8 S :   -0.119974
   9 C :   -0.261509
  10 S :   -0.136099
  11 P :    0.717163
  12 S :   -0.526555
  13 O :   -0.328259
  14 C :   -0.154295
  15 C :   -0.483905
  16 O :   -0.295069
  17 C :   -0.128738
  18 C :   -0.492144
  19 H :    0.171029
  20 H :    0.172201
  21 H :    0.169373
  22 H :    0.177448
  23 H :    0.174600
  24 H :    0.176088
  25 H :    0.174213
  26 H :    0.169821
  27 H :    0.168192
  28 H :    0.168681
  29 H :    0.232319
  30 H :    0.231742
  31 H :    0.177262
  32 H :    0.173891
  33 H :    0.168531
  34 H :    0.171316
  35 H :    0.172172
  36 H :    0.174753
  37 H :    0.168791
  38 H :    0.170933
  39 H :    0.164233
  40 H :    0.166841
Sum of atomic charges:    0.0000000

LOEWDIN ATOMIC CHARGES
----------------------
   0 C :   -0.409429
   1 C :    0.025258
   2 O :   -0.672737
   3 P :    0.391431
   4 S :   -0.164596
   5 O :   -0.687507
   6 C :    0.036826
   7 C :   -0.407357
   8 S :    0.176184
   9 C :   -0.413826
  10 S :    0.175098
  11 P :    0.383895
  12 S :   -0.159526
  13 O :   -0.673984
  14 C :    0.023187
  15 C :   -0.410278
  16 O :   -0.684115
  17 C :    0.030693
  18 C :   -0.405770
  19 H :    0.161539
  20 H :    0.168432
  21 H :    0.163623
  22 H :    0.181789
  23 H :    0.190277
  24 H :    0.190948
  25 H :    0.181957
  26 H :    0.166807
  27 H :    0.162291
  28 H :    0.163159
  29 H :    0.196752
  30 H :    0.196566
  31 H :    0.181088
  32 H :    0.190174
  33 H :    0.163368
  34 H :    0.161205
  35 H :    0.167965
  36 H :    0.188200
  37 H :    0.180952
  38 H :    0.162366
  39 H :    0.162079
  40 H :    0.165016

  Mayer bond orders larger than 0.100000
B(  0-C ,  1-C ) :   0.9138 B(  0-C , 19-H ) :   0.9631 B(  0-C , 20-H ) :   0.9538
B(  0-C , 21-H ) :   0.9665 B(  1-C ,  2-O ) :   0.8006 B(  1-C , 22-H ) :   0.9638
B(  1-C , 23-H ) :   0.9492 B(  2-O ,  3-P ) :   1.0647 B(  3-P ,  4-S ) :   1.7102
B(  3-P ,  5-O ) :   1.1436 B(  3-P ,  8-S ) :   1.0901 B(  5-O ,  6-C ) :   0.7709
B(  6-C ,  7-C ) :   0.9174 B(  6-C , 24-H ) :   0.9558 B(  6-C , 25-H ) :   0.9597
B(  7-C , 26-H ) :   0.9575 B(  7-C , 27-H ) :   0.9571 B(  7-C , 28-H ) :   0.9717
B(  8-S ,  9-C ) :   0.8939 B(  9-C , 10-S ) :   0.8948 B(  9-C , 29-H ) :   0.9051
B(  9-C , 30-H ) :   0.9023 B( 10-S , 11-P ) :   1.1134 B( 11-P , 12-S ) :   1.7021
B( 11-P , 13-O ) :   1.0703 B( 11-P , 16-O ) :   1.1671 B( 13-O , 14-C ) :   0.8071
B( 14-C , 15-C ) :   0.9109 B( 14-C , 31-H ) :   0.9653 B( 14-C , 32-H ) :   0.9491
B( 15-C , 33-H ) :   0.9659 B( 15-C , 34-H ) :   0.9637 B( 15-C , 35-H ) :   0.9540
B( 16-O , 17-C ) :   0.7461 B( 17-C , 18-C ) :   0.9353 B( 17-C , 36-H ) :   0.9519
B( 17-C , 37-H ) :   0.9599 B( 18-C , 38-H ) :   0.9650 B( 18-C , 39-H ) :   0.9678
B( 18-C , 40-H ) :   0.9595

Dispersion correction           -0.021991221
FINAL SINGLE POINT ENERGY     -2932.466823222838

DIPOLE MOMENT
-------------

Method             : SCF
Type of density    : Electron Density
Multiplicity       :   1
Irrep              :   0
Energy             : -2932.4912271198400049 Eh
Relativity type    :
Basis              : AO
                                X                 Y                 Z
Electronic contribution:     -2.212105650       7.403590468      -4.166734128
Nuclear contribution   :      2.251282765      -8.779211869       4.958497530
                        -----------------------------------------
Total Dipole Moment    :      0.039177114      -1.375621401       0.791763402
                        -----------------------------------------
Magnitude (a.u.)       :      1.587689633
Magnitude (Debye)      :      4.035586333

Rotational constants in cm-1:             0.012684             0.005129             0.004977
Rotational constants in MHz :           380.263944           153.754231           149.219333

                             ****ORCA TERMINATED NORMALLY****
TOTAL RUN TIME: 0 days 0 hours 1 minutes 52 seconds 158 msec
