                         Program Version 6.0.0  -   RELEASE  -
|  1> ! wb97x-v def2-tzvp def2/J RIJCOSX DEFGRID2 scfconv7 GCP(DFT/TZ) printgap
|  2> %output
|  3>     printlevel normal
|  4> end
|  5> %cpcm
|  6>     smd true
|  7>     smdsolvent "water"
|  8> end
|  9> * xyz 0 1
| 10> C 1.8400375099893267 -0.11986011155786115 2.9380141520004096e-07
| 11> C 0.6051415373586525 0.39994429133779064 -4.939316658247841e-05
| 12> C -0.6051409993760601 -0.3999452572985642 0.00015271082435825705
| 13> C -1.8400372056104104 0.11985874567995683 7.883326322427167e-05
| 14> H 2.7211856462541917 0.5142470856698154 1.6131728227345347e-05
| 15> H 1.9960844988996997 -1.1964097356208905 0.00012404671717876998
| 16> H 0.4726254779671307 1.4820327991515192 -0.00010514060718817848
| 17> H -0.4726246590389119 -1.4820337573679272 0.00017842813196452503
| 18> H -2.7211849711012936 -0.5142489355409702 7.06123311745355e-05
| 19> H -1.9960847808136835 1.1964082746585094 -3.956735811750761e-05
| 20> *
| 21>
| 22>                          ****END OF INPUT****

CARTESIAN COORDINATES (ANGSTROEM)
---------------------------------
  C      1.840038   -0.119860    0.000000
  C      0.605142    0.399944   -0.000049
  C     -0.605141   -0.399945    0.000153
  C     -1.840037    0.119859    0.000079
  H      2.721186    0.514247    0.000016
  H      1.996084   -1.196410    0.000124
  H      0.472625    1.482033   -0.000105
  H     -0.472625   -1.482034    0.000178
  H     -2.721185   -0.514249    0.000071
  H     -1.996085    1.196408   -0.000040

 Total Charge           Charge          ....    0
 Multiplicity           Mult            ....    1
 Number of Electrons    NEL             ....   30
 Basis Dimension        Dim             ....  160

ORBITAL ENERGIES
----------------

  NO   OCC          E(Eh)            E(eV)
   0   2.0000     -12.053290      -327.9867
   1   2.0000     -12.051724      -327.9441
   2   2.0000     -12.042198      -327.6849
   3   2.0000     -12.041809      -327.6743
   4   2.0000      -1.330011       -36.1914
   5   2.0000      -1.254846       -34.1461
   6   2.0000      -1.093312       -29.7505
   7   2.0000      -1.003408       -27.3041
   8   2.0000      -0.919768       -25.0282
   9   2.0000      -0.913363       -24.8539
  10   2.0000      -0.858398       -23.3582
  11   2.0000      -0.817880       -22.2557
  12   2.0000      -0.771497       -20.9935
  13   2.0000      -0.719444       -19.5771
  14   2.0000      -0.614167       -16.7123
  15   0.0000      -0.247158        -6.7255
  16   0.0000      -0.128084        -3.4853
  17   0.0000      -0.009301        -0.2531
  18   0.0000       0.021129         0.5750
  19   0.0000       0.024474         0.6660

MULLIKEN ATOMIC CHARGES
-----------------------
   0 C :   -0.342457
   1 C :   -0.137265
   2 C :   -0.137295
   3 C :   -0.342446
   4 H :    0.165439
   5 H :    0.160338
   6 H :    0.153953
   7 H :    0.153955
   8 H :    0.165438
   9 H :    0.160338
Sum of atomic charges:   -0.0000000

LOEWDIN ATOMIC CHARGES
----------------------
   0 C :   -0.204146
   1 C :   -0.203686
   2 C :   -0.203687
   3 C :   -0.204146
   4 H :    0.127062
   5 H :    0.128761
   6 H :    0.152010
   7 H :    0.152010
   8 H :    0.127062
   9 H :    0.128761

  Mayer bond orders larger than 0.100000
B(  0-C ,  1-C ) :   1.8734 B(  0-C ,  4-H ) :   0.9685 B(  0-C ,  5-H ) :   0.9626
B(  1-C ,  2-C ) :   1.0248 B(  1-C ,  6-H ) :   0.9547 B(  2-C ,  3-C ) :   1.8734
B(  2-C ,  7-H ) :   0.9547 B(  3-C ,  8-H ) :   0.9685 B(  3-C ,  9-H ) :   0.9626

FINAL SINGLE POINT ENERGY      -155.989625053078

DIPOLE MOMENT
-------------

Method             : SCF
Type of density    : Electron Density
Multiplicity       :   1
Irrep              :   0
Energy             :  -155.9947010184784233 Eh
Relativity type    :
Basis              : AO
                                X                 Y                 Z
Electronic contribution:      0.000003055       0.000000400       0.000019733
Nuclear contribution   :     -0.000000043      -0.000000643      -0.000024295
                        -----------------------------------------
Total Dipole Moment    :      0.000003012      -0.000000242      -0.000004562
                        -----------------------------------------
Magnitude (a.u.)       :      0.000005472
Magnitude (Debye)      :      0.000013909

Rotational constants in cm-1:             1.400796             0.148473             0.134244
Rotational constants in MHz :         41994.794051          4451.116160          4024.546096

                             ****ORCA TERMINATED NORMALLY****
TOTAL RUN TIME: 0 days 0 hours 0 minutes 44 seconds 419 msec
