                         Program Version 6.0.0  -   RELEASE  -
|  1> ! pbe def2-sv(p) def2/J RI DEFGRID1 loosescf d4 GCP(DFT/SV(P)) printgap
|  2> %output
|  3>     printlevel normal
|  4> end
|  5> * xyz 0 1
|  6> C 3.6466763408 -1.909757745 -2.8125553039
|  7> C 3.9678029265 -1.9146106196 -1.3315465964
|  8> O 3.9488579809 -0.5551143885 -0.8195428657
|  9> P 2.8768274319 -0.0433750458 0.2151902403
| 10> S 3.1045911704 1.8537721292 0.6282910795
| 11> O 3.1170065837 -1.0464933886 1.4302521136
| 12> C 2.6563787447 -0.7818024358 2.7665194583
| 13> C 1.149081992 -0.8833972284 2.8841721553
| 14> S 1.0004413572 -0.6289043013 -0.634163534
| 15> C 0.18879852 0.9870355136 -0.7263970214
| 16> S -1.0680813111 1.2277179532 0.5494140479
| 17> P -2.7709382475 0.4628134659 -0.500482441
| 18> S -2.5459640345 0.3610153377 -2.4450581689
| 19> O -3.9857752295 1.4047199029 -0.1649556311
| 20> C -4.6959178539 1.4619169859 1.0967165191
| 21> C -3.8186137878 1.9358993598 2.2356812776
| 22> O -3.1799445534 -0.8635504144 0.2804794315
| 23> C -2.299840629 -1.9680768867 0.5490813497
| 24> C -1.9729185381 -2.765077609 -0.6971676494
| 25> H 2.6272528476 -1.5710873298 -2.9813424802
| 26> H 4.3281065882 -1.2466338791 -3.3382318122
| 27> H 3.7541061479 -2.9167833404 -3.2026542374
| 28> H 4.9805753096 -2.27465451 -1.1448747006
| 29> H 3.2525380099 -2.5197315008 -0.7706838648
| 30> H 3.15850345 -1.5411873638 3.3679373148
| 31> H 3.0016604812 0.214000074 3.0614111534
| 32> H 0.8054070536 -1.8322047616 2.4794233705
| 33> H 0.8678273114 -0.8154730446 3.9300686593
| 34> H 0.6740674978 -0.0654261776 2.3433140534
| 35> H -0.2934973574 1.059916942 -1.703183763
| 36> H 0.9406901986 1.7658319256 -0.5866098679
| 37> H -5.5041134972 2.165968066 0.8927713478
| 38> H -5.1073592899 0.4721566122 1.3017110466
| 39> H -4.427748904 2.0547600936 3.1263830099
| 40> H -3.0323199568 1.2111436413 2.4389412058
| 41> H -3.3570337483 2.888684288 1.9887280999
| 42> H -1.3863088284 -1.5830345986 1.011949247
| 43> H -2.8551557178 -2.5692471562 1.2713243287
| 44> H -2.8867896582 -3.0762940779 -1.1964421895
| 45> H -1.3864145743 -2.1636044398 -1.389492875
| 46> H -1.3960016695 -3.6414192524 -0.4209940059
| 47> *
| 48>
| 49>                          ****END OF INPUT****

CARTESIAN COORDINATES (ANGSTROEM)
---------------------------------
  C      3.646676   -1.909758   -2.812555
  C      3.967803   -1.914611   -1.331547
  O      3.948858   -0.555114   -0.819543
  P      2.876827   -0.043375    0.215190
  S      3.104591    1.853772    0.628291
  O      3.117007   -1.046493    1.430252
  C      2.656379   -0.781802    2.766519
  C      1.149082   -0.883397    2.884172
  S      1.000441   -0.628904   -0.634164
  C      0.188799    0.987036   -0.726397
  S     -1.068081    1.227718    0.549414
  P     -2.770938    0.462813   -0.500482
  S     -2.545964    0.361015   -2.445058
  O     -3.985775    1.404720   -0.164956
  C     -4.695918    1.461917    1.096717
  C     -3.818614    1.935899    2.235681
  O     -3.179945   -0.863550    0.280479
  C     -2.299841   -1.968077    0.549081
  C     -1.972919   -2.765078   -0.697168
  H      2.627253   -1.571087   -2.981342
  H      4.328107   -1.246634   -3.338232
  H      3.754106   -2.916783   -3.202654
  H      4.980575   -2.274655   -1.144875
  H      3.252538   -2.519732   -0.770684
  H      3.158503   -1.541187    3.367937
  H      3.001660    0.214000    3.061411
  H      0.805407   -1.832205    2.479423
  H      0.867827   -0.815473    3.930069
  H      0.674067   -0.065426    2.343314
  H     -0.293497    1.059917   -1.703184
  H      0.940690    1.765832   -0.586610
  H     -5.504113    2.165968    0.892771
  H     -5.107359    0.472157    1.301711
  H     -4.427749    2.054760    3.126383
  H     -3.032320    1.211144    2.438941
  H     -3.357034    2.888684    1.988728
  H     -1.386309   -1.583035    1.011949
  H     -2.855156   -2.569247    1.271324
  H     -2.886790   -3.076294   -1.196442
  H     -1.386415   -2.163604   -1.389493
  H     -1.396002   -3.641419   -0.420994

 Total Charge           Charge          ....    0
 Multiplicity           Mult            ....    1
 Number of Electrons    NEL             ....  202
 Basis Dimension        Dim             ....  334

ORBITAL ENERGIES
----------------

  NO   OCC          E(Eh)            E(eV)
   0   2.0000     -88.046702     -2395.8726
   1   2.0000     -88.046272     -2395.8609
   2   2.0000     -87.993302     -2394.4195
   3   2.0000     -87.986413     -2394.2320
   4   2.0000     -76.429948     -2079.7646
   5   2.0000     -76.429121     -2079.7421
   6   2.0000     -18.796600      -511.4815
   7   2.0000     -18.794755      -511.4313
   8   2.0000     -18.794125      -511.4141
   9   2.0000     -18.792911      -511.3811
  10   2.0000      -9.961348      -271.0621
  11   2.0000      -9.960699      -271.0444
  12   2.0000      -9.957884      -270.9678
  13   2.0000      -9.956415      -270.9278
  14   2.0000      -9.949146      -270.7300
  15   2.0000      -9.894908      -269.2541
  16   2.0000      -9.887908      -269.0637
  17   2.0000      -9.887589      -269.0550
  18   2.0000      -9.883139      -268.9339
  19   2.0000      -7.690691      -209.2743
  20   2.0000      -7.690652      -209.2733
  21   2.0000      -7.638436      -207.8524
  22   2.0000      -7.631545      -207.6649
  23   2.0000      -6.427661      -174.9056
  24   2.0000      -6.426432      -174.8721
  25   2.0000      -5.718495      -155.6082
  26   2.0000      -5.718394      -155.6054
  27   2.0000      -5.715199      -155.5185
  28   2.0000      -5.715112      -155.5161
  29   2.0000      -5.708024      -155.3232
  30   2.0000      -5.707826      -155.3178
  31   2.0000      -5.667420      -154.2183
  32   2.0000      -5.660627      -154.0335
  33   2.0000      -5.658937      -153.9875
  34   2.0000      -5.658616      -153.9788
  35   2.0000      -5.651977      -153.7981
  36   2.0000      -5.651696      -153.7905
  37   2.0000      -4.650314      -126.5415
  38   2.0000      -4.649328      -126.5146
  39   2.0000      -4.649255      -126.5127
  40   2.0000      -4.648213      -126.4843
  41   2.0000      -4.648197      -126.4839
  42   2.0000      -4.646610      -126.4407
  43   2.0000      -0.991727       -26.9863
  44   2.0000      -0.990665       -26.9574
  45   2.0000      -0.947169       -25.7738
  46   2.0000      -0.946931       -25.7673
  47   2.0000      -0.762693       -20.7539
  48   2.0000      -0.725245       -19.7349
  49   2.0000      -0.716311       -19.4918
  50   2.0000      -0.694620       -18.9016
  51   2.0000      -0.692275       -18.8378
  52   2.0000      -0.681409       -18.5421
  53   2.0000      -0.653685       -17.7877
  54   2.0000      -0.640514       -17.4293
  55   2.0000      -0.600123       -16.3302
  56   2.0000      -0.593038       -16.1374
  57   2.0000      -0.584049       -15.8928
  58   2.0000      -0.578363       -15.7380
  59   2.0000      -0.560611       -15.2550
  60   2.0000      -0.508882       -13.8474
  61   2.0000      -0.500369       -13.6157
  62   2.0000      -0.477555       -12.9949
  63   2.0000      -0.476208       -12.9583
  64   2.0000      -0.460236       -12.5237
  65   2.0000      -0.451163       -12.2768
  66   2.0000      -0.446341       -12.1455
  67   2.0000      -0.439898       -11.9702
  68   2.0000      -0.432813       -11.7774
  69   2.0000      -0.430908       -11.7256
  70   2.0000      -0.412317       -11.2197
  71   2.0000      -0.406664       -11.0659
  72   2.0000      -0.398867       -10.8537
  73   2.0000      -0.390181       -10.6174
  74   2.0000      -0.378900       -10.3104
  75   2.0000      -0.372885       -10.1467
  76   2.0000      -0.365816        -9.9544
  77   2.0000      -0.359706        -9.7881
  78   2.0000      -0.358031        -9.7425
  79   2.0000      -0.355829        -9.6826
  80   2.0000      -0.352058        -9.5800
  81   2.0000      -0.349530        -9.5112
  82   2.0000      -0.345332        -9.3970
  83   2.0000      -0.342666        -9.3244
  84   2.0000      -0.339154        -9.2289
  85   2.0000      -0.318882        -8.6772
  86   2.0000      -0.313264        -8.5244
  87   2.0000      -0.304763        -8.2930
  88   2.0000      -0.301313        -8.1991
  89   2.0000      -0.298705        -8.1282
  90   2.0000      -0.294584        -8.0160
  91   2.0000      -0.280019        -7.6197
  92   2.0000      -0.275469        -7.4959
  93   2.0000      -0.265370        -7.2211
  94   2.0000      -0.262767        -7.1502
  95   2.0000      -0.234757        -6.3881
  96   2.0000      -0.220767        -6.0074
  97   2.0000      -0.214428        -5.8349
  98   2.0000      -0.209670        -5.7054
  99   2.0000      -0.203527        -5.5382
 100   2.0000      -0.199871        -5.4388
 101   0.0000      -0.047643        -1.2964
 102   0.0000      -0.037308        -1.0152
 103   0.0000      -0.018416        -0.5011
 104   0.0000       0.001688         0.0459
 105   0.0000       0.008202         0.2232

MULLIKEN ATOMIC CHARGES
-----------------------
   0 C :   -0.284338
   1 C :   -0.018215
   2 O :   -0.355269
   3 P :    0.598628
   4 S :   -0.299499
   5 O :   -0.379387
   6 C :    0.006322
   7 C :   -0.339361
   8 S :   -0.125499
   9 C :   -0.337278
  10 S :   -0.121287
  11 P :    0.611834
  12 S :   -0.302870
  13 O :   -0.357638
  14 C :    0.003340
  15 C :   -0.332475
  16 O :   -0.380174
  17 C :   -0.034857
  18 C :   -0.303051
  19 H :    0.123778
  20 H :    0.122673
  21 H :    0.109641
  22 H :    0.114977
  23 H :    0.106478
  24 H :    0.104231
  25 H :    0.112431
  26 H :    0.120145
  27 H :    0.111448
  28 H :    0.139728
  29 H :    0.197333
  30 H :    0.194380
  31 H :    0.113837
  32 H :    0.112212
  33 H :    0.119049
  34 H :    0.128118
  35 H :    0.132708
  36 H :    0.127252
  37 H :    0.103567
  38 H :    0.119739
  39 H :    0.131665
  40 H :    0.105679
Sum of atomic charges:   -0.0000000

LOEWDIN ATOMIC CHARGES
----------------------
   0 C :   -0.358489
   1 C :   -0.112035
   2 O :   -0.238812
   3 P :    0.569018
   4 S :   -0.291939
   5 O :   -0.251014
   6 C :   -0.115735
   7 C :   -0.373371
   8 S :    0.073970
   9 C :   -0.491976
  10 S :    0.086098
  11 P :    0.567705
  12 S :   -0.294337
  13 O :   -0.233623
  14 C :   -0.109039
  15 C :   -0.370945
  16 O :   -0.245904
  17 C :   -0.122057
  18 C :   -0.367261
  19 H :    0.123713
  20 H :    0.130822
  21 H :    0.129734
  22 H :    0.123286
  23 H :    0.106615
  24 H :    0.118445
  25 H :    0.112305
  26 H :    0.121591
  27 H :    0.130628
  28 H :    0.113181
  29 H :    0.126083
  30 H :    0.126683
  31 H :    0.124441
  32 H :    0.115403
  33 H :    0.134401
  34 H :    0.116606
  35 H :    0.131177
  36 H :    0.104052
  37 H :    0.118148
  38 H :    0.128793
  39 H :    0.115317
  40 H :    0.128322

  Mayer bond orders larger than 0.100000
B(  0-C ,  1-C ) :   1.1633 B(  0-C , 19-H ) :   0.9400 B(  0-C , 20-H ) :   0.9458
B(  0-C , 21-H ) :   0.9395 B(  1-C ,  2-O ) :   0.8858 B(  1-C , 22-H ) :   0.9336
B(  1-C , 23-H ) :   0.9185 B(  2-O ,  3-P ) :   1.1486 B(  3-P ,  4-S ) :   1.6368
B(  3-P ,  5-O ) :   1.0874 B(  3-P ,  8-S ) :   0.9352 B(  4-S ,  8-S ) :   0.1128
B(  4-S , 30-H ) :   0.1096 B(  5-O ,  6-C ) :   0.9145 B(  6-C ,  7-C ) :   1.1615
B(  6-C , 24-H ) :   0.9339 B(  6-C , 25-H ) :   0.9170 B(  7-C , 26-H ) :   0.9384
B(  7-C , 27-H ) :   0.9362 B(  7-C , 28-H ) :   0.9263 B(  8-S ,  9-C ) :   1.0120
B(  9-C , 10-S ) :   1.0148 B(  9-C , 29-H ) :   0.8504 B(  9-C , 30-H ) :   0.8515
B( 10-S , 11-P ) :   0.9343 B( 10-S , 12-S ) :   0.1157 B( 11-P , 12-S ) :   1.6508
B( 11-P , 13-O ) :   1.1476 B( 11-P , 16-O ) :   1.0699 B( 12-S , 29-H ) :   0.1136
B( 13-O , 14-C ) :   0.8994 B( 14-C , 15-C ) :   1.1691 B( 14-C , 31-H ) :   0.9334
B( 14-C , 32-H ) :   0.9269 B( 15-C , 33-H ) :   0.9355 B( 15-C , 34-H ) :   0.9327
B( 15-C , 35-H ) :   0.9426 B( 16-O , 17-C ) :   0.9138 B( 17-C , 18-C ) :   1.1664
B( 17-C , 36-H ) :   0.9044 B( 17-C , 37-H ) :   0.9343 B( 18-C , 38-H ) :   0.9444
B( 18-C , 39-H ) :   0.9264 B( 18-C , 40-H ) :   0.9375

Dispersion correction           -0.063766699
FINAL SINGLE POINT ENERGY     -2929.516055925574

DIPOLE MOMENT
-------------

Method             : SCF
Type of density    : Electron Density
Multiplicity       :   1
Irrep              :   0
Energy             : -2929.6376573225652464 Eh
Relativity type    :
Basis              : AO
                                X                 Y                 Z
Electronic contribution:      2.823546093      13.924225969      -8.644452577
Nuclear contribution   :     -3.151864921     -15.467959841      10.152236825
                        -----------------------------------------
Total Dipole Moment    :     -0.328318828      -1.543733871       1.507784248
                        -----------------------------------------
Magnitude (a.u.)       :      2.182732429
Magnitude (Debye)      :      5.548064923

Rotational constants in cm-1:             0.012105             0.004560             0.004153
Rotational constants in MHz :           362.901171           136.695010           124.505411

                             ****ORCA TERMINATED NORMALLY****
TOTAL RUN TIME: 0 days 0 hours 0 minutes 21 seconds 89 msec
