                         Program Version 6.0.0  -   RELEASE  -
|  1> ! r2scan-3c def2/J RI DEFGRID2 scfconv6 printgap
|  2> %output
|  3>     printlevel normal
|  4> end
|  5> * xyz 0 1
|  6> C 4.0510653092 -1.914117967 -2.0522339741
|  7> C 4.6101517351 -1.4781502689 -0.7132105732
|  8> O 3.5761001381 -1.2169844693 0.2518338803
|  9> P 2.5739954353 0.007793964 0.121214826
| 10> S 3.3787303795 1.6611261763 -0.5479193833
| 11> O 2.0428946822 0.1872664023 1.5926798276
| 12> C 1.1394707052 -0.6740057159 2.3275229973
| 13> C 1.5352986847 -2.1335991486 2.2774638059
| 14> S 0.944427156 -0.7577410714 -1.0333073623
| 15> C 0.2888858978 0.8440286189 -1.5449660689
| 16> S -0.4601081749 1.7658934592 -0.1696611949
| 17> P -2.2823921918 0.6891764707 -0.1389106207
| 18> S -3.1308109049 0.3238948801 -1.8686923826
| 19> O -3.0267423923 1.6734366485 0.8511599295
| 20> C -4.4664695622 1.7589644312 0.9104988918
| 21> C -5.0926291135 0.4677068428 1.3946252079
| 22> O -1.9951175947 -0.6007766076 0.747485721
| 23> C -2.0826810903 -1.9701492563 0.2988661083
| 24> C -2.757870038 -2.7912238705 1.3790745109
| 25> H 4.8673272053 -2.2262852317 -2.6956905139
| 26> H 3.3565217053 -2.7401341385 -1.9233855339
| 27> H 3.5284290022 -1.0850690127 -2.526551448
| 28> H 5.2151362034 -0.5730223054 -0.8255055849
| 29> H 5.2040448982 -2.2666752529 -0.2491026858
| 30> H 1.1914361103 -0.2758966497 3.3422733042
| 31> H 0.1315121917 -0.5218745669 1.9319999669
| 32> H 1.4734755599 -2.5086977601 1.2576100012
| 33> H 2.5541379008 -2.2586124658 2.6344347177
| 34> H 0.8607569633 -2.7048011307 2.908146151
| 35> H -0.4608957574 0.6584175163 -2.3146405083
| 36> H 1.1053700839 1.4599041493 -1.9231312928
| 37> H -4.6489584737 2.5839670721 1.6004340418
| 38> H -4.8381019672 2.0187731146 -0.085555133
| 39> H -6.1603553809 0.6128882011 1.5265080235
| 40> H -4.9321844051 -0.3165612203 0.6553727374
| 41> H -4.6481325674 0.1667453618 2.3398474638
| 42> H -2.642836767 -1.9965356216 -0.6414129446
| 43> H -1.0644027642 -2.3195130716 0.1136709071
| 44> H -2.7486205796 -3.8347062794 1.0819292977
| 45> H -2.2226991932 -2.6805234114 2.3177154018
| 46> H -3.7860662356 -2.4705147397 1.5202977453
| 47> *
| 48>
| 49>                          ****END OF INPUT****

CARTESIAN COORDINATES (ANGSTROEM)
---------------------------------
  C      4.051065   -1.914118   -2.052234
  C      4.610152   -1.478150   -0.713211
  O      3.576100   -1.216984    0.251834
  P      2.573995    0.007794    0.121215
  S      3.378730    1.661126   -0.547919
  O      2.042895    0.187266    1.592680
  C      1.139471   -0.674006    2.327523
  C      1.535299   -2.133599    2.277464
  S      0.944427   -0.757741   -1.033307
  C      0.288886    0.844029   -1.544966
  S     -0.460108    1.765893   -0.169661
  P     -2.282392    0.689176   -0.138911
  S     -3.130811    0.323895   -1.868692
  O     -3.026742    1.673437    0.851160
  C     -4.466470    1.758964    0.910499
  C     -5.092629    0.467707    1.394625
  O     -1.995118   -0.600777    0.747486
  C     -2.082681   -1.970149    0.298866
  C     -2.757870   -2.791224    1.379075
  H      4.867327   -2.226285   -2.695691
  H      3.356522   -2.740134   -1.923386
  H      3.528429   -1.085069   -2.526551
  H      5.215136   -0.573022   -0.825506
  H      5.204045   -2.266675   -0.249103
  H      1.191436   -0.275897    3.342273
  H      0.131512   -0.521875    1.932000
  H      1.473476   -2.508698    1.257610
  H      2.554138   -2.258612    2.634435
  H      0.860757   -2.704801    2.908146
  H     -0.460896    0.658418   -2.314641
  H      1.105370    1.459904   -1.923131
  H     -4.648958    2.583967    1.600434
  H     -4.838102    2.018773   -0.085555
  H     -6.160355    0.612888    1.526508
  H     -4.932184   -0.316561    0.655373
  H     -4.648133    0.166745    2.339847
  H     -2.642837   -1.996536   -0.641413
  H     -1.064403   -2.319513    0.113671
  H     -2.748621   -3.834706    1.081929
  H     -2.222699   -2.680523    2.317715
  H     -3.786066   -2.470515    1.520298

 Total Charge           Charge          ....    0
 Multiplicity           Mult            ....    1
 Number of Electrons    NEL             ....  202
 Basis Dimension        Dim             ....  539

ORBITAL ENERGIES
----------------

  NO   OCC          E(Eh)            E(eV)
   0   2.0000     -88.576265     -2410.2827
   1   2.0000     -88.573268     -2410.2012
   2   2.0000     -88.526402     -2408.9259
   3   2.0000     -88.518718     -2408.7168
   4   2.0000     -76.917426     -2093.0296
   5   2.0000     -76.915290     -2092.9714
   6   2.0000     -18.996224      -516.9135
   7   2.0000     -18.995831      -516.9028
   8   2.0000     -18.994700      -516.8721
   9   2.0000     -18.989160      -516.7213
  10   2.0000     -10.104865      -274.9674
  11   2.0000     -10.103152      -274.9207
  12   2.0000     -10.101057      -274.8637
  13   2.0000     -10.100197      -274.8403
  14   2.0000     -10.100190      -274.8401
  15   2.0000     -10.038925      -273.1730
  16   2.0000     -10.036895      -273.1178
  17   2.0000     -10.035819      -273.0885
  18   2.0000     -10.029899      -272.9274
  19   2.0000      -7.870905      -214.1782
  20   2.0000      -7.867203      -214.0775
  21   2.0000      -7.821204      -212.8258
  22   2.0000      -7.813505      -212.6163
  23   2.0000      -6.595946      -179.4848
  24   2.0000      -6.593544      -179.4195
  25   2.0000      -5.817635      -158.3059
  26   2.0000      -5.814734      -158.2270
  27   2.0000      -5.814161      -158.2114
  28   2.0000      -5.811202      -158.1309
  29   2.0000      -5.808160      -158.0481
  30   2.0000      -5.804159      -157.9392
  31   2.0000      -5.768756      -156.9758
  32   2.0000      -5.761784      -156.7861
  33   2.0000      -5.761198      -156.7702
  34   2.0000      -5.760988      -156.7644
  35   2.0000      -5.753759      -156.5678
  36   2.0000      -5.753481      -156.5602
  37   2.0000      -4.741327      -129.0181
  38   2.0000      -4.740735      -129.0020
  39   2.0000      -4.739886      -128.9789
  40   2.0000      -4.739249      -128.9615
  41   2.0000      -4.738580      -128.9433
  42   2.0000      -4.737024      -128.9010
  43   2.0000      -1.052911       -28.6512
  44   2.0000      -1.050522       -28.5861
  45   2.0000      -1.015545       -27.6344
  46   2.0000      -1.010921       -27.5086
  47   2.0000      -0.801973       -21.8228
  48   2.0000      -0.763755       -20.7828
  49   2.0000      -0.753568       -20.5056
  50   2.0000      -0.739277       -20.1167
  51   2.0000      -0.736303       -20.0358
  52   2.0000      -0.713388       -19.4123
  53   2.0000      -0.688871       -18.7451
  54   2.0000      -0.669720       -18.2240
  55   2.0000      -0.638308       -17.3692
  56   2.0000      -0.629304       -17.1242
  57   2.0000      -0.610828       -16.6215
  58   2.0000      -0.608248       -16.5513
  59   2.0000      -0.591801       -16.1037
  60   2.0000      -0.531890       -14.4735
  61   2.0000      -0.516854       -14.0643
  62   2.0000      -0.502114       -13.6632
  63   2.0000      -0.491277       -13.3683
  64   2.0000      -0.481321       -13.0974
  65   2.0000      -0.465802       -12.6751
  66   2.0000      -0.462493       -12.5851
  67   2.0000      -0.458428       -12.4745
  68   2.0000      -0.450264       -12.2523
  69   2.0000      -0.436726       -11.8839
  70   2.0000      -0.428942       -11.6721
  71   2.0000      -0.417838       -11.3700
  72   2.0000      -0.417028       -11.3479
  73   2.0000      -0.401488       -10.9250
  74   2.0000      -0.394630       -10.7384
  75   2.0000      -0.392450       -10.6791
  76   2.0000      -0.386153       -10.5078
  77   2.0000      -0.382408       -10.4058
  78   2.0000      -0.380773       -10.3614
  79   2.0000      -0.371282       -10.1031
  80   2.0000      -0.368754       -10.0343
  81   2.0000      -0.364841        -9.9278
  82   2.0000      -0.362087        -9.8529
  83   2.0000      -0.358573        -9.7573
  84   2.0000      -0.352730        -9.5983
  85   2.0000      -0.337860        -9.1936
  86   2.0000      -0.322696        -8.7810
  87   2.0000      -0.317927        -8.6512
  88   2.0000      -0.310856        -8.4588
  89   2.0000      -0.308026        -8.3818
  90   2.0000      -0.304500        -8.2859
  91   2.0000      -0.295852        -8.0505
  92   2.0000      -0.285045        -7.7565
  93   2.0000      -0.281740        -7.6665
  94   2.0000      -0.277486        -7.5508
  95   2.0000      -0.248113        -6.7515
  96   2.0000      -0.231842        -6.3087
  97   2.0000      -0.229639        -6.2488
  98   2.0000      -0.219005        -5.9594
  99   2.0000      -0.215477        -5.8634
 100   2.0000      -0.213241        -5.8026
 101   0.0000      -0.048614        -1.3229
 102   0.0000      -0.027473        -0.7476
 103   0.0000      -0.004035        -0.1098
 104   0.0000       0.005330         0.1450
 105   0.0000       0.012595         0.3427

MULLIKEN ATOMIC CHARGES
-----------------------
   0 C :   -0.441989
   1 C :   -0.169942
   2 O :   -0.265292
   3 P :    0.653419
   4 S :   -0.452995
   5 O :   -0.255658
   6 C :   -0.158539
   7 C :   -0.447299
   8 S :   -0.181376
   9 C :   -0.252829
  10 S :   -0.101188
  11 P :    0.676582
  12 S :   -0.488359
  13 O :   -0.317353
  14 C :   -0.147321
  15 C :   -0.456598
  16 O :   -0.263707
  17 C :   -0.127242
  18 C :   -0.451803
  19 H :    0.148077
  20 H :    0.151470
  21 H :    0.177563
  22 H :    0.176749
  23 H :    0.148334
  24 H :    0.152920
  25 H :    0.189603
  26 H :    0.157476
  27 H :    0.162560
  28 H :    0.149512
  29 H :    0.212012
  30 H :    0.223201
  31 H :    0.152431
  32 H :    0.173871
  33 H :    0.151271
  34 H :    0.169456
  35 H :    0.160842
  36 H :    0.180198
  37 H :    0.159240
  38 H :    0.150412
  39 H :    0.150975
  40 H :    0.151313
Sum of atomic charges:   -0.0000000

LOEWDIN ATOMIC CHARGES
----------------------
   0 C :   -0.407998
   1 C :    0.021682
   2 O :   -0.670459
   3 P :    0.386622
   4 S :   -0.103290
   5 O :   -0.650084
   6 C :    0.023244
   7 C :   -0.403346
   8 S :    0.127407
   9 C :   -0.423647
  10 S :    0.189070
  11 P :    0.380244
  12 S :   -0.134987
  13 O :   -0.666663
  14 C :    0.026895
  15 C :   -0.402607
  16 O :   -0.685562
  17 C :    0.003148
  18 C :   -0.388819
  19 H :    0.159457
  20 H :    0.158772
  21 H :    0.165866
  22 H :    0.181551
  23 H :    0.179261
  24 H :    0.183475
  25 H :    0.193223
  26 H :    0.161374
  27 H :    0.165455
  28 H :    0.159547
  29 H :    0.191845
  30 H :    0.194280
  31 H :    0.182059
  32 H :    0.180162
  33 H :    0.161265
  34 H :    0.163069
  35 H :    0.161301
  36 H :    0.184541
  37 H :    0.175334
  38 H :    0.160915
  39 H :    0.158133
  40 H :    0.158263

  Mayer bond orders larger than 0.100000
B(  0-C ,  1-C ) :   0.9141 B(  0-C , 19-H ) :   0.9570 B(  0-C , 20-H ) :   0.9691
B(  0-C , 21-H ) :   0.9641 B(  1-C ,  2-O ) :   0.8088 B(  1-C , 22-H ) :   0.9675
B(  1-C , 23-H ) :   0.9616 B(  2-O ,  3-P ) :   1.0404 B(  3-P ,  4-S ) :   1.8132
B(  3-P ,  5-O ) :   1.1868 B(  3-P ,  8-S ) :   0.9809 B(  5-O ,  6-C ) :   0.8130
B(  6-C ,  7-C ) :   0.8973 B(  6-C , 24-H ) :   0.9596 B(  6-C , 25-H ) :   0.9546
B(  7-C , 26-H ) :   0.9676 B(  7-C , 27-H ) :   0.9640 B(  7-C , 28-H ) :   0.9587
B(  8-S ,  9-C ) :   0.9034 B(  9-C , 10-S ) :   0.9154 B(  9-C , 29-H ) :   0.9034
B(  9-C , 30-H ) :   0.9037 B( 10-S , 11-P ) :   1.1034 B( 11-P , 12-S ) :   1.7387
B( 11-P , 13-O ) :   1.1718 B( 11-P , 16-O ) :   1.0626 B( 13-O , 14-C ) :   0.8045
B( 14-C , 15-C ) :   0.9142 B( 14-C , 31-H ) :   0.9595 B( 14-C , 32-H ) :   0.9691
B( 15-C , 33-H ) :   0.9588 B( 15-C , 34-H ) :   0.9618 B( 15-C , 35-H ) :   0.9685
B( 16-O , 17-C ) :   0.7160 B( 17-C , 18-C ) :   0.9401 B( 17-C , 36-H ) :   0.9440
B( 17-C , 37-H ) :   0.9467 B( 18-C , 38-H ) :   0.9683 B( 18-C , 39-H ) :   0.9775
B( 18-C , 40-H ) :   0.9682

Dispersion correction           -0.021988607
FINAL SINGLE POINT ENERGY     -2932.460955201620

DIPOLE MOMENT
-------------

Method             : SCF
Type of density    : Electron Density
Multiplicity       :   1
Irrep              :   0
Energy             : -2932.4856645184545414 Eh
Relativity type    :
Basis              : AO
                                X                 Y                 Z
Electronic contribution:      7.693110341      20.723409933      -8.668509214
Nuclear contribution   :     -8.402259991     -22.548200506       9.595765498
                        -----------------------------------------
Total Dipole Moment    :     -0.709149650      -1.824790573       0.927256283
                        -----------------------------------------
Magnitude (a.u.)       :      2.166231307
Magnitude (Debye)      :      5.506122404

Rotational constants in cm-1:             0.013796             0.004723             0.004394
Rotational constants in MHz :           413.599421           141.579164           131.720346

                             ****ORCA TERMINATED NORMALLY****
TOTAL RUN TIME: 0 days 0 hours 1 minutes 20 seconds 682 msec
