                         Program Version 6.0.0  -   RELEASE  -
|  1> ! r2scan-3c def2/J RI DEFGRID2 scfconv6 printgap
|  2> %output
|  3>     printlevel normal
|  4> end
|  5> %cpcm
|  6>     smd true
|  7>     smdsolvent "water"
|  8> end
|  9> * xyz 0 1
| 10> C 4.0510653092 -1.914117967 -2.0522339741
| 11> C 4.6101517351 -1.4781502689 -0.7132105732
| 12> O 3.5761001381 -1.2169844693 0.2518338803
| 13> P 2.5739954353 0.007793964 0.121214826
| 14> S 3.3787303795 1.6611261763 -0.5479193833
| 15> O 2.0428946822 0.1872664023 1.5926798276
| 16> C 1.1394707052 -0.6740057159 2.3275229973
| 17> C 1.5352986847 -2.1335991486 2.2774638059
| 18> S 0.944427156 -0.7577410714 -1.0333073623
| 19> C 0.2888858978 0.8440286189 -1.5449660689
| 20> S -0.4601081749 1.7658934592 -0.1696611949
| 21> P -2.2823921918 0.6891764707 -0.1389106207
| 22> S -3.1308109049 0.3238948801 -1.8686923826
| 23> O -3.0267423923 1.6734366485 0.8511599295
| 24> C -4.4664695622 1.7589644312 0.9104988918
| 25> C -5.0926291135 0.4677068428 1.3946252079
| 26> O -1.9951175947 -0.6007766076 0.747485721
| 27> C -2.0826810903 -1.9701492563 0.2988661083
| 28> C -2.757870038 -2.7912238705 1.3790745109
| 29> H 4.8673272053 -2.2262852317 -2.6956905139
| 30> H 3.3565217053 -2.7401341385 -1.9233855339
| 31> H 3.5284290022 -1.0850690127 -2.526551448
| 32> H 5.2151362034 -0.5730223054 -0.8255055849
| 33> H 5.2040448982 -2.2666752529 -0.2491026858
| 34> H 1.1914361103 -0.2758966497 3.3422733042
| 35> H 0.1315121917 -0.5218745669 1.9319999669
| 36> H 1.4734755599 -2.5086977601 1.2576100012
| 37> H 2.5541379008 -2.2586124658 2.6344347177
| 38> H 0.8607569633 -2.7048011307 2.908146151
| 39> H -0.4608957574 0.6584175163 -2.3146405083
| 40> H 1.1053700839 1.4599041493 -1.9231312928
| 41> H -4.6489584737 2.5839670721 1.6004340418
| 42> H -4.8381019672 2.0187731146 -0.085555133
| 43> H -6.1603553809 0.6128882011 1.5265080235
| 44> H -4.9321844051 -0.3165612203 0.6553727374
| 45> H -4.6481325674 0.1667453618 2.3398474638
| 46> H -2.642836767 -1.9965356216 -0.6414129446
| 47> H -1.0644027642 -2.3195130716 0.1136709071
| 48> H -2.7486205796 -3.8347062794 1.0819292977
| 49> H -2.2226991932 -2.6805234114 2.3177154018
| 50> H -3.7860662356 -2.4705147397 1.5202977453
| 51> *
| 52>
| 53>                          ****END OF INPUT****

CARTESIAN COORDINATES (ANGSTROEM)
---------------------------------
  C      4.051065   -1.914118   -2.052234
  C      4.610152   -1.478150   -0.713211
  O      3.576100   -1.216984    0.251834
  P      2.573995    0.007794    0.121215
  S      3.378730    1.661126   -0.547919
  O      2.042895    0.187266    1.592680
  C      1.139471   -0.674006    2.327523
  C      1.535299   -2.133599    2.277464
  S      0.944427   -0.757741   -1.033307
  C      0.288886    0.844029   -1.544966
  S     -0.460108    1.765893   -0.169661
  P     -2.282392    0.689176   -0.138911
  S     -3.130811    0.323895   -1.868692
  O     -3.026742    1.673437    0.851160
  C     -4.466470    1.758964    0.910499
  C     -5.092629    0.467707    1.394625
  O     -1.995118   -0.600777    0.747486
  C     -2.082681   -1.970149    0.298866
  C     -2.757870   -2.791224    1.379075
  H      4.867327   -2.226285   -2.695691
  H      3.356522   -2.740134   -1.923386
  H      3.528429   -1.085069   -2.526551
  H      5.215136   -0.573022   -0.825506
  H      5.204045   -2.266675   -0.249103
  H      1.191436   -0.275897    3.342273
  H      0.131512   -0.521875    1.932000
  H      1.473476   -2.508698    1.257610
  H      2.554138   -2.258612    2.634435
  H      0.860757   -2.704801    2.908146
  H     -0.460896    0.658418   -2.314641
  H      1.105370    1.459904   -1.923131
  H     -4.648958    2.583967    1.600434
  H     -4.838102    2.018773   -0.085555
  H     -6.160355    0.612888    1.526508
  H     -4.932184   -0.316561    0.655373
  H     -4.648133    0.166745    2.339847
  H     -2.642837   -1.996536   -0.641413
  H     -1.064403   -2.319513    0.113671
  H     -2.748621   -3.834706    1.081929
  H     -2.222699   -2.680523    2.317715
  H     -3.786066   -2.470515    1.520298

 Total Charge           Charge          ....    0
 Multiplicity           Mult            ....    1
 Number of Electrons    NEL             ....  202
 Basis Dimension        Dim             ....  539

ORBITAL ENERGIES
----------------

  NO   OCC          E(Eh)            E(eV)
   0   2.0000     -88.579336     -2410.3663
   1   2.0000     -88.578542     -2410.3447
   2   2.0000     -88.531350     -2409.0605
   3   2.0000     -88.529551     -2409.0116
   4   2.0000     -76.921705     -2093.1460
   5   2.0000     -76.920668     -2093.1178
   6   2.0000     -18.996342      -516.9168
   7   2.0000     -18.996322      -516.9162
   8   2.0000     -18.994378      -516.8633
   9   2.0000     -18.994121      -516.8563
  10   2.0000     -10.104345      -274.9532
  11   2.0000     -10.091820      -274.6124
  12   2.0000     -10.091377      -274.6003
  13   2.0000     -10.090362      -274.5727
  14   2.0000     -10.087916      -274.5062
  15   2.0000     -10.020814      -272.6802
  16   2.0000     -10.019680      -272.6493
  17   2.0000     -10.018545      -272.6185
  18   2.0000     -10.018373      -272.6138
  19   2.0000      -7.873468      -214.2480
  20   2.0000      -7.873075      -214.2373
  21   2.0000      -7.826422      -212.9678
  22   2.0000      -7.824715      -212.9213
  23   2.0000      -6.600032      -179.5960
  24   2.0000      -6.599174      -179.5727
  25   2.0000      -5.820313      -158.3788
  26   2.0000      -5.819874      -158.3668
  27   2.0000      -5.817402      -158.2996
  28   2.0000      -5.816943      -158.2871
  29   2.0000      -5.810597      -158.1144
  30   2.0000      -5.810231      -158.1044
  31   2.0000      -5.773930      -157.1166
  32   2.0000      -5.772277      -157.0716
  33   2.0000      -5.766935      -156.9263
  34   2.0000      -5.766266      -156.9081
  35   2.0000      -5.764987      -156.8733
  36   2.0000      -5.764732      -156.8663
  37   2.0000      -4.745704      -129.1372
  38   2.0000      -4.744995      -129.1179
  39   2.0000      -4.744472      -129.1036
  40   2.0000      -4.743951      -129.0895
  41   2.0000      -4.743650      -129.0813
  42   2.0000      -4.743247      -129.0703
  43   2.0000      -1.053496       -28.6671
  44   2.0000      -1.051865       -28.6227
  45   2.0000      -1.013658       -27.5830
  46   2.0000      -1.013236       -27.5716
  47   2.0000      -0.804693       -21.8968
  48   2.0000      -0.758186       -20.6313
  49   2.0000      -0.746538       -20.3143
  50   2.0000      -0.726652       -19.7732
  51   2.0000      -0.724733       -19.7210
  52   2.0000      -0.710769       -19.3410
  53   2.0000      -0.690697       -18.7948
  54   2.0000      -0.675356       -18.3774
  55   2.0000      -0.634053       -17.2535
  56   2.0000      -0.624998       -17.0071
  57   2.0000      -0.603990       -16.4354
  58   2.0000      -0.595628       -16.2079
  59   2.0000      -0.590021       -16.0553
  60   2.0000      -0.525563       -14.3013
  61   2.0000      -0.512574       -13.9479
  62   2.0000      -0.495274       -13.4771
  63   2.0000      -0.487691       -13.2708
  64   2.0000      -0.479472       -13.0471
  65   2.0000      -0.460327       -12.5261
  66   2.0000      -0.457817       -12.4578
  67   2.0000      -0.449389       -12.2285
  68   2.0000      -0.443583       -12.0705
  69   2.0000      -0.432628       -11.7724
  70   2.0000      -0.421617       -11.4728
  71   2.0000      -0.412501       -11.2247
  72   2.0000      -0.411282       -11.1915
  73   2.0000      -0.396501       -10.7893
  74   2.0000      -0.394367       -10.7313
  75   2.0000      -0.385990       -10.5033
  76   2.0000      -0.383457       -10.4344
  77   2.0000      -0.377415       -10.2700
  78   2.0000      -0.365761        -9.9529
  79   2.0000      -0.360075        -9.7981
  80   2.0000      -0.356812        -9.7093
  81   2.0000      -0.354847        -9.6559
  82   2.0000      -0.352559        -9.5936
  83   2.0000      -0.347163        -9.4468
  84   2.0000      -0.345413        -9.3992
  85   2.0000      -0.331167        -9.0115
  86   2.0000      -0.316875        -8.6226
  87   2.0000      -0.309118        -8.4115
  88   2.0000      -0.308326        -8.3900
  89   2.0000      -0.303789        -8.2665
  90   2.0000      -0.301911        -8.2154
  91   2.0000      -0.291349        -7.9280
  92   2.0000      -0.285140        -7.7591
  93   2.0000      -0.279050        -7.5933
  94   2.0000      -0.277781        -7.5588
  95   2.0000      -0.251296        -6.8381
  96   2.0000      -0.237726        -6.4688
  97   2.0000      -0.236499        -6.4355
  98   2.0000      -0.228984        -6.2310
  99   2.0000      -0.225802        -6.1444
 100   2.0000      -0.219495        -5.9728
 101   0.0000      -0.053939        -1.4678
 102   0.0000      -0.033542        -0.9127
 103   0.0000      -0.007452        -0.2028
 104   0.0000       0.001895         0.0516
 105   0.0000       0.012551         0.3415

MULLIKEN ATOMIC CHARGES
-----------------------
   0 C :   -0.480565
   1 C :   -0.162238
   2 O :   -0.284610
   3 P :    0.665829
   4 S :   -0.512736
   5 O :   -0.293505
   6 C :   -0.149140
   7 C :   -0.478110
   8 S :   -0.161520
   9 C :   -0.258760
  10 S :   -0.144174
  11 P :    0.699473
  12 S :   -0.525269
  13 O :   -0.345583
  14 C :   -0.147430
  15 C :   -0.484734
  16 O :   -0.280261
  17 C :   -0.099551
  18 C :   -0.501932
  19 H :    0.172190
  20 H :    0.169063
  21 H :    0.172524
  22 H :    0.179216
  23 H :    0.176083
  24 H :    0.177192
  25 H :    0.187457
  26 H :    0.165763
  27 H :    0.170642
  28 H :    0.177325
  29 H :    0.231815
  30 H :    0.237016
  31 H :    0.176823
  32 H :    0.178816
  33 H :    0.174435
  34 H :    0.173389
  35 H :    0.172082
  36 H :    0.177306
  37 H :    0.171654
  38 H :    0.170440
  39 H :    0.167587
  40 H :    0.166000
Sum of atomic charges:   -0.0000000

LOEWDIN ATOMIC CHARGES
----------------------
   0 C :   -0.410529
   1 C :    0.027284
   2 O :   -0.676794
   3 P :    0.388621
   4 S :   -0.149033
   5 O :   -0.674153
   6 C :    0.029073
   7 C :   -0.402211
   8 S :    0.144543
   9 C :   -0.419249
  10 S :    0.159593
  11 P :    0.382692
  12 S :   -0.159425
  13 O :   -0.682254
  14 C :    0.030876
  15 C :   -0.403364
  16 O :   -0.687835
  17 C :    0.011791
  18 C :   -0.391883
  19 H :    0.168244
  20 H :    0.163671
  21 H :    0.161512
  22 H :    0.181880
  23 H :    0.191246
  24 H :    0.193222
  25 H :    0.193829
  26 H :    0.163273
  27 H :    0.166404
  28 H :    0.171208
  29 H :    0.197635
  30 H :    0.198132
  31 H :    0.192124
  32 H :    0.181881
  33 H :    0.169951
  34 H :    0.163362
  35 H :    0.165047
  36 H :    0.184522
  37 H :    0.181022
  38 H :    0.168811
  39 H :    0.163199
  40 H :    0.162082

  Mayer bond orders larger than 0.100000
B(  0-C ,  1-C ) :   0.9039 B(  0-C , 19-H ) :   0.9519 B(  0-C , 20-H ) :   0.9659
B(  0-C , 21-H ) :   0.9652 B(  1-C ,  2-O ) :   0.7970 B(  1-C , 22-H ) :   0.9660
B(  1-C , 23-H ) :   0.9504 B(  2-O ,  3-P ) :   1.0516 B(  3-P ,  4-S ) :   1.7876
B(  3-P ,  5-O ) :   1.1889 B(  3-P ,  8-S ) :   1.0009 B(  5-O ,  6-C ) :   0.8041
B(  6-C ,  7-C ) :   0.8957 B(  6-C , 24-H ) :   0.9490 B(  6-C , 25-H ) :   0.9473
B(  7-C , 26-H ) :   0.9617 B(  7-C , 27-H ) :   0.9651 B(  7-C , 28-H ) :   0.9503
B(  8-S ,  9-C ) :   0.8968 B(  9-C , 10-S ) :   0.9015 B(  9-C , 29-H ) :   0.9004
B(  9-C , 30-H ) :   0.8991 B( 10-S , 11-P ) :   1.1037 B( 11-P , 12-S ) :   1.7230
B( 11-P , 13-O ) :   1.1771 B( 11-P , 16-O ) :   1.0771 B( 13-O , 14-C ) :   0.7919
B( 14-C , 15-C ) :   0.9059 B( 14-C , 31-H ) :   0.9498 B( 14-C , 32-H ) :   0.9645
B( 15-C , 33-H ) :   0.9535 B( 15-C , 34-H ) :   0.9587 B( 15-C , 35-H ) :   0.9663
B( 16-O , 17-C ) :   0.7116 B( 17-C , 18-C ) :   0.9357 B( 17-C , 36-H ) :   0.9425
B( 17-C , 37-H ) :   0.9398 B( 18-C , 38-H ) :   0.9618 B( 18-C , 39-H ) :   0.9734
B( 18-C , 40-H ) :   0.9662

Dispersion correction           -0.021988607
FINAL SINGLE POINT ENERGY     -2932.470761417697

DIPOLE MOMENT
-------------

Method             : SCF
Type of density    : Electron Density
Multiplicity       :   1
Irrep              :   0
Energy             : -2932.4954707345314091 Eh
Relativity type    :
Basis              : AO
                                X                 Y                 Z
Electronic contribution:      7.381235786      19.785111392      -8.487084318
Nuclear contribution   :     -8.402259991     -22.548200506       9.595765498
                        -----------------------------------------
Total Dipole Moment    :     -1.021024205      -2.763089113       1.108681179
                        -----------------------------------------
Magnitude (a.u.)       :      3.147431625
Magnitude (Debye)      :      8.000135408

Rotational constants in cm-1:             0.013796             0.004723             0.004394
Rotational constants in MHz :           413.599421           141.579164           131.720346

                             ****ORCA TERMINATED NORMALLY****
TOTAL RUN TIME: 0 days 0 hours 1 minutes 50 seconds 775 msec
