                         Program Version 6.0.1  -  RELEASE   -
|  1> ! r2scan-3c def2/J RI DEFGRID2 scfconv6 printgap
|  2> %output
|  3>     printlevel normal
|  4> end
|  5> * xyz 0 1
|  6> C 2.2176216972 -2.670854841 0.6830340409
|  7> C 3.2482790366 -1.8290576783 -0.0529331767
|  8> O 2.6116949387 -0.6880179981 -0.659050287
|  9> C 2.12471026 -0.8169950963 -1.8833866289
| 10> O 2.2814188152 -1.78964517 -2.583262415
| 11> C 1.3414929826 0.4151260655 -2.2967416691
| 12> C 0.2634942582 0.7228285635 -1.2607330259
| 13> H -0.3466363422 1.5707150436 -1.5873654607
| 14> C 0.8461655076 1.0655859865 0.1003128275
| 15> O 0.4967745682 0.509005118 1.1211612697
| 16> O 1.6945575732 2.0539353661 0.0258631757
| 17> C 2.2810622769 2.5441252518 1.2504015718
| 18> C 3.439961084 1.6705060092 1.698876844
| 19> S -0.8409736911 -0.7184972351 -1.0500550338
| 20> P -2.0490523545 0.0440302833 0.5271233042
| 21> S -2.1753528837 1.9912239635 0.6900441928
| 22> O -3.4614848965 -0.6273891437 0.1498569092
| 23> C -4.207267563 -0.2005137676 -0.9926386232
| 24> O -1.7718847379 -0.7247558676 1.8775739581
| 25> C -1.7731557335 -2.1630026864 1.9597899831
| 26> H 2.7167825356 -3.4637079735 1.2295398649
| 27> H 1.6608787589 -2.046914505 1.3798338999
| 28> H 1.521257074 -3.1103647733 -0.028504824
| 29> H 3.7426769539 -2.4094838946 -0.8366157285
| 30> H 3.9846636439 -1.4088456785 0.6325292143
| 31> H 0.8902197517 0.2230969266 -3.2693431033
| 32> H 2.017182775 1.269642143 -2.3594714959
| 33> H 2.6109256312 3.5515466512 0.9971002666
| 34> H 1.4997636522 2.5810569703 2.0152815297
| 35> H 3.077960803 0.680200317 1.9630051581
| 36> H 4.1714538761 1.5815133311 0.9004762331
| 37> H 3.9082112836 2.1194483404 2.5685950211
| 38> H -5.1898988114 -0.6530130338 -0.8876616608
| 39> H -3.7199858314 -0.5462103599 -1.9043714579
| 40> H -4.2877370783 0.8878508523 -1.0014248572
| 41> H -2.7863219243 -2.5385845161 1.8281501522
| 42> H -1.3988527043 -2.3895458729 2.9547441156
| 43> H -1.1166906565 -2.5829601878 1.1973305311
| 44> *
| 45>
| 46>                          ****END OF INPUT****

CARTESIAN COORDINATES (ANGSTROEM)
---------------------------------
  C      2.217622   -2.670855    0.683034
  C      3.248279   -1.829058   -0.052933
  O      2.611695   -0.688018   -0.659050
  C      2.124710   -0.816995   -1.883387
  O      2.281419   -1.789645   -2.583262
  C      1.341493    0.415126   -2.296742
  C      0.263494    0.722829   -1.260733
  H     -0.346636    1.570715   -1.587365
  C      0.846166    1.065586    0.100313
  O      0.496775    0.509005    1.121161
  O      1.694558    2.053935    0.025863
  C      2.281062    2.544125    1.250402
  C      3.439961    1.670506    1.698877
  S     -0.840974   -0.718497   -1.050055
  P     -2.049052    0.044030    0.527123
  S     -2.175353    1.991224    0.690044
  O     -3.461485   -0.627389    0.149857
  C     -4.207268   -0.200514   -0.992639
  O     -1.771885   -0.724756    1.877574
  C     -1.773156   -2.163003    1.959790
  H      2.716783   -3.463708    1.229540
  H      1.660879   -2.046915    1.379834
  H      1.521257   -3.110365   -0.028505
  H      3.742677   -2.409484   -0.836616
  H      3.984664   -1.408846    0.632529
  H      0.890220    0.223097   -3.269343
  H      2.017183    1.269642   -2.359471
  H      2.610926    3.551547    0.997100
  H      1.499764    2.581057    2.015282
  H      3.077961    0.680200    1.963005
  H      4.171454    1.581513    0.900476
  H      3.908211    2.119448    2.568595
  H     -5.189899   -0.653013   -0.887662
  H     -3.719986   -0.546210   -1.904371
  H     -4.287737    0.887851   -1.001425
  H     -2.786322   -2.538585    1.828150
  H     -1.398853   -2.389546    2.954744
  H     -1.116691   -2.582960    1.197331

 Total Charge           Charge          ....    0
 Multiplicity           Mult            ....    1
 Number of Electrons    NEL             ....  174
 Basis Dimension        Dim             ....  510

ORBITAL ENERGIES
----------------

  NO   OCC          E(Eh)            E(eV)
   0   2.0000     -88.573971     -2410.2203
   1   2.0000     -88.510526     -2408.4939
   2   2.0000     -76.909662     -2092.8183
   3   2.0000     -19.011648      -517.3332
   4   2.0000     -19.007973      -517.2332
   5   2.0000     -18.985362      -516.6180
   6   2.0000     -18.982027      -516.5272
   7   2.0000     -18.939996      -515.3835
   8   2.0000     -18.937832      -515.3246
   9   2.0000     -10.167723      -276.6778
  10   2.0000     -10.165924      -276.6289
  11   2.0000     -10.100486      -274.8482
  12   2.0000     -10.100228      -274.8412
  13   2.0000     -10.097900      -274.7778
  14   2.0000     -10.092802      -274.6391
  15   2.0000     -10.084079      -274.4017
  16   2.0000     -10.068487      -273.9775
  17   2.0000     -10.035116      -273.0694
  18   2.0000     -10.030203      -272.9357
  19   2.0000      -7.868175      -214.1039
  20   2.0000      -7.805471      -212.3977
  21   2.0000      -6.587384      -179.2518
  22   2.0000      -5.815030      -158.2350
  23   2.0000      -5.812045      -158.1538
  24   2.0000      -5.805313      -157.9706
  25   2.0000      -5.753411      -156.5583
  26   2.0000      -5.745857      -156.3527
  27   2.0000      -5.745042      -156.3305
  28   2.0000      -4.733159      -128.7958
  29   2.0000      -4.732532      -128.7787
  30   2.0000      -4.730814      -128.7320
  31   2.0000      -1.091262       -29.6947
  32   2.0000      -1.083129       -29.4734
  33   2.0000      -1.043085       -28.3838
  34   2.0000      -0.999932       -27.2095
  35   2.0000      -0.991451       -26.9788
  36   2.0000      -0.989090       -26.9145
  37   2.0000      -0.816887       -22.2286
  38   2.0000      -0.754236       -20.5238
  39   2.0000      -0.750892       -20.4328
  40   2.0000      -0.728910       -19.8346
  41   2.0000      -0.696588       -18.9551
  42   2.0000      -0.669440       -18.2164
  43   2.0000      -0.661492       -18.0001
  44   2.0000      -0.650055       -17.6889
  45   2.0000      -0.632116       -17.2007
  46   2.0000      -0.604418       -16.4470
  47   2.0000      -0.539206       -14.6725
  48   2.0000      -0.534820       -14.5532
  49   2.0000      -0.523795       -14.2532
  50   2.0000      -0.504483       -13.7277
  51   2.0000      -0.490980       -13.3602
  52   2.0000      -0.487620       -13.2688
  53   2.0000      -0.465981       -12.6800
  54   2.0000      -0.465475       -12.6662
  55   2.0000      -0.453855       -12.3500
  56   2.0000      -0.448126       -12.1941
  57   2.0000      -0.442974       -12.0539
  58   2.0000      -0.430913       -11.7257
  59   2.0000      -0.427009       -11.6195
  60   2.0000      -0.425687       -11.5835
  61   2.0000      -0.416351       -11.3295
  62   2.0000      -0.411885       -11.2079
  63   2.0000      -0.407025       -11.0757
  64   2.0000      -0.394144       -10.7252
  65   2.0000      -0.387992       -10.5578
  66   2.0000      -0.380530       -10.3547
  67   2.0000      -0.374933       -10.2024
  68   2.0000      -0.363534        -9.8923
  69   2.0000      -0.359695        -9.7878
  70   2.0000      -0.351011        -9.5515
  71   2.0000      -0.347320        -9.4511
  72   2.0000      -0.341596        -9.2953
  73   2.0000      -0.330959        -9.0058
  74   2.0000      -0.320148        -8.7117
  75   2.0000      -0.313643        -8.5347
  76   2.0000      -0.312004        -8.4901
  77   2.0000      -0.307610        -8.3705
  78   2.0000      -0.287807        -7.8316
  79   2.0000      -0.282089        -7.6760
  80   2.0000      -0.278325        -7.5736
  81   2.0000      -0.270484        -7.3603
  82   2.0000      -0.251319        -6.8387
  83   2.0000      -0.246870        -6.7177
  84   2.0000      -0.235047        -6.3960
  85   2.0000      -0.212146        -5.7728
  86   2.0000      -0.205093        -5.5809
  87   0.0000      -0.043646        -1.1877
  88   0.0000      -0.033987        -0.9248
  89   0.0000      -0.015771        -0.4291
  90   0.0000       0.003347         0.0911
  91   0.0000       0.023594         0.6420

MULLIKEN ATOMIC CHARGES
-----------------------
   0 C :   -0.480562
   1 C :   -0.148789
   2 O :   -0.093838
   3 C :    0.305156
   4 O :   -0.390996
   5 C :   -0.421523
   6 C :   -0.004888
   7 H :    0.235475
   8 C :    0.289807
   9 O :   -0.405488
  10 O :   -0.140389
  11 C :   -0.127485
  12 C :   -0.497136
  13 S :   -0.206066
  14 P :    0.795943
  15 S :   -0.456436
  16 O :   -0.364097
  17 C :   -0.301970
  18 O :   -0.296565
  19 C :   -0.290730
  20 H :    0.148361
  21 H :    0.177312
  22 H :    0.170504
  23 H :    0.174622
  24 H :    0.151793
  25 H :    0.193628
  26 H :    0.199313
  27 H :    0.152610
  28 H :    0.178550
  29 H :    0.178201
  30 H :    0.156321
  31 H :    0.151813
  32 H :    0.149526
  33 H :    0.156017
  34 H :    0.175156
  35 H :    0.167116
  36 H :    0.157082
  37 H :    0.162652
Sum of atomic charges:   -0.0000000

LOEWDIN ATOMIC CHARGES
----------------------
   0 C :   -0.392863
   1 C :    0.032527
   2 O :   -0.594480
   3 C :    0.350607
   4 O :   -0.413161
   5 C :   -0.199639
   6 C :   -0.197229
   7 H :    0.205423
   8 C :    0.336328
   9 O :   -0.457228
  10 O :   -0.566691
  11 C :    0.037781
  12 C :   -0.390006
  13 S :    0.210364
  14 P :    0.412004
  15 S :   -0.083151
  16 O :   -0.693099
  17 C :   -0.065295
  18 O :   -0.637113
  19 C :   -0.049700
  20 H :    0.157637
  21 H :    0.168809
  22 H :    0.165124
  23 H :    0.192114
  24 H :    0.178579
  25 H :    0.188337
  26 H :    0.199681
  27 H :    0.181003
  28 H :    0.192625
  29 H :    0.167001
  30 H :    0.159369
  31 H :    0.160113
  32 H :    0.175661
  33 H :    0.167456
  34 H :    0.176172
  35 H :    0.173048
  36 H :    0.180224
  37 H :    0.171666

  Mayer bond orders larger than 0.100000
B(  0-C ,  1-C ) :   0.9219 B(  0-C , 20-H ) :   0.9662 B(  0-C , 21-H ) :   0.9663
B(  0-C , 22-H ) :   0.9681 B(  1-C ,  2-O ) :   0.7720 B(  1-C , 23-H ) :   0.9603
B(  1-C , 24-H ) :   0.9659 B(  2-O ,  3-C ) :   1.0395 B(  2-O ,  8-C ) :   0.1116
B(  3-C ,  4-O ) :   1.8910 B(  3-C ,  5-C ) :   0.9559 B(  5-C ,  6-C ) :   0.8407
B(  5-C , 25-H ) :   0.9840 B(  5-C , 26-H ) :   0.9546 B(  6-C ,  7-H ) :   0.9049
B(  6-C ,  8-C ) :   0.9147 B(  6-C , 13-S ) :   0.9165 B(  8-C ,  9-O ) :   1.7560
B(  8-C , 10-O ) :   1.1501 B(  9-O , 14-P ) :   0.1026 B( 10-O , 11-C ) :   0.8040
B( 11-C , 12-C ) :   0.9216 B( 11-C , 27-H ) :   0.9611 B( 11-C , 28-H ) :   0.9758
B( 12-C , 29-H ) :   0.9724 B( 12-C , 30-H ) :   0.9674 B( 12-C , 31-H ) :   0.9632
B( 13-S , 14-P ) :   0.9679 B( 14-P , 15-S ) :   1.7773 B( 14-P , 16-O ) :   0.9938
B( 14-P , 18-O ) :   1.1876 B( 16-O , 17-C ) :   0.8382 B( 17-C , 32-H ) :   0.9689
B( 17-C , 33-H ) :   0.9566 B( 17-C , 34-H ) :   0.9581 B( 18-O , 19-C ) :   0.7944
B( 19-C , 35-H ) :   0.9617 B( 19-C , 36-H ) :   0.9655 B( 19-C , 37-H ) :   0.9593

Dispersion correction           -0.018497327
FINAL SINGLE POINT ENERGY     -1981.449866487091

DIPOLE MOMENT
-------------

Method             : SCF
Type of density    : Electron Density
Multiplicity       :   1
Irrep              :   0
Energy             : -1981.4690610590300821 Eh
Relativity type    :
Basis              : AO
                                X                 Y                 Z
Electronic contribution:    -13.182396280       6.065289518      -4.805883590
Nuclear contribution   :     14.100385093      -6.366210364       4.972155295
                        -----------------------------------------
Total Dipole Moment    :      0.917988814      -0.300920847       0.166271705
                        -----------------------------------------
Magnitude (a.u.)       :      0.980256649
Magnitude (Debye)      :      2.491614390

Rotational constants in cm-1:             0.013759             0.007755             0.006828
Rotational constants in MHz :           412.481505           232.479878           204.698188

                             ****ORCA TERMINATED NORMALLY****
TOTAL RUN TIME: 0 days 0 hours 1 minutes 23 seconds 449 msec
