                         Program Version 6.0.1  -  RELEASE   -
|  1> ! r2scan-3c def2/J RI DEFGRID2 scfconv6 printgap
|  2> %output
|  3>     printlevel normal
|  4> end
|  5> %cpcm
|  6>     smd true
|  7>     smdsolvent "water"
|  8> end
|  9> * xyz 0 1
| 10> C 2.2176216972 -2.670854841 0.6830340409
| 11> C 3.2482790366 -1.8290576783 -0.0529331767
| 12> O 2.6116949387 -0.6880179981 -0.659050287
| 13> C 2.12471026 -0.8169950963 -1.8833866289
| 14> O 2.2814188152 -1.78964517 -2.583262415
| 15> C 1.3414929826 0.4151260655 -2.2967416691
| 16> C 0.2634942582 0.7228285635 -1.2607330259
| 17> H -0.3466363422 1.5707150436 -1.5873654607
| 18> C 0.8461655076 1.0655859865 0.1003128275
| 19> O 0.4967745682 0.509005118 1.1211612697
| 20> O 1.6945575732 2.0539353661 0.0258631757
| 21> C 2.2810622769 2.5441252518 1.2504015718
| 22> C 3.439961084 1.6705060092 1.698876844
| 23> S -0.8409736911 -0.7184972351 -1.0500550338
| 24> P -2.0490523545 0.0440302833 0.5271233042
| 25> S -2.1753528837 1.9912239635 0.6900441928
| 26> O -3.4614848965 -0.6273891437 0.1498569092
| 27> C -4.207267563 -0.2005137676 -0.9926386232
| 28> O -1.7718847379 -0.7247558676 1.8775739581
| 29> C -1.7731557335 -2.1630026864 1.9597899831
| 30> H 2.7167825356 -3.4637079735 1.2295398649
| 31> H 1.6608787589 -2.046914505 1.3798338999
| 32> H 1.521257074 -3.1103647733 -0.028504824
| 33> H 3.7426769539 -2.4094838946 -0.8366157285
| 34> H 3.9846636439 -1.4088456785 0.6325292143
| 35> H 0.8902197517 0.2230969266 -3.2693431033
| 36> H 2.017182775 1.269642143 -2.3594714959
| 37> H 2.6109256312 3.5515466512 0.9971002666
| 38> H 1.4997636522 2.5810569703 2.0152815297
| 39> H 3.077960803 0.680200317 1.9630051581
| 40> H 4.1714538761 1.5815133311 0.9004762331
| 41> H 3.9082112836 2.1194483404 2.5685950211
| 42> H -5.1898988114 -0.6530130338 -0.8876616608
| 43> H -3.7199858314 -0.5462103599 -1.9043714579
| 44> H -4.2877370783 0.8878508523 -1.0014248572
| 45> H -2.7863219243 -2.5385845161 1.8281501522
| 46> H -1.3988527043 -2.3895458729 2.9547441156
| 47> H -1.1166906565 -2.5829601878 1.1973305311
| 48> *
| 49>
| 50>                          ****END OF INPUT****

CARTESIAN COORDINATES (ANGSTROEM)
---------------------------------
  C      2.217622   -2.670855    0.683034
  C      3.248279   -1.829058   -0.052933
  O      2.611695   -0.688018   -0.659050
  C      2.124710   -0.816995   -1.883387
  O      2.281419   -1.789645   -2.583262
  C      1.341493    0.415126   -2.296742
  C      0.263494    0.722829   -1.260733
  H     -0.346636    1.570715   -1.587365
  C      0.846166    1.065586    0.100313
  O      0.496775    0.509005    1.121161
  O      1.694558    2.053935    0.025863
  C      2.281062    2.544125    1.250402
  C      3.439961    1.670506    1.698877
  S     -0.840974   -0.718497   -1.050055
  P     -2.049052    0.044030    0.527123
  S     -2.175353    1.991224    0.690044
  O     -3.461485   -0.627389    0.149857
  C     -4.207268   -0.200514   -0.992639
  O     -1.771885   -0.724756    1.877574
  C     -1.773156   -2.163003    1.959790
  H      2.716783   -3.463708    1.229540
  H      1.660879   -2.046915    1.379834
  H      1.521257   -3.110365   -0.028505
  H      3.742677   -2.409484   -0.836616
  H      3.984664   -1.408846    0.632529
  H      0.890220    0.223097   -3.269343
  H      2.017183    1.269642   -2.359471
  H      2.610926    3.551547    0.997100
  H      1.499764    2.581057    2.015282
  H      3.077961    0.680200    1.963005
  H      4.171454    1.581513    0.900476
  H      3.908211    2.119448    2.568595
  H     -5.189899   -0.653013   -0.887662
  H     -3.719986   -0.546210   -1.904371
  H     -4.287737    0.887851   -1.001425
  H     -2.786322   -2.538585    1.828150
  H     -1.398853   -2.389546    2.954744
  H     -1.116691   -2.582960    1.197331

 Total Charge           Charge          ....    0
 Multiplicity           Mult            ....    1
 Number of Electrons    NEL             ....  174
 Basis Dimension        Dim             ....  510

ORBITAL ENERGIES
----------------

  NO   OCC          E(Eh)            E(eV)
   0   2.0000     -88.579172     -2410.3618
   1   2.0000     -88.525528     -2408.9021
   2   2.0000     -76.920626     -2093.1166
   3   2.0000     -19.013212      -517.3758
   4   2.0000     -19.009727      -517.2810
   5   2.0000     -18.995559      -516.8955
   6   2.0000     -18.989318      -516.7256
   7   2.0000     -18.951671      -515.7012
   8   2.0000     -18.948654      -515.6191
   9   2.0000     -10.175108      -276.8788
  10   2.0000     -10.173155      -276.8256
  11   2.0000     -10.100008      -274.8352
  12   2.0000     -10.088850      -274.5316
  13   2.0000     -10.086387      -274.4645
  14   2.0000     -10.084946      -274.4253
  15   2.0000     -10.078900      -274.2608
  16   2.0000     -10.061367      -273.7837
  17   2.0000     -10.019747      -272.6512
  18   2.0000     -10.019258      -272.6379
  19   2.0000      -7.873368      -214.2452
  20   2.0000      -7.820815      -212.8152
  21   2.0000      -6.598464      -179.5533
  22   2.0000      -5.820228      -158.3765
  23   2.0000      -5.817284      -158.2963
  24   2.0000      -5.810463      -158.1107
  25   2.0000      -5.768632      -156.9725
  26   2.0000      -5.761229      -156.7710
  27   2.0000      -5.760411      -156.7488
  28   2.0000      -4.744211      -129.0966
  29   2.0000      -4.743541      -129.0783
  30   2.0000      -4.742007      -129.0366
  31   2.0000      -1.094754       -29.7898
  32   2.0000      -1.086724       -29.5713
  33   2.0000      -1.051861       -28.6226
  34   2.0000      -1.007648       -27.4195
  35   2.0000      -1.000419       -27.2228
  36   2.0000      -0.998549       -27.1719
  37   2.0000      -0.816155       -22.2087
  38   2.0000      -0.749786       -20.4027
  39   2.0000      -0.744595       -20.2615
  40   2.0000      -0.728359       -19.8196
  41   2.0000      -0.695408       -18.9230
  42   2.0000      -0.667776       -18.1711
  43   2.0000      -0.659691       -17.9511
  44   2.0000      -0.655340       -17.8327
  45   2.0000      -0.625328       -17.0160
  46   2.0000      -0.600346       -16.3362
  47   2.0000      -0.538804       -14.6616
  48   2.0000      -0.530745       -14.4423
  49   2.0000      -0.520591       -14.1660
  50   2.0000      -0.504217       -13.7204
  51   2.0000      -0.491915       -13.3857
  52   2.0000      -0.490256       -13.3405
  53   2.0000      -0.471422       -12.8281
  54   2.0000      -0.464076       -12.6281
  55   2.0000      -0.458139       -12.4666
  56   2.0000      -0.448617       -12.2075
  57   2.0000      -0.444896       -12.1062
  58   2.0000      -0.438019       -11.9191
  59   2.0000      -0.426221       -11.5981
  60   2.0000      -0.419995       -11.4287
  61   2.0000      -0.413248       -11.2451
  62   2.0000      -0.408348       -11.1117
  63   2.0000      -0.404912       -11.0182
  64   2.0000      -0.390970       -10.6388
  65   2.0000      -0.382994       -10.4218
  66   2.0000      -0.374645       -10.1946
  67   2.0000      -0.373439       -10.1618
  68   2.0000      -0.355749        -9.6804
  69   2.0000      -0.355521        -9.6742
  70   2.0000      -0.352324        -9.5872
  71   2.0000      -0.343708        -9.3528
  72   2.0000      -0.337633        -9.1875
  73   2.0000      -0.331791        -9.0285
  74   2.0000      -0.319307        -8.6888
  75   2.0000      -0.313753        -8.5377
  76   2.0000      -0.310494        -8.4490
  77   2.0000      -0.305560        -8.3147
  78   2.0000      -0.290009        -7.8915
  79   2.0000      -0.287748        -7.8300
  80   2.0000      -0.281902        -7.6710
  81   2.0000      -0.276672        -7.5286
  82   2.0000      -0.261108        -7.1051
  83   2.0000      -0.258443        -7.0326
  84   2.0000      -0.242251        -6.5920
  85   2.0000      -0.227291        -6.1849
  86   2.0000      -0.221066        -6.0155
  87   0.0000      -0.051466        -1.4005
  88   0.0000      -0.040881        -1.1124
  89   0.0000      -0.021485        -0.5846
  90   0.0000       0.000091         0.0025
  91   0.0000       0.015260         0.4152

MULLIKEN ATOMIC CHARGES
-----------------------
   0 C :   -0.507293
   1 C :   -0.142802
   2 O :   -0.109423
   3 C :    0.337378
   4 O :   -0.464612
   5 C :   -0.456103
   6 C :    0.016130
   7 H :    0.264739
   8 C :    0.281989
   9 O :   -0.448533
  10 O :   -0.155970
  11 C :   -0.120679
  12 C :   -0.528001
  13 S :   -0.206789
  14 P :    0.798329
  15 S :   -0.504259
  16 O :   -0.394488
  17 C :   -0.308590
  18 O :   -0.345170
  19 C :   -0.296856
  20 H :    0.174037
  21 H :    0.172552
  22 H :    0.173279
  23 H :    0.178347
  24 H :    0.181767
  25 H :    0.219736
  26 H :    0.236552
  27 H :    0.179185
  28 H :    0.177321
  29 H :    0.179756
  30 H :    0.171883
  31 H :    0.174923
  32 H :    0.177422
  33 H :    0.172887
  34 H :    0.176064
  35 H :    0.183043
  36 H :    0.183657
  37 H :    0.178593
Sum of atomic charges:    0.0000000

LOEWDIN ATOMIC CHARGES
----------------------
   0 C :   -0.393155
   1 C :    0.038336
   2 O :   -0.592684
   3 C :    0.358550
   4 O :   -0.466964
   5 C :   -0.190269
   6 C :   -0.188698
   7 H :    0.216100
   8 C :    0.338175
   9 O :   -0.497708
  10 O :   -0.567081
  11 C :    0.041936
  12 C :   -0.391095
  13 S :    0.215460
  14 P :    0.408648
  15 S :   -0.121660
  16 O :   -0.705669
  17 C :   -0.060205
  18 O :   -0.668392
  19 C :   -0.042063
  20 H :    0.167679
  21 H :    0.165767
  22 H :    0.163606
  23 H :    0.193765
  24 H :    0.191318
  25 H :    0.197556
  26 H :    0.214645
  27 H :    0.192443
  28 H :    0.191551
  29 H :    0.165895
  30 H :    0.164570
  31 H :    0.169018
  32 H :    0.187390
  33 H :    0.174815
  34 H :    0.176680
  35 H :    0.180917
  36 H :    0.191542
  37 H :    0.179279

  Mayer bond orders larger than 0.100000
B(  0-C ,  1-C ) :   0.9056 B(  0-C , 20-H ) :   0.9603 B(  0-C , 21-H ) :   0.9693
B(  0-C , 22-H ) :   0.9673 B(  1-C ,  2-O ) :   0.7606 B(  1-C , 23-H ) :   0.9564
B(  1-C , 24-H ) :   0.9551 B(  2-O ,  3-C ) :   1.0615 B(  2-O ,  8-C ) :   0.1070
B(  3-C ,  4-O ) :   1.8320 B(  3-C ,  5-C ) :   0.9356 B(  5-C ,  6-C ) :   0.8293
B(  5-C , 25-H ) :   0.9845 B(  5-C , 26-H ) :   0.9421 B(  6-C ,  7-H ) :   0.8898
B(  6-C ,  8-C ) :   0.9093 B(  6-C , 13-S ) :   0.8937 B(  8-C ,  9-O ) :   1.7208
B(  8-C , 10-O ) :   1.1562 B(  9-O , 14-P ) :   0.1040 B( 10-O , 11-C ) :   0.7864
B( 11-C , 12-C ) :   0.9139 B( 11-C , 27-H ) :   0.9498 B( 11-C , 28-H ) :   0.9692
B( 12-C , 29-H ) :   0.9684 B( 12-C , 30-H ) :   0.9653 B( 12-C , 31-H ) :   0.9571
B( 13-S , 14-P ) :   0.9911 B( 14-P , 15-S ) :   1.7734 B( 14-P , 16-O ) :   0.9976
B( 14-P , 18-O ) :   1.1807 B( 16-O , 17-C ) :   0.8307 B( 17-C , 32-H ) :   0.9587
B( 17-C , 33-H ) :   0.9502 B( 17-C , 34-H ) :   0.9548 B( 18-O , 19-C ) :   0.7867
B( 19-C , 35-H ) :   0.9530 B( 19-C , 36-H ) :   0.9542 B( 19-C , 37-H ) :   0.9483

Dispersion correction           -0.018497327
FINAL SINGLE POINT ENERGY     -1981.465832368697

DIPOLE MOMENT
-------------

Method             : SCF
Type of density    : Electron Density
Multiplicity       :   1
Irrep              :   0
Energy             : -1981.4850269406367715 Eh
Relativity type    :
Basis              : AO
                                X                 Y                 Z
Electronic contribution:    -12.810173662       6.056389482      -5.070953828
Nuclear contribution   :     14.100385093      -6.366210364       4.972155295
                        -----------------------------------------
Total Dipole Moment    :      1.290211431      -0.309820882      -0.098798533
                        -----------------------------------------
Magnitude (a.u.)       :      1.330562162
Magnitude (Debye)      :      3.382020242

Rotational constants in cm-1:             0.013759             0.007755             0.006828
Rotational constants in MHz :           412.481505           232.479878           204.698188

                             ****ORCA TERMINATED NORMALLY****
TOTAL RUN TIME: 0 days 0 hours 1 minutes 49 seconds 29 msec
