                         Program Version 6.0.0  -   RELEASE  -
|  1> ! wb97x-v def2-tzvp def2/J RIJCOSX DEFGRID2 scfconv7 GCP(DFT/TZ) printgap
|  2> %output
|  3>     printlevel normal
|  4> end
|  5> * xyz 0 1
|  6> C 3.05173212980399 -1.6611199513346637 -0.47353789871764146
|  7> C 1.707096104714726 -1.0943722831768945 -0.19243295894264506
|  8> C 1.4627125110258288 0.06060657648438479 0.48008350741203526
|  9> C 0.12154983352375523 0.5167238973628675 0.7693407972123867
| 10> O -0.12264173519047959 1.4336484955971835 1.5512139454362524
| 11> N -0.9084673050516715 -0.16731128699272768 0.07276865063906256
| 12> C -0.7009977809135456 -1.4680966973619969 -0.3764941386250139
| 13> O -1.5864027147490276 -2.291698926626643 -0.5909490527184551
| 14> N 0.6201301305923613 -1.8160878059593604 -0.593504457577183
| 15> C -2.3146358549143806 0.43861103079634967 0.002770387919573075
| 16> C -2.2141783330972933 1.9674587424301773 -0.14455381231818934
| 17> C -3.040948343461388 -0.05977028394796388 -1.2592907992544058
| 18> C -3.0907066513823676 0.056732119455069945 1.2604538223684125
| 19> Cl 2.77928004195711 0.995751992311572 1.1313295186243855
| 20> H 2.982538835245705 -2.520615933371975 -1.1415579434552996
| 21> H 3.525681610547869 -1.9787403060635558 0.46077642368425403
| 22> H 3.6953996292302103 -0.9040900643726361 -0.9272305354632211
| 23> H 0.7616301972130614 -2.7480430324321032 -0.963774884853146
| 24> H -3.1978490938537534 2.3287157267618386 -0.45363461967544283
| 25> H -1.9448103406001125 2.47357379708967 0.7785903087827498
| 26> H -1.4959844855647355 2.242409629664104 -0.9238927104301242
| 27> H -3.906550292280439 0.5889798991611064 -1.4112282042058608
| 28> H -3.3976474244019204 -1.0826232705358532 -1.1737695183288506
| 29> H -2.4005930597327114 0.02293940125944848 -2.143384976987884
| 30> H -3.190641597622404 -1.0294065044932788 1.341995562416023
| 31> H -2.5973140151863787 0.43693373599361096 2.1591095658994917
| 32> H -4.093317091958728 0.49248735788461695 1.2070928533116982
| 33> *
| 34>
| 35>                          ****END OF INPUT****

CARTESIAN COORDINATES (ANGSTROEM)
---------------------------------
  C      3.051732   -1.661120   -0.473538
  C      1.707096   -1.094372   -0.192433
  C      1.462713    0.060607    0.480084
  C      0.121550    0.516724    0.769341
  O     -0.122642    1.433648    1.551214
  N     -0.908467   -0.167311    0.072769
  C     -0.700998   -1.468097   -0.376494
  O     -1.586403   -2.291699   -0.590949
  N      0.620130   -1.816088   -0.593504
  C     -2.314636    0.438611    0.002770
  C     -2.214178    1.967459   -0.144554
  C     -3.040948   -0.059770   -1.259291
  C     -3.090707    0.056732    1.260454
  Cl     2.779280    0.995752    1.131330
  H      2.982539   -2.520616   -1.141558
  H      3.525682   -1.978740    0.460776
  H      3.695400   -0.904090   -0.927231
  H      0.761630   -2.748043   -0.963775
  H     -3.197849    2.328716   -0.453635
  H     -1.944810    2.473574    0.778590
  H     -1.495984    2.242410   -0.923893
  H     -3.906550    0.588980   -1.411228
  H     -3.397647   -1.082623   -1.173770
  H     -2.400593    0.022939   -2.143385
  H     -3.190642   -1.029407    1.341996
  H     -2.597314    0.436934    2.159110
  H     -4.093317    0.492487    1.207093

 Total Charge           Charge          ....    0
 Multiplicity           Mult            ....    1
 Number of Electrons    NEL             ....  114
 Basis Dimension        Dim             ....  518

ORBITAL ENERGIES
----------------

  NO   OCC          E(Eh)            E(eV)
   0   2.0000    -107.150540     -2915.7144
   1   2.0000     -21.655780      -589.2837
   2   2.0000     -21.651438      -589.1656
   3   2.0000     -16.602090      -451.7658
   4   2.0000     -16.588710      -451.4017
   5   2.0000     -12.206486      -332.1554
   6   2.0000     -12.175934      -331.3240
   7   2.0000     -12.148591      -330.5800
   8   2.0000     -12.114597      -329.6550
   9   2.0000     -12.112273      -329.5917
  10   2.0000     -12.086528      -328.8911
  11   2.0000     -12.034333      -327.4709
  12   2.0000     -12.033866      -327.4581
  13   2.0000     -12.032400      -327.4183
  14   2.0000     -11.303233      -307.5766
  15   2.0000      -9.094988      -247.4872
  16   2.0000      -9.092085      -247.4082
  17   2.0000      -9.092041      -247.4070
  18   2.0000      -1.725428       -46.9513
  19   2.0000      -1.708247       -46.4838
  20   2.0000      -1.593309       -43.3561
  21   2.0000      -1.534463       -41.7549
  22   2.0000      -1.435560       -39.0636
  23   2.0000      -1.347938       -36.6793
  24   2.0000      -1.331838       -36.2412
  25   2.0000      -1.266967       -34.4759
  26   2.0000      -1.221250       -33.2319
  27   2.0000      -1.197150       -32.5761
  28   2.0000      -1.187081       -32.3021
  29   2.0000      -1.177523       -32.0420
  30   2.0000      -1.112850       -30.2822
  31   2.0000      -1.103651       -30.0319
  32   2.0000      -1.062996       -28.9256
  33   2.0000      -1.058337       -28.7988
  34   2.0000      -1.029317       -28.0091
  35   2.0000      -0.970066       -26.3968
  36   2.0000      -0.952899       -25.9297
  37   2.0000      -0.943732       -25.6802
  38   2.0000      -0.935230       -25.4489
  39   2.0000      -0.916626       -24.9427
  40   2.0000      -0.899633       -24.4803
  41   2.0000      -0.894708       -24.3463
  42   2.0000      -0.883150       -24.0317
  43   2.0000      -0.875277       -23.8175
  44   2.0000      -0.871417       -23.7125
  45   2.0000      -0.861579       -23.4448
  46   2.0000      -0.849425       -23.1140
  47   2.0000      -0.829179       -22.5631
  48   2.0000      -0.818994       -22.2860
  49   2.0000      -0.817837       -22.2545
  50   2.0000      -0.811621       -22.0853
  51   2.0000      -0.802572       -21.8391
  52   2.0000      -0.796822       -21.6826
  53   2.0000      -0.795607       -21.6496
  54   2.0000      -0.776282       -21.1237
  55   2.0000      -0.772777       -21.0283
  56   2.0000      -0.688135       -18.7251
  57   0.0000      -0.350198        -9.5294
  58   0.0000      -0.312995        -8.5170
  59   0.0000      -0.278365        -7.5747
  60   0.0000      -0.198734        -5.4078
  61   0.0000      -0.176621        -4.8061

MULLIKEN ATOMIC CHARGES
-----------------------
   0 C :   -0.355041
   1 C :    0.183310
   2 C :   -0.085253
   3 C :    0.214737
   4 O :   -0.353426
   5 N :   -0.050382
   6 C :    0.292638
   7 O :   -0.382250
   8 N :   -0.245239
   9 C :    0.136631
  10 C :   -0.367266
  11 C :   -0.362365
  12 C :   -0.402052
  13 Cl:   -0.061566
  14 H :    0.116605
  15 H :    0.156199
  16 H :    0.156546
  17 H :    0.243664
  18 H :    0.110938
  19 H :    0.163597
  20 H :    0.113767
  21 H :    0.112447
  22 H :    0.159454
  23 H :    0.112088
  24 H :    0.136945
  25 H :    0.143193
  26 H :    0.112083
Sum of atomic charges:   -0.0000000

LOEWDIN ATOMIC CHARGES
----------------------
   0 C :   -0.242969
   1 C :   -0.228152
   2 C :   -0.422377
   3 C :   -0.386799
   4 O :    0.088050
   5 N :    0.279119
   6 C :   -0.449429
   7 O :    0.056597
   8 N :    0.203144
   9 C :   -0.304959
  10 C :   -0.255636
  11 C :   -0.256513
  12 C :   -0.250412
  13 Cl:    0.415459
  14 H :    0.127493
  15 H :    0.144471
  16 H :    0.142335
  17 H :    0.207191
  18 H :    0.123949
  19 H :    0.127984
  20 H :    0.124257
  21 H :    0.124414
  22 H :    0.126875
  23 H :    0.123504
  24 H :    0.127079
  25 H :    0.128267
  26 H :    0.127056

  Mayer bond orders larger than 0.100000
B(  0-C ,  1-C ) :   0.9568 B(  0-C , 14-H ) :   0.9808 B(  0-C , 15-H ) :   0.9540
B(  0-C , 16-H ) :   0.9655 B(  1-C ,  2-C ) :   1.6191 B(  1-C ,  8-N ) :   1.1547
B(  2-C ,  3-C ) :   1.0627 B(  2-C , 13-Cl) :   1.1723 B(  3-C ,  4-O ) :   2.0566
B(  3-C ,  5-N ) :   1.0948 B(  5-N ,  6-C ) :   1.1574 B(  5-N ,  9-C ) :   0.8349
B(  6-C ,  7-O ) :   2.0229 B(  6-C ,  8-N ) :   1.1337 B(  8-N , 17-H ) :   0.9004
B(  9-C , 10-C ) :   0.9621 B(  9-C , 11-C ) :   0.9565 B(  9-C , 12-C ) :   0.9742
B( 10-C , 18-H ) :   0.9705 B( 10-C , 19-H ) :   0.9732 B( 10-C , 20-H ) :   0.9759
B( 11-C , 21-H ) :   0.9717 B( 11-C , 22-H ) :   0.9737 B( 11-C , 23-H ) :   0.9772
B( 12-C , 24-H ) :   0.9744 B( 12-C , 25-H ) :   0.9748 B( 12-C , 26-H ) :   0.9728

FINAL SINGLE POINT ENERGY     -1070.963662218315

DIPOLE MOMENT
-------------

Method             : SCF
Type of density    : Electron Density
Multiplicity       :   1
Irrep              :   0
Energy             : -1070.9826154452152878 Eh
Relativity type    :
Basis              : AO
                                X                 Y                 Z
Electronic contribution:     18.466470390       0.843201642       5.821176015
Nuclear contribution   :    -17.645632229      -1.785916425      -6.801657369
                        -----------------------------------------
Total Dipole Moment    :      0.820838161      -0.942714782      -0.980481355
                        -----------------------------------------
Magnitude (a.u.)       :      1.588656707
Magnitude (Debye)      :      4.038044441

Rotational constants in cm-1:             0.033389             0.015863             0.011820
Rotational constants in MHz :          1000.966486           475.562428           354.352432

                             ****ORCA TERMINATED NORMALLY****
TOTAL RUN TIME: 0 days 0 hours 8 minutes 8 seconds 254 msec
