                         Program Version 6.0.0  -   RELEASE  -
|  1> ! wb97x-v def2-tzvp def2/J RIJCOSX DEFGRID2 scfconv7 GCP(DFT/TZ) printgap
|  2> %output
|  3>     printlevel normal
|  4> end
|  5> %cpcm
|  6>     smd true
|  7>     smdsolvent "water"
|  8> end
|  9> * xyz 0 1
| 10> C 3.05173212980399 -1.6611199513346637 -0.47353789871764146
| 11> C 1.707096104714726 -1.0943722831768945 -0.19243295894264506
| 12> C 1.4627125110258288 0.06060657648438479 0.48008350741203526
| 13> C 0.12154983352375523 0.5167238973628675 0.7693407972123867
| 14> O -0.12264173519047959 1.4336484955971835 1.5512139454362524
| 15> N -0.9084673050516715 -0.16731128699272768 0.07276865063906256
| 16> C -0.7009977809135456 -1.4680966973619969 -0.3764941386250139
| 17> O -1.5864027147490276 -2.291698926626643 -0.5909490527184551
| 18> N 0.6201301305923613 -1.8160878059593604 -0.593504457577183
| 19> C -2.3146358549143806 0.43861103079634967 0.002770387919573075
| 20> C -2.2141783330972933 1.9674587424301773 -0.14455381231818934
| 21> C -3.040948343461388 -0.05977028394796388 -1.2592907992544058
| 22> C -3.0907066513823676 0.056732119455069945 1.2604538223684125
| 23> Cl 2.77928004195711 0.995751992311572 1.1313295186243855
| 24> H 2.982538835245705 -2.520615933371975 -1.1415579434552996
| 25> H 3.525681610547869 -1.9787403060635558 0.46077642368425403
| 26> H 3.6953996292302103 -0.9040900643726361 -0.9272305354632211
| 27> H 0.7616301972130614 -2.7480430324321032 -0.963774884853146
| 28> H -3.1978490938537534 2.3287157267618386 -0.45363461967544283
| 29> H -1.9448103406001125 2.47357379708967 0.7785903087827498
| 30> H -1.4959844855647355 2.242409629664104 -0.9238927104301242
| 31> H -3.906550292280439 0.5889798991611064 -1.4112282042058608
| 32> H -3.3976474244019204 -1.0826232705358532 -1.1737695183288506
| 33> H -2.4005930597327114 0.02293940125944848 -2.143384976987884
| 34> H -3.190641597622404 -1.0294065044932788 1.341995562416023
| 35> H -2.5973140151863787 0.43693373599361096 2.1591095658994917
| 36> H -4.093317091958728 0.49248735788461695 1.2070928533116982
| 37> *
| 38>
| 39>                          ****END OF INPUT****

CARTESIAN COORDINATES (ANGSTROEM)
---------------------------------
  C      3.051732   -1.661120   -0.473538
  C      1.707096   -1.094372   -0.192433
  C      1.462713    0.060607    0.480084
  C      0.121550    0.516724    0.769341
  O     -0.122642    1.433648    1.551214
  N     -0.908467   -0.167311    0.072769
  C     -0.700998   -1.468097   -0.376494
  O     -1.586403   -2.291699   -0.590949
  N      0.620130   -1.816088   -0.593504
  C     -2.314636    0.438611    0.002770
  C     -2.214178    1.967459   -0.144554
  C     -3.040948   -0.059770   -1.259291
  C     -3.090707    0.056732    1.260454
  Cl     2.779280    0.995752    1.131330
  H      2.982539   -2.520616   -1.141558
  H      3.525682   -1.978740    0.460776
  H      3.695400   -0.904090   -0.927231
  H      0.761630   -2.748043   -0.963775
  H     -3.197849    2.328716   -0.453635
  H     -1.944810    2.473574    0.778590
  H     -1.495984    2.242410   -0.923893
  H     -3.906550    0.588980   -1.411228
  H     -3.397647   -1.082623   -1.173770
  H     -2.400593    0.022939   -2.143385
  H     -3.190642   -1.029407    1.341996
  H     -2.597314    0.436934    2.159110
  H     -4.093317    0.492487    1.207093

 Total Charge           Charge          ....    0
 Multiplicity           Mult            ....    1
 Number of Electrons    NEL             ....  114
 Basis Dimension        Dim             ....  518

ORBITAL ENERGIES
----------------

  NO   OCC          E(Eh)            E(eV)
   0   2.0000    -107.151836     -2915.7497
   1   2.0000     -21.660999      -589.4258
   2   2.0000     -21.659968      -589.3977
   3   2.0000     -16.590354      -451.4465
   4   2.0000     -16.589716      -451.4291
   5   2.0000     -12.208410      -332.2077
   6   2.0000     -12.182559      -331.5043
   7   2.0000     -12.139767      -330.3399
   8   2.0000     -12.109342      -329.5120
   9   2.0000     -12.107433      -329.4600
  10   2.0000     -12.055664      -328.0513
  11   2.0000     -12.030702      -327.3721
  12   2.0000     -12.028454      -327.3109
  13   2.0000     -12.028015      -327.2989
  14   2.0000     -11.304656      -307.6153
  15   2.0000      -9.096394      -247.5255
  16   2.0000      -9.093567      -247.4485
  17   2.0000      -9.093525      -247.4474
  18   2.0000      -1.731368       -47.1129
  19   2.0000      -1.719598       -46.7926
  20   2.0000      -1.584926       -43.1280
  21   2.0000      -1.531164       -41.6651
  22   2.0000      -1.434706       -39.0403
  23   2.0000      -1.338465       -36.4215
  24   2.0000      -1.328156       -36.1410
  25   2.0000      -1.254286       -34.1309
  26   2.0000      -1.218097       -33.1461
  27   2.0000      -1.184595       -32.2345
  28   2.0000      -1.183382       -32.2015
  29   2.0000      -1.172834       -31.9144
  30   2.0000      -1.108267       -30.1575
  31   2.0000      -1.101778       -29.9809
  32   2.0000      -1.070872       -29.1399
  33   2.0000      -1.059529       -28.8312
  34   2.0000      -1.030312       -28.0362
  35   2.0000      -0.970139       -26.3988
  36   2.0000      -0.949365       -25.8335
  37   2.0000      -0.936835       -25.4926
  38   2.0000      -0.931304       -25.3421
  39   2.0000      -0.927746       -25.2453
  40   2.0000      -0.893953       -24.3257
  41   2.0000      -0.885864       -24.1056
  42   2.0000      -0.882859       -24.0238
  43   2.0000      -0.876247       -23.8439
  44   2.0000      -0.867965       -23.6185
  45   2.0000      -0.836193       -22.7540
  46   2.0000      -0.832725       -22.6596
  47   2.0000      -0.824547       -22.4371
  48   2.0000      -0.818712       -22.2783
  49   2.0000      -0.814594       -22.1662
  50   2.0000      -0.805856       -21.9285
  51   2.0000      -0.800548       -21.7840
  52   2.0000      -0.796890       -21.6845
  53   2.0000      -0.792802       -21.5732
  54   2.0000      -0.773521       -21.0486
  55   2.0000      -0.769585       -20.9415
  56   2.0000      -0.682484       -18.5713
  57   0.0000      -0.344532        -9.3752
  58   0.0000      -0.310752        -8.4560
  59   0.0000      -0.275906        -7.5078
  60   0.0000      -0.192677        -5.2430
  61   0.0000      -0.172969        -4.7067

MULLIKEN ATOMIC CHARGES
-----------------------
   0 C :   -0.386401
   1 C :    0.206926
   2 C :   -0.098218
   3 C :    0.267652
   4 O :   -0.472800
   5 N :   -0.039139
   6 C :    0.343131
   7 O :   -0.485958
   8 N :   -0.224396
   9 C :    0.161026
  10 C :   -0.414261
  11 C :   -0.412304
  12 C :   -0.420104
  13 Cl:   -0.096115
  14 H :    0.162176
  15 H :    0.172948
  16 H :    0.167715
  17 H :    0.298721
  18 H :    0.141740
  19 H :    0.143873
  20 H :    0.140802
  21 H :    0.142078
  22 H :    0.143448
  23 H :    0.142313
  24 H :    0.137142
  25 H :    0.136557
  26 H :    0.141449
Sum of atomic charges:    0.0000000

LOEWDIN ATOMIC CHARGES
----------------------
   0 C :   -0.231573
   1 C :   -0.198601
   2 C :   -0.428089
   3 C :   -0.379398
   4 O :    0.017212
   5 N :    0.287343
   6 C :   -0.432280
   7 O :    0.000834
   8 N :    0.229281
   9 C :   -0.304032
  10 C :   -0.259641
  11 C :   -0.259558
  12 C :   -0.253379
  13 Cl:    0.392796
  14 H :    0.142653
  15 H :    0.150962
  16 H :    0.146010
  17 H :    0.229378
  18 H :    0.131711
  19 H :    0.120863
  20 H :    0.129629
  21 H :    0.131919
  22 H :    0.121012
  23 H :    0.129762
  24 H :    0.126102
  25 H :    0.125246
  26 H :    0.133841

  Mayer bond orders larger than 0.100000
B(  0-C ,  1-C ) :   0.9556 B(  0-C , 14-H ) :   0.9685 B(  0-C , 15-H ) :   0.9474
B(  0-C , 16-H ) :   0.9602 B(  1-C ,  2-C ) :   1.5798 B(  1-C ,  8-N ) :   1.1920
B(  2-C ,  3-C ) :   1.1000 B(  2-C , 13-Cl) :   1.1075 B(  3-C ,  4-O ) :   1.9556
B(  3-C ,  5-N ) :   1.1107 B(  5-N ,  6-C ) :   1.1628 B(  5-N ,  9-C ) :   0.8366
B(  6-C ,  7-O ) :   1.9321 B(  6-C ,  8-N ) :   1.1697 B(  8-N , 17-H ) :   0.8699
B(  9-C , 10-C ) :   0.9476 B(  9-C , 11-C ) :   0.9442 B(  9-C , 12-C ) :   0.9836
B( 10-C , 18-H ) :   0.9691 B( 10-C , 19-H ) :   0.9741 B( 10-C , 20-H ) :   0.9759
B( 11-C , 21-H ) :   0.9697 B( 11-C , 22-H ) :   0.9739 B( 11-C , 23-H ) :   0.9764
B( 12-C , 24-H ) :   0.9698 B( 12-C , 25-H ) :   0.9701 B( 12-C , 26-H ) :   0.9730

FINAL SINGLE POINT ENERGY     -1070.981336490809

DIPOLE MOMENT
-------------

Method             : SCF
Type of density    : Electron Density
Multiplicity       :   1
Irrep              :   0
Energy             : -1071.0002897177091654 Eh
Relativity type    :
Basis              : AO
                                X                 Y                 Z
Electronic contribution:     18.812193155       0.302412530       5.223501776
Nuclear contribution   :    -17.645632229      -1.785916425      -6.801657369
                        -----------------------------------------
Total Dipole Moment    :      1.166560926      -1.483503894      -1.578155593
                        -----------------------------------------
Magnitude (a.u.)       :      2.460126679
Magnitude (Debye)      :      6.253145072

Rotational constants in cm-1:             0.033389             0.015863             0.011820
Rotational constants in MHz :          1000.966486           475.562428           354.352432

                             ****ORCA TERMINATED NORMALLY****
TOTAL RUN TIME: 0 days 0 hours 9 minutes 44 seconds 36 msec
