                         Program Version 6.0.0  -   RELEASE  -
|  1> ! r2scan-3c def2/J RI DEFGRID2 scfconv6 printgap
|  2> %output
|  3>     printlevel normal
|  4> end
|  5> * xyz 0 1
|  6> C 3.9827194302 -1.8921245643 -2.137981108
|  7> C 4.59296444 -1.4812722606 -0.8134854319
|  8> O 3.5959319481 -1.1976514422 0.183833416
|  9> P 2.6127274546 0.0448749972 0.0790756782
| 10> S 3.4214278387 1.6801179769 -0.6285807581
| 11> O 2.1390025659 0.2502102075 1.5671177254
| 12> C 1.2529561496 -0.587663866 2.3467850103
| 13> C 1.635128962 -2.0514981449 2.3116916685
| 14> S 0.9291462532 -0.6972519346 -1.0109915359
| 15> C 0.2693419352 0.9173257329 -1.475003231
| 16> S -0.5009838208 1.7782607633 -0.0738665606
| 17> P -2.2631322006 0.6059042841 -0.049894179
| 18> S -3.0121513127 0.1744705428 -1.8128579487
| 19> O -3.0582125341 1.5596599578 0.9317012231
| 20> C -4.2330315645 1.1428255406 1.6622696723
| 21> C -5.4623379613 1.093854256 0.7769220791
| 22> O -1.9493758201 -0.6686909579 0.8540296892
| 23> C -1.9977365743 -2.0321066036 0.3879480432
| 24> C -3.2870173328 -2.6876162238 0.8406691594
| 25> H 3.2703913893 -2.700385421 -1.994300669
| 26> H 3.4683355552 -1.0456297421 -2.5901906312
| 27> H 4.7707945641 -2.2204415055 -2.8080065679
| 28> H 5.2194051516 -0.5926048111 -0.9385727969
| 29> H 5.1779953957 -2.289107177 -0.3718287574
| 30> H 1.3407226259 -0.1712296226 3.3516669872
| 31> H 0.2339876226 -0.4338468559 1.9808225695
| 32> H 2.6643522019 -2.1778909767 2.6370782192
| 33> H 0.9782374039 -2.6045661204 2.9764986184
| 34> H 1.5380457355 -2.4438335596 1.3008565774
| 35> H -0.4747294308 0.7530143246 -2.2557461163
| 36> H 1.0845493456 1.5510236459 -1.8262713314
| 37> H -4.0353524616 0.1693080683 2.1178047858
| 38> H -4.3341903867 1.9007040982 2.4410575019
| 39> H -5.6267941611 2.0609475191 0.3087562426
| 40> H -5.3372156979 0.3504774222 -0.0083821407
| 41> H -6.328085837 0.8341078795 1.377961138
| 42> H -1.9187218498 -2.0416750816 -0.7030908399
| 43> H -1.1229671403 -2.5179377788 0.8215538116
| 44> H -4.1386105238 -2.1949330502 0.3756552303
| 45> H -3.2784682463 -3.7303947837 0.5409472129
| 46> H -3.3846481355 -2.6260914417 1.9210892275
| 47> *
| 48>
| 49>                          ****END OF INPUT****

CARTESIAN COORDINATES (ANGSTROEM)
---------------------------------
  C      3.982719   -1.892125   -2.137981
  C      4.592964   -1.481272   -0.813485
  O      3.595932   -1.197651    0.183833
  P      2.612727    0.044875    0.079076
  S      3.421428    1.680118   -0.628581
  O      2.139003    0.250210    1.567118
  C      1.252956   -0.587664    2.346785
  C      1.635129   -2.051498    2.311692
  S      0.929146   -0.697252   -1.010992
  C      0.269342    0.917326   -1.475003
  S     -0.500984    1.778261   -0.073867
  P     -2.263132    0.605904   -0.049894
  S     -3.012151    0.174471   -1.812858
  O     -3.058213    1.559660    0.931701
  C     -4.233032    1.142826    1.662270
  C     -5.462338    1.093854    0.776922
  O     -1.949376   -0.668691    0.854030
  C     -1.997737   -2.032107    0.387948
  C     -3.287017   -2.687616    0.840669
  H      3.270391   -2.700385   -1.994301
  H      3.468336   -1.045630   -2.590191
  H      4.770795   -2.220442   -2.808007
  H      5.219405   -0.592605   -0.938573
  H      5.177995   -2.289107   -0.371829
  H      1.340723   -0.171230    3.351667
  H      0.233988   -0.433847    1.980823
  H      2.664352   -2.177891    2.637078
  H      0.978237   -2.604566    2.976499
  H      1.538046   -2.443834    1.300857
  H     -0.474729    0.753014   -2.255746
  H      1.084549    1.551024   -1.826271
  H     -4.035352    0.169308    2.117805
  H     -4.334190    1.900704    2.441058
  H     -5.626794    2.060948    0.308756
  H     -5.337216    0.350477   -0.008382
  H     -6.328086    0.834108    1.377961
  H     -1.918722   -2.041675   -0.703091
  H     -1.122967   -2.517938    0.821554
  H     -4.138611   -2.194933    0.375655
  H     -3.278468   -3.730395    0.540947
  H     -3.384648   -2.626091    1.921089

 Total Charge           Charge          ....    0
 Multiplicity           Mult            ....    1
 Number of Electrons    NEL             ....  202
 Basis Dimension        Dim             ....  539

ORBITAL ENERGIES
----------------

  NO   OCC          E(Eh)            E(eV)
   0   2.0000     -88.575821     -2410.2706
   1   2.0000     -88.573698     -2410.2129
   2   2.0000     -88.525243     -2408.8943
   3   2.0000     -88.517914     -2408.6949
   4   2.0000     -76.918595     -2093.0614
   5   2.0000     -76.914830     -2092.9589
   6   2.0000     -18.999161      -516.9935
   7   2.0000     -18.997743      -516.9549
   8   2.0000     -18.994622      -516.8700
   9   2.0000     -18.989155      -516.7212
  10   2.0000     -10.108120      -275.0559
  11   2.0000     -10.103818      -274.9389
  12   2.0000     -10.101003      -274.8623
  13   2.0000     -10.100401      -274.8459
  14   2.0000     -10.100085      -274.8373
  15   2.0000     -10.038673      -273.1662
  16   2.0000     -10.036029      -273.0942
  17   2.0000     -10.032845      -273.0076
  18   2.0000     -10.029528      -272.9173
  19   2.0000      -7.870341      -214.1629
  20   2.0000      -7.867620      -214.0888
  21   2.0000      -7.820078      -212.7951
  22   2.0000      -7.812733      -212.5953
  23   2.0000      -6.596904      -179.5109
  24   2.0000      -6.593101      -179.4074
  25   2.0000      -5.817072      -158.2906
  26   2.0000      -5.814541      -158.2217
  27   2.0000      -5.814181      -158.2119
  28   2.0000      -5.811594      -158.1415
  29   2.0000      -5.807605      -158.0330
  30   2.0000      -5.804648      -157.9525
  31   2.0000      -5.767678      -156.9465
  32   2.0000      -5.760562      -156.7529
  33   2.0000      -5.760423      -156.7491
  34   2.0000      -5.759916      -156.7353
  35   2.0000      -5.752984      -156.5467
  36   2.0000      -5.752709      -156.5392
  37   2.0000      -4.742750      -129.0568
  38   2.0000      -4.741529      -129.0236
  39   2.0000      -4.740612      -128.9986
  40   2.0000      -4.738822      -128.9499
  41   2.0000      -4.738114      -128.9306
  42   2.0000      -4.736580      -128.8889
  43   2.0000      -1.055919       -28.7330
  44   2.0000      -1.050411       -28.5831
  45   2.0000      -1.016279       -27.6544
  46   2.0000      -1.011015       -27.5111
  47   2.0000      -0.801965       -21.8226
  48   2.0000      -0.763595       -20.7785
  49   2.0000      -0.753303       -20.4984
  50   2.0000      -0.739526       -20.1235
  51   2.0000      -0.736215       -20.0334
  52   2.0000      -0.713655       -19.4195
  53   2.0000      -0.688870       -18.7451
  54   2.0000      -0.668898       -18.2016
  55   2.0000      -0.633627       -17.2419
  56   2.0000      -0.628070       -17.0906
  57   2.0000      -0.616796       -16.7839
  58   2.0000      -0.610768       -16.6198
  59   2.0000      -0.590212       -16.0605
  60   2.0000      -0.532628       -14.4935
  61   2.0000      -0.516833       -14.0637
  62   2.0000      -0.502321       -13.6689
  63   2.0000      -0.491540       -13.3755
  64   2.0000      -0.480944       -13.0872
  65   2.0000      -0.466212       -12.6863
  66   2.0000      -0.462337       -12.5808
  67   2.0000      -0.460926       -12.5424
  68   2.0000      -0.451330       -12.2813
  69   2.0000      -0.436588       -11.8802
  70   2.0000      -0.430342       -11.7102
  71   2.0000      -0.418240       -11.3809
  72   2.0000      -0.415189       -11.2979
  73   2.0000      -0.402420       -10.9504
  74   2.0000      -0.396160       -10.7801
  75   2.0000      -0.391162       -10.6441
  76   2.0000      -0.385164       -10.4808
  77   2.0000      -0.381371       -10.3776
  78   2.0000      -0.373269       -10.1572
  79   2.0000      -0.371700       -10.1145
  80   2.0000      -0.369871       -10.0647
  81   2.0000      -0.362831        -9.8731
  82   2.0000      -0.362190        -9.8557
  83   2.0000      -0.357515        -9.7285
  84   2.0000      -0.352929        -9.6037
  85   2.0000      -0.339220        -9.2306
  86   2.0000      -0.325007        -8.8439
  87   2.0000      -0.315148        -8.5756
  88   2.0000      -0.313382        -8.5276
  89   2.0000      -0.309896        -8.4327
  90   2.0000      -0.307932        -8.3793
  91   2.0000      -0.298756        -8.1296
  92   2.0000      -0.285305        -7.7635
  93   2.0000      -0.282635        -7.6909
  94   2.0000      -0.276635        -7.5276
  95   2.0000      -0.247740        -6.7414
  96   2.0000      -0.231363        -6.2957
  97   2.0000      -0.227854        -6.2002
  98   2.0000      -0.217427        -5.9165
  99   2.0000      -0.215129        -5.8539
 100   2.0000      -0.212836        -5.7916
 101   0.0000      -0.048370        -1.3162
 102   0.0000      -0.026362        -0.7173
 103   0.0000      -0.003528        -0.0960
 104   0.0000      -0.001111        -0.0302
 105   0.0000       0.013400         0.3646

MULLIKEN ATOMIC CHARGES
-----------------------
   0 C :   -0.443556
   1 C :   -0.169013
   2 O :   -0.268700
   3 P :    0.652985
   4 S :   -0.456180
   5 O :   -0.253459
   6 C :   -0.154644
   7 C :   -0.456106
   8 S :   -0.175157
   9 C :   -0.240476
  10 S :   -0.100516
  11 P :    0.666886
  12 S :   -0.472384
  13 O :   -0.304598
  14 C :   -0.163641
  15 C :   -0.422410
  16 O :   -0.290345
  17 C :   -0.098783
  18 C :   -0.491311
  19 H :    0.151512
  20 H :    0.179083
  21 H :    0.148017
  22 H :    0.176364
  23 H :    0.148165
  24 H :    0.152606
  25 H :    0.187292
  26 H :    0.162561
  27 H :    0.151428
  28 H :    0.158492
  29 H :    0.214119
  30 H :    0.222994
  31 H :    0.157993
  32 H :    0.153022
  33 H :    0.160179
  34 H :    0.164920
  35 H :    0.146389
  36 H :    0.177634
  37 H :    0.155724
  38 H :    0.167885
  39 H :    0.150394
  40 H :    0.154638
Sum of atomic charges:   -0.0000000

LOEWDIN ATOMIC CHARGES
----------------------
   0 C :   -0.408199
   1 C :    0.021774
   2 O :   -0.670789
   3 P :    0.386861
   4 S :   -0.106210
   5 O :   -0.650739
   6 C :    0.022555
   7 C :   -0.405895
   8 S :    0.136738
   9 C :   -0.425587
  10 S :    0.188180
  11 P :    0.384399
  12 S :   -0.132344
  13 O :   -0.661814
  14 C :    0.031073
  15 C :   -0.401253
  16 O :   -0.694146
  17 C :    0.002063
  18 C :   -0.397281
  19 H :    0.158738
  20 H :    0.166397
  21 H :    0.159500
  22 H :    0.181500
  23 H :    0.179188
  24 H :    0.183193
  25 H :    0.191664
  26 H :    0.165419
  27 H :    0.159438
  28 H :    0.161576
  29 H :    0.192613
  30 H :    0.194371
  31 H :    0.174609
  32 H :    0.182275
  33 H :    0.164121
  34 H :    0.165066
  35 H :    0.158375
  36 H :    0.183929
  37 H :    0.177563
  38 H :    0.162304
  39 H :    0.161864
  40 H :    0.156914

  Mayer bond orders larger than 0.100000
B(  0-C ,  1-C ) :   0.9138 B(  0-C , 19-H ) :   0.9691 B(  0-C , 20-H ) :   0.9635
B(  0-C , 21-H ) :   0.9569 B(  1-C ,  2-O ) :   0.8089 B(  1-C , 22-H ) :   0.9672
B(  1-C , 23-H ) :   0.9616 B(  2-O ,  3-P ) :   1.0435 B(  3-P ,  4-S ) :   1.8145
B(  3-P ,  5-O ) :   1.1835 B(  3-P ,  8-S ) :   0.9884 B(  5-O ,  6-C ) :   0.8133
B(  6-C ,  7-C ) :   0.8974 B(  6-C , 24-H ) :   0.9607 B(  6-C , 25-H ) :   0.9551
B(  7-C , 26-H ) :   0.9633 B(  7-C , 27-H ) :   0.9607 B(  7-C , 28-H ) :   0.9673
B(  8-S ,  9-C ) :   0.9030 B(  9-C , 10-S ) :   0.9127 B(  9-C , 29-H ) :   0.9021
B(  9-C , 30-H ) :   0.9001 B( 10-S , 11-P ) :   1.1026 B( 11-P , 12-S ) :   1.7685
B( 11-P , 13-O ) :   1.1569 B( 11-P , 16-O ) :   1.0365 B( 13-O , 14-C ) :   0.7895
B( 14-C , 15-C ) :   0.9451 B( 14-C , 31-H ) :   0.9681 B( 14-C , 32-H ) :   0.9596
B( 15-C , 33-H ) :   0.9685 B( 15-C , 34-H ) :   0.9530 B( 15-C , 35-H ) :   0.9661
B( 16-O , 17-C ) :   0.7424 B( 17-C , 18-C ) :   0.9309 B( 17-C , 36-H ) :   0.9485
B( 17-C , 37-H ) :   0.9577 B( 18-C , 38-H ) :   0.9700 B( 18-C , 39-H ) :   0.9619
B( 18-C , 40-H ) :   0.9787

Dispersion correction           -0.021947037
FINAL SINGLE POINT ENERGY     -2932.460579344036

DIPOLE MOMENT
-------------

Method             : SCF
Type of density    : Electron Density
Multiplicity       :   1
Irrep              :   0
Energy             : -2932.4853424125981292 Eh
Relativity type    :
Basis              : AO
                                X                 Y                 Z
Electronic contribution:      9.222042554      19.512825910      -7.104123366
Nuclear contribution   :     -9.926115559     -21.467481429       8.248594761
                        -----------------------------------------
Total Dipole Moment    :     -0.704073004      -1.954655519       1.144471395
                        -----------------------------------------
Magnitude (a.u.)       :      2.371963694
Magnitude (Debye)      :      6.029052573

Rotational constants in cm-1:             0.014137             0.004604             0.004392
Rotational constants in MHz :           423.803983           138.030672           131.676484

                             ****ORCA TERMINATED NORMALLY****
TOTAL RUN TIME: 0 days 0 hours 1 minutes 24 seconds 149 msec
