                         Program Version 6.0.0  -   RELEASE  -
|  1> ! r2scan-3c def2/J RI DEFGRID2 scfconv6 printgap
|  2> %output
|  3>     printlevel normal
|  4> end
|  5> %cpcm
|  6>     smd true
|  7>     smdsolvent "water"
|  8> end
|  9> * xyz 0 1
| 10> C 3.9827194302 -1.8921245643 -2.137981108
| 11> C 4.59296444 -1.4812722606 -0.8134854319
| 12> O 3.5959319481 -1.1976514422 0.183833416
| 13> P 2.6127274546 0.0448749972 0.0790756782
| 14> S 3.4214278387 1.6801179769 -0.6285807581
| 15> O 2.1390025659 0.2502102075 1.5671177254
| 16> C 1.2529561496 -0.587663866 2.3467850103
| 17> C 1.635128962 -2.0514981449 2.3116916685
| 18> S 0.9291462532 -0.6972519346 -1.0109915359
| 19> C 0.2693419352 0.9173257329 -1.475003231
| 20> S -0.5009838208 1.7782607633 -0.0738665606
| 21> P -2.2631322006 0.6059042841 -0.049894179
| 22> S -3.0121513127 0.1744705428 -1.8128579487
| 23> O -3.0582125341 1.5596599578 0.9317012231
| 24> C -4.2330315645 1.1428255406 1.6622696723
| 25> C -5.4623379613 1.093854256 0.7769220791
| 26> O -1.9493758201 -0.6686909579 0.8540296892
| 27> C -1.9977365743 -2.0321066036 0.3879480432
| 28> C -3.2870173328 -2.6876162238 0.8406691594
| 29> H 3.2703913893 -2.700385421 -1.994300669
| 30> H 3.4683355552 -1.0456297421 -2.5901906312
| 31> H 4.7707945641 -2.2204415055 -2.8080065679
| 32> H 5.2194051516 -0.5926048111 -0.9385727969
| 33> H 5.1779953957 -2.289107177 -0.3718287574
| 34> H 1.3407226259 -0.1712296226 3.3516669872
| 35> H 0.2339876226 -0.4338468559 1.9808225695
| 36> H 2.6643522019 -2.1778909767 2.6370782192
| 37> H 0.9782374039 -2.6045661204 2.9764986184
| 38> H 1.5380457355 -2.4438335596 1.3008565774
| 39> H -0.4747294308 0.7530143246 -2.2557461163
| 40> H 1.0845493456 1.5510236459 -1.8262713314
| 41> H -4.0353524616 0.1693080683 2.1178047858
| 42> H -4.3341903867 1.9007040982 2.4410575019
| 43> H -5.6267941611 2.0609475191 0.3087562426
| 44> H -5.3372156979 0.3504774222 -0.0083821407
| 45> H -6.328085837 0.8341078795 1.377961138
| 46> H -1.9187218498 -2.0416750816 -0.7030908399
| 47> H -1.1229671403 -2.5179377788 0.8215538116
| 48> H -4.1386105238 -2.1949330502 0.3756552303
| 49> H -3.2784682463 -3.7303947837 0.5409472129
| 50> H -3.3846481355 -2.6260914417 1.9210892275
| 51> *
| 52>
| 53>                          ****END OF INPUT****

CARTESIAN COORDINATES (ANGSTROEM)
---------------------------------
  C      3.982719   -1.892125   -2.137981
  C      4.592964   -1.481272   -0.813485
  O      3.595932   -1.197651    0.183833
  P      2.612727    0.044875    0.079076
  S      3.421428    1.680118   -0.628581
  O      2.139003    0.250210    1.567118
  C      1.252956   -0.587664    2.346785
  C      1.635129   -2.051498    2.311692
  S      0.929146   -0.697252   -1.010992
  C      0.269342    0.917326   -1.475003
  S     -0.500984    1.778261   -0.073867
  P     -2.263132    0.605904   -0.049894
  S     -3.012151    0.174471   -1.812858
  O     -3.058213    1.559660    0.931701
  C     -4.233032    1.142826    1.662270
  C     -5.462338    1.093854    0.776922
  O     -1.949376   -0.668691    0.854030
  C     -1.997737   -2.032107    0.387948
  C     -3.287017   -2.687616    0.840669
  H      3.270391   -2.700385   -1.994301
  H      3.468336   -1.045630   -2.590191
  H      4.770795   -2.220442   -2.808007
  H      5.219405   -0.592605   -0.938573
  H      5.177995   -2.289107   -0.371829
  H      1.340723   -0.171230    3.351667
  H      0.233988   -0.433847    1.980823
  H      2.664352   -2.177891    2.637078
  H      0.978237   -2.604566    2.976499
  H      1.538046   -2.443834    1.300857
  H     -0.474729    0.753014   -2.255746
  H      1.084549    1.551024   -1.826271
  H     -4.035352    0.169308    2.117805
  H     -4.334190    1.900704    2.441058
  H     -5.626794    2.060948    0.308756
  H     -5.337216    0.350477   -0.008382
  H     -6.328086    0.834108    1.377961
  H     -1.918722   -2.041675   -0.703091
  H     -1.122967   -2.517938    0.821554
  H     -4.138611   -2.194933    0.375655
  H     -3.278468   -3.730395    0.540947
  H     -3.384648   -2.626091    1.921089

 Total Charge           Charge          ....    0
 Multiplicity           Mult            ....    1
 Number of Electrons    NEL             ....  202
 Basis Dimension        Dim             ....  539

ORBITAL ENERGIES
----------------

  NO   OCC          E(Eh)            E(eV)
   0   2.0000     -88.579476     -2410.3701
   1   2.0000     -88.578479     -2410.3430
   2   2.0000     -88.530015     -2409.0242
   3   2.0000     -88.529019     -2408.9971
   4   2.0000     -76.921434     -2093.1386
   5   2.0000     -76.921013     -2093.1272
   6   2.0000     -18.996820      -516.9298
   7   2.0000     -18.996344      -516.9168
   8   2.0000     -18.994803      -516.8749
   9   2.0000     -18.994340      -516.8623
  10   2.0000     -10.102705      -274.9086
  11   2.0000     -10.092007      -274.6175
  12   2.0000     -10.091221      -274.5961
  13   2.0000     -10.090401      -274.5738
  14   2.0000     -10.088410      -274.5196
  15   2.0000     -10.020548      -272.6730
  16   2.0000     -10.018377      -272.6139
  17   2.0000     -10.017995      -272.6035
  18   2.0000     -10.017946      -272.6022
  19   2.0000      -7.873595      -214.2514
  20   2.0000      -7.872904      -214.2326
  21   2.0000      -7.825146      -212.9330
  22   2.0000      -7.824217      -212.9078
  23   2.0000      -6.599775      -179.5890
  24   2.0000      -6.599287      -179.5757
  25   2.0000      -5.820405      -158.3813
  26   2.0000      -5.819699      -158.3620
  27   2.0000      -5.817511      -158.3025
  28   2.0000      -5.816781      -158.2827
  29   2.0000      -5.810784      -158.1195
  30   2.0000      -5.810074      -158.1001
  31   2.0000      -5.772688      -157.0828
  32   2.0000      -5.771775      -157.0580
  33   2.0000      -5.765553      -156.8887
  34   2.0000      -5.765065      -156.8754
  35   2.0000      -5.764485      -156.8596
  36   2.0000      -5.764236      -156.8528
  37   2.0000      -4.745461      -129.1306
  38   2.0000      -4.745017      -129.1185
  39   2.0000      -4.744720      -129.1104
  40   2.0000      -4.743947      -129.0894
  41   2.0000      -4.743394      -129.0743
  42   2.0000      -4.743123      -129.0669
  43   2.0000      -1.053433       -28.6654
  44   2.0000      -1.052763       -28.6471
  45   2.0000      -1.013699       -27.5842
  46   2.0000      -1.012102       -27.5407
  47   2.0000      -0.804839       -21.9008
  48   2.0000      -0.757863       -20.6225
  49   2.0000      -0.745740       -20.2926
  50   2.0000      -0.726558       -19.7707
  51   2.0000      -0.724141       -19.7049
  52   2.0000      -0.710705       -19.3393
  53   2.0000      -0.690448       -18.7881
  54   2.0000      -0.674570       -18.3560
  55   2.0000      -0.631701       -17.1895
  56   2.0000      -0.621698       -16.9173
  57   2.0000      -0.604269       -16.4430
  58   2.0000      -0.603310       -16.4169
  59   2.0000      -0.588327       -16.0092
  60   2.0000      -0.524554       -14.2738
  61   2.0000      -0.512387       -13.9428
  62   2.0000      -0.492410       -13.3992
  63   2.0000      -0.487934       -13.2774
  64   2.0000      -0.478565       -13.0224
  65   2.0000      -0.459889       -12.5142
  66   2.0000      -0.457363       -12.4455
  67   2.0000      -0.450212       -12.2509
  68   2.0000      -0.445601       -12.1254
  69   2.0000      -0.431746       -11.7484
  70   2.0000      -0.425143       -11.5687
  71   2.0000      -0.411440       -11.1959
  72   2.0000      -0.402466       -10.9517
  73   2.0000      -0.398392       -10.8408
  74   2.0000      -0.392247       -10.6736
  75   2.0000      -0.390104       -10.6153
  76   2.0000      -0.382933       -10.4201
  77   2.0000      -0.376228       -10.2377
  78   2.0000      -0.360688        -9.8148
  79   2.0000      -0.359844        -9.7918
  80   2.0000      -0.357896        -9.7389
  81   2.0000      -0.353351        -9.6152
  82   2.0000      -0.352630        -9.5955
  83   2.0000      -0.346842        -9.4380
  84   2.0000      -0.345547        -9.4028
  85   2.0000      -0.333982        -9.0881
  86   2.0000      -0.318930        -8.6785
  87   2.0000      -0.308162        -8.3855
  88   2.0000      -0.306886        -8.3508
  89   2.0000      -0.304026        -8.2730
  90   2.0000      -0.301646        -8.2082
  91   2.0000      -0.292464        -7.9583
  92   2.0000      -0.284673        -7.7464
  93   2.0000      -0.281418        -7.6578
  94   2.0000      -0.277617        -7.5544
  95   2.0000      -0.250949        -6.8287
  96   2.0000      -0.237968        -6.4754
  97   2.0000      -0.234456        -6.3799
  98   2.0000      -0.226719        -6.1693
  99   2.0000      -0.225660        -6.1405
 100   2.0000      -0.219257        -5.9663
 101   0.0000      -0.053627        -1.4593
 102   0.0000      -0.032431        -0.8825
 103   0.0000      -0.007328        -0.1994
 104   0.0000      -0.004013        -0.1092
 105   0.0000       0.013418         0.3651

MULLIKEN ATOMIC CHARGES
-----------------------
   0 C :   -0.482019
   1 C :   -0.161245
   2 O :   -0.287355
   3 P :    0.665825
   4 S :   -0.516442
   5 O :   -0.291668
   6 C :   -0.147223
   7 C :   -0.480020
   8 S :   -0.157673
   9 C :   -0.248367
  10 S :   -0.141867
  11 P :    0.695325
  12 S :   -0.515836
  13 O :   -0.338668
  14 C :   -0.143942
  15 C :   -0.476850
  16 O :   -0.298030
  17 C :   -0.091702
  18 C :   -0.519513
  19 H :    0.169186
  20 H :    0.173204
  21 H :    0.172287
  22 H :    0.179023
  23 H :    0.176157
  24 H :    0.176922
  25 H :    0.185329
  26 H :    0.170256
  27 H :    0.177682
  28 H :    0.165640
  29 H :    0.232930
  30 H :    0.235993
  31 H :    0.178117
  32 H :    0.175781
  33 H :    0.168998
  34 H :    0.165255
  35 H :    0.171237
  36 H :    0.171863
  37 H :    0.181795
  38 H :    0.169201
  39 H :    0.170224
  40 H :    0.170188
Sum of atomic charges:   -0.0000000

LOEWDIN ATOMIC CHARGES
----------------------
   0 C :   -0.410773
   1 C :    0.027426
   2 O :   -0.676778
   3 P :    0.389001
   4 S :   -0.152227
   5 O :   -0.674595
   6 C :    0.028539
   7 C :   -0.403727
   8 S :    0.152701
   9 C :   -0.422253
  10 S :    0.159489
  11 P :    0.387625
  12 S :   -0.161167
  13 O :   -0.678568
  14 C :    0.038852
  15 C :   -0.405665
  16 O :   -0.691056
  17 C :    0.009403
  18 C :   -0.398586
  19 H :    0.163648
  20 H :    0.161678
  21 H :    0.168320
  22 H :    0.181861
  23 H :    0.191286
  24 H :    0.193013
  25 H :    0.192426
  26 H :    0.166009
  27 H :    0.171034
  28 H :    0.163417
  29 H :    0.197654
  30 H :    0.197662
  31 H :    0.184273
  32 H :    0.191821
  33 H :    0.163297
  34 H :    0.162327
  35 H :    0.168493
  36 H :    0.182097
  37 H :    0.187872
  38 H :    0.162177
  39 H :    0.168493
  40 H :    0.163499

  Mayer bond orders larger than 0.100000
B(  0-C ,  1-C ) :   0.9033 B(  0-C , 19-H ) :   0.9659 B(  0-C , 20-H ) :   0.9650
B(  0-C , 21-H ) :   0.9518 B(  1-C ,  2-O ) :   0.7970 B(  1-C , 22-H ) :   0.9657
B(  1-C , 23-H ) :   0.9504 B(  2-O ,  3-P ) :   1.0550 B(  3-P ,  4-S ) :   1.7885
B(  3-P ,  5-O ) :   1.1860 B(  3-P ,  8-S ) :   1.0081 B(  5-O ,  6-C ) :   0.8052
B(  6-C ,  7-C ) :   0.8970 B(  6-C , 24-H ) :   0.9498 B(  6-C , 25-H ) :   0.9480
B(  7-C , 26-H ) :   0.9652 B(  7-C , 27-H ) :   0.9513 B(  7-C , 28-H ) :   0.9611
B(  8-S ,  9-C ) :   0.8960 B(  9-C , 10-S ) :   0.8987 B(  9-C , 29-H ) :   0.8995
B(  9-C , 30-H ) :   0.8966 B( 10-S , 11-P ) :   1.1011 B( 11-P , 12-S ) :   1.7415
B( 11-P , 13-O ) :   1.1675 B( 11-P , 16-O ) :   1.0568 B( 13-O , 14-C ) :   0.7830
B( 14-C , 15-C ) :   0.9263 B( 14-C , 31-H ) :   0.9584 B( 14-C , 32-H ) :   0.9521
B( 15-C , 33-H ) :   0.9707 B( 15-C , 34-H ) :   0.9572 B( 15-C , 35-H ) :   0.9592
B( 16-O , 17-C ) :   0.7277 B( 17-C , 18-C ) :   0.9366 B( 17-C , 36-H ) :   0.9469
B( 17-C , 37-H ) :   0.9481 B( 18-C , 38-H ) :   0.9682 B( 18-C , 39-H ) :   0.9583
B( 18-C , 40-H ) :   0.9726

Dispersion correction           -0.021947037
FINAL SINGLE POINT ENERGY     -2932.470986483242

DIPOLE MOMENT
-------------

Method             : SCF
Type of density    : Electron Density
Multiplicity       :   1
Irrep              :   0
Energy             : -2932.4957495518037831 Eh
Relativity type    :
Basis              : AO
                                X                 Y                 Z
Electronic contribution:      8.951768090      18.491031534      -6.724714664
Nuclear contribution   :     -9.926115559     -21.467481429       8.248594761
                        -----------------------------------------
Total Dipole Moment    :     -0.974347469      -2.976449895       1.523880096
                        -----------------------------------------
Magnitude (a.u.)       :      3.482932316
Magnitude (Debye)      :      8.852910394

Rotational constants in cm-1:             0.014137             0.004604             0.004392
Rotational constants in MHz :           423.803983           138.030672           131.676484

                             ****ORCA TERMINATED NORMALLY****
TOTAL RUN TIME: 0 days 0 hours 1 minutes 51 seconds 762 msec
