                         Program Version 6.0.0  -   RELEASE  -
|  1> ! r2scan-3c def2/J RI DEFGRID2 scfconv6 printgap
|  2> %output
|  3>     printlevel normal
|  4> end
|  5> * xyz 0 1
|  6> C -1.2683820958 0.7009557822 -0.0025152548
|  7> C 0.0040302769 -0.0992238131 -0.0011027176
|  8> O -3.89174e-05 -1.3164095524 0.0001727972
|  9> C 1.2704593501 0.7022644587 0.0026988098
| 10> H -1.8322445517 0.4646747209 0.8978548013
| 11> H -1.0746697246 1.7664880035 -0.0486486389
| 12> H -1.8804278901 0.3941825985 -0.8479000493
| 13> H 1.2981046556 1.328090378 -0.8861817049
| 14> H 2.138212956 0.0486322488 0.0210027712
| 15> H 1.2788642721 1.3552040519 0.872082795
| 16> *
| 17>
| 18>                          ****END OF INPUT****

CARTESIAN COORDINATES (ANGSTROEM)
---------------------------------
  C     -1.268382    0.700956   -0.002515
  C      0.004030   -0.099224   -0.001103
  O     -0.000039   -1.316410    0.000173
  C      1.270459    0.702264    0.002699
  H     -1.832245    0.464675    0.897855
  H     -1.074670    1.766488   -0.048649
  H     -1.880428    0.394183   -0.847900
  H      1.298105    1.328090   -0.886182
  H      2.138213    0.048632    0.021003
  H      1.278864    1.355204    0.872083

 Total Charge           Charge          ....    0
 Multiplicity           Mult            ....    1
 Number of Electrons    NEL             ....   32
 Basis Dimension        Dim             ....  111

ORBITAL ENERGIES
----------------

  NO   OCC          E(Eh)            E(eV)
   0   2.0000     -18.936260      -515.2818
   1   2.0000     -10.122487      -275.4469
   2   2.0000     -10.036151      -273.0976
   3   2.0000     -10.035937      -273.0917
   4   2.0000      -1.002125       -27.2692
   5   2.0000      -0.744141       -20.2491
   6   2.0000      -0.682650       -18.5759
   7   2.0000      -0.503290       -13.6952
   8   2.0000      -0.434150       -11.8138
   9   2.0000      -0.427361       -11.6291
  10   2.0000      -0.424980       -11.5643
  11   2.0000      -0.380810       -10.3624
  12   2.0000      -0.365198        -9.9375
  13   2.0000      -0.349512        -9.5107
  14   2.0000      -0.318909        -8.6780
  15   2.0000      -0.215472        -5.8633
  16   0.0000      -0.046173        -1.2564
  17   0.0000       0.080424         2.1884
  18   0.0000       0.123897         3.3714
  19   0.0000       0.137075         3.7300
  20   0.0000       0.147499         4.0136

MULLIKEN ATOMIC CHARGES
-----------------------
   0 C :   -0.496117
   1 C :    0.333993
   2 O :   -0.347581
   3 C :   -0.493718
   4 H :    0.178739
   5 H :    0.150759
   6 H :    0.178411
   7 H :    0.160624
   8 H :    0.175471
   9 H :    0.159419
Sum of atomic charges:    0.0000000

LOEWDIN ATOMIC CHARGES
----------------------
   0 C :   -0.396329
   1 C :    0.209798
   2 O :   -0.464333
   3 C :   -0.390896
   4 H :    0.182937
   5 H :    0.157470
   6 H :    0.182270
   7 H :    0.172869
   8 H :    0.173923
   9 H :    0.172292

  Mayer bond orders larger than 0.100000
B(  0-C ,  1-C ) :   0.8877 B(  0-C ,  4-H ) :   0.9519 B(  0-C ,  5-H ) :   0.9670
B(  0-C ,  6-H ) :   0.9557 B(  1-C ,  2-O ) :   1.9306 B(  1-C ,  3-C ) :   0.9297
B(  3-C ,  7-H ) :   0.9452 B(  3-C ,  8-H ) :   0.9809 B(  3-C ,  9-H ) :   0.9463

Dispersion correction           -0.001719925
FINAL SINGLE POINT ENERGY      -193.104675575472

DIPOLE MOMENT
-------------

Method             : SCF
Type of density    : Electron Density
Multiplicity       :   1
Irrep              :   0
Energy             :  -193.1077009804990610 Eh
Relativity type    :
Basis              : AO
                                X                 Y                 Z
Electronic contribution:      0.043159668      -3.823338813      -0.005544676
Nuclear contribution   :     -0.067699394       5.006481367       0.007704943
                        -----------------------------------------
Total Dipole Moment    :     -0.024539726       1.183142554       0.002160267
                        -----------------------------------------
Magnitude (a.u.)       :      1.183398990
Magnitude (Debye)      :      3.007961186

Rotational constants in cm-1:             0.337715             0.291262             0.165925
Rotational constants in MHz :         10124.446452          8731.817810          4974.305664

                             ****ORCA TERMINATED NORMALLY****
TOTAL RUN TIME: 0 days 0 hours 0 minutes 9 seconds 663 msec
