                         Program Version 6.0.0  -   RELEASE  -
|  1> ! r2scan-3c def2/J RI DEFGRID2 scfconv6 printgap
|  2> %output
|  3>     printlevel normal
|  4> end
|  5> %cpcm
|  6>     smd true
|  7>     smdsolvent "water"
|  8> end
|  9> * xyz 0 1
| 10> C -1.2683820958 0.7009557822 -0.0025152548
| 11> C 0.0040302769 -0.0992238131 -0.0011027176
| 12> O -3.89174e-05 -1.3164095524 0.0001727972
| 13> C 1.2704593501 0.7022644587 0.0026988098
| 14> H -1.8322445517 0.4646747209 0.8978548013
| 15> H -1.0746697246 1.7664880035 -0.0486486389
| 16> H -1.8804278901 0.3941825985 -0.8479000493
| 17> H 1.2981046556 1.328090378 -0.8861817049
| 18> H 2.138212956 0.0486322488 0.0210027712
| 19> H 1.2788642721 1.3552040519 0.872082795
| 20> *
| 21>
| 22>                          ****END OF INPUT****

CARTESIAN COORDINATES (ANGSTROEM)
---------------------------------
  C     -1.268382    0.700956   -0.002515
  C      0.004030   -0.099224   -0.001103
  O     -0.000039   -1.316410    0.000173
  C      1.270459    0.702264    0.002699
  H     -1.832245    0.464675    0.897855
  H     -1.074670    1.766488   -0.048649
  H     -1.880428    0.394183   -0.847900
  H      1.298105    1.328090   -0.886182
  H      2.138213    0.048632    0.021003
  H      1.278864    1.355204    0.872083

 Total Charge           Charge          ....    0
 Multiplicity           Mult            ....    1
 Number of Electrons    NEL             ....   32
 Basis Dimension        Dim             ....  111

ORBITAL ENERGIES
----------------

  NO   OCC          E(Eh)            E(eV)
   0   2.0000     -18.945346      -515.5291
   1   2.0000     -10.127498      -275.5832
   2   2.0000     -10.022719      -272.7320
   3   2.0000     -10.022337      -272.7217
   4   2.0000      -1.013778       -27.5863
   5   2.0000      -0.734463       -19.9858
   6   2.0000      -0.670624       -18.2486
   7   2.0000      -0.499731       -13.5984
   8   2.0000      -0.425723       -11.5845
   9   2.0000      -0.424962       -11.5638
  10   2.0000      -0.422825       -11.5057
  11   2.0000      -0.364794        -9.9266
  12   2.0000      -0.363797        -9.8994
  13   2.0000      -0.337209        -9.1759
  14   2.0000      -0.323898        -8.8137
  15   2.0000      -0.226066        -6.1516
  16   0.0000      -0.047098        -1.2816
  17   0.0000       0.093157         2.5349
  18   0.0000       0.138488         3.7685
  19   0.0000       0.153581         4.1791
  20   0.0000       0.168021         4.5721

MULLIKEN ATOMIC CHARGES
-----------------------
   0 C :   -0.529666
   1 C :    0.382619
   2 O :   -0.462266
   3 C :   -0.518382
   4 H :    0.197715
   5 H :    0.177798
   6 H :    0.194940
   7 H :    0.192424
   8 H :    0.173665
   9 H :    0.191153
Sum of atomic charges:   -0.0000000

LOEWDIN ATOMIC CHARGES
----------------------
   0 C :   -0.393062
   1 C :    0.230610
   2 O :   -0.546671
   3 C :   -0.387693
   4 H :    0.190443
   5 H :    0.170401
   6 H :    0.188565
   7 H :    0.187702
   8 H :    0.172601
   9 H :    0.187103

  Mayer bond orders larger than 0.100000
B(  0-C ,  1-C ) :   0.9058 B(  0-C ,  4-H ) :   0.9427 B(  0-C ,  5-H ) :   0.9569
B(  0-C ,  6-H ) :   0.9475 B(  1-C ,  2-O ) :   1.8487 B(  1-C ,  3-C ) :   0.9502
B(  3-C ,  7-H ) :   0.9307 B(  3-C ,  8-H ) :   0.9780 B(  3-C ,  9-H ) :   0.9320

Dispersion correction           -0.001719925
FINAL SINGLE POINT ENERGY      -193.112306289109

DIPOLE MOMENT
-------------

Method             : SCF
Type of density    : Electron Density
Multiplicity       :   1
Irrep              :   0
Energy             :  -193.1153316941360174 Eh
Relativity type    :
Basis              : AO
                                X                 Y                 Z
Electronic contribution:      0.032125730      -3.293536281      -0.004304573
Nuclear contribution   :     -0.067699394       5.006481367       0.007704943
                        -----------------------------------------
Total Dipole Moment    :     -0.035573663       1.712945087       0.003400370
                        -----------------------------------------
Magnitude (a.u.)       :      1.713317810
Magnitude (Debye)      :      4.354907783

Rotational constants in cm-1:             0.337715             0.291262             0.165925
Rotational constants in MHz :         10124.446452          8731.817810          4974.305664

                             ****ORCA TERMINATED NORMALLY****
TOTAL RUN TIME: 0 days 0 hours 0 minutes 10 seconds 244 msec
