                         Program Version 6.0.0  -   RELEASE  -
|  1> ! pbe def2-sv(p) def2/J RI DEFGRID1 loosescf d4 GCP(DFT/SV(P)) printgap
|  2> %output
|  3>     printlevel normal
|  4> end
|  5> * xyz 0 1
|  6> C 5.3838612048 -0.1022747426 -0.9800038993
|  7> C 4.4684272458 -0.8792011905 -0.0533656503
|  8> O 3.4524461658 -0.0249690221 0.5069408358
|  9> P 2.0118298257 0.1325292222 -0.149933501
| 10> S 1.9652969266 0.6531968199 -2.0435202879
| 11> O 1.3368376661 1.1198284228 0.8885574181
| 12> C 1.3971080155 2.5518045935 0.7174913808
| 13> C 2.8169591654 3.0715211061 0.7693116028
| 14> S 1.1393129278 -1.7293668886 0.3179180593
| 15> C -0.0113415057 -1.927360096 -1.083858156
| 16> S -1.7298910415 -2.1480232802 -0.5633875006
| 17> P -2.0999499164 -0.2175518653 0.1701417243
| 18> S -1.4590201334 1.3199016131 -0.8775470853
| 19> O -1.4846714511 -0.3664972694 1.6215705402
| 20> C -1.4285659615 0.7334855048 2.5531701513
| 21> C -2.6032516469 0.6878064769 3.5083902215
| 22> O -3.6611529874 -0.1830641388 0.4630108094
| 23> C -4.6231448367 0.2240682919 -0.5264018883
| 24> C -4.7026942345 -0.7539021143 -1.680166833
| 25> H 4.8227739176 0.2805444142 -1.829696967
| 26> H 5.8326053539 0.7328387429 -0.4494322471
| 27> H 6.1671278544 -0.7603401908 -1.341843021
| 28> H 5.0112630388 -1.2621607444 0.8127717194
| 29> H 3.9908275807 -1.7105385076 -0.5799900021
| 30> H 0.9191344738 2.8051182214 -0.2349725121
| 31> H 0.7938235642 2.9377964222 1.5405242261
| 32> H 3.3770778659 2.6990133222 -0.0875572408
| 33> H 2.8021650609 4.1564623533 0.7368340385
| 34> H 3.3045597827 2.7387281349 1.6819435999
| 35> H 0.2558219129 -2.8380285914 -1.6138122062
| 36> H 0.0795101791 -1.053395174 -1.7358026538
| 37> H -0.4778635855 0.6056998556 3.075428904
| 38> H -1.4090443281 1.671406873 1.9873031439
| 39> H -2.6222073144 -0.2682636792 4.0236940478
| 40> H -2.5023447483 1.4878315004 4.2351527945
| 41> H -3.5362645166 0.811453458 2.9642283404
| 42> H -5.5620557884 0.2725259334 0.0266417126
| 43> H -4.3479095825 1.2212168768 -0.8848655007
| 44> H -3.7761586677 -0.7306138356 -2.2526288605
| 45> H -4.8589403211 -1.7638117971 -1.3095808729
| 46> H -5.5249530532 -0.4752100393 -2.3313742576
| 47> *
| 48>
| 49>                          ****END OF INPUT****

CARTESIAN COORDINATES (ANGSTROEM)
---------------------------------
  C      5.383861   -0.102275   -0.980004
  C      4.468427   -0.879201   -0.053366
  O      3.452446   -0.024969    0.506941
  P      2.011830    0.132529   -0.149934
  S      1.965297    0.653197   -2.043520
  O      1.336838    1.119828    0.888557
  C      1.397108    2.551805    0.717491
  C      2.816959    3.071521    0.769312
  S      1.139313   -1.729367    0.317918
  C     -0.011342   -1.927360   -1.083858
  S     -1.729891   -2.148023   -0.563388
  P     -2.099950   -0.217552    0.170142
  S     -1.459020    1.319902   -0.877547
  O     -1.484671   -0.366497    1.621571
  C     -1.428566    0.733486    2.553170
  C     -2.603252    0.687806    3.508390
  O     -3.661153   -0.183064    0.463011
  C     -4.623145    0.224068   -0.526402
  C     -4.702694   -0.753902   -1.680167
  H      4.822774    0.280544   -1.829697
  H      5.832605    0.732839   -0.449432
  H      6.167128   -0.760340   -1.341843
  H      5.011263   -1.262161    0.812772
  H      3.990828   -1.710539   -0.579990
  H      0.919134    2.805118   -0.234973
  H      0.793824    2.937796    1.540524
  H      3.377078    2.699013   -0.087557
  H      2.802165    4.156462    0.736834
  H      3.304560    2.738728    1.681944
  H      0.255822   -2.838029   -1.613812
  H      0.079510   -1.053395   -1.735803
  H     -0.477864    0.605700    3.075429
  H     -1.409044    1.671407    1.987303
  H     -2.622207   -0.268264    4.023694
  H     -2.502345    1.487832    4.235153
  H     -3.536265    0.811453    2.964228
  H     -5.562056    0.272526    0.026642
  H     -4.347910    1.221217   -0.884866
  H     -3.776159   -0.730614   -2.252629
  H     -4.858940   -1.763812   -1.309581
  H     -5.524953   -0.475210   -2.331374

 Total Charge           Charge          ....    0
 Multiplicity           Mult            ....    1
 Number of Electrons    NEL             ....  202
 Basis Dimension        Dim             ....  334

ORBITAL ENERGIES
----------------

  NO   OCC          E(Eh)            E(eV)
   0   2.0000     -88.043532     -2395.7863
   1   2.0000     -88.040247     -2395.6969
   2   2.0000     -87.983363     -2394.1490
   3   2.0000     -87.982760     -2394.1326
   4   2.0000     -76.423835     -2079.5983
   5   2.0000     -76.423459     -2079.5880
   6   2.0000     -18.794547      -511.4256
   7   2.0000     -18.790400      -511.3128
   8   2.0000     -18.786120      -511.1963
   9   2.0000     -18.784920      -511.1637
  10   2.0000      -9.953972      -270.8614
  11   2.0000      -9.952468      -270.8204
  12   2.0000      -9.952062      -270.8094
  13   2.0000      -9.946725      -270.6641
  14   2.0000      -9.945145      -270.6212
  15   2.0000      -9.884303      -268.9656
  16   2.0000      -9.882151      -268.9070
  17   2.0000      -9.879331      -268.8303
  18   2.0000      -9.879212      -268.8270
  19   2.0000      -7.689224      -209.2344
  20   2.0000      -7.685464      -209.1321
  21   2.0000      -7.628313      -207.5769
  22   2.0000      -7.627481      -207.5543
  23   2.0000      -6.421613      -174.7410
  24   2.0000      -6.420960      -174.7232
  25   2.0000      -5.717226      -155.5736
  26   2.0000      -5.713609      -155.4752
  27   2.0000      -5.713318      -155.4673
  28   2.0000      -5.709954      -155.3757
  29   2.0000      -5.706072      -155.2701
  30   2.0000      -5.702427      -155.1709
  31   2.0000      -5.657149      -153.9388
  32   2.0000      -5.656213      -153.9134
  33   2.0000      -5.649118      -153.7203
  34   2.0000      -5.648352      -153.6995
  35   2.0000      -5.648287      -153.6977
  36   2.0000      -5.647658      -153.6806
  37   2.0000      -4.644222      -126.3757
  38   2.0000      -4.643304      -126.3507
  39   2.0000      -4.643298      -126.3506
  40   2.0000      -4.642664      -126.3333
  41   2.0000      -4.642050      -126.3166
  42   2.0000      -4.641696      -126.3070
  43   2.0000      -0.985496       -26.8167
  44   2.0000      -0.983733       -26.7687
  45   2.0000      -0.943494       -25.6738
  46   2.0000      -0.941178       -25.6108
  47   2.0000      -0.762318       -20.7437
  48   2.0000      -0.719476       -19.5780
  49   2.0000      -0.705623       -19.2010
  50   2.0000      -0.687008       -18.6945
  51   2.0000      -0.683312       -18.5939
  52   2.0000      -0.673285       -18.3210
  53   2.0000      -0.649834       -17.6829
  54   2.0000      -0.633129       -17.2283
  55   2.0000      -0.601201       -16.3595
  56   2.0000      -0.591242       -16.0885
  57   2.0000      -0.571333       -15.5467
  58   2.0000      -0.565654       -15.3922
  59   2.0000      -0.559410       -15.2223
  60   2.0000      -0.498665       -13.5694
  61   2.0000      -0.493182       -13.4202
  62   2.0000      -0.472395       -12.8545
  63   2.0000      -0.469274       -12.7696
  64   2.0000      -0.451647       -12.2899
  65   2.0000      -0.443774       -12.0757
  66   2.0000      -0.436400       -11.8750
  67   2.0000      -0.435783       -11.8583
  68   2.0000      -0.427300       -11.6274
  69   2.0000      -0.412272       -11.2185
  70   2.0000      -0.407970       -11.1014
  71   2.0000      -0.398141       -10.8340
  72   2.0000      -0.389166       -10.5898
  73   2.0000      -0.387372       -10.5409
  74   2.0000      -0.379749       -10.3335
  75   2.0000      -0.373496       -10.1633
  76   2.0000      -0.368234       -10.0202
  77   2.0000      -0.355355        -9.6697
  78   2.0000      -0.353833        -9.6283
  79   2.0000      -0.349260        -9.5038
  80   2.0000      -0.345211        -9.3937
  81   2.0000      -0.341874        -9.3029
  82   2.0000      -0.337803        -9.1921
  83   2.0000      -0.334808        -9.1106
  84   2.0000      -0.330908        -9.0045
  85   2.0000      -0.312054        -8.4914
  86   2.0000      -0.308674        -8.3994
  87   2.0000      -0.296433        -8.0664
  88   2.0000      -0.293543        -7.9877
  89   2.0000      -0.284314        -7.7366
  90   2.0000      -0.280922        -7.6443
  91   2.0000      -0.275694        -7.5020
  92   2.0000      -0.266443        -7.2503
  93   2.0000      -0.262410        -7.1405
  94   2.0000      -0.260063        -7.0767
  95   2.0000      -0.234667        -6.3856
  96   2.0000      -0.221703        -6.0329
  97   2.0000      -0.213533        -5.8105
  98   2.0000      -0.203035        -5.5249
  99   2.0000      -0.194876        -5.3029
 100   2.0000      -0.186294        -5.0693
 101   0.0000      -0.037926        -1.0320
 102   0.0000      -0.029398        -0.8000
 103   0.0000      -0.010311        -0.2806
 104   0.0000       0.016120         0.4386
 105   0.0000       0.022342         0.6080

MULLIKEN ATOMIC CHARGES
-----------------------
   0 C :   -0.294221
   1 C :   -0.006513
   2 O :   -0.374684
   3 P :    0.607299
   4 S :   -0.316631
   5 O :   -0.361271
   6 C :   -0.012139
   7 C :   -0.302915
   8 S :   -0.079621
   9 C :   -0.364163
  10 S :   -0.079645
  11 P :    0.606622
  12 S :   -0.320243
  13 O :   -0.355809
  14 C :   -0.019575
  15 C :   -0.281644
  16 O :   -0.375056
  17 C :   -0.002441
  18 C :   -0.321007
  19 H :    0.129007
  20 H :    0.113380
  21 H :    0.106547
  22 H :    0.105993
  23 H :    0.096958
  24 H :    0.125953
  25 H :    0.101377
  26 H :    0.126553
  27 H :    0.109554
  28 H :    0.113564
  29 H :    0.182496
  30 H :    0.209645
  31 H :    0.110846
  32 H :    0.104369
  33 H :    0.116032
  34 H :    0.106622
  35 H :    0.115573
  36 H :    0.104431
  37 H :    0.110749
  38 H :    0.130363
  39 H :    0.119024
  40 H :    0.114618
Sum of atomic charges:   -0.0000000

LOEWDIN ATOMIC CHARGES
----------------------
   0 C :   -0.364458
   1 C :   -0.117190
   2 O :   -0.246320
   3 P :    0.570836
   4 S :   -0.306683
   5 O :   -0.235872
   6 C :   -0.118603
   7 C :   -0.367507
   8 S :    0.086381
   9 C :   -0.480152
  10 S :    0.095691
  11 P :    0.564827
  12 S :   -0.306972
  13 O :   -0.236713
  14 C :   -0.117806
  15 C :   -0.358552
  16 O :   -0.245016
  17 C :   -0.120172
  18 C :   -0.370583
  19 H :    0.123887
  20 H :    0.124617
  21 H :    0.128208
  22 H :    0.118169
  23 H :    0.104749
  24 H :    0.111037
  25 H :    0.114124
  26 H :    0.122080
  27 H :    0.129882
  28 H :    0.124586
  29 H :    0.137367
  30 H :    0.126112
  31 H :    0.118966
  32 H :    0.104692
  33 H :    0.127038
  34 H :    0.127820
  35 H :    0.124078
  36 H :    0.118129
  37 H :    0.110571
  38 H :    0.122442
  39 H :    0.124315
  40 H :    0.131996

  Mayer bond orders larger than 0.100000
B(  0-C ,  1-C ) :   1.1671 B(  0-C , 19-H ) :   0.9301 B(  0-C , 20-H ) :   0.9458
B(  0-C , 21-H ) :   0.9397 B(  1-C ,  2-O ) :   0.9084 B(  1-C , 22-H ) :   0.9364
B(  1-C , 23-H ) :   0.9126 B(  2-O ,  3-P ) :   1.0966 B(  3-P ,  4-S ) :   1.5992
B(  3-P ,  5-O ) :   1.1329 B(  3-P ,  8-S ) :   0.9748 B(  4-S ,  8-S ) :   0.1208
B(  5-O ,  6-C ) :   0.9009 B(  6-C ,  7-C ) :   1.1628 B(  6-C , 24-H ) :   0.9135
B(  6-C , 25-H ) :   0.9307 B(  7-C , 26-H ) :   0.9316 B(  7-C , 27-H ) :   0.9373
B(  7-C , 28-H ) :   0.9439 B(  8-S ,  9-C ) :   0.9961 B(  9-C , 10-S ) :   1.0027
B(  9-C , 29-H ) :   0.9117 B(  9-C , 30-H ) :   0.8472 B( 10-S , 11-P ) :   0.9640
B( 10-S , 12-S ) :   0.1110 B( 11-P , 12-S ) :   1.6191 B( 11-P , 13-O ) :   1.1387
B( 11-P , 16-O ) :   1.0935 B( 13-O , 14-C ) :   0.8991 B( 14-C , 15-C ) :   1.1588
B( 14-C , 31-H ) :   0.9335 B( 14-C , 32-H ) :   0.9019 B( 15-C , 33-H ) :   0.9475
B( 15-C , 34-H ) :   0.9413 B( 15-C , 35-H ) :   0.9430 B( 16-O , 17-C ) :   0.9068
B( 17-C , 18-C ) :   1.1665 B( 17-C , 36-H ) :   0.9333 B( 17-C , 37-H ) :   0.9138
B( 18-C , 38-H ) :   0.9342 B( 18-C , 39-H ) :   0.9444 B( 18-C , 40-H ) :   0.9377

Dispersion correction           -0.067469792
FINAL SINGLE POINT ENERGY     -2929.522409666809

DIPOLE MOMENT
-------------

Method             : SCF
Type of density    : Electron Density
Multiplicity       :   1
Irrep              :   0
Energy             : -2929.6408181091273946 Eh
Relativity type    :
Basis              : AO
                                X                 Y                 Z
Electronic contribution:     -2.771222872     -10.996887488      -5.398376857
Nuclear contribution   :      2.645499962      10.982814438       6.160374451
                        -----------------------------------------
Total Dipole Moment    :     -0.125722910      -0.014073051       0.761997594
                        -----------------------------------------
Magnitude (a.u.)       :      0.772427753
Magnitude (Debye)      :      1.963355318

Rotational constants in cm-1:             0.013235             0.005200             0.004791
Rotational constants in MHz :           396.769679           155.886348           143.640766

                             ****ORCA TERMINATED NORMALLY****
TOTAL RUN TIME: 0 days 0 hours 0 minutes 21 seconds 480 msec
