                         Program Version 6.0.0  -   RELEASE  -
|  1> ! pbe def2-sv(p) def2/J RI DEFGRID1 loosescf d4 GCP(DFT/SV(P)) printgap
|  2> %output
|  3>     printlevel normal
|  4> end
|  5> * xyz 0 1
|  6> C 4.2081993913 1.8423339056 -1.0368197265
|  7> C 2.9010986642 1.2395254469 -1.5072974737
|  8> O 2.688696893 -0.073490482 -0.9546623158
|  9> P 2.3920344034 -0.3129768628 0.5817962528
| 10> S 1.4251427977 1.118144751 1.5156629257
| 11> O 3.8441032055 -0.6198694985 1.1455157781
| 12> C 4.1473155763 -0.6332354485 2.5519791331
| 13> C 3.4904644903 -1.7955804489 3.268159298
| 14> S 1.4506127157 -2.1988645893 0.4785526069
| 15> C -0.2363730472 -1.5938872654 0.2859557469
| 16> S -0.4419798442 -0.7558814224 -1.3341298825
| 17> P -2.3374309876 0.0942288354 -0.9633936009
| 18> S -3.1414822379 1.0312357137 -2.4811886338
| 19> O -2.150748874 0.951250047 0.3700408037
| 20> C -1.737269279 2.3292074594 0.3276985069
| 21> C -2.934778133 3.2447894139 0.4825542026
| 22> O -3.0940257227 -1.1842797461 -0.4161015042
| 23> C -4.5364559831 -1.2714785072 -0.4272165359
| 24> C -5.1622129014 -0.3143603002 0.5644098693
| 25> H 4.3752939071 2.7850245245 -1.5484056512
| 26> H 4.1667318909 2.0241071501 0.0366671954
| 27> H 5.0302888222 1.1633850569 -1.2469923408
| 28> H 2.8900684305 1.0742856703 -2.5853201867
| 29> H 2.0557531944 1.8761911875 -1.2246907675
| 30> H 5.23538009 -0.7035490606 2.5831273515
| 31> H 3.8230558309 0.318758118 2.9848631539
| 32> H 3.722467729 -2.729554707 2.7627023425
| 33> H 3.8525414658 -1.8376613993 4.2904491557
| 34> H 2.4093927069 -1.6650050496 3.2808999784
| 35> H -0.4639119139 -0.8781945096 1.0771991007
| 36> H -0.8903443622 -2.4605689598 0.3250009874
| 37> H -1.0302405774 2.4437048079 1.1525390939
| 38> H -1.2214647255 2.5231317686 -0.6181122617
| 39> H -3.6044238038 3.1283561051 -0.3672327198
| 40> H -3.4702151941 3.0062437407 1.3969675303
| 41> H -2.5922811838 4.2735185639 0.524119576
| 42> H -4.8873966636 -1.0620503912 -1.442413292
| 43> H -4.7355521376 -2.3128068979 -0.1709934424
| 44> H -4.9754896528 0.7121194377 0.2529444153
| 45> H -6.2338709499 -0.4831340211 0.6007687625
| 46> H -4.7369029913 -0.4652208207 1.5531251505
| 47> *
| 48>
| 49>                          ****END OF INPUT****

CARTESIAN COORDINATES (ANGSTROEM)
---------------------------------
  C      4.208199    1.842334   -1.036820
  C      2.901099    1.239525   -1.507297
  O      2.688697   -0.073490   -0.954662
  P      2.392034   -0.312977    0.581796
  S      1.425143    1.118145    1.515663
  O      3.844103   -0.619869    1.145516
  C      4.147316   -0.633235    2.551979
  C      3.490464   -1.795580    3.268159
  S      1.450613   -2.198865    0.478553
  C     -0.236373   -1.593887    0.285956
  S     -0.441980   -0.755881   -1.334130
  P     -2.337431    0.094229   -0.963394
  S     -3.141482    1.031236   -2.481189
  O     -2.150749    0.951250    0.370041
  C     -1.737269    2.329207    0.327699
  C     -2.934778    3.244789    0.482554
  O     -3.094026   -1.184280   -0.416102
  C     -4.536456   -1.271479   -0.427217
  C     -5.162213   -0.314360    0.564410
  H      4.375294    2.785025   -1.548406
  H      4.166732    2.024107    0.036667
  H      5.030289    1.163385   -1.246992
  H      2.890068    1.074286   -2.585320
  H      2.055753    1.876191   -1.224691
  H      5.235380   -0.703549    2.583127
  H      3.823056    0.318758    2.984863
  H      3.722468   -2.729555    2.762702
  H      3.852541   -1.837661    4.290449
  H      2.409393   -1.665005    3.280900
  H     -0.463912   -0.878195    1.077199
  H     -0.890344   -2.460569    0.325001
  H     -1.030241    2.443705    1.152539
  H     -1.221465    2.523132   -0.618112
  H     -3.604424    3.128356   -0.367233
  H     -3.470215    3.006244    1.396968
  H     -2.592281    4.273519    0.524120
  H     -4.887397   -1.062050   -1.442413
  H     -4.735552   -2.312807   -0.170993
  H     -4.975490    0.712119    0.252944
  H     -6.233871   -0.483134    0.600769
  H     -4.736903   -0.465221    1.553125

 Total Charge           Charge          ....    0
 Multiplicity           Mult            ....    1
 Number of Electrons    NEL             ....  202
 Basis Dimension        Dim             ....  334

ORBITAL ENERGIES
----------------

  NO   OCC          E(Eh)            E(eV)
   0   2.0000     -88.050524     -2395.9766
   1   2.0000     -88.035711     -2395.5735
   2   2.0000     -87.994788     -2394.4599
   3   2.0000     -87.985507     -2394.2074
   4   2.0000     -76.431722     -2079.8129
   5   2.0000     -76.422704     -2079.5675
   6   2.0000     -18.799291      -511.5547
   7   2.0000     -18.791480      -511.3422
   8   2.0000     -18.791439      -511.3410
   9   2.0000     -18.787143      -511.2241
  10   2.0000      -9.958147      -270.9750
  11   2.0000      -9.954563      -270.8774
  12   2.0000      -9.953454      -270.8473
  13   2.0000      -9.951325      -270.7893
  14   2.0000      -9.944277      -270.5975
  15   2.0000      -9.889293      -269.1014
  16   2.0000      -9.884948      -268.9831
  17   2.0000      -9.884817      -268.9795
  18   2.0000      -9.877171      -268.7715
  19   2.0000      -7.695875      -209.4154
  20   2.0000      -7.680938      -209.0090
  21   2.0000      -7.639441      -207.8798
  22   2.0000      -7.630719      -207.6424
  23   2.0000      -6.429351      -174.9515
  24   2.0000      -6.420639      -174.7145
  25   2.0000      -5.723741      -155.7509
  26   2.0000      -5.720468      -155.6619
  27   2.0000      -5.712723      -155.4511
  28   2.0000      -5.709261      -155.3569
  29   2.0000      -5.705388      -155.2515
  30   2.0000      -5.697549      -155.0382
  31   2.0000      -5.668124      -154.2375
  32   2.0000      -5.660217      -154.0223
  33   2.0000      -5.659710      -154.0085
  34   2.0000      -5.659645      -154.0068
  35   2.0000      -5.651451      -153.7838
  36   2.0000      -5.650764      -153.7651
  37   2.0000      -4.651672      -126.5784
  38   2.0000      -4.651082      -126.5624
  39   2.0000      -4.650056      -126.5345
  40   2.0000      -4.643089      -126.3449
  41   2.0000      -4.642537      -126.3299
  42   2.0000      -4.641080      -126.2902
  43   2.0000      -0.991395       -26.9772
  44   2.0000      -0.984392       -26.7867
  45   2.0000      -0.949984       -25.8504
  46   2.0000      -0.942758       -25.6537
  47   2.0000      -0.764985       -20.8163
  48   2.0000      -0.723166       -19.6784
  49   2.0000      -0.708423       -19.2772
  50   2.0000      -0.689996       -18.7757
  51   2.0000      -0.683640       -18.6028
  52   2.0000      -0.673494       -18.3267
  53   2.0000      -0.656573       -17.8663
  54   2.0000      -0.640493       -17.4287
  55   2.0000      -0.605136       -16.4666
  56   2.0000      -0.593431       -16.1481
  57   2.0000      -0.575616       -15.6633
  58   2.0000      -0.563836       -15.3428
  59   2.0000      -0.560873       -15.2621
  60   2.0000      -0.498843       -13.5742
  61   2.0000      -0.494764       -13.4632
  62   2.0000      -0.476466       -12.9653
  63   2.0000      -0.473708       -12.8902
  64   2.0000      -0.452928       -12.3248
  65   2.0000      -0.447900       -12.1880
  66   2.0000      -0.443890       -12.0789
  67   2.0000      -0.432310       -11.7637
  68   2.0000      -0.429119       -11.6769
  69   2.0000      -0.417135       -11.3508
  70   2.0000      -0.413158       -11.2426
  71   2.0000      -0.399715       -10.8768
  72   2.0000      -0.395057       -10.7501
  73   2.0000      -0.389286       -10.5930
  74   2.0000      -0.384321       -10.4579
  75   2.0000      -0.378896       -10.3103
  76   2.0000      -0.365239        -9.9387
  77   2.0000      -0.358372        -9.7518
  78   2.0000      -0.356245        -9.6939
  79   2.0000      -0.352021        -9.5790
  80   2.0000      -0.349829        -9.5193
  81   2.0000      -0.345448        -9.4001
  82   2.0000      -0.339947        -9.2504
  83   2.0000      -0.335514        -9.1298
  84   2.0000      -0.327996        -8.9252
  85   2.0000      -0.320523        -8.7219
  86   2.0000      -0.312943        -8.5156
  87   2.0000      -0.300479        -8.1764
  88   2.0000      -0.291520        -7.9327
  89   2.0000      -0.287211        -7.8154
  90   2.0000      -0.286223        -7.7885
  91   2.0000      -0.277223        -7.5436
  92   2.0000      -0.273780        -7.4499
  93   2.0000      -0.269755        -7.3404
  94   2.0000      -0.256456        -6.9785
  95   2.0000      -0.234258        -6.3745
  96   2.0000      -0.221026        -6.0144
  97   2.0000      -0.212632        -5.7860
  98   2.0000      -0.211409        -5.7527
  99   2.0000      -0.204510        -5.5650
 100   2.0000      -0.198266        -5.3951
 101   0.0000      -0.043992        -1.1971
 102   0.0000      -0.019569        -0.5325
 103   0.0000      -0.016811        -0.4574
 104   0.0000       0.008493         0.2311
 105   0.0000       0.013085         0.3560

MULLIKEN ATOMIC CHARGES
-----------------------
   0 C :   -0.307508
   1 C :   -0.003092
   2 O :   -0.357333
   3 P :    0.617419
   4 S :   -0.339779
   5 O :   -0.368573
   6 C :   -0.006120
   7 C :   -0.317709
   8 S :   -0.069000
   9 C :   -0.364232
  10 S :   -0.072515
  11 P :    0.611261
  12 S :   -0.321989
  13 O :   -0.378705
  14 C :   -0.020525
  15 C :   -0.290028
  16 O :   -0.385816
  17 C :   -0.005424
  18 C :   -0.315063
  19 H :    0.113193
  20 H :    0.119887
  21 H :    0.118132
  22 H :    0.110767
  23 H :    0.113579
  24 H :    0.108433
  25 H :    0.112216
  26 H :    0.120568
  27 H :    0.115869
  28 H :    0.127663
  29 H :    0.197381
  30 H :    0.186890
  31 H :    0.120962
  32 H :    0.101734
  33 H :    0.125827
  34 H :    0.111816
  35 H :    0.107702
  36 H :    0.115239
  37 H :    0.104895
  38 H :    0.132097
  39 H :    0.112528
  40 H :    0.117351
Sum of atomic charges:   -0.0000000

LOEWDIN ATOMIC CHARGES
----------------------
   0 C :   -0.364731
   1 C :   -0.115733
   2 O :   -0.236189
   3 P :    0.575353
   4 S :   -0.313081
   5 O :   -0.240791
   6 C :   -0.118389
   7 C :   -0.369545
   8 S :    0.105804
   9 C :   -0.476700
  10 S :    0.076874
  11 P :    0.566934
  12 S :   -0.322261
  13 O :   -0.246198
  14 C :   -0.121001
  15 C :   -0.362875
  16 O :   -0.246687
  17 C :   -0.114679
  18 C :   -0.365675
  19 H :    0.130882
  20 H :    0.121271
  21 H :    0.127051
  22 H :    0.122074
  23 H :    0.110056
  24 H :    0.120380
  25 H :    0.111106
  26 H :    0.125558
  27 H :    0.132519
  28 H :    0.121413
  29 H :    0.123581
  30 H :    0.134902
  31 H :    0.112362
  32 H :    0.106899
  33 H :    0.122543
  34 H :    0.123524
  35 H :    0.128876
  36 H :    0.113171
  37 H :    0.118528
  38 H :    0.125189
  39 H :    0.130870
  40 H :    0.126817

  Mayer bond orders larger than 0.100000
B(  0-C ,  1-C ) :   1.1620 B(  0-C , 19-H ) :   0.9397 B(  0-C , 20-H ) :   0.9372
B(  0-C , 21-H ) :   0.9458 B(  1-C ,  2-O ) :   0.9020 B(  1-C , 22-H ) :   0.9346
B(  1-C , 23-H ) :   0.9170 B(  2-O ,  3-P ) :   1.1372 B(  3-P ,  4-S ) :   1.5837
B(  3-P ,  5-O ) :   1.1158 B(  3-P ,  8-S ) :   0.9574 B(  4-S ,  8-S ) :   0.1109
B(  5-O ,  6-C ) :   0.9059 B(  6-C ,  7-C ) :   1.1662 B(  6-C , 24-H ) :   0.9336
B(  6-C , 25-H ) :   0.9164 B(  7-C , 26-H ) :   0.9445 B(  7-C , 27-H ) :   0.9377
B(  7-C , 28-H ) :   0.9360 B(  8-S ,  9-C ) :   1.0188 B(  9-C , 10-S ) :   0.9588
B(  9-C , 29-H ) :   0.8688 B(  9-C , 30-H ) :   0.9030 B( 10-S , 11-P ) :   0.9856
B( 11-P , 12-S ) :   1.6325 B( 11-P , 13-O ) :   1.0827 B( 11-P , 16-O ) :   1.0948
B( 13-O , 14-C ) :   0.8984 B( 14-C , 15-C ) :   1.1663 B( 14-C , 31-H ) :   0.9226
B( 14-C , 32-H ) :   0.9131 B( 15-C , 33-H ) :   0.9315 B( 15-C , 34-H ) :   0.9450
B( 15-C , 35-H ) :   0.9404 B( 16-O , 17-C ) :   0.9059 B( 17-C , 18-C ) :   1.1631
B( 17-C , 36-H ) :   0.9176 B( 17-C , 37-H ) :   0.9356 B( 18-C , 38-H ) :   0.9328
B( 18-C , 39-H ) :   0.9372 B( 18-C , 40-H ) :   0.9458

Dispersion correction           -0.063966328
FINAL SINGLE POINT ENERGY     -2929.523758085980

DIPOLE MOMENT
-------------

Method             : SCF
Type of density    : Electron Density
Multiplicity       :   1
Irrep              :   0
Energy             : -2929.6448342404873983 Eh
Relativity type    :
Basis              : AO
                                X                 Y                 Z
Electronic contribution:      1.724255861     -10.418397621     -11.999831552
Nuclear contribution   :     -1.211137081      10.272642564      13.171104812
                        -----------------------------------------
Total Dipole Moment    :      0.513118780      -0.145755057       1.171273260
                        -----------------------------------------
Magnitude (a.u.)       :      1.287018441
Magnitude (Debye)      :      3.271340900

Rotational constants in cm-1:             0.013160             0.004438             0.004170
Rotational constants in MHz :           394.512693           133.053724           125.022429

                             ****ORCA TERMINATED NORMALLY****
TOTAL RUN TIME: 0 days 0 hours 0 minutes 21 seconds 7 msec
