                         Program Version 6.0.0  -   RELEASE  -
|  1> ! wb97x-v def2-tzvp def2/J RIJCOSX DEFGRID2 scfconv7 GCP(DFT/TZ) printgap
|  2> %output
|  3>     printlevel normal
|  4> end
|  5> * xyz 0 1
|  6> C 2.7780480558259844 -1.3970571165439583 -0.00010816169489135921
|  7> C 1.5888587470629192 -0.6946128058011987 -0.00013028631603976542
|  8> C 1.588858302043417 0.6946126713438419 -8.206933999096103e-05
|  9> C 2.778046775090307 1.3970581331063978 1.810522970449536e-05
| 10> C 3.981560756984777 0.6974344044022173 4.831747405613017e-05
| 11> C 3.981561151055743 -0.6974318910125699 -2.272050748073238e-05
| 12> Cl 5.4712685502531055 -1.6002754999153694 -4.781155680858808e-06
| 13> Cl 5.471266805787262 1.60027921144381 0.00018004892579212691
| 14> O 0.4121606238512215 1.423854720694317 -0.00013898983852295873
| 15> C -0.7512160431868783 0.6962949917166471 -9.273475689898896e-05
| 16> C -0.7512157719753185 -0.6962962417761971 -0.00011199879571370365
| 17> C -1.9554943860494702 -1.3925706961408824 -3.491165673756903e-05
| 18> C -3.170741205974281 -0.6982326843803408 2.5738227256722883e-05
| 19> C -3.170741387384537 0.6982306411009164 1.7700956625074972e-05
| 20> C -1.9554949005679167 1.3925690306749465 -4.260865434164041e-05
| 21> Cl -1.9105789796835047 3.1230544024293194 -5.5816127871146305e-05
| 22> Cl -4.662165963156502 1.5749229294672085 7.848718186296247e-05
| 23> Cl -4.662165468132722 -1.5749252783272576 0.00011991378024955869
| 24> Cl -1.910577905555152 -3.1230560739681668 -2.894634586096308e-05
| 25> O 0.4121614660404776 -1.4238556030855947 -0.0002067858620811138
| 26> H 2.759955772223594 -2.480454038045772 -0.00015874239606404513
| 27> H 2.759952745691726 2.4804549091299077 6.771633620665404e-05
| 28> *
| 29>
| 30>                          ****END OF INPUT****

CARTESIAN COORDINATES (ANGSTROEM)
---------------------------------
  C      2.778048   -1.397057   -0.000108
  C      1.588859   -0.694613   -0.000130
  C      1.588858    0.694613   -0.000082
  C      2.778047    1.397058    0.000018
  C      3.981561    0.697434    0.000048
  C      3.981561   -0.697432   -0.000023
  Cl     5.471269   -1.600275   -0.000005
  Cl     5.471267    1.600279    0.000180
  O      0.412161    1.423855   -0.000139
  C     -0.751216    0.696295   -0.000093
  C     -0.751216   -0.696296   -0.000112
  C     -1.955494   -1.392571   -0.000035
  C     -3.170741   -0.698233    0.000026
  C     -3.170741    0.698231    0.000018
  C     -1.955495    1.392569   -0.000043
  Cl    -1.910579    3.123054   -0.000056
  Cl    -4.662166    1.574923    0.000078
  Cl    -4.662165   -1.574925    0.000120
  Cl    -1.910578   -3.123056   -0.000029
  O      0.412161   -1.423856   -0.000207
  H      2.759956   -2.480454   -0.000159
  H      2.759953    2.480455    0.000068

 Total Charge           Charge          ....    0
 Multiplicity           Mult            ....    1
 Number of Electrons    NEL             ....  192
 Basis Dimension        Dim             ....  668

ORBITAL ENERGIES
----------------

  NO   OCC          E(Eh)            E(eV)
   0   2.0000    -107.171786     -2916.2926
   1   2.0000    -107.171775     -2916.2923
   2   2.0000    -107.169896     -2916.2411
   3   2.0000    -107.169862     -2916.2402
   4   2.0000    -107.164278     -2916.0883
   5   2.0000    -107.164247     -2916.0874
   6   2.0000     -21.766241      -592.2895
   7   2.0000     -21.766188      -592.2881
   8   2.0000     -12.170397      -331.1733
   9   2.0000     -12.168303      -331.1164
  10   2.0000     -12.160083      -330.8927
  11   2.0000     -12.158768      -330.8569
  12   2.0000     -12.157912      -330.8336
  13   2.0000     -12.157527      -330.8231
  14   2.0000     -12.155821      -330.7767
  15   2.0000     -12.154902      -330.7517
  16   2.0000     -12.148742      -330.5841
  17   2.0000     -12.146586      -330.5254
  18   2.0000     -12.097396      -329.1869
  19   2.0000     -12.097326      -329.1850
  20   2.0000     -11.324647      -308.1593
  21   2.0000     -11.324602      -308.1581
  22   2.0000     -11.322859      -308.1106
  23   2.0000     -11.322809      -308.1093
  24   2.0000     -11.317260      -307.9583
  25   2.0000     -11.317212      -307.9570
  26   2.0000      -9.116534      -248.0735
  27   2.0000      -9.116373      -248.0691
  28   2.0000      -9.114885      -248.0286
  29   2.0000      -9.114047      -248.0058
  30   2.0000      -9.113654      -247.9951
  31   2.0000      -9.113544      -247.9922
  32   2.0000      -9.113374      -247.9875
  33   2.0000      -9.113267      -247.9846
  34   2.0000      -9.111825      -247.9454
  35   2.0000      -9.111675      -247.9413
  36   2.0000      -9.111556      -247.9380
  37   2.0000      -9.111022      -247.9235
  38   2.0000      -9.109209      -247.8742
  39   2.0000      -9.108553      -247.8563
  40   2.0000      -9.106465      -247.7995
  41   2.0000      -9.106104      -247.7897
  42   2.0000      -9.105984      -247.7864
  43   2.0000      -9.105617      -247.7764
  44   2.0000      -1.801393       -49.0184
  45   2.0000      -1.784262       -48.5523
  46   2.0000      -1.502654       -40.8893
  47   2.0000      -1.478615       -40.2352
  48   2.0000      -1.466380       -39.9022
  49   2.0000      -1.451648       -39.5014
  50   2.0000      -1.432364       -38.9766
  51   2.0000      -1.430775       -38.9334
  52   2.0000      -1.425924       -38.8014
  53   2.0000      -1.395446       -37.9720
  54   2.0000      -1.355045       -36.8727
  55   2.0000      -1.332997       -36.2727
  56   2.0000      -1.303389       -35.4670
  57   2.0000      -1.300758       -35.3954
  58   2.0000      -1.247432       -33.9444
  59   2.0000      -1.197103       -32.5748
  60   2.0000      -1.189706       -32.3736
  61   2.0000      -1.150929       -31.3184
  62   2.0000      -1.131356       -30.7858
  63   2.0000      -1.085547       -29.5392
  64   2.0000      -1.077656       -29.3245
  65   2.0000      -1.062601       -28.9148
  66   2.0000      -1.044897       -28.4331
  67   2.0000      -1.035358       -28.1735
  68   2.0000      -1.016633       -27.6640
  69   2.0000      -1.006991       -27.4016
  70   2.0000      -0.988292       -26.8928
  71   2.0000      -0.977641       -26.6030
  72   2.0000      -0.975081       -26.5333
  73   2.0000      -0.949917       -25.8486
  74   2.0000      -0.941975       -25.6324
  75   2.0000      -0.931255       -25.3407
  76   2.0000      -0.927632       -25.2422
  77   2.0000      -0.891492       -24.2587
  78   2.0000      -0.890981       -24.2448
  79   2.0000      -0.867432       -23.6040
  80   2.0000      -0.851131       -23.1605
  81   2.0000      -0.835973       -22.7480
  82   2.0000      -0.826249       -22.4834
  83   2.0000      -0.825537       -22.4640
  84   2.0000      -0.824982       -22.4489
  85   2.0000      -0.824615       -22.4389
  86   2.0000      -0.818968       -22.2853
  87   2.0000      -0.815742       -22.1975
  88   2.0000      -0.809330       -22.0230
  89   2.0000      -0.808350       -21.9963
  90   2.0000      -0.803563       -21.8661
  91   2.0000      -0.781176       -21.2569
  92   2.0000      -0.705431       -19.1957
  93   2.0000      -0.700664       -19.0660
  94   2.0000      -0.687276       -18.7017
  95   2.0000      -0.681963       -18.5572
  96   0.0000      -0.363941        -9.9033
  97   0.0000      -0.326950        -8.8968
  98   0.0000      -0.325559        -8.8589
  99   0.0000      -0.315074        -8.5736
 100   0.0000      -0.303168        -8.2496

MULLIKEN ATOMIC CHARGES
-----------------------
   0 C :   -0.341953
   1 C :    0.227877
   2 C :    0.228423
   3 C :   -0.341729
   4 C :    0.135771
   5 C :    0.136838
   6 Cl:   -0.053800
   7 Cl:   -0.053741
   8 O :   -0.219985
   9 C :    0.217634
  10 C :    0.218099
  11 C :   -0.112517
  12 C :    0.038514
  13 C :    0.038795
  14 C :   -0.112128
  15 Cl:   -0.021873
  16 Cl:   -0.021738
  17 Cl:   -0.021614
  18 Cl:   -0.021883
  19 O :   -0.219965
  20 H :    0.150488
  21 H :    0.150483
Sum of atomic charges:    0.0000000

LOEWDIN ATOMIC CHARGES
----------------------
   0 C :   -0.097944
   1 C :   -0.191168
   2 C :   -0.191168
   3 C :   -0.097943
   4 C :   -0.428418
   5 C :   -0.428414
   6 Cl:    0.410841
   7 Cl:    0.410843
   8 O :    0.331053
   9 C :   -0.209889
  10 C :   -0.209889
  11 C :   -0.411888
  12 C :   -0.448406
  13 C :   -0.448405
  14 C :   -0.411887
  15 Cl:    0.445219
  16 Cl:    0.439129
  17 Cl:    0.439130
  18 Cl:    0.445220
  19 O :    0.331054
  20 H :    0.161465
  21 H :    0.161465

  Mayer bond orders larger than 0.100000
B(  0-C ,  1-C ) :   1.4086 B(  0-C ,  5-C ) :   1.3731 B(  0-C , 20-H ) :   0.9624
B(  1-C ,  2-C ) :   1.3805 B(  1-C , 19-O ) :   1.0116 B(  2-C ,  3-C ) :   1.4080
B(  2-C ,  8-O ) :   1.0116 B(  3-C ,  4-C ) :   1.3726 B(  3-C , 21-H ) :   0.9627
B(  4-C ,  5-C ) :   1.3285 B(  4-C ,  7-Cl) :   1.0690 B(  5-C ,  6-Cl) :   1.0671
B(  8-O ,  9-C ) :   1.0999 B(  9-C , 10-C ) :   1.3995 B(  9-C , 14-C ) :   1.2949
B( 10-C , 11-C ) :   1.2942 B( 10-C , 19-O ) :   1.0999 B( 11-C , 12-C ) :   1.3090
B( 11-C , 18-Cl) :   1.2428 B( 12-C , 13-C ) :   1.3375 B( 12-C , 17-Cl) :   1.1948
B( 13-C , 14-C ) :   1.3091 B( 13-C , 16-Cl) :   1.1946 B( 14-C , 15-Cl) :   1.2430

FINAL SINGLE POINT ENERGY     -3369.821675581586

DIPOLE MOMENT
-------------

Method             : SCF
Type of density    : Electron Density
Multiplicity       :   1
Irrep              :   0
Energy             : -3369.8337136993859531 Eh
Relativity type    :
Basis              : AO
                                X                 Y                 Z
Electronic contribution:     -8.063798484       0.000010164       0.000493242
Nuclear contribution   :      8.147813592       0.000000543      -0.000503047
                        -----------------------------------------
Total Dipole Moment    :      0.084015109       0.000010707      -0.000009805
                        -----------------------------------------
Magnitude (a.u.)       :      0.084015110
Magnitude (Debye)      :      0.213549438

Rotational constants in cm-1:             0.013311             0.003428             0.002726
Rotational constants in MHz :           399.063203           102.779001            81.729510

                             ****ORCA TERMINATED NORMALLY****
TOTAL RUN TIME: 0 days 0 hours 12 minutes 31 seconds 874 msec
