                         Program Version 6.0.0  -   RELEASE  -
|  1> ! wb97x-v def2-tzvp def2/J RIJCOSX DEFGRID2 scfconv7 GCP(DFT/TZ) printgap
|  2> %output
|  3>     printlevel normal
|  4> end
|  5> %cpcm
|  6>     smd true
|  7>     smdsolvent "water"
|  8> end
|  9> * xyz 0 1
| 10> C 2.7780480558259844 -1.3970571165439583 -0.00010816169489135921
| 11> C 1.5888587470629192 -0.6946128058011987 -0.00013028631603976542
| 12> C 1.588858302043417 0.6946126713438419 -8.206933999096103e-05
| 13> C 2.778046775090307 1.3970581331063978 1.810522970449536e-05
| 14> C 3.981560756984777 0.6974344044022173 4.831747405613017e-05
| 15> C 3.981561151055743 -0.6974318910125699 -2.272050748073238e-05
| 16> Cl 5.4712685502531055 -1.6002754999153694 -4.781155680858808e-06
| 17> Cl 5.471266805787262 1.60027921144381 0.00018004892579212691
| 18> O 0.4121606238512215 1.423854720694317 -0.00013898983852295873
| 19> C -0.7512160431868783 0.6962949917166471 -9.273475689898896e-05
| 20> C -0.7512157719753185 -0.6962962417761971 -0.00011199879571370365
| 21> C -1.9554943860494702 -1.3925706961408824 -3.491165673756903e-05
| 22> C -3.170741205974281 -0.6982326843803408 2.5738227256722883e-05
| 23> C -3.170741387384537 0.6982306411009164 1.7700956625074972e-05
| 24> C -1.9554949005679167 1.3925690306749465 -4.260865434164041e-05
| 25> Cl -1.9105789796835047 3.1230544024293194 -5.5816127871146305e-05
| 26> Cl -4.662165963156502 1.5749229294672085 7.848718186296247e-05
| 27> Cl -4.662165468132722 -1.5749252783272576 0.00011991378024955869
| 28> Cl -1.910577905555152 -3.1230560739681668 -2.894634586096308e-05
| 29> O 0.4121614660404776 -1.4238556030855947 -0.0002067858620811138
| 30> H 2.759955772223594 -2.480454038045772 -0.00015874239606404513
| 31> H 2.759952745691726 2.4804549091299077 6.771633620665404e-05
| 32> *
| 33>
| 34>                          ****END OF INPUT****

CARTESIAN COORDINATES (ANGSTROEM)
---------------------------------
  C      2.778048   -1.397057   -0.000108
  C      1.588859   -0.694613   -0.000130
  C      1.588858    0.694613   -0.000082
  C      2.778047    1.397058    0.000018
  C      3.981561    0.697434    0.000048
  C      3.981561   -0.697432   -0.000023
  Cl     5.471269   -1.600275   -0.000005
  Cl     5.471267    1.600279    0.000180
  O      0.412161    1.423855   -0.000139
  C     -0.751216    0.696295   -0.000093
  C     -0.751216   -0.696296   -0.000112
  C     -1.955494   -1.392571   -0.000035
  C     -3.170741   -0.698233    0.000026
  C     -3.170741    0.698231    0.000018
  C     -1.955495    1.392569   -0.000043
  Cl    -1.910579    3.123054   -0.000056
  Cl    -4.662166    1.574923    0.000078
  Cl    -4.662165   -1.574925    0.000120
  Cl    -1.910578   -3.123056   -0.000029
  O      0.412161   -1.423856   -0.000207
  H      2.759956   -2.480454   -0.000159
  H      2.759953    2.480455    0.000068

 Total Charge           Charge          ....    0
 Multiplicity           Mult            ....    1
 Number of Electrons    NEL             ....  192
 Basis Dimension        Dim             ....  668

ORBITAL ENERGIES
----------------

  NO   OCC          E(Eh)            E(eV)
   0   2.0000    -107.168344     -2916.1989
   1   2.0000    -107.168332     -2916.1986
   2   2.0000    -107.167650     -2916.1800
   3   2.0000    -107.167616     -2916.1791
   4   2.0000    -107.159176     -2915.9494
   5   2.0000    -107.159145     -2915.9486
   6   2.0000     -21.755292      -591.9916
   7   2.0000     -21.755241      -591.9902
   8   2.0000     -12.160836      -330.9132
   9   2.0000     -12.158749      -330.8564
  10   2.0000     -12.151741      -330.6657
  11   2.0000     -12.150197      -330.6237
  12   2.0000     -12.147968      -330.5630
  13   2.0000     -12.147314      -330.5452
  14   2.0000     -12.146689      -330.5282
  15   2.0000     -12.144527      -330.4694
  16   2.0000     -12.137595      -330.2807
  17   2.0000     -12.135440      -330.2221
  18   2.0000     -12.081956      -328.7667
  19   2.0000     -12.081884      -328.7648
  20   2.0000     -11.321249      -308.0668
  21   2.0000     -11.321201      -308.0655
  22   2.0000     -11.320664      -308.0509
  23   2.0000     -11.320610      -308.0495
  24   2.0000     -11.312247      -307.8219
  25   2.0000     -11.312198      -307.8205
  26   2.0000      -9.113242      -247.9839
  27   2.0000      -9.112993      -247.9772
  28   2.0000      -9.112636      -247.9674
  29   2.0000      -9.111713      -247.9423
  30   2.0000      -9.110490      -247.9090
  31   2.0000      -9.110270      -247.9031
  32   2.0000      -9.110082      -247.8979
  33   2.0000      -9.109910      -247.8932
  34   2.0000      -9.109492      -247.8819
  35   2.0000      -9.109395      -247.8792
  36   2.0000      -9.109373      -247.8786
  37   2.0000      -9.108808      -247.8633
  38   2.0000      -9.104170      -247.7371
  39   2.0000      -9.103528      -247.7196
  40   2.0000      -9.101512      -247.6647
  41   2.0000      -9.101126      -247.6542
  42   2.0000      -9.101026      -247.6515
  43   2.0000      -9.100647      -247.6412
  44   2.0000      -1.789657       -48.6990
  45   2.0000      -1.772721       -48.2382
  46   2.0000      -1.496216       -40.7141
  47   2.0000      -1.469539       -39.9882
  48   2.0000      -1.461836       -39.7786
  49   2.0000      -1.446962       -39.3738
  50   2.0000      -1.428166       -38.8624
  51   2.0000      -1.426340       -38.8127
  52   2.0000      -1.417210       -38.5642
  53   2.0000      -1.387074       -37.7442
  54   2.0000      -1.343292       -36.5528
  55   2.0000      -1.324499       -36.0414
  56   2.0000      -1.293522       -35.1985
  57   2.0000      -1.290639       -35.1201
  58   2.0000      -1.237479       -33.6735
  59   2.0000      -1.186104       -32.2755
  60   2.0000      -1.179167       -32.0868
  61   2.0000      -1.139606       -31.0102
  62   2.0000      -1.122200       -30.5366
  63   2.0000      -1.076251       -29.2863
  64   2.0000      -1.067520       -29.0487
  65   2.0000      -1.052332       -28.6354
  66   2.0000      -1.032787       -28.1036
  67   2.0000      -1.024732       -27.8844
  68   2.0000      -1.005045       -27.3487
  69   2.0000      -0.999192       -27.1894
  70   2.0000      -0.979766       -26.6608
  71   2.0000      -0.970196       -26.4004
  72   2.0000      -0.969718       -26.3874
  73   2.0000      -0.945095       -25.7173
  74   2.0000      -0.929782       -25.3007
  75   2.0000      -0.925513       -25.1845
  76   2.0000      -0.914217       -24.8771
  77   2.0000      -0.884986       -24.0817
  78   2.0000      -0.876329       -23.8461
  79   2.0000      -0.859149       -23.3786
  80   2.0000      -0.847137       -23.0518
  81   2.0000      -0.832683       -22.6585
  82   2.0000      -0.823543       -22.4097
  83   2.0000      -0.823364       -22.4049
  84   2.0000      -0.822682       -22.3863
  85   2.0000      -0.820298       -22.3214
  86   2.0000      -0.816132       -22.2081
  87   2.0000      -0.810649       -22.0589
  88   2.0000      -0.807291       -21.9675
  89   2.0000      -0.803754       -21.8713
  90   2.0000      -0.794418       -21.6172
  91   2.0000      -0.773640       -21.0518
  92   2.0000      -0.696393       -18.9498
  93   2.0000      -0.691081       -18.8053
  94   2.0000      -0.675075       -18.3697
  95   2.0000      -0.671013       -18.2592
  96   0.0000      -0.357617        -9.7313
  97   0.0000      -0.318099        -8.6559
  98   0.0000      -0.315491        -8.5849
  99   0.0000      -0.306249        -8.3335
 100   0.0000      -0.291829        -7.9411

MULLIKEN ATOMIC CHARGES
-----------------------
   0 C :   -0.357288
   1 C :    0.244717
   2 C :    0.245212
   3 C :   -0.356998
   4 C :    0.140726
   5 C :    0.141894
   6 Cl:   -0.076396
   7 Cl:   -0.076333
   8 O :   -0.239456
   9 C :    0.249055
  10 C :    0.249514
  11 C :   -0.108731
  12 C :    0.048018
  13 C :    0.048281
  14 C :   -0.108342
  15 Cl:   -0.039565
  16 Cl:   -0.040743
  17 Cl:   -0.040619
  18 Cl:   -0.039572
  19 O :   -0.239433
  20 H :    0.178028
  21 H :    0.178029
Sum of atomic charges:    0.0000000

LOEWDIN ATOMIC CHARGES
----------------------
   0 C :   -0.090709
   1 C :   -0.181626
   2 C :   -0.181625
   3 C :   -0.090707
   4 C :   -0.432029
   5 C :   -0.432025
   6 Cl:    0.394126
   7 Cl:    0.394128
   8 O :    0.327225
   9 C :   -0.195231
  10 C :   -0.195230
  11 C :   -0.407498
  12 C :   -0.446200
  13 C :   -0.446199
  14 C :   -0.407498
  15 Cl:    0.433708
  16 Cl:    0.426583
  17 Cl:    0.426583
  18 Cl:    0.433709
  19 O :    0.327225
  20 H :    0.171645
  21 H :    0.171645

  Mayer bond orders larger than 0.100000
B(  0-C ,  1-C ) :   1.3988 B(  0-C ,  5-C ) :   1.3554 B(  0-C , 20-H ) :   0.9642
B(  1-C ,  2-C ) :   1.3795 B(  1-C , 19-O ) :   1.0023 B(  2-C ,  3-C ) :   1.3983
B(  2-C ,  8-O ) :   1.0023 B(  3-C ,  4-C ) :   1.3549 B(  3-C , 21-H ) :   0.9645
B(  4-C ,  5-C ) :   1.3197 B(  4-C ,  7-Cl) :   1.0529 B(  5-C ,  6-Cl) :   1.0510
B(  8-O ,  9-C ) :   1.0886 B(  9-C , 10-C ) :   1.4124 B(  9-C , 14-C ) :   1.2920
B( 10-C , 11-C ) :   1.2914 B( 10-C , 19-O ) :   1.0885 B( 11-C , 12-C ) :   1.3094
B( 11-C , 18-Cl) :   1.2116 B( 12-C , 13-C ) :   1.3446 B( 12-C , 17-Cl) :   1.1664
B( 13-C , 14-C ) :   1.3095 B( 13-C , 16-Cl) :   1.1662 B( 14-C , 15-Cl) :   1.2118

FINAL SINGLE POINT ENERGY     -3369.822519765843

DIPOLE MOMENT
-------------

Method             : SCF
Type of density    : Electron Density
Multiplicity       :   1
Irrep              :   0
Energy             : -3369.8345578836424465 Eh
Relativity type    :
Basis              : AO
                                X                 Y                 Z
Electronic contribution:     -8.054870976       0.000015244       0.000481652
Nuclear contribution   :      8.147813592       0.000000543      -0.000503047
                        -----------------------------------------
Total Dipole Moment    :      0.092942616       0.000015787      -0.000021394
                        -----------------------------------------
Magnitude (a.u.)       :      0.092942620
Magnitude (Debye)      :      0.236241366

Rotational constants in cm-1:             0.013311             0.003428             0.002726
Rotational constants in MHz :           399.063203           102.779001            81.729510

                             ****ORCA TERMINATED NORMALLY****
TOTAL RUN TIME: 0 days 0 hours 12 minutes 16 seconds 365 msec
