                         Program Version 6.0.1  -  RELEASE   -
|  1> ! r2scan-3c def2/J RI DEFGRID2 scfconv6 printgap
|  2> %output
|  3>     printlevel normal
|  4> end
|  5> * xyz 0 1
|  6> C 5.2256357361 -2.3168927915 -1.4709827011
|  7> C 4.5765056155 -1.0737165502 -0.8834283143
|  8> O 3.1568188606 -1.0620557982 -1.1232741261
|  9> C 2.3805291902 -1.7333778813 -0.2874364259
| 10> O 2.7829241885 -2.3941845507 0.6417041943
| 11> C 0.9162713039 -1.6273581642 -0.6762337297
| 12> C 0.5464750578 -0.1844985072 -0.9993059319
| 13> H 1.1275623476 0.1569893329 -1.8633201436
| 14> C 0.8923385465 0.7395087449 0.1535521451
| 15> O 1.8429446372 0.5400913793 0.8742206338
| 16> O 0.0939343646 1.7865762054 0.2218287841
| 17> C 0.3663338815 2.7841839939 1.2266019764
| 18> C 1.3475620734 3.8178676014 0.7018293055
| 19> S -1.1866658036 -0.0141358994 -1.525812386
| 20> P -2.187126525 0.147397463 0.3423291206
| 21> S -1.2961813962 -0.566761745 1.9390549837
| 22> O -2.6603047016 1.6420821069 0.526650731
| 23> C -3.3952173572 2.3440165079 -0.4985868042
| 24> O -3.587620159 -0.5516971887 0.0068082665
| 25> C -3.6868303101 -1.9648082967 -0.2011067434
| 26> H 4.8522521254 -3.2049138134 -0.9664212391
| 27> H 5.0031722595 -2.3892943399 -2.5319520816
| 28> H 6.3000348303 -2.2584422074 -1.3320861921
| 29> H 4.9394416445 -0.1671958207 -1.3683015361
| 30> H 4.7426012761 -1.0184065417 0.1962682645
| 31> H 0.3252246258 -2.0077697426 0.1593876458
| 32> H 0.7463292498 -2.2517357222 -1.5547200131
| 33> H -0.6081722436 3.221242088 1.446391601
| 34> H 0.757210325 2.2779389649 2.1142051866
| 35> H 0.9696348165 4.2618761356 -0.2148327278
| 36> H 1.4784906269 4.5928697851 1.4495689906
| 37> H 2.310386743 3.3520101299 0.5043837174
| 38> H -3.522882844 3.3531536384 -0.1160035708
| 39> H -4.3592534707 1.8650859365 -0.6560565225
| 40> H -2.8227814257 2.3500428171 -1.4259089459
| 41> H -4.7503325085 -2.1889777094 -0.185367492
| 42> H -3.1744362115 -2.4999843079 0.5999251261
| 43> H -3.252546474 -2.22831955 -1.1652225012
| 44> *
| 45>
| 46>                          ****END OF INPUT****

CARTESIAN COORDINATES (ANGSTROEM)
---------------------------------
  C      5.225636   -2.316893   -1.470983
  C      4.576506   -1.073717   -0.883428
  O      3.156819   -1.062056   -1.123274
  C      2.380529   -1.733378   -0.287436
  O      2.782924   -2.394185    0.641704
  C      0.916271   -1.627358   -0.676234
  C      0.546475   -0.184499   -0.999306
  H      1.127562    0.156989   -1.863320
  C      0.892339    0.739509    0.153552
  O      1.842945    0.540091    0.874221
  O      0.093934    1.786576    0.221829
  C      0.366334    2.784184    1.226602
  C      1.347562    3.817868    0.701829
  S     -1.186666   -0.014136   -1.525812
  P     -2.187127    0.147397    0.342329
  S     -1.296181   -0.566762    1.939055
  O     -2.660305    1.642082    0.526651
  C     -3.395217    2.344017   -0.498587
  O     -3.587620   -0.551697    0.006808
  C     -3.686830   -1.964808   -0.201107
  H      4.852252   -3.204914   -0.966421
  H      5.003172   -2.389294   -2.531952
  H      6.300035   -2.258442   -1.332086
  H      4.939442   -0.167196   -1.368302
  H      4.742601   -1.018407    0.196268
  H      0.325225   -2.007770    0.159388
  H      0.746329   -2.251736   -1.554720
  H     -0.608172    3.221242    1.446392
  H      0.757210    2.277939    2.114205
  H      0.969635    4.261876   -0.214833
  H      1.478491    4.592870    1.449569
  H      2.310387    3.352010    0.504384
  H     -3.522883    3.353154   -0.116004
  H     -4.359253    1.865086   -0.656057
  H     -2.822781    2.350043   -1.425909
  H     -4.750333   -2.188978   -0.185367
  H     -3.174436   -2.499984    0.599925
  H     -3.252546   -2.228320   -1.165223

 Total Charge           Charge          ....    0
 Multiplicity           Mult            ....    1
 Number of Electrons    NEL             ....  174
 Basis Dimension        Dim             ....  510

ORBITAL ENERGIES
----------------

  NO   OCC          E(Eh)            E(eV)
   0   2.0000     -88.579470     -2410.3699
   1   2.0000     -88.521338     -2408.7881
   2   2.0000     -76.918116     -2093.0483
   3   2.0000     -19.005174      -517.1571
   4   2.0000     -18.998590      -516.9779
   5   2.0000     -18.995491      -516.8936
   6   2.0000     -18.990171      -516.7488
   7   2.0000     -18.939165      -515.3609
   8   2.0000     -18.917927      -514.7830
   9   2.0000     -10.167288      -276.6660
  10   2.0000     -10.147917      -276.1389
  11   2.0000     -10.102131      -274.8929
  12   2.0000     -10.101061      -274.8638
  13   2.0000     -10.095076      -274.7010
  14   2.0000     -10.092412      -274.6285
  15   2.0000     -10.085727      -274.4466
  16   2.0000     -10.049634      -273.4644
  17   2.0000     -10.032100      -272.9873
  18   2.0000     -10.023190      -272.7449
  19   2.0000      -7.873915      -214.2601
  20   2.0000      -7.815807      -212.6789
  21   2.0000      -6.596267      -179.4936
  22   2.0000      -5.820880      -158.3942
  23   2.0000      -5.817606      -158.3051
  24   2.0000      -5.811072      -158.1273
  25   2.0000      -5.763775      -156.8403
  26   2.0000      -5.755934      -156.6269
  27   2.0000      -5.755704      -156.6207
  28   2.0000      -4.742032      -129.0373
  29   2.0000      -4.741350      -129.0187
  30   2.0000      -4.739687      -128.9734
  31   2.0000      -1.084354       -29.5068
  32   2.0000      -1.065611       -28.9967
  33   2.0000      -1.055228       -28.7142
  34   2.0000      -1.013141       -27.5690
  35   2.0000      -0.989576       -26.9277
  36   2.0000      -0.968443       -26.3527
  37   2.0000      -0.812860       -22.1191
  38   2.0000      -0.750814       -20.4307
  39   2.0000      -0.742362       -20.2007
  40   2.0000      -0.730765       -19.8851
  41   2.0000      -0.696687       -18.9578
  42   2.0000      -0.680520       -18.5179
  43   2.0000      -0.662739       -18.0340
  44   2.0000      -0.651423       -17.7261
  45   2.0000      -0.623571       -16.9682
  46   2.0000      -0.601644       -16.3716
  47   2.0000      -0.545571       -14.8457
  48   2.0000      -0.529078       -14.3969
  49   2.0000      -0.520483       -14.1631
  50   2.0000      -0.505046       -13.7430
  51   2.0000      -0.498898       -13.5757
  52   2.0000      -0.476731       -12.9725
  53   2.0000      -0.460603       -12.5336
  54   2.0000      -0.458749       -12.4832
  55   2.0000      -0.449934       -12.2433
  56   2.0000      -0.448613       -12.2074
  57   2.0000      -0.437829       -11.9139
  58   2.0000      -0.435687       -11.8556
  59   2.0000      -0.430119       -11.7041
  60   2.0000      -0.423299       -11.5185
  61   2.0000      -0.416178       -11.3248
  62   2.0000      -0.410907       -11.1813
  63   2.0000      -0.401208       -10.9174
  64   2.0000      -0.390029       -10.6132
  65   2.0000      -0.383689       -10.4407
  66   2.0000      -0.371316       -10.1040
  67   2.0000      -0.364393        -9.9156
  68   2.0000      -0.361614        -9.8400
  69   2.0000      -0.352155        -9.5826
  70   2.0000      -0.346024        -9.4158
  71   2.0000      -0.345152        -9.3921
  72   2.0000      -0.332126        -9.0376
  73   2.0000      -0.329861        -8.9760
  74   2.0000      -0.326766        -8.8918
  75   2.0000      -0.320192        -8.7129
  76   2.0000      -0.313480        -8.5302
  77   2.0000      -0.303826        -8.2675
  78   2.0000      -0.292894        -7.9701
  79   2.0000      -0.283114        -7.7039
  80   2.0000      -0.279707        -7.6112
  81   2.0000      -0.263593        -7.1727
  82   2.0000      -0.257705        -7.0125
  83   2.0000      -0.237197        -6.4545
  84   2.0000      -0.224975        -6.1219
  85   2.0000      -0.218591        -5.9482
  86   2.0000      -0.215485        -5.8637
  87   0.0000      -0.044790        -1.2188
  88   0.0000      -0.031054        -0.8450
  89   0.0000      -0.002550        -0.0694
  90   0.0000       0.003403         0.0926
  91   0.0000       0.010204         0.2777

MULLIKEN ATOMIC CHARGES
-----------------------
   0 C :   -0.472708
   1 C :   -0.137485
   2 O :   -0.148482
   3 C :    0.365447
   4 O :   -0.385198
   5 C :   -0.501075
   6 C :    0.060802
   7 H :    0.205681
   8 C :    0.259153
   9 O :   -0.375900
  10 O :   -0.142642
  11 C :   -0.159230
  12 C :   -0.470704
  13 S :   -0.189468
  14 P :    0.756014
  15 S :   -0.409304
  16 O :   -0.309995
  17 C :   -0.291913
  18 O :   -0.357414
  19 C :   -0.298986
  20 H :    0.179471
  21 H :    0.147893
  22 H :    0.146381
  23 H :    0.145259
  24 H :    0.175943
  25 H :    0.218971
  26 H :    0.184792
  27 H :    0.163315
  28 H :    0.184718
  29 H :    0.151343
  30 H :    0.151438
  31 H :    0.169725
  32 H :    0.155661
  33 H :    0.170116
  34 H :    0.170470
  35 H :    0.153121
  36 H :    0.176572
  37 H :    0.158222
Sum of atomic charges:    0.0000000

LOEWDIN ATOMIC CHARGES
----------------------
   0 C :   -0.392015
   1 C :    0.030659
   2 O :   -0.602939
   3 C :    0.356288
   4 O :   -0.409997
   5 C :   -0.211112
   6 C :   -0.198446
   7 H :    0.212915
   8 C :    0.346571
   9 O :   -0.400615
  10 O :   -0.627145
  11 C :    0.032157
  12 C :   -0.387299
  13 S :    0.194606
  14 P :    0.401554
  15 S :   -0.048425
  16 O :   -0.652227
  17 C :   -0.051736
  18 O :   -0.684432
  19 C :   -0.059264
  20 H :    0.167868
  21 H :    0.155281
  22 H :    0.158559
  23 H :    0.176688
  24 H :    0.191614
  25 H :    0.200738
  26 H :    0.184251
  27 H :    0.184978
  28 H :    0.196258
  29 H :    0.156763
  30 H :    0.160700
  31 H :    0.164533
  32 H :    0.179463
  33 H :    0.174974
  34 H :    0.174059
  35 H :    0.177917
  36 H :    0.177282
  37 H :    0.168977

  Mayer bond orders larger than 0.100000
B(  0-C ,  1-C ) :   0.9271 B(  0-C , 20-H ) :   0.9719 B(  0-C , 21-H ) :   0.9736
B(  0-C , 22-H ) :   0.9658 B(  1-C ,  2-O ) :   0.8154 B(  1-C , 23-H ) :   0.9638
B(  1-C , 24-H ) :   0.9729 B(  2-O ,  3-C ) :   1.0691 B(  2-O ,  6-C ) :   0.1198
B(  3-C ,  4-O ) :   1.9117 B(  3-C ,  5-C ) :   0.8636 B(  5-C ,  6-C ) :   0.8539
B(  5-C , 25-H ) :   0.9965 B(  5-C , 26-H ) :   0.9504 B(  6-C ,  7-H ) :   0.8846
B(  6-C ,  8-C ) :   0.9883 B(  6-C , 13-S ) :   0.8305 B(  8-C ,  9-O ) :   1.7855
B(  8-C , 10-O ) :   1.0962 B( 10-O , 11-C ) :   0.7894 B( 11-C , 12-C ) :   0.9233
B( 11-C , 27-H ) :   0.9565 B( 11-C , 28-H ) :   0.9641 B( 12-C , 29-H ) :   0.9765
B( 12-C , 30-H ) :   0.9658 B( 12-C , 31-H ) :   0.9730 B( 13-S , 14-P ) :   1.0172
B( 14-P , 15-S ) :   1.7927 B( 14-P , 16-O ) :   1.1401 B( 14-P , 18-O ) :   1.0218
B( 16-O , 17-C ) :   0.7980 B( 17-C , 32-H ) :   0.9649 B( 17-C , 33-H ) :   0.9607
B( 17-C , 34-H ) :   0.9556 B( 18-O , 19-C ) :   0.8316 B( 19-C , 35-H ) :   0.9673
B( 19-C , 36-H ) :   0.9587 B( 19-C , 37-H ) :   0.9562

Dispersion correction           -0.017742613
FINAL SINGLE POINT ENERGY     -1981.452326628944

DIPOLE MOMENT
-------------

Method             : SCF
Type of density    : Electron Density
Multiplicity       :   1
Irrep              :   0
Energy             : -1981.4720124854370624 Eh
Relativity type    :
Basis              : AO
                                X                 Y                 Z
Electronic contribution:    -13.180451116      -3.568043906       4.988162327
Nuclear contribution   :     12.428198791       4.778195673      -6.783657601
                        -----------------------------------------
Total Dipole Moment    :     -0.752252325       1.210151768      -1.795495275
                        -----------------------------------------
Magnitude (a.u.)       :      2.292194177
Magnitude (Debye)      :      5.826294574

Rotational constants in cm-1:             0.015321             0.006521             0.005487
Rotational constants in MHz :           459.317900           195.494127           164.486241

                             ****ORCA TERMINATED NORMALLY****
TOTAL RUN TIME: 0 days 0 hours 1 minutes 38 seconds 412 msec
