                         Program Version 6.0.1  -  RELEASE   -
|  1> ! r2scan-3c def2/J RI DEFGRID2 scfconv6 printgap
|  2> %output
|  3>     printlevel normal
|  4> end
|  5> %cpcm
|  6>     smd true
|  7>     smdsolvent "water"
|  8> end
|  9> * xyz 0 1
| 10> C 5.2256357361 -2.3168927915 -1.4709827011
| 11> C 4.5765056155 -1.0737165502 -0.8834283143
| 12> O 3.1568188606 -1.0620557982 -1.1232741261
| 13> C 2.3805291902 -1.7333778813 -0.2874364259
| 14> O 2.7829241885 -2.3941845507 0.6417041943
| 15> C 0.9162713039 -1.6273581642 -0.6762337297
| 16> C 0.5464750578 -0.1844985072 -0.9993059319
| 17> H 1.1275623476 0.1569893329 -1.8633201436
| 18> C 0.8923385465 0.7395087449 0.1535521451
| 19> O 1.8429446372 0.5400913793 0.8742206338
| 20> O 0.0939343646 1.7865762054 0.2218287841
| 21> C 0.3663338815 2.7841839939 1.2266019764
| 22> C 1.3475620734 3.8178676014 0.7018293055
| 23> S -1.1866658036 -0.0141358994 -1.525812386
| 24> P -2.187126525 0.147397463 0.3423291206
| 25> S -1.2961813962 -0.566761745 1.9390549837
| 26> O -2.6603047016 1.6420821069 0.526650731
| 27> C -3.3952173572 2.3440165079 -0.4985868042
| 28> O -3.587620159 -0.5516971887 0.0068082665
| 29> C -3.6868303101 -1.9648082967 -0.2011067434
| 30> H 4.8522521254 -3.2049138134 -0.9664212391
| 31> H 5.0031722595 -2.3892943399 -2.5319520816
| 32> H 6.3000348303 -2.2584422074 -1.3320861921
| 33> H 4.9394416445 -0.1671958207 -1.3683015361
| 34> H 4.7426012761 -1.0184065417 0.1962682645
| 35> H 0.3252246258 -2.0077697426 0.1593876458
| 36> H 0.7463292498 -2.2517357222 -1.5547200131
| 37> H -0.6081722436 3.221242088 1.446391601
| 38> H 0.757210325 2.2779389649 2.1142051866
| 39> H 0.9696348165 4.2618761356 -0.2148327278
| 40> H 1.4784906269 4.5928697851 1.4495689906
| 41> H 2.310386743 3.3520101299 0.5043837174
| 42> H -3.522882844 3.3531536384 -0.1160035708
| 43> H -4.3592534707 1.8650859365 -0.6560565225
| 44> H -2.8227814257 2.3500428171 -1.4259089459
| 45> H -4.7503325085 -2.1889777094 -0.185367492
| 46> H -3.1744362115 -2.4999843079 0.5999251261
| 47> H -3.252546474 -2.22831955 -1.1652225012
| 48> *
| 49>
| 50>                          ****END OF INPUT****

CARTESIAN COORDINATES (ANGSTROEM)
---------------------------------
  C      5.225636   -2.316893   -1.470983
  C      4.576506   -1.073717   -0.883428
  O      3.156819   -1.062056   -1.123274
  C      2.380529   -1.733378   -0.287436
  O      2.782924   -2.394185    0.641704
  C      0.916271   -1.627358   -0.676234
  C      0.546475   -0.184499   -0.999306
  H      1.127562    0.156989   -1.863320
  C      0.892339    0.739509    0.153552
  O      1.842945    0.540091    0.874221
  O      0.093934    1.786576    0.221829
  C      0.366334    2.784184    1.226602
  C      1.347562    3.817868    0.701829
  S     -1.186666   -0.014136   -1.525812
  P     -2.187127    0.147397    0.342329
  S     -1.296181   -0.566762    1.939055
  O     -2.660305    1.642082    0.526651
  C     -3.395217    2.344017   -0.498587
  O     -3.587620   -0.551697    0.006808
  C     -3.686830   -1.964808   -0.201107
  H      4.852252   -3.204914   -0.966421
  H      5.003172   -2.389294   -2.531952
  H      6.300035   -2.258442   -1.332086
  H      4.939442   -0.167196   -1.368302
  H      4.742601   -1.018407    0.196268
  H      0.325225   -2.007770    0.159388
  H      0.746329   -2.251736   -1.554720
  H     -0.608172    3.221242    1.446392
  H      0.757210    2.277939    2.114205
  H      0.969635    4.261876   -0.214833
  H      1.478491    4.592870    1.449569
  H      2.310387    3.352010    0.504384
  H     -3.522883    3.353154   -0.116004
  H     -4.359253    1.865086   -0.656057
  H     -2.822781    2.350043   -1.425909
  H     -4.750333   -2.188978   -0.185367
  H     -3.174436   -2.499984    0.599925
  H     -3.252546   -2.228320   -1.165223

 Total Charge           Charge          ....    0
 Multiplicity           Mult            ....    1
 Number of Electrons    NEL             ....  174
 Basis Dimension        Dim             ....  510

ORBITAL ENERGIES
----------------

  NO   OCC          E(Eh)            E(eV)
   0   2.0000     -88.581502     -2410.4252
   1   2.0000     -88.531839     -2409.0738
   2   2.0000     -76.923138     -2093.1850
   3   2.0000     -19.011687      -517.3343
   4   2.0000     -19.003073      -517.0999
   5   2.0000     -18.998565      -516.9772
   6   2.0000     -18.995921      -516.9053
   7   2.0000     -18.955116      -515.7949
   8   2.0000     -18.944787      -515.5139
   9   2.0000     -10.179704      -277.0038
  10   2.0000     -10.168751      -276.7058
  11   2.0000     -10.101532      -274.8767
  12   2.0000     -10.087313      -274.4897
  13   2.0000     -10.085286      -274.4346
  14   2.0000     -10.084742      -274.4198
  15   2.0000     -10.082441      -274.3572
  16   2.0000     -10.053069      -273.5579
  17   2.0000     -10.020210      -272.6638
  18   2.0000     -10.018258      -272.6107
  19   2.0000      -7.875810      -214.3117
  20   2.0000      -7.826762      -212.9770
  21   2.0000      -6.601351      -179.6319
  22   2.0000      -5.822865      -158.4482
  23   2.0000      -5.819564      -158.3584
  24   2.0000      -5.812830      -158.1752
  25   2.0000      -5.774568      -157.1340
  26   2.0000      -5.766970      -156.9272
  27   2.0000      -5.766654      -156.9186
  28   2.0000      -4.747042      -129.1736
  29   2.0000      -4.746380      -129.1556
  30   2.0000      -4.744945      -129.1165
  31   2.0000      -1.093030       -29.7429
  32   2.0000      -1.081480       -29.4286
  33   2.0000      -1.055210       -28.7137
  34   2.0000      -1.012389       -27.5485
  35   2.0000      -1.003511       -27.3069
  36   2.0000      -0.992632       -27.0109
  37   2.0000      -0.815437       -22.1892
  38   2.0000      -0.751859       -20.4591
  39   2.0000      -0.739514       -20.1232
  40   2.0000      -0.729270       -19.8445
  41   2.0000      -0.696834       -18.9618
  42   2.0000      -0.671614       -18.2755
  43   2.0000      -0.662396       -18.0247
  44   2.0000      -0.652126       -17.7452
  45   2.0000      -0.624544       -16.9947
  46   2.0000      -0.601657       -16.3719
  47   2.0000      -0.543168       -14.7804
  48   2.0000      -0.528504       -14.3813
  49   2.0000      -0.525125       -14.2894
  50   2.0000      -0.507488       -13.8095
  51   2.0000      -0.493866       -13.4388
  52   2.0000      -0.483446       -13.1552
  53   2.0000      -0.467745       -12.7280
  54   2.0000      -0.462384       -12.5821
  55   2.0000      -0.455036       -12.3822
  56   2.0000      -0.449029       -12.2187
  57   2.0000      -0.446038       -12.1373
  58   2.0000      -0.439232       -11.9521
  59   2.0000      -0.428603       -11.6629
  60   2.0000      -0.420097       -11.4314
  61   2.0000      -0.412571       -11.2266
  62   2.0000      -0.409344       -11.1388
  63   2.0000      -0.405434       -11.0324
  64   2.0000      -0.389520       -10.5994
  65   2.0000      -0.383279       -10.4296
  66   2.0000      -0.369277       -10.0485
  67   2.0000      -0.365898        -9.9566
  68   2.0000      -0.362216        -9.8564
  69   2.0000      -0.351525        -9.5655
  70   2.0000      -0.348713        -9.4890
  71   2.0000      -0.345222        -9.3940
  72   2.0000      -0.336084        -9.1453
  73   2.0000      -0.333623        -9.0783
  74   2.0000      -0.323112        -8.7923
  75   2.0000      -0.319343        -8.6898
  76   2.0000      -0.310210        -8.4413
  77   2.0000      -0.306997        -8.3538
  78   2.0000      -0.293330        -7.9819
  79   2.0000      -0.285495        -7.7687
  80   2.0000      -0.284379        -7.7383
  81   2.0000      -0.278287        -7.5726
  82   2.0000      -0.267999        -7.2926
  83   2.0000      -0.255843        -6.9618
  84   2.0000      -0.240345        -6.5401
  85   2.0000      -0.230516        -6.2726
  86   2.0000      -0.226243        -6.1564
  87   0.0000      -0.050547        -1.3754
  88   0.0000      -0.039504        -1.0749
  89   0.0000      -0.018658        -0.5077
  90   0.0000       0.000847         0.0231
  91   0.0000       0.006768         0.1842

MULLIKEN ATOMIC CHARGES
-----------------------
   0 C :   -0.495389
   1 C :   -0.135840
   2 O :   -0.165670
   3 C :    0.385065
   4 O :   -0.474522
   5 C :   -0.516189
   6 C :    0.075871
   7 H :    0.249742
   8 C :    0.273438
   9 O :   -0.444094
  10 O :   -0.151461
  11 C :   -0.154212
  12 C :   -0.499574
  13 S :   -0.178842
  14 P :    0.786797
  15 S :   -0.483537
  16 O :   -0.344018
  17 C :   -0.297879
  18 O :   -0.383468
  19 C :   -0.307857
  20 H :    0.170915
  21 H :    0.166491
  22 H :    0.171182
  23 H :    0.175785
  24 H :    0.173313
  25 H :    0.217028
  26 H :    0.225392
  27 H :    0.183357
  28 H :    0.180582
  29 H :    0.168860
  30 H :    0.173918
  31 H :    0.170325
  32 H :    0.184075
  33 H :    0.185945
  34 H :    0.180777
  35 H :    0.180611
  36 H :    0.177301
  37 H :    0.175780
Sum of atomic charges:    0.0000000

LOEWDIN ATOMIC CHARGES
----------------------
   0 C :   -0.392723
   1 C :    0.034980
   2 O :   -0.598167
   3 C :    0.361469
   4 O :   -0.477758
   5 C :   -0.207425
   6 C :   -0.193268
   7 H :    0.230269
   8 C :    0.353214
   9 O :   -0.452500
  10 O :   -0.625456
  11 C :    0.035405
  12 C :   -0.387287
  13 S :    0.216205
  14 P :    0.406481
  15 S :   -0.101932
  16 O :   -0.669089
  17 C :   -0.042381
  18 O :   -0.692617
  19 C :   -0.053953
  20 H :    0.163508
  21 H :    0.162424
  22 H :    0.167985
  23 H :    0.189954
  24 H :    0.190168
  25 H :    0.197617
  26 H :    0.203052
  27 H :    0.193368
  28 H :    0.193954
  29 H :    0.163707
  30 H :    0.169241
  31 H :    0.163882
  32 H :    0.191745
  33 H :    0.182259
  34 H :    0.179813
  35 H :    0.189464
  36 H :    0.177802
  37 H :    0.176589

  Mayer bond orders larger than 0.100000
B(  0-C ,  1-C ) :   0.9317 B(  0-C , 20-H ) :   0.9693 B(  0-C , 21-H ) :   0.9695
B(  0-C , 22-H ) :   0.9601 B(  1-C ,  2-O ) :   0.7948 B(  1-C , 23-H ) :   0.9521
B(  1-C , 24-H ) :   0.9638 B(  2-O ,  3-C ) :   1.0906 B(  2-O ,  6-C ) :   0.1030
B(  3-C ,  4-O ) :   1.8415 B(  3-C ,  5-C ) :   0.8797 B(  5-C ,  6-C ) :   0.8234
B(  5-C , 25-H ) :   1.0034 B(  5-C , 26-H ) :   0.9215 B(  6-C ,  7-H ) :   0.8750
B(  6-C ,  8-C ) :   0.9901 B(  6-C , 13-S ) :   0.8167 B(  8-C ,  9-O ) :   1.7391
B(  8-C , 10-O ) :   1.1169 B( 10-O , 11-C ) :   0.7698 B( 11-C , 12-C ) :   0.9317
B( 11-C , 27-H ) :   0.9470 B( 11-C , 28-H ) :   0.9558 B( 12-C , 29-H ) :   0.9721
B( 12-C , 30-H ) :   0.9598 B( 12-C , 31-H ) :   0.9695 B( 13-S , 14-P ) :   1.0353
B( 14-P , 15-S ) :   1.7478 B( 14-P , 16-O ) :   1.1497 B( 14-P , 18-O ) :   1.0331
B( 16-O , 17-C ) :   0.7888 B( 17-C , 32-H ) :   0.9539 B( 17-C , 33-H ) :   0.9521
B( 17-C , 34-H ) :   0.9473 B( 18-O , 19-C ) :   0.8240 B( 19-C , 35-H ) :   0.9573
B( 19-C , 36-H ) :   0.9549 B( 19-C , 37-H ) :   0.9496

Dispersion correction           -0.017742613
FINAL SINGLE POINT ENERGY     -1981.469362635577

DIPOLE MOMENT
-------------

Method             : SCF
Type of density    : Electron Density
Multiplicity       :   1
Irrep              :   0
Energy             : -1981.4890484920701965 Eh
Relativity type    :
Basis              : AO
                                X                 Y                 Z
Electronic contribution:    -13.528688287      -3.092339002       3.789485940
Nuclear contribution   :     12.428198791       4.778195673      -6.783657601
                        -----------------------------------------
Total Dipole Moment    :     -1.100489496       1.685856671      -2.994171661
                        -----------------------------------------
Magnitude (a.u.)       :      3.608081732
Magnitude (Debye)      :      9.171014930

Rotational constants in cm-1:             0.015321             0.006521             0.005487
Rotational constants in MHz :           459.317900           195.494127           164.486241

                             ****ORCA TERMINATED NORMALLY****
TOTAL RUN TIME: 0 days 0 hours 2 minutes 2 seconds 276 msec
