                         Program Version 6.0.0  -   RELEASE  -
|  1> ! r2scan-3c def2/J RI DEFGRID2 scfconv6 printgap
|  2> %output
|  3>     printlevel normal
|  4> end
|  5> * xyz 0 1
|  6> C 5.3405594421 -0.8298020276 -1.6094627819
|  7> C 4.0952289287 -1.6366887072 -1.2979940224
|  8> O 3.4825285091 -1.2143516971 -0.0639791597
|  9> P 2.4491177213 -0.014769995 0.0466727576
| 10> S 3.097911718 1.7725266064 -0.4205688548
| 11> O 2.0327714605 -0.0510306422 1.5619934338
| 12> C 1.2461679926 -1.0542502052 2.2493899291
| 13> C 1.8089127649 -2.4523284442 2.1091427201
| 14> S 0.7943789688 -0.7005213174 -1.1201258174
| 15> C 0.0280923828 0.9182569411 -1.3346534335
| 16> S -0.7217956624 1.5475797281 0.1943050964
| 17> P -2.4647228855 0.3648439657 0.0772310203
| 18> S -3.2934731997 0.159270824 -1.6921464408
| 19> O -3.4341480243 0.9312300269 1.2028115329
| 20> C -4.3990811348 1.9651090625 0.9402086897
| 21> C -3.7392898809 3.2952870549 0.6396145905
| 22> O -1.9428967919 -0.9680552262 0.7537313283
| 23> C -2.6369868711 -2.2322945001 0.6118157655
| 24> C -1.611779489 -3.331999933 0.4264846366
| 25> H 5.0862038181 0.2151105373 -1.7726079106
| 26> H 6.0416045415 -0.8897405769 -0.7814473843
| 27> H 5.8080764709 -1.2252307771 -2.5054762832
| 28> H 4.3397737775 -2.6869062332 -1.1269316377
| 29> H 3.3628768618 -1.558662109 -2.1061556999
| 30> H 1.2698426982 -0.7128898526 3.2857334676
| 31> H 0.2212185643 -1.001045987 1.8713887535
| 32> H 2.8626073462 -2.4590816173 2.3758088598
| 33> H 1.2690745488 -3.1182667744 2.7759988114
| 34> H 1.7011010115 -2.8062428302 1.0862472206
| 35> H -0.7415391807 0.8156059862 -2.1004631934
| 36> H 0.7928712869 1.6393067452 -1.6267107292
| 37> H -5.0245016064 1.6474898667 0.0997671856
| 38> H -4.9943833027 2.0062871659 1.8532060286
| 39> H -3.0384937029 3.5574736213 1.4285467381
| 40> H -3.1972776682 3.2379844254 -0.3038456228
| 41> H -4.4996910069 4.0656719398 0.561491777
| 42> H -3.2275391101 -2.3775676169 1.5184141882
| 43> H -3.3069215764 -2.1679641654 -0.2521565832
| 44> H -0.9644204836 -3.3925584552 1.295811207
| 45> H -2.1287950855 -4.2772014749 0.2967197712
| 46> H -1.0059398949 -3.1312872652 -0.4539280545
| 47> *
| 48>
| 49>                          ****END OF INPUT****

CARTESIAN COORDINATES (ANGSTROEM)
---------------------------------
  C      5.340559   -0.829802   -1.609463
  C      4.095229   -1.636689   -1.297994
  O      3.482529   -1.214352   -0.063979
  P      2.449118   -0.014770    0.046673
  S      3.097912    1.772527   -0.420569
  O      2.032771   -0.051031    1.561993
  C      1.246168   -1.054250    2.249390
  C      1.808913   -2.452328    2.109143
  S      0.794379   -0.700521   -1.120126
  C      0.028092    0.918257   -1.334653
  S     -0.721796    1.547580    0.194305
  P     -2.464723    0.364844    0.077231
  S     -3.293473    0.159271   -1.692146
  O     -3.434148    0.931230    1.202812
  C     -4.399081    1.965109    0.940209
  C     -3.739290    3.295287    0.639615
  O     -1.942897   -0.968055    0.753731
  C     -2.636987   -2.232295    0.611816
  C     -1.611779   -3.332000    0.426485
  H      5.086204    0.215111   -1.772608
  H      6.041605   -0.889741   -0.781447
  H      5.808076   -1.225231   -2.505476
  H      4.339774   -2.686906   -1.126932
  H      3.362877   -1.558662   -2.106156
  H      1.269843   -0.712890    3.285733
  H      0.221219   -1.001046    1.871389
  H      2.862607   -2.459082    2.375809
  H      1.269075   -3.118267    2.775999
  H      1.701101   -2.806243    1.086247
  H     -0.741539    0.815606   -2.100463
  H      0.792871    1.639307   -1.626711
  H     -5.024502    1.647490    0.099767
  H     -4.994383    2.006287    1.853206
  H     -3.038494    3.557474    1.428547
  H     -3.197278    3.237984   -0.303846
  H     -4.499691    4.065672    0.561492
  H     -3.227539   -2.377568    1.518414
  H     -3.306922   -2.167964   -0.252157
  H     -0.964420   -3.392558    1.295811
  H     -2.128795   -4.277201    0.296720
  H     -1.005940   -3.131287   -0.453928

 Total Charge           Charge          ....    0
 Multiplicity           Mult            ....    1
 Number of Electrons    NEL             ....  202
 Basis Dimension        Dim             ....  539

ORBITAL ENERGIES
----------------

  NO   OCC          E(Eh)            E(eV)
   0   2.0000     -88.578216     -2410.3358
   1   2.0000     -88.576193     -2410.2807
   2   2.0000     -88.524487     -2408.8738
   3   2.0000     -88.515938     -2408.6411
   4   2.0000     -76.917073     -2093.0200
   5   2.0000     -76.914330     -2092.9453
   6   2.0000     -18.996698      -516.9264
   7   2.0000     -18.994693      -516.8719
   8   2.0000     -18.994473      -516.8659
   9   2.0000     -18.989264      -516.7241
  10   2.0000     -10.103207      -274.9222
  11   2.0000     -10.102975      -274.9159
  12   2.0000     -10.101978      -274.8888
  13   2.0000     -10.100795      -274.8566
  14   2.0000     -10.098387      -274.7911
  15   2.0000     -10.035608      -273.0828
  16   2.0000     -10.033678      -273.0303
  17   2.0000     -10.030039      -272.9312
  18   2.0000     -10.025026      -272.7948
  19   2.0000      -7.872317      -214.2166
  20   2.0000      -7.870558      -214.1688
  21   2.0000      -7.819301      -212.7740
  22   2.0000      -7.810854      -212.5441
  23   2.0000      -6.595791      -179.4806
  24   2.0000      -6.592458      -179.3899
  25   2.0000      -5.819221      -158.3490
  26   2.0000      -5.817271      -158.2960
  27   2.0000      -5.816211      -158.2672
  28   2.0000      -5.814330      -158.2160
  29   2.0000      -5.809405      -158.0820
  30   2.0000      -5.807923      -158.0416
  31   2.0000      -5.766820      -156.9232
  32   2.0000      -5.759604      -156.7268
  33   2.0000      -5.759395      -156.7211
  34   2.0000      -5.758564      -156.6985
  35   2.0000      -5.751101      -156.4954
  36   2.0000      -5.750803      -156.4873
  37   2.0000      -4.741304      -129.0174
  38   2.0000      -4.740638      -128.9993
  39   2.0000      -4.739535      -128.9693
  40   2.0000      -4.738080      -128.9297
  41   2.0000      -4.737763      -128.9211
  42   2.0000      -4.735781      -128.8671
  43   2.0000      -1.053683       -28.6722
  44   2.0000      -1.050333       -28.5810
  45   2.0000      -1.014656       -27.6102
  46   2.0000      -1.010585       -27.4994
  47   2.0000      -0.803679       -21.8692
  48   2.0000      -0.761661       -20.7258
  49   2.0000      -0.752966       -20.4892
  50   2.0000      -0.735220       -20.0063
  51   2.0000      -0.734349       -19.9827
  52   2.0000      -0.713887       -19.4259
  53   2.0000      -0.686303       -18.6753
  54   2.0000      -0.670070       -18.2335
  55   2.0000      -0.633195       -17.2301
  56   2.0000      -0.623236       -16.9591
  57   2.0000      -0.609532       -16.5862
  58   2.0000      -0.608126       -16.5480
  59   2.0000      -0.592971       -16.1356
  60   2.0000      -0.533326       -14.5125
  61   2.0000      -0.521699       -14.1961
  62   2.0000      -0.496624       -13.5138
  63   2.0000      -0.493744       -13.4354
  64   2.0000      -0.476613       -12.9693
  65   2.0000      -0.464152       -12.6302
  66   2.0000      -0.462163       -12.5761
  67   2.0000      -0.457134       -12.4392
  68   2.0000      -0.450248       -12.2519
  69   2.0000      -0.436332       -11.8732
  70   2.0000      -0.419744       -11.4218
  71   2.0000      -0.417686       -11.3658
  72   2.0000      -0.413230       -11.2446
  73   2.0000      -0.412469       -11.2238
  74   2.0000      -0.403999       -10.9934
  75   2.0000      -0.392061       -10.6685
  76   2.0000      -0.378668       -10.3041
  77   2.0000      -0.374831       -10.1997
  78   2.0000      -0.370174       -10.0729
  79   2.0000      -0.369722       -10.0606
  80   2.0000      -0.366434        -9.9712
  81   2.0000      -0.360818        -9.8183
  82   2.0000      -0.359177        -9.7737
  83   2.0000      -0.355362        -9.6699
  84   2.0000      -0.348382        -9.4799
  85   2.0000      -0.337977        -9.1968
  86   2.0000      -0.327139        -8.9019
  87   2.0000      -0.313459        -8.5297
  88   2.0000      -0.310396        -8.4463
  89   2.0000      -0.306543        -8.3414
  90   2.0000      -0.303674        -8.2634
  91   2.0000      -0.296889        -8.0788
  92   2.0000      -0.286087        -7.7848
  93   2.0000      -0.281846        -7.6694
  94   2.0000      -0.275871        -7.5068
  95   2.0000      -0.250014        -6.8032
  96   2.0000      -0.234373        -6.3776
  97   2.0000      -0.226668        -6.1680
  98   2.0000      -0.219166        -5.9638
  99   2.0000      -0.213683        -5.8146
 100   2.0000      -0.210759        -5.7350
 101   0.0000      -0.046746        -1.2720
 102   0.0000      -0.027904        -0.7593
 103   0.0000      -0.005059        -0.1377
 104   0.0000      -0.000686        -0.0187
 105   0.0000       0.014693         0.3998

MULLIKEN ATOMIC CHARGES
-----------------------
   0 C :   -0.432682
   1 C :   -0.159374
   2 O :   -0.278949
   3 P :    0.678824
   4 S :   -0.458818
   5 O :   -0.253199
   6 C :   -0.160347
   7 C :   -0.447815
   8 S :   -0.186452
   9 C :   -0.240682
  10 S :   -0.096548
  11 P :    0.687226
  12 S :   -0.492926
  13 O :   -0.313827
  14 C :   -0.147330
  15 C :   -0.455671
  16 O :   -0.268476
  17 C :   -0.128060
  18 C :   -0.466790
  19 H :    0.179877
  20 H :    0.151796
  21 H :    0.143554
  22 H :    0.149381
  23 H :    0.153752
  24 H :    0.152554
  25 H :    0.187873
  26 H :    0.161004
  27 H :    0.148801
  28 H :    0.161882
  29 H :    0.213502
  30 H :    0.222394
  31 H :    0.171947
  32 H :    0.148071
  33 H :    0.158059
  34 H :    0.178092
  35 H :    0.148756
  36 H :    0.150437
  37 H :    0.170705
  38 H :    0.150179
  39 H :    0.147151
  40 H :    0.172127
Sum of atomic charges:    0.0000000

LOEWDIN ATOMIC CHARGES
----------------------
   0 C :   -0.401429
   1 C :    0.022971
   2 O :   -0.669767
   3 P :    0.383320
   4 S :   -0.109009
   5 O :   -0.649275
   6 C :    0.022946
   7 C :   -0.405249
   8 S :    0.132941
   9 C :   -0.424126
  10 S :    0.186954
  11 P :    0.374368
  12 S :   -0.142768
  13 O :   -0.657209
  14 C :    0.020518
  15 C :   -0.405816
  16 O :   -0.689751
  17 C :    0.023224
  18 C :   -0.392413
  19 H :    0.169940
  20 H :    0.160168
  21 H :    0.157459
  22 H :    0.178587
  23 H :    0.175175
  24 H :    0.183021
  25 H :    0.194143
  26 H :    0.165752
  27 H :    0.158643
  28 H :    0.161498
  29 H :    0.193258
  30 H :    0.195270
  31 H :    0.179816
  32 H :    0.179733
  33 H :    0.160956
  34 H :    0.166252
  35 H :    0.160142
  36 H :    0.172523
  37 H :    0.183272
  38 H :    0.158086
  39 H :    0.159749
  40 H :    0.166127

  Mayer bond orders larger than 0.100000
B(  0-C ,  1-C ) :   0.9593 B(  0-C , 19-H ) :   0.9521 B(  0-C , 20-H ) :   0.9729
B(  0-C , 21-H ) :   0.9647 B(  1-C ,  2-O ) :   0.7820 B(  1-C , 22-H ) :   0.9648
B(  1-C , 23-H ) :   0.9570 B(  2-O ,  3-P ) :   1.0561 B(  3-P ,  4-S ) :   1.8043
B(  3-P ,  5-O ) :   1.1895 B(  3-P ,  8-S ) :   0.9861 B(  5-O ,  6-C ) :   0.8096
B(  6-C ,  7-C ) :   0.8965 B(  6-C , 24-H ) :   0.9633 B(  6-C , 25-H ) :   0.9568
B(  7-C , 26-H ) :   0.9628 B(  7-C , 27-H ) :   0.9605 B(  7-C , 28-H ) :   0.9674
B(  8-S ,  9-C ) :   0.9153 B(  9-C , 10-S ) :   0.9124 B(  9-C , 29-H ) :   0.9010
B(  9-C , 30-H ) :   0.9003 B( 10-S , 11-P ) :   1.1069 B( 11-P , 12-S ) :   1.7389
B( 11-P , 13-O ) :   1.0703 B( 11-P , 16-O ) :   1.1451 B( 13-O , 14-C ) :   0.8144
B( 14-C , 15-C ) :   0.9227 B( 14-C , 31-H ) :   0.9663 B( 14-C , 32-H ) :   0.9581
B( 15-C , 33-H ) :   0.9686 B( 15-C , 34-H ) :   0.9608 B( 15-C , 35-H ) :   0.9583
B( 16-O , 17-C ) :   0.7681 B( 17-C , 18-C ) :   0.9561 B( 17-C , 36-H ) :   0.9494
B( 17-C , 37-H ) :   0.9538 B( 18-C , 38-H ) :   0.9670 B( 18-C , 39-H ) :   0.9635
B( 18-C , 40-H ) :   0.9683

Dispersion correction           -0.021662187
FINAL SINGLE POINT ENERGY     -2932.461490449875

DIPOLE MOMENT
-------------

Method             : SCF
Type of density    : Electron Density
Multiplicity       :   1
Irrep              :   0
Energy             : -2932.4865199154814945 Eh
Relativity type    :
Basis              : AO
                                X                 Y                 Z
Electronic contribution:     -1.170127851      12.682501103      -4.452545410
Nuclear contribution   :      0.606610075     -14.128323853       5.112749705
                        -----------------------------------------
Total Dipole Moment    :     -0.563517776      -1.445822749       0.660204295
                        -----------------------------------------
Magnitude (a.u.)       :      1.686364556
Magnitude (Debye)      :      4.286398057

Rotational constants in cm-1:             0.013077             0.004826             0.004345
Rotational constants in MHz :           392.046203           144.691368           130.247644

                             ****ORCA TERMINATED NORMALLY****
TOTAL RUN TIME: 0 days 0 hours 1 minutes 20 seconds 44 msec
