                         Program Version 6.0.0  -   RELEASE  -
|  1> ! r2scan-3c def2/J RI DEFGRID2 scfconv6 printgap
|  2> %output
|  3>     printlevel normal
|  4> end
|  5> %cpcm
|  6>     smd true
|  7>     smdsolvent "water"
|  8> end
|  9> * xyz 0 1
| 10> C 5.3405594421 -0.8298020276 -1.6094627819
| 11> C 4.0952289287 -1.6366887072 -1.2979940224
| 12> O 3.4825285091 -1.2143516971 -0.0639791597
| 13> P 2.4491177213 -0.014769995 0.0466727576
| 14> S 3.097911718 1.7725266064 -0.4205688548
| 15> O 2.0327714605 -0.0510306422 1.5619934338
| 16> C 1.2461679926 -1.0542502052 2.2493899291
| 17> C 1.8089127649 -2.4523284442 2.1091427201
| 18> S 0.7943789688 -0.7005213174 -1.1201258174
| 19> C 0.0280923828 0.9182569411 -1.3346534335
| 20> S -0.7217956624 1.5475797281 0.1943050964
| 21> P -2.4647228855 0.3648439657 0.0772310203
| 22> S -3.2934731997 0.159270824 -1.6921464408
| 23> O -3.4341480243 0.9312300269 1.2028115329
| 24> C -4.3990811348 1.9651090625 0.9402086897
| 25> C -3.7392898809 3.2952870549 0.6396145905
| 26> O -1.9428967919 -0.9680552262 0.7537313283
| 27> C -2.6369868711 -2.2322945001 0.6118157655
| 28> C -1.611779489 -3.331999933 0.4264846366
| 29> H 5.0862038181 0.2151105373 -1.7726079106
| 30> H 6.0416045415 -0.8897405769 -0.7814473843
| 31> H 5.8080764709 -1.2252307771 -2.5054762832
| 32> H 4.3397737775 -2.6869062332 -1.1269316377
| 33> H 3.3628768618 -1.558662109 -2.1061556999
| 34> H 1.2698426982 -0.7128898526 3.2857334676
| 35> H 0.2212185643 -1.001045987 1.8713887535
| 36> H 2.8626073462 -2.4590816173 2.3758088598
| 37> H 1.2690745488 -3.1182667744 2.7759988114
| 38> H 1.7011010115 -2.8062428302 1.0862472206
| 39> H -0.7415391807 0.8156059862 -2.1004631934
| 40> H 0.7928712869 1.6393067452 -1.6267107292
| 41> H -5.0245016064 1.6474898667 0.0997671856
| 42> H -4.9943833027 2.0062871659 1.8532060286
| 43> H -3.0384937029 3.5574736213 1.4285467381
| 44> H -3.1972776682 3.2379844254 -0.3038456228
| 45> H -4.4996910069 4.0656719398 0.561491777
| 46> H -3.2275391101 -2.3775676169 1.5184141882
| 47> H -3.3069215764 -2.1679641654 -0.2521565832
| 48> H -0.9644204836 -3.3925584552 1.295811207
| 49> H -2.1287950855 -4.2772014749 0.2967197712
| 50> H -1.0059398949 -3.1312872652 -0.4539280545
| 51> *
| 52>
| 53>                          ****END OF INPUT****

CARTESIAN COORDINATES (ANGSTROEM)
---------------------------------
  C      5.340559   -0.829802   -1.609463
  C      4.095229   -1.636689   -1.297994
  O      3.482529   -1.214352   -0.063979
  P      2.449118   -0.014770    0.046673
  S      3.097912    1.772527   -0.420569
  O      2.032771   -0.051031    1.561993
  C      1.246168   -1.054250    2.249390
  C      1.808913   -2.452328    2.109143
  S      0.794379   -0.700521   -1.120126
  C      0.028092    0.918257   -1.334653
  S     -0.721796    1.547580    0.194305
  P     -2.464723    0.364844    0.077231
  S     -3.293473    0.159271   -1.692146
  O     -3.434148    0.931230    1.202812
  C     -4.399081    1.965109    0.940209
  C     -3.739290    3.295287    0.639615
  O     -1.942897   -0.968055    0.753731
  C     -2.636987   -2.232295    0.611816
  C     -1.611779   -3.332000    0.426485
  H      5.086204    0.215111   -1.772608
  H      6.041605   -0.889741   -0.781447
  H      5.808076   -1.225231   -2.505476
  H      4.339774   -2.686906   -1.126932
  H      3.362877   -1.558662   -2.106156
  H      1.269843   -0.712890    3.285733
  H      0.221219   -1.001046    1.871389
  H      2.862607   -2.459082    2.375809
  H      1.269075   -3.118267    2.775999
  H      1.701101   -2.806243    1.086247
  H     -0.741539    0.815606   -2.100463
  H      0.792871    1.639307   -1.626711
  H     -5.024502    1.647490    0.099767
  H     -4.994383    2.006287    1.853206
  H     -3.038494    3.557474    1.428547
  H     -3.197278    3.237984   -0.303846
  H     -4.499691    4.065672    0.561492
  H     -3.227539   -2.377568    1.518414
  H     -3.306922   -2.167964   -0.252157
  H     -0.964420   -3.392558    1.295811
  H     -2.128795   -4.277201    0.296720
  H     -1.005940   -3.131287   -0.453928

 Total Charge           Charge          ....    0
 Multiplicity           Mult            ....    1
 Number of Electrons    NEL             ....  202
 Basis Dimension        Dim             ....  539

ORBITAL ENERGIES
----------------

  NO   OCC          E(Eh)            E(eV)
   0   2.0000     -88.581835     -2410.4343
   1   2.0000     -88.579226     -2410.3633
   2   2.0000     -88.529360     -2409.0064
   3   2.0000     -88.527544     -2408.9570
   4   2.0000     -76.921336     -2093.1360
   5   2.0000     -76.919752     -2093.0928
   6   2.0000     -18.997050      -516.9360
   7   2.0000     -18.996257      -516.9144
   8   2.0000     -18.994952      -516.8789
   9   2.0000     -18.992483      -516.8117
  10   2.0000     -10.104092      -274.9463
  11   2.0000     -10.092123      -274.6206
  12   2.0000     -10.090481      -274.5760
  13   2.0000     -10.089999      -274.5628
  14   2.0000     -10.088710      -274.5277
  15   2.0000     -10.019548      -272.6458
  16   2.0000     -10.019106      -272.6337
  17   2.0000     -10.018055      -272.6051
  18   2.0000     -10.016566      -272.5646
  19   2.0000      -7.876061      -214.3185
  20   2.0000      -7.873512      -214.2492
  21   2.0000      -7.824451      -212.9141
  22   2.0000      -7.822840      -212.8703
  23   2.0000      -6.599534      -179.5824
  24   2.0000      -6.598468      -179.5534
  25   2.0000      -5.822929      -158.4499
  26   2.0000      -5.820269      -158.3776
  27   2.0000      -5.819942      -158.3687
  28   2.0000      -5.817309      -158.2970
  29   2.0000      -5.813193      -158.1850
  30   2.0000      -5.810814      -158.1203
  31   2.0000      -5.771919      -157.0619
  32   2.0000      -5.770415      -157.0210
  33   2.0000      -5.764755      -156.8670
  34   2.0000      -5.764546      -156.8613
  35   2.0000      -5.763128      -156.8227
  36   2.0000      -5.762807      -156.8140
  37   2.0000      -4.745121      -129.1213
  38   2.0000      -4.744757      -129.1114
  39   2.0000      -4.743900      -129.0881
  40   2.0000      -4.743315      -129.0722
  41   2.0000      -4.743006      -129.0638
  42   2.0000      -4.742328      -129.0453
  43   2.0000      -1.053623       -28.6705
  44   2.0000      -1.052516       -28.6404
  45   2.0000      -1.013484       -27.5783
  46   2.0000      -1.012520       -27.5521
  47   2.0000      -0.805955       -21.9312
  48   2.0000      -0.757485       -20.6122
  49   2.0000      -0.746228       -20.3059
  50   2.0000      -0.726456       -19.7679
  51   2.0000      -0.723265       -19.6811
  52   2.0000      -0.711637       -19.3646
  53   2.0000      -0.689002       -18.7487
  54   2.0000      -0.675167       -18.3722
  55   2.0000      -0.629845       -17.1389
  56   2.0000      -0.621483       -16.9114
  57   2.0000      -0.601615       -16.3708
  58   2.0000      -0.600084       -16.3291
  59   2.0000      -0.590228       -16.0609
  60   2.0000      -0.526986       -14.3400
  61   2.0000      -0.517637       -14.0856
  62   2.0000      -0.491645       -13.3783
  63   2.0000      -0.489412       -13.3176
  64   2.0000      -0.477094       -12.9824
  65   2.0000      -0.458133       -12.4664
  66   2.0000      -0.456893       -12.4327
  67   2.0000      -0.451936       -12.2978
  68   2.0000      -0.442072       -12.0294
  69   2.0000      -0.432257       -11.7623
  70   2.0000      -0.416815       -11.3421
  71   2.0000      -0.414278       -11.2731
  72   2.0000      -0.409011       -11.1297
  73   2.0000      -0.406362       -11.0577
  74   2.0000      -0.398991       -10.8571
  75   2.0000      -0.390740       -10.6326
  76   2.0000      -0.374476       -10.1900
  77   2.0000      -0.367930       -10.0119
  78   2.0000      -0.365196        -9.9375
  79   2.0000      -0.360557        -9.8113
  80   2.0000      -0.356567        -9.7027
  81   2.0000      -0.352734        -9.5984
  82   2.0000      -0.349556        -9.5119
  83   2.0000      -0.347328        -9.4513
  84   2.0000      -0.343299        -9.3416
  85   2.0000      -0.334398        -9.0994
  86   2.0000      -0.320747        -8.7280
  87   2.0000      -0.306923        -8.3518
  88   2.0000      -0.305496        -8.3130
  89   2.0000      -0.303568        -8.2605
  90   2.0000      -0.302158        -8.2221
  91   2.0000      -0.292750        -7.9661
  92   2.0000      -0.283811        -7.7229
  93   2.0000      -0.280476        -7.6321
  94   2.0000      -0.277688        -7.5563
  95   2.0000      -0.253007        -6.8847
  96   2.0000      -0.239912        -6.5283
  97   2.0000      -0.233201        -6.3457
  98   2.0000      -0.226713        -6.1692
  99   2.0000      -0.222613        -6.0576
 100   2.0000      -0.221110        -6.0167
 101   0.0000      -0.051572        -1.4034
 102   0.0000      -0.033588        -0.9140
 103   0.0000      -0.007729        -0.2103
 104   0.0000      -0.005111        -0.1391
 105   0.0000       0.014496         0.3945

MULLIKEN ATOMIC CHARGES
-----------------------
   0 C :   -0.479062
   1 C :   -0.142216
   2 O :   -0.298400
   3 P :    0.688324
   4 S :   -0.516873
   5 O :   -0.288424
   6 C :   -0.156877
   7 C :   -0.473945
   8 S :   -0.175354
   9 C :   -0.246656
  10 S :   -0.121535
  11 P :    0.721147
  12 S :   -0.537172
  13 O :   -0.337718
  14 C :   -0.146544
  15 C :   -0.491760
  16 O :   -0.286735
  17 C :   -0.117400
  18 C :   -0.506229
  19 H :    0.168859
  20 H :    0.166863
  21 H :    0.169365
  22 H :    0.178107
  23 H :    0.164150
  24 H :    0.176754
  25 H :    0.186294
  26 H :    0.167787
  27 H :    0.176035
  28 H :    0.169482
  29 H :    0.230972
  30 H :    0.235456
  31 H :    0.177745
  32 H :    0.175315
  33 H :    0.171031
  34 H :    0.172517
  35 H :    0.173396
  36 H :    0.173434
  37 H :    0.169391
  38 H :    0.171497
  39 H :    0.168474
  40 H :    0.170505
Sum of atomic charges:    0.0000000

LOEWDIN ATOMIC CHARGES
----------------------
   0 C :   -0.406714
   1 C :    0.030734
   2 O :   -0.676805
   3 P :    0.385072
   4 S :   -0.155047
   5 O :   -0.672318
   6 C :    0.028329
   7 C :   -0.404415
   8 S :    0.145271
   9 C :   -0.420358
  10 S :    0.170985
  11 P :    0.380045
  12 S :   -0.170681
  13 O :   -0.667808
  14 C :    0.025781
  15 C :   -0.409434
  16 O :   -0.694388
  17 C :    0.029566
  18 C :   -0.395128
  19 H :    0.162765
  20 H :    0.162751
  21 H :    0.167391
  22 H :    0.191193
  23 H :    0.180033
  24 H :    0.192697
  25 H :    0.194453
  26 H :    0.166288
  27 H :    0.170177
  28 H :    0.163433
  29 H :    0.198369
  30 H :    0.198628
  31 H :    0.181668
  32 H :    0.191188
  33 H :    0.163861
  34 H :    0.161667
  35 H :    0.169004
  36 H :    0.182432
  37 H :    0.182988
  38 H :    0.164734
  39 H :    0.167698
  40 H :    0.163892

  Mayer bond orders larger than 0.100000
B(  0-C ,  1-C ) :   0.9417 B(  0-C , 19-H ) :   0.9578 B(  0-C , 20-H ) :   0.9730
B(  0-C , 21-H ) :   0.9590 B(  1-C ,  2-O ) :   0.7727 B(  1-C , 22-H ) :   0.9549
B(  1-C , 23-H ) :   0.9518 B(  2-O ,  3-P ) :   1.0684 B(  3-P ,  4-S ) :   1.7791
B(  3-P ,  5-O ) :   1.1931 B(  3-P ,  8-S ) :   1.0046 B(  5-O ,  6-C ) :   0.7986
B(  6-C ,  7-C ) :   0.8963 B(  6-C , 24-H ) :   0.9522 B(  6-C , 25-H ) :   0.9504
B(  7-C , 26-H ) :   0.9648 B(  7-C , 27-H ) :   0.9518 B(  7-C , 28-H ) :   0.9618
B(  8-S ,  9-C ) :   0.9066 B(  9-C , 10-S ) :   0.9001 B(  9-C , 29-H ) :   0.8984
B(  9-C , 30-H ) :   0.8970 B( 10-S , 11-P ) :   1.1093 B( 11-P , 12-S ) :   1.7036
B( 11-P , 13-O ) :   1.0783 B( 11-P , 16-O ) :   1.1617 B( 13-O , 14-C ) :   0.8033
B( 14-C , 15-C ) :   0.9095 B( 14-C , 31-H ) :   0.9648 B( 14-C , 32-H ) :   0.9485
B( 15-C , 33-H ) :   0.9660 B( 15-C , 34-H ) :   0.9624 B( 15-C , 35-H ) :   0.9530
B( 16-O , 17-C ) :   0.7573 B( 17-C , 18-C ) :   0.9490 B( 17-C , 36-H ) :   0.9397
B( 17-C , 37-H ) :   0.9525 B( 18-C , 38-H ) :   0.9638 B( 18-C , 39-H ) :   0.9586
B( 18-C , 40-H ) :   0.9674

Dispersion correction           -0.021662187
FINAL SINGLE POINT ENERGY     -2932.470296746974

DIPOLE MOMENT
-------------

Method             : SCF
Type of density    : Electron Density
Multiplicity       :   1
Irrep              :   0
Energy             : -2932.4953262125804940 Eh
Relativity type    :
Basis              : AO
                                X                 Y                 Z
Electronic contribution:     -1.507751310      11.955109480      -4.348223506
Nuclear contribution   :      0.606610075     -14.128323853       5.112749705
                        -----------------------------------------
Total Dipole Moment    :     -0.901141235      -2.173214373       0.764526199
                        -----------------------------------------
Magnitude (a.u.)       :      2.473745449
Magnitude (Debye)      :      6.287761234

Rotational constants in cm-1:             0.013077             0.004826             0.004345
Rotational constants in MHz :           392.046203           144.691368           130.247644

                             ****ORCA TERMINATED NORMALLY****
TOTAL RUN TIME: 0 days 0 hours 1 minutes 56 seconds 149 msec
