                         Program Version 6.0.0  -   RELEASE  -
|  1> ! pbe def2-sv(p) def2/J RI DEFGRID1 loosescf d4 GCP(DFT/SV(P)) printgap
|  2> %output
|  3>     printlevel normal
|  4> end
|  5> * xyz 0 1
|  6> C 2.754638228 1.1263304177 -2.5299778579
|  7> C 1.6392367501 1.4360280767 -1.5520926825
|  8> O 1.5135000729 0.3676448939 -0.6002671903
|  9> P 2.0420912941 0.4512280701 0.9018854605
| 10> S 3.3107844839 1.9078368225 1.2180251185
| 11> O 2.5485229478 -1.0297633196 1.1834618206
| 12> C 3.6186766699 -1.608004096 0.4012958304
| 13> C 3.0577905536 -2.5776770157 -0.6198603304
| 14> S 0.3648919448 0.4159300871 2.1549198344
| 15> C -0.4001019056 -1.1753006023 1.6423789599
| 16> S -2.1542891717 -0.9977464624 1.2772776122
| 17> P -1.9053445068 -0.3086418149 -0.7262739136
| 18> S -0.7631411214 -1.401632296 -1.8737092081
| 19> O -1.3793395937 1.1757513563 -0.5899775854
| 20> C -2.0994240278 2.2061627328 0.1339522769
| 21> C -1.1741804507 3.3949695565 0.2869009934
| 22> O -3.3922115496 -0.0786638251 -1.2382320781
| 23> C -4.1759901002 -1.1230241486 -1.8440172574
| 24> C -4.4824078403 -2.2474741083 -0.876832968
| 25> H 3.7082883443 1.0913995773 -2.0067365322
| 26> H 2.5738693002 0.1690479379 -3.0119297156
| 27> H 2.793505347 1.9062670413 -3.2833967869
| 28> H 0.6709250396 1.4925622034 -2.0522370311
| 29> H 1.8394858278 2.3698949674 -1.0185121463
| 30> H 4.1856975201 -0.8035633013 -0.0771637502
| 31> H 4.2566784395 -2.1156902885 1.1271259774
| 32> H 3.8721438643 -2.9890695925 -1.2074822607
| 33> H 2.5335823008 -3.3868213503 -0.1187523883
| 34> H 2.358439529 -2.0729596933 -1.2835564026
| 35> H -0.3127096936 -1.8682413537 2.4741192859
| 36> H 0.114344979 -1.5448412892 0.7551172516
| 37> H -2.9908787189 2.4599437724 -0.4419327558
| 38> H -2.3955606415 1.8062036148 1.1081104297
| 39> H -0.8671942991 3.7632966328 -0.6879226552
| 40> H -1.6942719806 4.1827382639 0.821913198
| 41> H -0.2867448548 3.1134129455 0.851250817
| 42> H -5.0828964619 -0.610005474 -2.1671548423
| 43> H -3.6317797557 -1.5011190555 -2.7147504089
| 44> H -3.5693538404 -2.7865537988 -0.629486762
| 45> H -4.9151909163 -1.8527149556 0.0389544557
| 46> H -5.182290404 -2.935939212 -1.3394497807
| 47> *
| 48>
| 49>                          ****END OF INPUT****

CARTESIAN COORDINATES (ANGSTROEM)
---------------------------------
  C      2.754638    1.126330   -2.529978
  C      1.639237    1.436028   -1.552093
  O      1.513500    0.367645   -0.600267
  P      2.042091    0.451228    0.901885
  S      3.310784    1.907837    1.218025
  O      2.548523   -1.029763    1.183462
  C      3.618677   -1.608004    0.401296
  C      3.057791   -2.577677   -0.619860
  S      0.364892    0.415930    2.154920
  C     -0.400102   -1.175301    1.642379
  S     -2.154289   -0.997746    1.277278
  P     -1.905345   -0.308642   -0.726274
  S     -0.763141   -1.401632   -1.873709
  O     -1.379340    1.175751   -0.589978
  C     -2.099424    2.206163    0.133952
  C     -1.174180    3.394970    0.286901
  O     -3.392212   -0.078664   -1.238232
  C     -4.175990   -1.123024   -1.844017
  C     -4.482408   -2.247474   -0.876833
  H      3.708288    1.091400   -2.006737
  H      2.573869    0.169048   -3.011930
  H      2.793505    1.906267   -3.283397
  H      0.670925    1.492562   -2.052237
  H      1.839486    2.369895   -1.018512
  H      4.185698   -0.803563   -0.077164
  H      4.256678   -2.115690    1.127126
  H      3.872144   -2.989070   -1.207482
  H      2.533582   -3.386821   -0.118752
  H      2.358440   -2.072960   -1.283556
  H     -0.312710   -1.868241    2.474119
  H      0.114345   -1.544841    0.755117
  H     -2.990879    2.459944   -0.441933
  H     -2.395561    1.806204    1.108110
  H     -0.867194    3.763297   -0.687923
  H     -1.694272    4.182738    0.821913
  H     -0.286745    3.113413    0.851251
  H     -5.082896   -0.610005   -2.167155
  H     -3.631780   -1.501119   -2.714750
  H     -3.569354   -2.786554   -0.629487
  H     -4.915191   -1.852715    0.038954
  H     -5.182290   -2.935939   -1.339450

 Total Charge           Charge          ....    0
 Multiplicity           Mult            ....    1
 Number of Electrons    NEL             ....  202
 Basis Dimension        Dim             ....  334

ORBITAL ENERGIES
----------------

  NO   OCC          E(Eh)            E(eV)
   0   2.0000     -88.050475     -2395.9752
   1   2.0000     -88.040006     -2395.6904
   2   2.0000     -87.992455     -2394.3964
   3   2.0000     -87.982663     -2394.1300
   4   2.0000     -76.432375     -2079.8307
   5   2.0000     -76.421362     -2079.5310
   6   2.0000     -18.802761      -511.6491
   7   2.0000     -18.795635      -511.4552
   8   2.0000     -18.788634      -511.2647
   9   2.0000     -18.782526      -511.0985
  10   2.0000      -9.960689      -271.0441
  11   2.0000      -9.959117      -271.0014
  12   2.0000      -9.954526      -270.8764
  13   2.0000      -9.951889      -270.8047
  14   2.0000      -9.938070      -270.4286
  15   2.0000      -9.891333      -269.1568
  16   2.0000      -9.885204      -268.9901
  17   2.0000      -9.881520      -268.8898
  18   2.0000      -9.876786      -268.7610
  19   2.0000      -7.695495      -209.4051
  20   2.0000      -7.685379      -209.1298
  21   2.0000      -7.637446      -207.8255
  22   2.0000      -7.627905      -207.5658
  23   2.0000      -6.429880      -174.9659
  24   2.0000      -6.419299      -174.6780
  25   2.0000      -5.723246      -155.7374
  26   2.0000      -5.719980      -155.6486
  27   2.0000      -5.713746      -155.4789
  28   2.0000      -5.712622      -155.4484
  29   2.0000      -5.709605      -155.3662
  30   2.0000      -5.702065      -155.1611
  31   2.0000      -5.666441      -154.1917
  32   2.0000      -5.657965      -153.9611
  33   2.0000      -5.657592      -153.9509
  34   2.0000      -5.656853      -153.9308
  35   2.0000      -5.648823      -153.7123
  36   2.0000      -5.647733      -153.6826
  37   2.0000      -4.652788      -126.6088
  38   2.0000      -4.651580      -126.5759
  39   2.0000      -4.650110      -126.5359
  40   2.0000      -4.641831      -126.3107
  41   2.0000      -4.641121      -126.2913
  42   2.0000      -4.639720      -126.2532
  43   2.0000      -0.994621       -27.0650
  44   2.0000      -0.980829       -26.6897
  45   2.0000      -0.950735       -25.8708
  46   2.0000      -0.937890       -25.5213
  47   2.0000      -0.765553       -20.8317
  48   2.0000      -0.725183       -19.7332
  49   2.0000      -0.710877       -19.3439
  50   2.0000      -0.694229       -18.8909
  51   2.0000      -0.681633       -18.5482
  52   2.0000      -0.673956       -18.3393
  53   2.0000      -0.653176       -17.7738
  54   2.0000      -0.638740       -17.3810
  55   2.0000      -0.600624       -16.3438
  56   2.0000      -0.587494       -15.9865
  57   2.0000      -0.572588       -15.5809
  58   2.0000      -0.564978       -15.3738
  59   2.0000      -0.563991       -15.3470
  60   2.0000      -0.510301       -13.8860
  61   2.0000      -0.496362       -13.5067
  62   2.0000      -0.480436       -13.0733
  63   2.0000      -0.475086       -12.9277
  64   2.0000      -0.460230       -12.5235
  65   2.0000      -0.449252       -12.2248
  66   2.0000      -0.443602       -12.0710
  67   2.0000      -0.434449       -11.8220
  68   2.0000      -0.428830       -11.6691
  69   2.0000      -0.418905       -11.3990
  70   2.0000      -0.410326       -11.1655
  71   2.0000      -0.397809       -10.8249
  72   2.0000      -0.391326       -10.6485
  73   2.0000      -0.385829       -10.4990
  74   2.0000      -0.383478       -10.4350
  75   2.0000      -0.368093       -10.0163
  76   2.0000      -0.366945        -9.9851
  77   2.0000      -0.358523        -9.7559
  78   2.0000      -0.355554        -9.6751
  79   2.0000      -0.354216        -9.6387
  80   2.0000      -0.347735        -9.4623
  81   2.0000      -0.342401        -9.3172
  82   2.0000      -0.339077        -9.2267
  83   2.0000      -0.337141        -9.1741
  84   2.0000      -0.325057        -8.8452
  85   2.0000      -0.320432        -8.7194
  86   2.0000      -0.312644        -8.5075
  87   2.0000      -0.302980        -8.2445
  88   2.0000      -0.301658        -8.2085
  89   2.0000      -0.291588        -7.9345
  90   2.0000      -0.281959        -7.6725
  91   2.0000      -0.274092        -7.4584
  92   2.0000      -0.272171        -7.4062
  93   2.0000      -0.269401        -7.3308
  94   2.0000      -0.257455        -7.0057
  95   2.0000      -0.240648        -6.5484
  96   2.0000      -0.219696        -5.9782
  97   2.0000      -0.211709        -5.7609
  98   2.0000      -0.208916        -5.6849
  99   2.0000      -0.203647        -5.5415
 100   2.0000      -0.193258        -5.2588
 101   0.0000      -0.043197        -1.1755
 102   0.0000      -0.028020        -0.7625
 103   0.0000      -0.019866        -0.5406
 104   0.0000       0.004310         0.1173
 105   0.0000       0.019550         0.5320

MULLIKEN ATOMIC CHARGES
-----------------------
   0 C :   -0.298236
   1 C :   -0.013203
   2 O :   -0.372764
   3 P :    0.608488
   4 S :   -0.323994
   5 O :   -0.380920
   6 C :   -0.013834
   7 C :   -0.308128
   8 S :   -0.079093
   9 C :   -0.362379
  10 S :   -0.096644
  11 P :    0.610932
  12 S :   -0.301864
  13 O :   -0.360704
  14 C :   -0.012032
  15 C :   -0.292566
  16 O :   -0.382753
  17 C :   -0.000774
  18 C :   -0.326298
  19 H :    0.114915
  20 H :    0.119402
  21 H :    0.106528
  22 H :    0.110418
  23 H :    0.106109
  24 H :    0.105955
  25 H :    0.110771
  26 H :    0.109001
  27 H :    0.114500
  28 H :    0.144700
  29 H :    0.189542
  30 H :    0.210297
  31 H :    0.106631
  32 H :    0.105729
  33 H :    0.117182
  34 H :    0.111091
  35 H :    0.131822
  36 H :    0.107553
  37 H :    0.113936
  38 H :    0.131756
  39 H :    0.120823
  40 H :    0.118104
Sum of atomic charges:    0.0000000

LOEWDIN ATOMIC CHARGES
----------------------
   0 C :   -0.358615
   1 C :   -0.126455
   2 O :   -0.239852
   3 P :    0.561401
   4 S :   -0.323367
   5 O :   -0.251368
   6 C :   -0.113807
   7 C :   -0.362910
   8 S :    0.084018
   9 C :   -0.475288
  10 S :    0.082927
  11 P :    0.578909
  12 S :   -0.299213
  13 O :   -0.231509
  14 C :   -0.119361
  15 C :   -0.353415
  16 O :   -0.246057
  17 C :   -0.116157
  18 C :   -0.372529
  19 H :    0.120124
  20 H :    0.124815
  21 H :    0.128911
  22 H :    0.111934
  23 H :    0.103850
  24 H :    0.108583
  25 H :    0.120954
  26 H :    0.128897
  27 H :    0.125368
  28 H :    0.128363
  29 H :    0.139743
  30 H :    0.128171
  31 H :    0.113182
  32 H :    0.103416
  33 H :    0.125995
  34 H :    0.131397
  35 H :    0.124180
  36 H :    0.120012
  37 H :    0.113807
  38 H :    0.122815
  39 H :    0.124268
  40 H :    0.133862

  Mayer bond orders larger than 0.100000
B(  0-C ,  1-C ) :   1.1659 B(  0-C , 19-H ) :   0.9395 B(  0-C , 20-H ) :   0.9461
B(  0-C , 21-H ) :   0.9408 B(  1-C ,  2-O ) :   0.8966 B(  1-C , 22-H ) :   0.9159
B(  1-C , 23-H ) :   0.9045 B(  2-O ,  3-P ) :   1.0889 B(  3-P ,  4-S ) :   1.6467
B(  3-P ,  5-O ) :   1.0937 B(  3-P ,  8-S ) :   0.9926 B(  5-O ,  6-C ) :   0.8989
B(  6-C ,  7-C ) :   1.1676 B(  6-C , 24-H ) :   0.9096 B(  6-C , 25-H ) :   0.9350
B(  7-C , 26-H ) :   0.9401 B(  7-C , 27-H ) :   0.9446 B(  7-C , 28-H ) :   0.9327
B(  8-S ,  9-C ) :   0.9552 B(  9-C , 10-S ) :   1.0084 B(  9-C , 29-H ) :   0.9105
B(  9-C , 30-H ) :   0.8592 B( 10-S , 11-P ) :   0.9461 B( 10-S , 12-S ) :   0.1056
B( 11-P , 12-S ) :   1.6386 B( 11-P , 13-O ) :   1.1288 B( 11-P , 16-O ) :   1.0925
B( 13-O , 14-C ) :   0.8850 B( 14-C , 15-C ) :   1.1663 B( 14-C , 31-H ) :   0.9281
B( 14-C , 32-H ) :   0.9075 B( 15-C , 33-H ) :   0.9483 B( 15-C , 34-H ) :   0.9394
B( 15-C , 35-H ) :   0.9372 B( 16-O , 17-C ) :   0.9047 B( 17-C , 18-C ) :   1.1652
B( 17-C , 36-H ) :   0.9337 B( 17-C , 37-H ) :   0.9193 B( 18-C , 38-H ) :   0.9337
B( 18-C , 39-H ) :   0.9431 B( 18-C , 40-H ) :   0.9367

Dispersion correction           -0.067573281
FINAL SINGLE POINT ENERGY     -2929.521264623139

DIPOLE MOMENT
-------------

Method             : SCF
Type of density    : Electron Density
Multiplicity       :   1
Irrep              :   0
Energy             : -2929.6421417285546340 Eh
Relativity type    :
Basis              : AO
                                X                 Y                 Z
Electronic contribution:      0.741848716       1.559792608      13.593629043
Nuclear contribution   :     -2.051541386      -2.100895468     -14.200587413
                        -----------------------------------------
Total Dipole Moment    :     -1.309692670      -0.541102861      -0.606958369
                        -----------------------------------------
Magnitude (a.u.)       :      1.541585436
Magnitude (Debye)      :      3.918398779

Rotational constants in cm-1:             0.011863             0.005621             0.005306
Rotational constants in MHz :           355.647677           168.526244           159.068295

                             ****ORCA TERMINATED NORMALLY****
TOTAL RUN TIME: 0 days 0 hours 0 minutes 22 seconds 269 msec
