                         Program Version 6.0.0  -   RELEASE  -
|  1> ! pbe def2-sv(p) def2/J RI DEFGRID1 loosescf d4 GCP(DFT/SV(P)) printgap
|  2> %output
|  3>     printlevel normal
|  4> end
|  5> * xyz 0 1
|  6> C 5.4059522276 -0.0761854681 -0.776946946
|  7> C 4.4236397533 -0.8140351819 0.1119999287
|  8> O 3.3743691312 0.0676226284 0.5583071573
|  9> P 1.9629646714 0.1426477457 -0.1746601135
| 10> S 2.0161643441 0.4151668344 -2.1194013072
| 11> O 1.2417028956 1.2422283635 0.7044712842
| 12> C 1.2810320575 2.6417288025 0.3696131464
| 13> C 2.6760762672 3.21199953 0.5035368521
| 14> S 1.0754113931 -1.6397220938 0.4925645019
| 15> C -0.1766601237 -1.9340958531 -0.8036514194
| 16> S -1.8536434192 -1.990720202 -0.1457225109
| 17> P -2.1375549171 0.0996918855 0.1315307745
| 18> S -1.4141737853 1.2308463049 -1.2945860067
| 19> O -1.5159722588 0.5387066457 1.5120538333
| 20> C -1.926662887 0.0387603704 2.81146633
| 21> C -0.9601037368 -1.0114268935 3.3210282076
| 22> O -3.6910159904 0.2021928492 0.4448269226
| 23> C -4.7385510171 -0.4275068492 -0.3182031071
| 24> C -4.6878362006 -0.0727301015 -1.7889866726
| 25> H 5.8164918328 0.7809036007 -0.2505330446
| 26> H 6.2117419974 -0.7480246341 -1.0540465771
| 27> H 4.9070792157 0.2696122609 -1.6798855883
| 28> H 4.900239383 -1.1634030447 1.0296781573
| 29> H 3.9820927314 -1.6640580057 -0.4161237851
| 30> H 0.9015143817 2.7651600076 -0.6506727648
| 31> H 0.5790305755 3.0956038486 1.0710075522
| 32> H 3.0702504741 3.0088559059 1.4958376359
| 33> H 3.3307861695 2.7554584331 -0.2379700448
| 34> H 2.6432808008 4.2838064248 0.3348246631
| 35> H 0.0136757243 -2.9120304059 -1.2378284597
| 36> H -0.0967734903 -1.1435815538 -1.5557865343
| 37> H -1.9198503966 0.9239005086 3.4497379408
| 38> H -2.9426514581 -0.3525479067 2.7375445682
| 39> H -1.2248422575 -1.2665048008 4.3422528583
| 40> H -1.0004343126 -1.9096092582 2.7093305154
| 41> H 0.0560445832 -0.624830421 3.3005551159
| 42> H -4.6590163887 -1.508822184 -0.1780430307
| 43> H -5.6518923463 -0.0562087422 0.1499332177
| 44> H -3.7764382996 -0.46254335 -2.2399685612
| 45> H -5.5452340497 -0.5053792748 -2.2941701764
| 46> H -4.6983581015 1.0067497727 -1.9202889709
| 47> *
| 48>
| 49>                          ****END OF INPUT****

CARTESIAN COORDINATES (ANGSTROEM)
---------------------------------
  C      5.405952   -0.076185   -0.776947
  C      4.423640   -0.814035    0.112000
  O      3.374369    0.067623    0.558307
  P      1.962965    0.142648   -0.174660
  S      2.016164    0.415167   -2.119401
  O      1.241703    1.242228    0.704471
  C      1.281032    2.641729    0.369613
  C      2.676076    3.212000    0.503537
  S      1.075411   -1.639722    0.492565
  C     -0.176660   -1.934096   -0.803651
  S     -1.853643   -1.990720   -0.145723
  P     -2.137555    0.099692    0.131531
  S     -1.414174    1.230846   -1.294586
  O     -1.515972    0.538707    1.512054
  C     -1.926663    0.038760    2.811466
  C     -0.960104   -1.011427    3.321028
  O     -3.691016    0.202193    0.444827
  C     -4.738551   -0.427507   -0.318203
  C     -4.687836   -0.072730   -1.788987
  H      5.816492    0.780904   -0.250533
  H      6.211742   -0.748025   -1.054047
  H      4.907079    0.269612   -1.679886
  H      4.900239   -1.163403    1.029678
  H      3.982093   -1.664058   -0.416124
  H      0.901514    2.765160   -0.650673
  H      0.579031    3.095604    1.071008
  H      3.070250    3.008856    1.495838
  H      3.330786    2.755458   -0.237970
  H      2.643281    4.283806    0.334825
  H      0.013676   -2.912030   -1.237828
  H     -0.096773   -1.143582   -1.555787
  H     -1.919850    0.923901    3.449738
  H     -2.942651   -0.352548    2.737545
  H     -1.224842   -1.266505    4.342253
  H     -1.000434   -1.909609    2.709331
  H      0.056045   -0.624830    3.300555
  H     -4.659016   -1.508822   -0.178043
  H     -5.651892   -0.056209    0.149933
  H     -3.776438   -0.462543   -2.239969
  H     -5.545234   -0.505379   -2.294170
  H     -4.698358    1.006750   -1.920289

 Total Charge           Charge          ....    0
 Multiplicity           Mult            ....    1
 Number of Electrons    NEL             ....  202
 Basis Dimension        Dim             ....  334

ORBITAL ENERGIES
----------------

  NO   OCC          E(Eh)            E(eV)
   0   2.0000     -88.046986     -2395.8803
   1   2.0000     -88.039896     -2395.6874
   2   2.0000     -87.980052     -2394.0589
   3   2.0000     -87.978653     -2394.0208
   4   2.0000     -76.424699     -2079.6218
   5   2.0000     -76.420016     -2079.4944
   6   2.0000     -18.796300      -511.4733
   7   2.0000     -18.787432      -511.2320
   8   2.0000     -18.786942      -511.2187
   9   2.0000     -18.778874      -510.9991
  10   2.0000      -9.960565      -271.0407
  11   2.0000      -9.955226      -270.8955
  12   2.0000      -9.952633      -270.8249
  13   2.0000      -9.950159      -270.7576
  14   2.0000      -9.937166      -270.4040
  15   2.0000      -9.883264      -268.9373
  16   2.0000      -9.879826      -268.8437
  17   2.0000      -9.877973      -268.7933
  18   2.0000      -9.874535      -268.6998
  19   2.0000      -7.691962      -209.3089
  20   2.0000      -7.685152      -209.1236
  21   2.0000      -7.624958      -207.4857
  22   2.0000      -7.623594      -207.4485
  23   2.0000      -6.421920      -174.7493
  24   2.0000      -6.417529      -174.6298
  25   2.0000      -5.719666      -155.6400
  26   2.0000      -5.716316      -155.5489
  27   2.0000      -5.713008      -155.4588
  28   2.0000      -5.709521      -155.3640
  29   2.0000      -5.709283      -155.3575
  30   2.0000      -5.702183      -155.1643
  31   2.0000      -5.653840      -153.8488
  32   2.0000      -5.652698      -153.8177
  33   2.0000      -5.645690      -153.6270
  34   2.0000      -5.645061      -153.6099
  35   2.0000      -5.644098      -153.5837
  36   2.0000      -5.643656      -153.5717
  37   2.0000      -4.644780      -126.3909
  38   2.0000      -4.643972      -126.3689
  39   2.0000      -4.641873      -126.3118
  40   2.0000      -4.639872      -126.2573
  41   2.0000      -4.639218      -126.2395
  42   2.0000      -4.638288      -126.2142
  43   2.0000      -0.987864       -26.8811
  44   2.0000      -0.979584       -26.6558
  45   2.0000      -0.942744       -25.6534
  46   2.0000      -0.936873       -25.4936
  47   2.0000      -0.762729       -20.7549
  48   2.0000      -0.719149       -19.5690
  49   2.0000      -0.707055       -19.2399
  50   2.0000      -0.689463       -18.7612
  51   2.0000      -0.680276       -18.5112
  52   2.0000      -0.672274       -18.2935
  53   2.0000      -0.648200       -17.6384
  54   2.0000      -0.632240       -17.2041
  55   2.0000      -0.593624       -16.1533
  56   2.0000      -0.586810       -15.9679
  57   2.0000      -0.575753       -15.6670
  58   2.0000      -0.565994       -15.4015
  59   2.0000      -0.558465       -15.1966
  60   2.0000      -0.503711       -13.7067
  61   2.0000      -0.493754       -13.4357
  62   2.0000      -0.471431       -12.8283
  63   2.0000      -0.465868       -12.6769
  64   2.0000      -0.452520       -12.3137
  65   2.0000      -0.441860       -12.0236
  66   2.0000      -0.437796       -11.9130
  67   2.0000      -0.433423       -11.7940
  68   2.0000      -0.429787       -11.6951
  69   2.0000      -0.415066       -11.2945
  70   2.0000      -0.408029       -11.1030
  71   2.0000      -0.397697       -10.8219
  72   2.0000      -0.393308       -10.7025
  73   2.0000      -0.384160       -10.4535
  74   2.0000      -0.379621       -10.3300
  75   2.0000      -0.366593        -9.9755
  76   2.0000      -0.356130        -9.6908
  77   2.0000      -0.353671        -9.6239
  78   2.0000      -0.349980        -9.5234
  79   2.0000      -0.344593        -9.3769
  80   2.0000      -0.342973        -9.3328
  81   2.0000      -0.341657        -9.2970
  82   2.0000      -0.339708        -9.2439
  83   2.0000      -0.332786        -9.0556
  84   2.0000      -0.328170        -8.9300
  85   2.0000      -0.315736        -8.5916
  86   2.0000      -0.308652        -8.3988
  87   2.0000      -0.298217        -8.1149
  88   2.0000      -0.293134        -7.9766
  89   2.0000      -0.291395        -7.9292
  90   2.0000      -0.277261        -7.5446
  91   2.0000      -0.273244        -7.4354
  92   2.0000      -0.265177        -7.2158
  93   2.0000      -0.259394        -7.0585
  94   2.0000      -0.257201        -6.9988
  95   2.0000      -0.235560        -6.4099
  96   2.0000      -0.222133        -6.0445
  97   2.0000      -0.210372        -5.7245
  98   2.0000      -0.199437        -5.4270
  99   2.0000      -0.191165        -5.2019
 100   2.0000      -0.182186        -4.9575
 101   0.0000      -0.039350        -1.0708
 102   0.0000      -0.029293        -0.7971
 103   0.0000      -0.012268        -0.3338
 104   0.0000       0.014049         0.3823
 105   0.0000       0.018694         0.5087

MULLIKEN ATOMIC CHARGES
-----------------------
   0 C :   -0.291778
   1 C :   -0.008007
   2 O :   -0.375617
   3 P :    0.607031
   4 S :   -0.319831
   5 O :   -0.351588
   6 C :   -0.002747
   7 C :   -0.305067
   8 S :   -0.095908
   9 C :   -0.349142
  10 S :   -0.127432
  11 P :    0.600653
  12 S :   -0.293519
  13 O :   -0.343683
  14 C :   -0.011866
  15 C :   -0.288813
  16 O :   -0.381110
  17 C :   -0.014118
  18 C :   -0.306925
  19 H :    0.113661
  20 H :    0.105955
  21 H :    0.128253
  22 H :    0.104504
  23 H :    0.097971
  24 H :    0.123365
  25 H :    0.100809
  26 H :    0.111371
  27 H :    0.123331
  28 H :    0.108538
  29 H :    0.182462
  30 H :    0.212404
  31 H :    0.107739
  32 H :    0.099521
  33 H :    0.104216
  34 H :    0.120920
  35 H :    0.125186
  36 H :    0.113790
  37 H :    0.109480
  38 H :    0.127405
  39 H :    0.110899
  40 H :    0.127686
Sum of atomic charges:    0.0000000

LOEWDIN ATOMIC CHARGES
----------------------
   0 C :   -0.363423
   1 C :   -0.117759
   2 O :   -0.247768
   3 P :    0.567526
   4 S :   -0.314230
   5 O :   -0.229116
   6 C :   -0.118933
   7 C :   -0.366599
   8 S :    0.086797
   9 C :   -0.477728
  10 S :    0.063263
  11 P :    0.562354
  12 S :   -0.283165
  13 O :   -0.229069
  14 C :   -0.110506
  15 C :   -0.365007
  16 O :   -0.245537
  17 C :   -0.115095
  18 C :   -0.369114
  19 H :    0.124645
  20 H :    0.127919
  21 H :    0.124544
  22 H :    0.117172
  23 H :    0.105667
  24 H :    0.109080
  25 H :    0.117797
  26 H :    0.123536
  27 H :    0.121339
  28 H :    0.128931
  29 H :    0.137285
  30 H :    0.127094
  31 H :    0.120898
  32 H :    0.107304
  33 H :    0.126498
  34 H :    0.114341
  35 H :    0.127029
  36 H :    0.107427
  37 H :    0.121369
  38 H :    0.122128
  39 H :    0.129962
  40 H :    0.131143

  Mayer bond orders larger than 0.100000
B(  0-C ,  1-C ) :   1.1682 B(  0-C , 19-H ) :   0.9458 B(  0-C , 20-H ) :   0.9399
B(  0-C , 21-H ) :   0.9309 B(  1-C ,  2-O ) :   0.9079 B(  1-C , 22-H ) :   0.9360
B(  1-C , 23-H ) :   0.9127 B(  2-O ,  3-P ) :   1.0936 B(  3-P ,  4-S ) :   1.6008
B(  3-P ,  5-O ) :   1.1503 B(  3-P ,  8-S ) :   0.9688 B(  4-S ,  8-S ) :   0.1158
B(  5-O ,  6-C ) :   0.9007 B(  6-C ,  7-C ) :   1.1577 B(  6-C , 24-H ) :   0.9119
B(  6-C , 25-H ) :   0.9356 B(  7-C , 26-H ) :   0.9449 B(  7-C , 27-H ) :   0.9346
B(  7-C , 28-H ) :   0.9390 B(  8-S ,  9-C ) :   0.9933 B(  9-C , 10-S ) :   1.0109
B(  9-C , 29-H ) :   0.9109 B(  9-C , 30-H ) :   0.8439 B( 10-S , 11-P ) :   0.9258
B( 10-S , 12-S ) :   0.1066 B( 11-P , 12-S ) :   1.6520 B( 11-P , 13-O ) :   1.1452
B( 11-P , 16-O ) :   1.0844 B( 13-O , 14-C ) :   0.8969 B( 14-C , 15-C ) :   1.1694
B( 14-C , 31-H ) :   0.9352 B( 14-C , 32-H ) :   0.9193 B( 15-C , 33-H ) :   0.9372
B( 15-C , 34-H ) :   0.9335 B( 15-C , 35-H ) :   0.9422 B( 16-O , 17-C ) :   0.9109
B( 17-C , 18-C ) :   1.1676 B( 17-C , 36-H ) :   0.9261 B( 17-C , 37-H ) :   0.9332
B( 18-C , 38-H ) :   0.9317 B( 18-C , 39-H ) :   0.9348 B( 18-C , 40-H ) :   0.9428

Dispersion correction           -0.068105677
FINAL SINGLE POINT ENERGY     -2929.518199092859

DIPOLE MOMENT
-------------

Method             : SCF
Type of density    : Electron Density
Multiplicity       :   1
Irrep              :   0
Energy             : -2929.6358942638962617 Eh
Relativity type    :
Basis              : AO
                                X                 Y                 Z
Electronic contribution:     -5.249379813      -4.837243894      -5.497229290
Nuclear contribution   :      4.746327642       4.161081258       6.653442666
                        -----------------------------------------
Total Dipole Moment    :     -0.503052171      -0.676162636       1.156213376
                        -----------------------------------------
Magnitude (a.u.)       :      1.430764400
Magnitude (Debye)      :      3.636714090

Rotational constants in cm-1:             0.013415             0.005167             0.005039
Rotational constants in MHz :           402.165985           154.909547           151.071490

                             ****ORCA TERMINATED NORMALLY****
TOTAL RUN TIME: 0 days 0 hours 0 minutes 21 seconds 471 msec
