                         Program Version 6.0.0  -   RELEASE  -
|  1> ! pbe def2-sv(p) def2/J RI DEFGRID1 loosescf d4 GCP(DFT/SV(P)) printgap
|  2> %output
|  3>     printlevel normal
|  4> end
|  5> * xyz 0 1
|  6> C 3.8120690256 1.7567174381 -1.3465610365
|  7> C 4.1167267275 1.176767684 0.0197238746
|  8> O 3.3653010279 -0.0190783435 0.2630534342
|  9> P 1.771048703 0.0002228024 0.4152229177
| 10> S 1.2303227998 1.5419337979 1.5196808189
| 11> O 1.5226183288 -1.4363123534 1.0421755674
| 12> C 1.9760134688 -1.7031933676 2.3899537296
| 13> C 1.5231878057 -3.0972067098 2.7703984342
| 14> S 1.1843236842 -0.3787316828 -1.5878198119
| 15> C -0.0625154782 -1.6931330869 -1.4771384429
| 16> S -1.7838166068 -1.1673559211 -1.7811844722
| 17> P -1.9813484742 0.2917875301 -0.2613662796
| 18> S -3.7980493835 0.8939258235 0.1343449493
| 19> O -0.953300043 1.4422472788 -0.6398326453
| 20> C -1.3313351238 2.5615829105 -1.45972049
| 21> C -1.4507186538 2.1769781497 -2.9214919371
| 22> O -1.1550955606 -0.3299611127 0.9520884369
| 23> C -1.8383855452 -0.9935671698 2.0329409723
| 24> C -2.3571179389 -2.3579728617 1.6232427351
| 25> H 3.9962029355 1.0187267573 -2.1229046662
| 26> H 2.7625024701 2.0523432756 -1.387988612
| 27> H 4.4316425586 2.6307084197 -1.519047071
| 28> H 3.8790254046 1.9006052434 0.8069375615
| 29> H 5.1571713222 0.8613291506 0.1052621147
| 30> H 3.0657639968 -1.6213072203 2.4016483963
| 31> H 1.5595052276 -0.9376654968 3.0535912503
| 32> H 0.4388457969 -3.1610952807 2.7713890063
| 33> H 1.9211282123 -3.8205744151 2.0644184313
| 34> H 1.892633712 -3.3272606239 3.764536102
| 35> H 0.016222229 -2.1714506172 -0.5062207231
| 36> H 0.1564086617 -2.390498302 -2.2821795371
| 37> H -2.2767391798 2.9645942296 -1.0811753699
| 38> H -0.5329589851 3.2872541408 -1.2933268706
| 39> H -0.5404122822 1.6856035731 -3.2579919551
| 40> H -2.2925105874 1.4999152936 -3.0627528331
| 41> H -1.6159471078 3.0727597974 -3.5113736485
| 42> H -1.0880495953 -1.0561110792 2.8229013576
| 43> H -2.6619395071 -0.353600647 2.3650410911
| 44> H -1.5510698135 -2.9834360765 1.246583567
| 45> H -2.8105614352 -2.8383999461 2.4846439225
| 46> H -3.1113872416 -2.2466149422 0.8446138449
| 47> *
| 48>
| 49>                          ****END OF INPUT****

CARTESIAN COORDINATES (ANGSTROEM)
---------------------------------
  C      3.812069    1.756717   -1.346561
  C      4.116727    1.176768    0.019724
  O      3.365301   -0.019078    0.263053
  P      1.771049    0.000223    0.415223
  S      1.230323    1.541934    1.519681
  O      1.522618   -1.436312    1.042176
  C      1.976013   -1.703193    2.389954
  C      1.523188   -3.097207    2.770398
  S      1.184324   -0.378732   -1.587820
  C     -0.062515   -1.693133   -1.477138
  S     -1.783817   -1.167356   -1.781184
  P     -1.981348    0.291788   -0.261366
  S     -3.798049    0.893926    0.134345
  O     -0.953300    1.442247   -0.639833
  C     -1.331335    2.561583   -1.459720
  C     -1.450719    2.176978   -2.921492
  O     -1.155096   -0.329961    0.952088
  C     -1.838386   -0.993567    2.032941
  C     -2.357118   -2.357973    1.623243
  H      3.996203    1.018727   -2.122905
  H      2.762502    2.052343   -1.387989
  H      4.431643    2.630708   -1.519047
  H      3.879025    1.900605    0.806938
  H      5.157171    0.861329    0.105262
  H      3.065764   -1.621307    2.401648
  H      1.559505   -0.937665    3.053591
  H      0.438846   -3.161095    2.771389
  H      1.921128   -3.820574    2.064418
  H      1.892634   -3.327261    3.764536
  H      0.016222   -2.171451   -0.506221
  H      0.156409   -2.390498   -2.282180
  H     -2.276739    2.964594   -1.081175
  H     -0.532959    3.287254   -1.293327
  H     -0.540412    1.685604   -3.257992
  H     -2.292511    1.499915   -3.062753
  H     -1.615947    3.072760   -3.511374
  H     -1.088050   -1.056111    2.822901
  H     -2.661940   -0.353601    2.365041
  H     -1.551070   -2.983436    1.246584
  H     -2.810561   -2.838400    2.484644
  H     -3.111387   -2.246615    0.844614

 Total Charge           Charge          ....    0
 Multiplicity           Mult            ....    1
 Number of Electrons    NEL             ....  202
 Basis Dimension        Dim             ....  334

ORBITAL ENERGIES
----------------

  NO   OCC          E(Eh)            E(eV)
   0   2.0000     -88.045097     -2395.8289
   1   2.0000     -88.041862     -2395.7409
   2   2.0000     -87.986731     -2394.2407
   3   2.0000     -87.979035     -2394.0313
   4   2.0000     -76.425259     -2079.6370
   5   2.0000     -76.423788     -2079.5970
   6   2.0000     -18.795474      -511.4508
   7   2.0000     -18.789548      -511.2896
   8   2.0000     -18.786997      -511.2202
   9   2.0000     -18.781844      -511.0800
  10   2.0000      -9.962439      -271.0917
  11   2.0000      -9.957473      -270.9566
  12   2.0000      -9.952099      -270.8104
  13   2.0000      -9.948245      -270.7055
  14   2.0000      -9.943914      -270.5877
  15   2.0000      -9.896244      -269.2905
  16   2.0000      -9.886566      -269.0271
  17   2.0000      -9.886105      -269.0146
  18   2.0000      -9.876853      -268.7628
  19   2.0000      -7.690016      -209.2560
  20   2.0000      -7.687142      -209.1778
  21   2.0000      -7.631957      -207.6761
  22   2.0000      -7.624030      -207.4604
  23   2.0000      -6.422577      -174.7672
  24   2.0000      -6.421341      -174.7336
  25   2.0000      -5.718419      -155.6061
  26   2.0000      -5.715252      -155.5199
  27   2.0000      -5.714528      -155.5002
  28   2.0000      -5.711375      -155.4144
  29   2.0000      -5.706399      -155.2790
  30   2.0000      -5.704130      -155.2173
  31   2.0000      -5.660897      -154.0408
  32   2.0000      -5.653172      -153.8306
  33   2.0000      -5.652585      -153.8147
  34   2.0000      -5.652066      -153.8005
  35   2.0000      -5.645009      -153.6085
  36   2.0000      -5.643620      -153.5707
  37   2.0000      -4.645401      -126.4078
  38   2.0000      -4.644475      -126.3826
  39   2.0000      -4.643738      -126.3625
  40   2.0000      -4.643361      -126.3523
  41   2.0000      -4.642668      -126.3334
  42   2.0000      -4.641706      -126.3073
  43   2.0000      -0.987943       -26.8833
  44   2.0000      -0.982898       -26.7460
  45   2.0000      -0.944255       -25.6945
  46   2.0000      -0.940641       -25.5962
  47   2.0000      -0.762305       -20.7434
  48   2.0000      -0.720961       -19.6184
  49   2.0000      -0.709280       -19.3005
  50   2.0000      -0.689066       -18.7505
  51   2.0000      -0.681041       -18.5321
  52   2.0000      -0.677704       -18.4413
  53   2.0000      -0.651857       -17.7379
  54   2.0000      -0.636403       -17.3174
  55   2.0000      -0.599795       -16.3213
  56   2.0000      -0.591358       -16.0917
  57   2.0000      -0.576086       -15.6761
  58   2.0000      -0.567633       -15.4461
  59   2.0000      -0.561325       -15.2744
  60   2.0000      -0.507330       -13.8052
  61   2.0000      -0.492087       -13.3904
  62   2.0000      -0.473318       -12.8796
  63   2.0000      -0.464974       -12.6526
  64   2.0000      -0.455056       -12.3827
  65   2.0000      -0.449456       -12.2303
  66   2.0000      -0.442027       -12.0282
  67   2.0000      -0.439291       -11.9537
  68   2.0000      -0.428043       -11.6476
  69   2.0000      -0.418311       -11.3828
  70   2.0000      -0.410403       -11.1676
  71   2.0000      -0.398882       -10.8541
  72   2.0000      -0.392456       -10.6793
  73   2.0000      -0.389416       -10.5966
  74   2.0000      -0.387036       -10.5318
  75   2.0000      -0.374316       -10.1857
  76   2.0000      -0.369432       -10.0528
  77   2.0000      -0.362102        -9.8533
  78   2.0000      -0.354630        -9.6500
  79   2.0000      -0.352521        -9.5926
  80   2.0000      -0.347695        -9.4613
  81   2.0000      -0.341907        -9.3038
  82   2.0000      -0.341213        -9.2849
  83   2.0000      -0.336652        -9.1608
  84   2.0000      -0.328374        -8.9355
  85   2.0000      -0.321990        -8.7618
  86   2.0000      -0.313987        -8.5440
  87   2.0000      -0.301353        -8.2002
  88   2.0000      -0.300630        -8.1806
  89   2.0000      -0.293478        -7.9859
  90   2.0000      -0.283414        -7.7121
  91   2.0000      -0.273281        -7.4363
  92   2.0000      -0.266207        -7.2439
  93   2.0000      -0.263098        -7.1593
  94   2.0000      -0.254912        -6.9365
  95   2.0000      -0.227814        -6.1991
  96   2.0000      -0.214931        -5.8486
  97   2.0000      -0.208455        -5.6724
  98   2.0000      -0.203349        -5.5334
  99   2.0000      -0.197545        -5.3755
 100   2.0000      -0.186774        -5.0824
 101   0.0000      -0.045651        -1.2422
 102   0.0000      -0.041389        -1.1262
 103   0.0000      -0.019423        -0.5285
 104   0.0000      -0.009038        -0.2459
 105   0.0000       0.014304         0.3892

MULLIKEN ATOMIC CHARGES
-----------------------
   0 C :   -0.330577
   1 C :   -0.000212
   2 O :   -0.382916
   3 P :    0.638868
   4 S :   -0.312187
   5 O :   -0.391070
   6 C :   -0.011675
   7 C :   -0.296450
   8 S :   -0.098526
   9 C :   -0.355990
  10 S :   -0.089774
  11 P :    0.598229
  12 S :   -0.316521
  13 O :   -0.343077
  14 C :   -0.002292
  15 C :   -0.313634
  16 O :   -0.369470
  17 C :   -0.009868
  18 C :   -0.332818
  19 H :    0.122454
  20 H :    0.126735
  21 H :    0.115857
  22 H :    0.108027
  23 H :    0.101694
  24 H :    0.107938
  25 H :    0.112762
  26 H :    0.124282
  27 H :    0.118760
  28 H :    0.114896
  29 H :    0.217074
  30 H :    0.183009
  31 H :    0.110997
  32 H :    0.106435
  33 H :    0.119039
  34 H :    0.120776
  35 H :    0.108673
  36 H :    0.110125
  37 H :    0.118870
  38 H :    0.129294
  39 H :    0.112418
  40 H :    0.129847
Sum of atomic charges:   -0.0000000

LOEWDIN ATOMIC CHARGES
----------------------
   0 C :   -0.371381
   1 C :   -0.125864
   2 O :   -0.253046
   3 P :    0.579923
   4 S :   -0.302398
   5 O :   -0.248577
   6 C :   -0.117492
   7 C :   -0.352067
   8 S :    0.099339
   9 C :   -0.475561
  10 S :    0.071985
  11 P :    0.567064
  12 S :   -0.312182
  13 O :   -0.230288
  14 C :   -0.117500
  15 C :   -0.368935
  16 O :   -0.238654
  17 C :   -0.119188
  18 C :   -0.369222
  19 H :    0.124870
  20 H :    0.118010
  21 H :    0.132369
  22 H :    0.106525
  23 H :    0.117199
  24 H :    0.114259
  25 H :    0.109536
  26 H :    0.124524
  27 H :    0.128434
  28 H :    0.133474
  29 H :    0.132414
  30 H :    0.141465
  31 H :    0.109191
  32 H :    0.118300
  33 H :    0.120897
  34 H :    0.119074
  35 H :    0.128326
  36 H :    0.115262
  37 H :    0.113800
  38 H :    0.120150
  39 H :    0.131329
  40 H :    0.124637

  Mayer bond orders larger than 0.100000
B(  0-C ,  1-C ) :   1.1622 B(  0-C , 19-H ) :   0.9428 B(  0-C , 20-H ) :   0.9307
B(  0-C , 21-H ) :   0.9385 B(  1-C ,  2-O ) :   0.9212 B(  1-C , 22-H ) :   0.9078
B(  1-C , 23-H ) :   0.9313 B(  2-O ,  3-P ) :   1.0645 B(  3-P ,  4-S ) :   1.6275
B(  3-P ,  5-O ) :   1.0904 B(  3-P ,  8-S ) :   0.9481 B(  4-S ,  8-S ) :   0.1154
B(  5-O ,  6-C ) :   0.8951 B(  6-C ,  7-C ) :   1.1601 B(  6-C , 24-H ) :   0.9252
B(  6-C , 25-H ) :   0.9099 B(  7-C , 26-H ) :   0.9438 B(  7-C , 27-H ) :   0.9481
B(  7-C , 28-H ) :   0.9393 B(  8-S ,  9-C ) :   1.0165 B(  9-C , 10-S ) :   0.9747
B(  9-C , 29-H ) :   0.8714 B(  9-C , 30-H ) :   0.9101 B( 10-S , 11-P ) :   0.9679
B( 11-P , 12-S ) :   1.6425 B( 11-P , 13-O ) :   1.1136 B( 11-P , 16-O ) :   1.0725
B( 13-O , 14-C ) :   0.9115 B( 14-C , 15-C ) :   1.1621 B( 14-C , 31-H ) :   0.9160
B( 14-C , 32-H ) :   0.9300 B( 15-C , 33-H ) :   0.9426 B( 15-C , 34-H ) :   0.9394
B( 15-C , 35-H ) :   0.9392 B( 16-O , 17-C ) :   0.9054 B( 17-C , 18-C ) :   1.1625
B( 17-C , 36-H ) :   0.9228 B( 17-C , 37-H ) :   0.9124 B( 18-C , 38-H ) :   0.9318
B( 18-C , 39-H ) :   0.9388 B( 18-C , 40-H ) :   0.9315

Dispersion correction           -0.070256686
FINAL SINGLE POINT ENERGY     -2929.505771101455

DIPOLE MOMENT
-------------

Method             : SCF
Type of density    : Electron Density
Multiplicity       :   1
Irrep              :   0
Energy             : -2929.6242734849324734 Eh
Relativity type    :
Basis              : AO
                                X                 Y                 Z
Electronic contribution:     -9.080682853       4.872261964      -4.298923501
Nuclear contribution   :     10.448763206      -5.859025898       4.351731833
                        -----------------------------------------
Total Dipole Moment    :      1.368080353      -0.986763934       0.052808333
                        -----------------------------------------
Magnitude (a.u.)       :      1.687642034
Magnitude (Debye)      :      4.289645147

Rotational constants in cm-1:             0.010551             0.006966             0.005580
Rotational constants in MHz :           316.323380           208.837122           167.291604

                             ****ORCA TERMINATED NORMALLY****
TOTAL RUN TIME: 0 days 0 hours 0 minutes 22 seconds 657 msec
