                         Program Version 6.0.1  -  RELEASE   -
|  1> ! r2scan-3c def2/J RI DEFGRID2 scfconv6 printgap
|  2> %output
|  3>     printlevel normal
|  4> end
|  5> * xyz 0 1
|  6> C 1.2988884012 -3.5816964306 -2.2897332447
|  7> C 2.5659460015 -2.7423512235 -2.2544800798
|  8> O 2.3606539958 -1.5729380725 -1.4396410244
|  9> C 2.7504542033 -1.6002780791 -0.1811329715
| 10> O 3.3487454998 -2.5146815377 0.3382579955
| 11> C 2.3873667426 -0.3200801482 0.5526581002
| 12> C 1.0006478907 0.1809566982 0.1620989825
| 13> H 0.9582280979 0.3696747195 -0.9147382166
| 14> C 0.6431249102 1.4612432446 0.8938553384
| 15> O -0.3161496821 1.5560229486 1.6326677816
| 16> O 1.4829767772 2.4227554722 0.6279061912
| 17> C 1.2282678764 3.7201915299 1.2096473091
| 18> C 2.1361232883 4.7231630668 0.5275362612
| 19> S -0.2654341027 -1.0725980747 0.566455423
| 20> P -1.9805499384 0.0729415657 0.0545180516
| 21> S -1.7115367495 1.5227003916 -1.2313150053
| 22> O -2.9555498864 -1.08097518 -0.4929959113
| 23> C -2.6793248019 -1.772066104 -1.7144597869
| 24> O -2.799803773 0.500900952 1.3327571327
| 25> C -3.0427605266 -0.3891987828 2.43858159
| 26> H 1.4595796678 -4.4502532968 -2.9194602852
| 27> H 1.0433418356 -3.9114887438 -1.2851101311
| 28> H 0.4754436932 -2.9964577816 -2.6902792534
| 29> H 2.8155393629 -2.3575255729 -3.2438263958
| 30> H 3.4035873858 -3.312114943 -1.8432135805
| 31> H 3.1199491349 0.44691887 0.2919023966
| 32> H 2.4460573955 -0.5218578608 1.6228830083
| 33> H 0.1698164116 3.9570333414 1.0626594595
| 34> H 1.4253202596 3.6544758025 2.2836414788
| 35> H 1.9569169885 5.7076376818 0.9463946774
| 36> H 3.1758462087 4.4513757053 0.6809478762
| 37> H 1.9297654226 4.7453270576 -0.5383935444
| 38> H -1.858270966 -2.4729759865 -1.5632674455
| 39> H -2.4250509882 -1.0579602543 -2.4995554395
| 40> H -3.5943601301 -2.3021444 -1.9657659009
| 41> H -2.1011772914 -0.6124163987 2.9398763938
| 42> H -3.5133059491 -1.3055982547 2.0865955513
| 43> H -3.7064688224 0.1602289939 3.1009324104
| 44> *
| 45>
| 46>                          ****END OF INPUT****

CARTESIAN COORDINATES (ANGSTROEM)
---------------------------------
  C      1.298888   -3.581696   -2.289733
  C      2.565946   -2.742351   -2.254480
  O      2.360654   -1.572938   -1.439641
  C      2.750454   -1.600278   -0.181133
  O      3.348745   -2.514682    0.338258
  C      2.387367   -0.320080    0.552658
  C      1.000648    0.180957    0.162099
  H      0.958228    0.369675   -0.914738
  C      0.643125    1.461243    0.893855
  O     -0.316150    1.556023    1.632668
  O      1.482977    2.422755    0.627906
  C      1.228268    3.720192    1.209647
  C      2.136123    4.723163    0.527536
  S     -0.265434   -1.072598    0.566455
  P     -1.980550    0.072942    0.054518
  S     -1.711537    1.522700   -1.231315
  O     -2.955550   -1.080975   -0.492996
  C     -2.679325   -1.772066   -1.714460
  O     -2.799804    0.500901    1.332757
  C     -3.042761   -0.389199    2.438582
  H      1.459580   -4.450253   -2.919460
  H      1.043342   -3.911489   -1.285110
  H      0.475444   -2.996458   -2.690279
  H      2.815539   -2.357526   -3.243826
  H      3.403587   -3.312115   -1.843214
  H      3.119949    0.446919    0.291902
  H      2.446057   -0.521858    1.622883
  H      0.169816    3.957033    1.062659
  H      1.425320    3.654476    2.283641
  H      1.956917    5.707638    0.946395
  H      3.175846    4.451376    0.680948
  H      1.929765    4.745327   -0.538394
  H     -1.858271   -2.472976   -1.563267
  H     -2.425051   -1.057960   -2.499555
  H     -3.594360   -2.302144   -1.965766
  H     -2.101177   -0.612416    2.939876
  H     -3.513306   -1.305598    2.086596
  H     -3.706469    0.160229    3.100932

 Total Charge           Charge          ....    0
 Multiplicity           Mult            ....    1
 Number of Electrons    NEL             ....  174
 Basis Dimension        Dim             ....  510

ORBITAL ENERGIES
----------------

  NO   OCC          E(Eh)            E(eV)
   0   2.0000     -88.573683     -2410.2125
   1   2.0000     -88.512403     -2408.5449
   2   2.0000     -76.910069     -2092.8294
   3   2.0000     -19.013259      -517.3771
   4   2.0000     -19.008104      -517.2368
   5   2.0000     -18.985114      -516.6112
   6   2.0000     -18.984492      -516.5943
   7   2.0000     -18.939057      -515.3579
   8   2.0000     -18.938498      -515.3427
   9   2.0000     -10.167080      -276.6603
  10   2.0000     -10.166072      -276.6329
  11   2.0000     -10.099961      -274.8339
  12   2.0000     -10.098568      -274.7960
  13   2.0000     -10.096612      -274.7428
  14   2.0000     -10.090342      -274.5722
  15   2.0000     -10.087571      -274.4968
  16   2.0000     -10.068111      -273.9672
  17   2.0000     -10.036870      -273.1171
  18   2.0000     -10.035116      -273.0694
  19   2.0000      -7.867904      -214.0966
  20   2.0000      -7.807394      -212.4500
  21   2.0000      -6.587991      -179.2684
  22   2.0000      -5.814715      -158.2264
  23   2.0000      -5.811878      -158.1493
  24   2.0000      -5.804988      -157.9618
  25   2.0000      -5.755267      -156.6088
  26   2.0000      -5.747644      -156.4013
  27   2.0000      -5.747155      -156.3880
  28   2.0000      -4.733629      -128.8086
  29   2.0000      -4.733192      -128.7967
  30   2.0000      -4.731482      -128.7502
  31   2.0000      -1.091505       -29.7014
  32   2.0000      -1.085030       -29.5252
  33   2.0000      -1.043490       -28.3948
  34   2.0000      -1.001405       -27.2496
  35   2.0000      -0.991045       -26.9677
  36   2.0000      -0.988473       -26.8977
  37   2.0000      -0.814943       -22.1757
  38   2.0000      -0.759054       -20.6549
  39   2.0000      -0.752358       -20.4727
  40   2.0000      -0.730349       -19.8738
  41   2.0000      -0.697545       -18.9812
  42   2.0000      -0.670066       -18.2334
  43   2.0000      -0.660884       -17.9836
  44   2.0000      -0.650113       -17.6905
  45   2.0000      -0.629676       -17.1343
  46   2.0000      -0.598240       -16.2790
  47   2.0000      -0.545857       -14.8535
  48   2.0000      -0.535964       -14.5843
  49   2.0000      -0.529578       -14.4105
  50   2.0000      -0.498585       -13.5672
  51   2.0000      -0.488198       -13.2845
  52   2.0000      -0.486820       -13.2470
  53   2.0000      -0.474950       -12.9240
  54   2.0000      -0.470213       -12.7951
  55   2.0000      -0.455497       -12.3947
  56   2.0000      -0.445667       -12.1272
  57   2.0000      -0.440632       -11.9902
  58   2.0000      -0.438530       -11.9330
  59   2.0000      -0.427503       -11.6330
  60   2.0000      -0.426401       -11.6030
  61   2.0000      -0.413837       -11.2611
  62   2.0000      -0.411599       -11.2002
  63   2.0000      -0.401410       -10.9229
  64   2.0000      -0.396722       -10.7954
  65   2.0000      -0.382944       -10.4204
  66   2.0000      -0.379030       -10.3139
  67   2.0000      -0.377218       -10.2646
  68   2.0000      -0.366474        -9.9723
  69   2.0000      -0.359162        -9.7733
  70   2.0000      -0.349739        -9.5169
  71   2.0000      -0.348648        -9.4872
  72   2.0000      -0.337614        -9.1869
  73   2.0000      -0.331380        -9.0173
  74   2.0000      -0.326771        -8.8919
  75   2.0000      -0.316614        -8.6155
  76   2.0000      -0.312641        -8.5074
  77   2.0000      -0.308094        -8.3837
  78   2.0000      -0.287515        -7.8237
  79   2.0000      -0.281770        -7.6674
  80   2.0000      -0.279582        -7.6078
  81   2.0000      -0.272697        -7.4205
  82   2.0000      -0.256852        -6.9893
  83   2.0000      -0.241668        -6.5761
  84   2.0000      -0.233572        -6.3558
  85   2.0000      -0.213148        -5.8000
  86   2.0000      -0.209160        -5.6915
  87   0.0000      -0.046044        -1.2529
  88   0.0000      -0.034654        -0.9430
  89   0.0000      -0.010193        -0.2774
  90   0.0000       0.004091         0.1113
  91   0.0000       0.022959         0.6248

MULLIKEN ATOMIC CHARGES
-----------------------
   0 C :   -0.462884
   1 C :   -0.152090
   2 O :   -0.140936
   3 C :    0.362177
   4 O :   -0.408142
   5 C :   -0.482653
   6 C :    0.022387
   7 H :    0.246354
   8 C :    0.319955
   9 O :   -0.396743
  10 O :   -0.157953
  11 C :   -0.153924
  12 C :   -0.446808
  13 S :   -0.190314
  14 P :    0.787788
  15 S :   -0.456669
  16 O :   -0.353202
  17 C :   -0.304723
  18 O :   -0.297042
  19 C :   -0.299397
  20 H :    0.148164
  21 H :    0.168977
  22 H :    0.154040
  23 H :    0.150084
  24 H :    0.178601
  25 H :    0.201539
  26 H :    0.196286
  27 H :    0.178223
  28 H :    0.151967
  29 H :    0.150804
  30 H :    0.150671
  31 H :    0.160288
  32 H :    0.154341
  33 H :    0.176322
  34 H :    0.151331
  35 H :    0.173760
  36 H :    0.163914
  37 H :    0.155505
Sum of atomic charges:   -0.0000000

LOEWDIN ATOMIC CHARGES
----------------------
   0 C :   -0.390199
   1 C :    0.033557
   2 O :   -0.601434
   3 C :    0.348280
   4 O :   -0.419500
   5 C :   -0.196536
   6 C :   -0.199636
   7 H :    0.215530
   8 C :    0.335272
   9 O :   -0.444595
  10 O :   -0.576892
  11 C :    0.040427
  12 C :   -0.384105
  13 S :    0.213757
  14 P :    0.406623
  15 S :   -0.084320
  16 O :   -0.687919
  17 C :   -0.066165
  18 O :   -0.637753
  19 C :   -0.050052
  20 H :    0.159563
  21 H :    0.164803
  22 H :    0.157705
  23 H :    0.178944
  24 H :    0.192821
  25 H :    0.200076
  26 H :    0.192755
  27 H :    0.190899
  28 H :    0.177708
  29 H :    0.161657
  30 H :    0.158543
  31 H :    0.162816
  32 H :    0.166975
  33 H :    0.176191
  34 H :    0.176304
  35 H :    0.175644
  36 H :    0.170994
  37 H :    0.181262

  Mayer bond orders larger than 0.100000
B(  0-C ,  1-C ) :   0.9440 B(  0-C , 20-H ) :   0.9644 B(  0-C , 21-H ) :   0.9687
B(  0-C , 22-H ) :   0.9706 B(  1-C ,  2-O ) :   0.7915 B(  1-C , 23-H ) :   0.9616
B(  1-C , 24-H ) :   0.9672 B(  2-O ,  3-C ) :   1.0778 B(  3-C ,  4-O ) :   1.8707
B(  3-C ,  5-C ) :   0.9723 B(  5-C ,  6-C ) :   0.8612 B(  5-C , 25-H ) :   0.9331
B(  5-C , 26-H ) :   0.9778 B(  6-C ,  7-H ) :   0.9265 B(  6-C ,  8-C ) :   0.8534
B(  6-C , 13-S ) :   0.8549 B(  8-C ,  9-O ) :   1.8045 B(  8-C , 10-O ) :   1.1571
B( 10-O , 11-C ) :   0.7809 B( 11-C , 12-C ) :   0.9486 B( 11-C , 27-H ) :   0.9561
B( 11-C , 28-H ) :   0.9456 B( 12-C , 29-H ) :   0.9668 B( 12-C , 30-H ) :   0.9707
B( 12-C , 31-H ) :   0.9728 B( 13-S , 14-P ) :   0.9727 B( 14-P , 15-S ) :   1.7800
B( 14-P , 16-O ) :   1.0145 B( 14-P , 18-O ) :   1.1943 B( 16-O , 17-C ) :   0.8360
B( 17-C , 32-H ) :   0.9549 B( 17-C , 33-H ) :   0.9599 B( 17-C , 34-H ) :   0.9685
B( 18-O , 19-C ) :   0.7952 B( 19-C , 35-H ) :   0.9575 B( 19-C , 36-H ) :   0.9637
B( 19-C , 37-H ) :   0.9650

Dispersion correction           -0.017039108
FINAL SINGLE POINT ENERGY     -1981.449827631952

DIPOLE MOMENT
-------------

Method             : SCF
Type of density    : Electron Density
Multiplicity       :   1
Irrep              :   0
Energy             : -1981.4699948258262339 Eh
Relativity type    :
Basis              : AO
                                X                 Y                 Z
Electronic contribution:     -8.108446562       1.604482273       3.977940923
Nuclear contribution   :      8.580246077      -1.784734092      -4.172637458
                        -----------------------------------------
Total Dipole Moment    :      0.471799515      -0.180251819      -0.194696534
                        -----------------------------------------
Magnitude (a.u.)       :      0.541287577
Magnitude (Debye)      :      1.375843681

Rotational constants in cm-1:             0.009898             0.008471             0.005676
Rotational constants in MHz :           296.745415           253.949422           170.161779

                             ****ORCA TERMINATED NORMALLY****
TOTAL RUN TIME: 0 days 0 hours 1 minutes 13 seconds 606 msec
