                         Program Version 6.0.1  -  RELEASE   -
|  1> ! r2scan-3c def2/J RI DEFGRID2 scfconv6 printgap
|  2> %output
|  3>     printlevel normal
|  4> end
|  5> %cpcm
|  6>     smd true
|  7>     smdsolvent "water"
|  8> end
|  9> * xyz 0 1
| 10> C 1.2988884012 -3.5816964306 -2.2897332447
| 11> C 2.5659460015 -2.7423512235 -2.2544800798
| 12> O 2.3606539958 -1.5729380725 -1.4396410244
| 13> C 2.7504542033 -1.6002780791 -0.1811329715
| 14> O 3.3487454998 -2.5146815377 0.3382579955
| 15> C 2.3873667426 -0.3200801482 0.5526581002
| 16> C 1.0006478907 0.1809566982 0.1620989825
| 17> H 0.9582280979 0.3696747195 -0.9147382166
| 18> C 0.6431249102 1.4612432446 0.8938553384
| 19> O -0.3161496821 1.5560229486 1.6326677816
| 20> O 1.4829767772 2.4227554722 0.6279061912
| 21> C 1.2282678764 3.7201915299 1.2096473091
| 22> C 2.1361232883 4.7231630668 0.5275362612
| 23> S -0.2654341027 -1.0725980747 0.566455423
| 24> P -1.9805499384 0.0729415657 0.0545180516
| 25> S -1.7115367495 1.5227003916 -1.2313150053
| 26> O -2.9555498864 -1.08097518 -0.4929959113
| 27> C -2.6793248019 -1.772066104 -1.7144597869
| 28> O -2.799803773 0.500900952 1.3327571327
| 29> C -3.0427605266 -0.3891987828 2.43858159
| 30> H 1.4595796678 -4.4502532968 -2.9194602852
| 31> H 1.0433418356 -3.9114887438 -1.2851101311
| 32> H 0.4754436932 -2.9964577816 -2.6902792534
| 33> H 2.8155393629 -2.3575255729 -3.2438263958
| 34> H 3.4035873858 -3.312114943 -1.8432135805
| 35> H 3.1199491349 0.44691887 0.2919023966
| 36> H 2.4460573955 -0.5218578608 1.6228830083
| 37> H 0.1698164116 3.9570333414 1.0626594595
| 38> H 1.4253202596 3.6544758025 2.2836414788
| 39> H 1.9569169885 5.7076376818 0.9463946774
| 40> H 3.1758462087 4.4513757053 0.6809478762
| 41> H 1.9297654226 4.7453270576 -0.5383935444
| 42> H -1.858270966 -2.4729759865 -1.5632674455
| 43> H -2.4250509882 -1.0579602543 -2.4995554395
| 44> H -3.5943601301 -2.3021444 -1.9657659009
| 45> H -2.1011772914 -0.6124163987 2.9398763938
| 46> H -3.5133059491 -1.3055982547 2.0865955513
| 47> H -3.7064688224 0.1602289939 3.1009324104
| 48> *
| 49>
| 50>                          ****END OF INPUT****

CARTESIAN COORDINATES (ANGSTROEM)
---------------------------------
  C      1.298888   -3.581696   -2.289733
  C      2.565946   -2.742351   -2.254480
  O      2.360654   -1.572938   -1.439641
  C      2.750454   -1.600278   -0.181133
  O      3.348745   -2.514682    0.338258
  C      2.387367   -0.320080    0.552658
  C      1.000648    0.180957    0.162099
  H      0.958228    0.369675   -0.914738
  C      0.643125    1.461243    0.893855
  O     -0.316150    1.556023    1.632668
  O      1.482977    2.422755    0.627906
  C      1.228268    3.720192    1.209647
  C      2.136123    4.723163    0.527536
  S     -0.265434   -1.072598    0.566455
  P     -1.980550    0.072942    0.054518
  S     -1.711537    1.522700   -1.231315
  O     -2.955550   -1.080975   -0.492996
  C     -2.679325   -1.772066   -1.714460
  O     -2.799804    0.500901    1.332757
  C     -3.042761   -0.389199    2.438582
  H      1.459580   -4.450253   -2.919460
  H      1.043342   -3.911489   -1.285110
  H      0.475444   -2.996458   -2.690279
  H      2.815539   -2.357526   -3.243826
  H      3.403587   -3.312115   -1.843214
  H      3.119949    0.446919    0.291902
  H      2.446057   -0.521858    1.622883
  H      0.169816    3.957033    1.062659
  H      1.425320    3.654476    2.283641
  H      1.956917    5.707638    0.946395
  H      3.175846    4.451376    0.680948
  H      1.929765    4.745327   -0.538394
  H     -1.858271   -2.472976   -1.563267
  H     -2.425051   -1.057960   -2.499555
  H     -3.594360   -2.302144   -1.965766
  H     -2.101177   -0.612416    2.939876
  H     -3.513306   -1.305598    2.086596
  H     -3.706469    0.160229    3.100932

 Total Charge           Charge          ....    0
 Multiplicity           Mult            ....    1
 Number of Electrons    NEL             ....  174
 Basis Dimension        Dim             ....  510

ORBITAL ENERGIES
----------------

  NO   OCC          E(Eh)            E(eV)
   0   2.0000     -88.579470     -2410.3699
   1   2.0000     -88.527105     -2408.9450
   2   2.0000     -76.920915     -2093.1245
   3   2.0000     -19.015194      -517.4297
   4   2.0000     -19.009252      -517.2680
   5   2.0000     -18.996295      -516.9155
   6   2.0000     -18.990944      -516.7699
   7   2.0000     -18.951047      -515.6842
   8   2.0000     -18.949979      -515.6552
   9   2.0000     -10.175910      -276.9006
  10   2.0000     -10.173344      -276.8308
  11   2.0000     -10.098402      -274.7915
  12   2.0000     -10.089538      -274.5503
  13   2.0000     -10.086077      -274.4561
  14   2.0000     -10.084805      -274.4215
  15   2.0000     -10.079861      -274.2870
  16   2.0000     -10.062059      -273.8025
  17   2.0000     -10.020527      -272.6724
  18   2.0000     -10.019704      -272.6500
  19   2.0000      -7.873671      -214.2535
  20   2.0000      -7.822408      -212.8585
  21   2.0000      -6.598969      -179.5671
  22   2.0000      -5.820504      -158.3840
  23   2.0000      -5.817669      -158.3068
  24   2.0000      -5.810712      -158.1175
  25   2.0000      -5.770167      -157.0142
  26   2.0000      -5.762699      -156.8110
  27   2.0000      -5.762179      -156.7969
  28   2.0000      -4.744581      -129.1066
  29   2.0000      -4.744092      -129.0933
  30   2.0000      -4.742573      -129.0520
  31   2.0000      -1.095327       -29.8054
  32   2.0000      -1.087914       -29.6036
  33   2.0000      -1.052472       -28.6392
  34   2.0000      -1.009118       -27.4595
  35   2.0000      -1.000982       -27.2381
  36   2.0000      -0.997755       -27.1503
  37   2.0000      -0.815434       -22.1891
  38   2.0000      -0.750991       -20.4355
  39   2.0000      -0.748452       -20.3664
  40   2.0000      -0.729509       -19.8509
  41   2.0000      -0.696719       -18.9587
  42   2.0000      -0.668005       -18.1774
  43   2.0000      -0.660333       -17.9686
  44   2.0000      -0.654846       -17.8193
  45   2.0000      -0.620761       -16.8918
  46   2.0000      -0.593748       -16.1567
  47   2.0000      -0.543086       -14.7781
  48   2.0000      -0.533287       -14.5115
  49   2.0000      -0.527027       -14.3411
  50   2.0000      -0.498410       -13.5624
  51   2.0000      -0.491020       -13.3613
  52   2.0000      -0.488614       -13.2959
  53   2.0000      -0.481424       -13.1002
  54   2.0000      -0.465622       -12.6702
  55   2.0000      -0.460168       -12.5218
  56   2.0000      -0.448097       -12.1933
  57   2.0000      -0.445158       -12.1134
  58   2.0000      -0.441503       -12.0139
  59   2.0000      -0.428130       -11.6500
  60   2.0000      -0.424835       -11.5603
  61   2.0000      -0.411325       -11.1927
  62   2.0000      -0.406997       -11.0749
  63   2.0000      -0.400046       -10.8858
  64   2.0000      -0.393602       -10.7104
  65   2.0000      -0.378525       -10.3002
  66   2.0000      -0.371785       -10.1168
  67   2.0000      -0.366960        -9.9855
  68   2.0000      -0.360850        -9.8192
  69   2.0000      -0.356763        -9.7080
  70   2.0000      -0.348850        -9.4927
  71   2.0000      -0.341220        -9.2851
  72   2.0000      -0.334751        -9.1090
  73   2.0000      -0.330543        -8.9945
  74   2.0000      -0.324466        -8.8292
  75   2.0000      -0.316450        -8.6110
  76   2.0000      -0.314555        -8.5595
  77   2.0000      -0.306644        -8.3442
  78   2.0000      -0.290923        -7.9164
  79   2.0000      -0.286148        -7.7865
  80   2.0000      -0.283580        -7.7166
  81   2.0000      -0.278129        -7.5683
  82   2.0000      -0.268173        -7.2974
  83   2.0000      -0.252933        -6.8827
  84   2.0000      -0.242358        -6.5949
  85   2.0000      -0.228186        -6.2092
  86   2.0000      -0.224396        -6.1061
  87   0.0000      -0.053640        -1.4596
  88   0.0000      -0.041441        -1.1277
  89   0.0000      -0.016672        -0.4537
  90   0.0000      -0.000467        -0.0127
  91   0.0000       0.014460         0.3935

MULLIKEN ATOMIC CHARGES
-----------------------
   0 C :   -0.500802
   1 C :   -0.145033
   2 O :   -0.154878
   3 C :    0.397935
   4 O :   -0.482681
   5 C :   -0.505221
   6 C :    0.036274
   7 H :    0.258510
   8 C :    0.337949
   9 O :   -0.453724
  10 O :   -0.162633
  11 C :   -0.151312
  12 C :   -0.491212
  13 S :   -0.190102
  14 P :    0.788258
  15 S :   -0.500172
  16 O :   -0.384764
  17 C :   -0.308850
  18 O :   -0.347149
  19 C :   -0.304364
  20 H :    0.171104
  21 H :    0.170737
  22 H :    0.170336
  23 H :    0.176075
  24 H :    0.178557
  25 H :    0.236467
  26 H :    0.219101
  27 H :    0.177190
  28 H :    0.178496
  29 H :    0.172286
  30 H :    0.166799
  31 H :    0.167691
  32 H :    0.174657
  33 H :    0.177491
  34 H :    0.178469
  35 H :    0.181017
  36 H :    0.185070
  37 H :    0.182427
Sum of atomic charges:   -0.0000000

LOEWDIN ATOMIC CHARGES
----------------------
   0 C :   -0.392812
   1 C :    0.039335
   2 O :   -0.598669
   3 C :    0.357897
   4 O :   -0.473653
   5 C :   -0.189670
   6 C :   -0.194406
   7 H :    0.220461
   8 C :    0.343006
   9 O :   -0.489560
  10 O :   -0.572262
  11 C :    0.044118
  12 C :   -0.386958
  13 S :    0.220963
  14 P :    0.403019
  15 S :   -0.119923
  16 O :   -0.701455
  17 C :   -0.059621
  18 O :   -0.669891
  19 C :   -0.043563
  20 H :    0.168269
  21 H :    0.163318
  22 H :    0.162303
  23 H :    0.190206
  24 H :    0.193276
  25 H :    0.215748
  26 H :    0.200785
  27 H :    0.190099
  28 H :    0.187436
  29 H :    0.170012
  30 H :    0.163734
  31 H :    0.163959
  32 H :    0.176007
  33 H :    0.177323
  34 H :    0.187929
  35 H :    0.179957
  36 H :    0.181011
  37 H :    0.192275

  Mayer bond orders larger than 0.100000
B(  0-C ,  1-C ) :   0.9319 B(  0-C , 20-H ) :   0.9590 B(  0-C , 21-H ) :   0.9676
B(  0-C , 22-H ) :   0.9682 B(  1-C ,  2-O ) :   0.7777 B(  1-C , 23-H ) :   0.9525
B(  1-C , 24-H ) :   0.9628 B(  2-O ,  3-C ) :   1.1040 B(  3-C ,  4-O ) :   1.8118
B(  3-C ,  5-C ) :   0.9556 B(  5-C ,  6-C ) :   0.8630 B(  5-C , 25-H ) :   0.9132
B(  5-C , 26-H ) :   0.9800 B(  6-C ,  7-H ) :   0.9146 B(  6-C ,  8-C ) :   0.8565
B(  6-C , 13-S ) :   0.8396 B(  8-C ,  9-O ) :   1.7667 B(  8-C , 10-O ) :   1.1789
B( 10-O , 11-C ) :   0.7680 B( 11-C , 12-C ) :   0.9446 B( 11-C , 27-H ) :   0.9518
B( 11-C , 28-H ) :   0.9373 B( 12-C , 29-H ) :   0.9609 B( 12-C , 30-H ) :   0.9670
B( 12-C , 31-H ) :   0.9719 B( 13-S , 14-P ) :   0.9938 B( 14-P , 15-S ) :   1.7785
B( 14-P , 16-O ) :   1.0186 B( 14-P , 18-O ) :   1.1844 B( 16-O , 17-C ) :   0.8276
B( 17-C , 32-H ) :   0.9475 B( 17-C , 33-H ) :   0.9554 B( 17-C , 34-H ) :   0.9584
B( 18-O , 19-C ) :   0.7896 B( 19-C , 35-H ) :   0.9488 B( 19-C , 36-H ) :   0.9536
B( 19-C , 37-H ) :   0.9542

Dispersion correction           -0.017039108
FINAL SINGLE POINT ENERGY     -1981.465443036486

DIPOLE MOMENT
-------------

Method             : SCF
Type of density    : Electron Density
Multiplicity       :   1
Irrep              :   0
Energy             : -1981.4856102303599528 Eh
Relativity type    :
Basis              : AO
                                X                 Y                 Z
Electronic contribution:     -7.741052225       1.376025614       3.763744300
Nuclear contribution   :      8.580246077      -1.784734092      -4.172637458
                        -----------------------------------------
Total Dipole Moment    :      0.839193851      -0.408708479      -0.408893157
                        -----------------------------------------
Magnitude (a.u.)       :      1.019059643
Magnitude (Debye)      :      2.590243761

Rotational constants in cm-1:             0.009898             0.008471             0.005676
Rotational constants in MHz :           296.745415           253.949422           170.161779

                             ****ORCA TERMINATED NORMALLY****
TOTAL RUN TIME: 0 days 0 hours 1 minutes 54 seconds 610 msec
