                         Program Version 6.0.1  -  RELEASE   -
|  1> ! pbe def2-sv(p) def2/J RI DEFGRID1 loosescf d4 GCP(DFT/SV(P)) printgap
|  2> %output
|  3>     printlevel normal
|  4> end
|  5> * xyz 0 1
|  6> C 2.1852060027 -3.7522397553 -2.1136859292
|  7> C 2.9085544318 -3.3755752696 -0.8302798558
|  8> O 2.9048841131 -1.9454827561 -0.650327253
|  9> C 1.8558026836 -1.3865112934 -0.0961672248
| 10> O 0.898241787 -1.9922191759 0.3413317321
| 11> C 1.9594292549 0.1222345736 -0.0720475384
| 12> C 0.9920562619 0.7489002827 -1.0966702932
| 13> H 1.503056592 0.9318536605 -2.0429648974
| 14> C 0.4367908944 2.0472353304 -0.5353049719
| 15> O -0.7396143505 2.1877885329 -0.2715702936
| 16> O 1.3670770786 2.9434564076 -0.3613029926
| 17> C 1.0105295628 4.1814610167 0.2949704376
| 18> C 1.0847020785 4.0194910457 1.8043538011
| 19> S -0.4425747393 -0.2896732732 -1.5520726749
| 20> P -1.5071026825 -0.3216404066 0.2826591731
| 21> S -0.8081918812 0.2399014423 2.0313647372
| 22> O -2.926563044 0.3065303057 -0.0973715501
| 23> C -3.4226985016 1.5892112381 0.2792612457
| 24> O -2.0195968367 -1.8332744161 0.238287594
| 25> C -1.7591000234 -2.8336579763 1.2217252722
| 26> H 2.2237244028 -4.8282112055 -2.2470228117
| 27> H 1.1441594162 -3.4381831092 -2.0638611108
| 28> H 2.6547512554 -3.2669555497 -2.9644689456
| 29> H 3.9641867348 -3.64272468 -0.8725057053
| 30> H 2.4313141374 -3.8389189982 0.0377290885
| 31> H 2.9793643519 0.4267060151 -0.2965252693
| 32> H 1.683722642 0.4434766224 0.9355419077
| 33> H 1.7444139753 4.9000784032 -0.0683281951
| 34> H 0.0029376531 4.4661740689 -0.01803693
| 35> H 0.391186047 3.2482801584 2.1367663065
| 36> H 2.089561321 3.7364365361 2.1043552497
| 37> H 0.819516537 4.9573217394 2.2805717244
| 38> H -2.9527135374 1.9185056408 1.207125814
| 39> H -4.4945093327 1.4646278037 0.4176834906
| 40> H -3.2127772546 2.3076740453 -0.5107984853
| 41> H -1.0000411741 -3.5127667871 0.8383697638
| 42> H -2.6989117861 -3.3538426312 1.3935668592
| 43> H -1.4011197906 -2.3762645308 2.1461027797
| 44> *
| 45>
| 46>                          ****END OF INPUT****

CARTESIAN COORDINATES (ANGSTROEM)
---------------------------------
  C      2.185206   -3.752240   -2.113686
  C      2.908554   -3.375575   -0.830280
  O      2.904884   -1.945483   -0.650327
  C      1.855803   -1.386511   -0.096167
  O      0.898242   -1.992219    0.341332
  C      1.959429    0.122235   -0.072048
  C      0.992056    0.748900   -1.096670
  H      1.503057    0.931854   -2.042965
  C      0.436791    2.047235   -0.535305
  O     -0.739614    2.187789   -0.271570
  O      1.367077    2.943456   -0.361303
  C      1.010530    4.181461    0.294970
  C      1.084702    4.019491    1.804354
  S     -0.442575   -0.289673   -1.552073
  P     -1.507103   -0.321640    0.282659
  S     -0.808192    0.239901    2.031365
  O     -2.926563    0.306530   -0.097372
  C     -3.422699    1.589211    0.279261
  O     -2.019597   -1.833274    0.238288
  C     -1.759100   -2.833658    1.221725
  H      2.223724   -4.828211   -2.247023
  H      1.144159   -3.438183   -2.063861
  H      2.654751   -3.266956   -2.964469
  H      3.964187   -3.642725   -0.872506
  H      2.431314   -3.838919    0.037729
  H      2.979364    0.426706   -0.296525
  H      1.683723    0.443477    0.935542
  H      1.744414    4.900078   -0.068328
  H      0.002938    4.466174   -0.018037
  H      0.391186    3.248280    2.136766
  H      2.089561    3.736437    2.104355
  H      0.819517    4.957322    2.280572
  H     -2.952714    1.918506    1.207126
  H     -4.494509    1.464628    0.417683
  H     -3.212777    2.307674   -0.510798
  H     -1.000041   -3.512767    0.838370
  H     -2.698912   -3.353843    1.393567
  H     -1.401120   -2.376265    2.146103

 Total Charge           Charge          ....    0
 Multiplicity           Mult            ....    1
 Number of Electrons    NEL             ....  174
 Basis Dimension        Dim             ....  316

ORBITAL ENERGIES
----------------

  NO   OCC          E(Eh)            E(eV)
   0   2.0000     -88.026824     -2395.3317
   1   2.0000     -87.970291     -2393.7933
   2   2.0000     -76.414004     -2079.3308
   3   2.0000     -18.820045      -512.1195
   4   2.0000     -18.808064      -511.7934
   5   2.0000     -18.765077      -510.6237
   6   2.0000     -18.763633      -510.5844
   7   2.0000     -18.755186      -510.3546
   8   2.0000     -18.741423      -509.9800
   9   2.0000     -10.024470      -272.7797
  10   2.0000     -10.012682      -272.4589
  11   2.0000      -9.957692      -270.9626
  12   2.0000      -9.953180      -270.8398
  13   2.0000      -9.951288      -270.7883
  14   2.0000      -9.922004      -269.9914
  15   2.0000      -9.919180      -269.9146
  16   2.0000      -9.909057      -269.6392
  17   2.0000      -9.889254      -269.1003
  18   2.0000      -9.887678      -269.0574
  19   2.0000      -7.671950      -208.7644
  20   2.0000      -7.615509      -207.2285
  21   2.0000      -6.409190      -174.4029
  22   2.0000      -5.700190      -155.1101
  23   2.0000      -5.696936      -155.0215
  24   2.0000      -5.687966      -154.7774
  25   2.0000      -5.644534      -153.5956
  26   2.0000      -5.636243      -153.3700
  27   2.0000      -5.635302      -153.3444
  28   2.0000      -4.631760      -126.0366
  29   2.0000      -4.631190      -126.0211
  30   2.0000      -4.629888      -125.9856
  31   2.0000      -1.029773       -28.0215
  32   2.0000      -1.016264       -27.6539
  33   2.0000      -0.959177       -26.1005
  34   2.0000      -0.934239       -25.4219
  35   2.0000      -0.919420       -25.0187
  36   2.0000      -0.913643       -24.8615
  37   2.0000      -0.763833       -20.7850
  38   2.0000      -0.714728       -19.4487
  39   2.0000      -0.709113       -19.2960
  40   2.0000      -0.682706       -18.5774
  41   2.0000      -0.650198       -17.6928
  42   2.0000      -0.624052       -16.9813
  43   2.0000      -0.618496       -16.8301
  44   2.0000      -0.603071       -16.4104
  45   2.0000      -0.596935       -16.2434
  46   2.0000      -0.566257       -15.4086
  47   2.0000      -0.507848       -13.8192
  48   2.0000      -0.503415       -13.6986
  49   2.0000      -0.494511       -13.4563
  50   2.0000      -0.482718       -13.1354
  51   2.0000      -0.459843       -12.5130
  52   2.0000      -0.454213       -12.3598
  53   2.0000      -0.450539       -12.2598
  54   2.0000      -0.438442       -11.9306
  55   2.0000      -0.433831       -11.8051
  56   2.0000      -0.416855       -11.3432
  57   2.0000      -0.414960       -11.2916
  58   2.0000      -0.405686       -11.0393
  59   2.0000      -0.397994       -10.8300
  60   2.0000      -0.394806       -10.7432
  61   2.0000      -0.389267       -10.5925
  62   2.0000      -0.386650       -10.5213
  63   2.0000      -0.379026       -10.3138
  64   2.0000      -0.374931       -10.2024
  65   2.0000      -0.365102        -9.9349
  66   2.0000      -0.360768        -9.8170
  67   2.0000      -0.354963        -9.6590
  68   2.0000      -0.348976        -9.4961
  69   2.0000      -0.339035        -9.2256
  70   2.0000      -0.336158        -9.1473
  71   2.0000      -0.331295        -9.0150
  72   2.0000      -0.323332        -8.7983
  73   2.0000      -0.308152        -8.3853
  74   2.0000      -0.300966        -8.1897
  75   2.0000      -0.296041        -8.0557
  76   2.0000      -0.284060        -7.7297
  77   2.0000      -0.277031        -7.5384
  78   2.0000      -0.268047        -7.2939
  79   2.0000      -0.265526        -7.2253
  80   2.0000      -0.250383        -6.8133
  81   2.0000      -0.245040        -6.6679
  82   2.0000      -0.235054        -6.3961
  83   2.0000      -0.227991        -6.2040
  84   2.0000      -0.195210        -5.3119
  85   2.0000      -0.189750        -5.1634
  86   2.0000      -0.183720        -4.9993
  87   0.0000      -0.042060        -1.1445
  88   0.0000      -0.036148        -0.9836
  89   0.0000      -0.023307        -0.6342
  90   0.0000       0.009578         0.2606
  91   0.0000       0.034588         0.9412

MULLIKEN ATOMIC CHARGES
-----------------------
   0 C :   -0.309303
   1 C :   -0.014711
   2 O :   -0.219998
   3 C :    0.107457
   4 O :   -0.192860
   5 C :   -0.049406
   6 C :   -0.321114
   7 H :    0.145589
   8 C :    0.208901
   9 O :   -0.181111
  10 O :   -0.222297
  11 C :   -0.011799
  12 C :   -0.316477
  13 S :   -0.075873
  14 P :    0.663641
  15 S :   -0.354390
  16 O :   -0.378199
  17 C :   -0.081687
  18 O :   -0.385415
  19 C :   -0.089382
  20 H :    0.113296
  21 H :    0.135733
  22 H :    0.112056
  23 H :    0.104312
  24 H :    0.110770
  25 H :    0.105416
  26 H :    0.133717
  27 H :    0.107023
  28 H :    0.113076
  29 H :    0.144938
  30 H :    0.115179
  31 H :    0.114967
  32 H :    0.109184
  33 H :    0.111358
  34 H :    0.110752
  35 H :    0.112969
  36 H :    0.108203
  37 H :    0.115485
Sum of atomic charges:    0.0000000

LOEWDIN ATOMIC CHARGES
----------------------
   0 C :   -0.357476
   1 C :   -0.110621
   2 O :   -0.050671
   3 C :    0.027617
   4 O :   -0.160046
   5 C :   -0.255651
   6 C :   -0.259343
   7 H :    0.148006
   8 C :    0.020122
   9 O :   -0.151558
  10 O :   -0.041873
  11 C :   -0.106150
  12 C :   -0.359119
  13 S :    0.114377
  14 P :    0.604677
  15 S :   -0.323048
  16 O :   -0.252978
  17 C :   -0.210198
  18 O :   -0.255763
  19 C :   -0.211466
  20 H :    0.130802
  21 H :    0.132157
  22 H :    0.124301
  23 H :    0.118534
  24 H :    0.120233
  25 H :    0.137058
  26 H :    0.141244
  27 H :    0.119910
  28 H :    0.122057
  29 H :    0.133500
  30 H :    0.125706
  31 H :    0.132264
  32 H :    0.104822
  33 H :    0.113059
  34 H :    0.109566
  35 H :    0.108944
  36 H :    0.111326
  37 H :    0.105680

  Mayer bond orders larger than 0.100000
B(  0-C ,  1-C ) :   1.1738 B(  0-C , 20-H ) :   0.9432 B(  0-C , 21-H ) :   0.9406
B(  0-C , 22-H ) :   0.9489 B(  1-C ,  2-O ) :   0.9083 B(  1-C , 23-H ) :   0.9371
B(  1-C , 24-H ) :   0.9140 B(  2-O ,  3-C ) :   1.2588 B(  3-C ,  4-O ) :   1.9615
B(  3-C ,  5-C ) :   1.0307 B(  5-C ,  6-C ) :   1.0133 B(  5-C , 25-H ) :   0.8878
B(  5-C , 26-H ) :   0.8659 B(  6-C ,  7-H ) :   0.8720 B(  6-C ,  8-C ) :   0.8971
B(  6-C , 13-S ) :   1.0848 B(  8-C ,  9-O ) :   1.9780 B(  8-C , 10-O ) :   1.2669
B( 10-O , 11-C ) :   0.8987 B( 11-C , 12-C ) :   1.1761 B( 11-C , 27-H ) :   0.9364
B( 11-C , 28-H ) :   0.9148 B( 12-C , 29-H ) :   0.9326 B( 12-C , 30-H ) :   0.9480
B( 12-C , 31-H ) :   0.9417 B( 13-S , 14-P ) :   0.9076 B( 13-S , 15-S ) :   0.1132
B( 14-P , 15-S ) :   1.5357 B( 14-P , 16-O ) :   1.1181 B( 14-P , 18-O ) :   1.1123
B( 16-O , 17-C ) :   0.9382 B( 17-C , 32-H ) :   0.9351 B( 17-C , 33-H ) :   0.9552
B( 17-C , 34-H ) :   0.9522 B( 18-O , 19-C ) :   0.9337 B( 19-C , 35-H ) :   0.9493
B( 19-C , 36-H ) :   0.9558 B( 19-C , 37-H ) :   0.9290

Dispersion correction           -0.054742695
FINAL SINGLE POINT ENERGY     -1979.003767372647

DIPOLE MOMENT
-------------

Method             : SCF
Type of density    : Electron Density
Multiplicity       :   1
Irrep              :   0
Energy             : -1979.1334808363621960 Eh
Relativity type    :
Basis              : AO
                                X                 Y                 Z
Electronic contribution:     -7.416270949      -0.284066867      -2.450989189
Nuclear contribution   :      8.760296321       0.793571582       1.985794498
                        -----------------------------------------
Total Dipole Moment    :      1.344025372       0.509504716      -0.465194691
                        -----------------------------------------
Magnitude (a.u.)       :      1.510763170
Magnitude (Debye)      :      3.840054804

Rotational constants in cm-1:             0.012500             0.008536             0.006298
Rotational constants in MHz :           374.732800           255.913894           188.818877

                             ****ORCA TERMINATED NORMALLY****
TOTAL RUN TIME: 0 days 0 hours 0 minutes 28 seconds 221 msec
