                         Program Version 6.0.0  -   RELEASE  -
|  1> ! pbe def2-sv(p) def2/J RI DEFGRID1 loosescf d4 GCP(DFT/SV(P)) printgap
|  2> %output
|  3>     printlevel normal
|  4> end
|  5> * xyz 0 1
|  6> C 0.5999598137 1.7046488226 -0.0307921755
|  7> C 1.3951445972 0.4064122543 -0.2511772722
|  8> H 1.603495916 0.2932795739 -1.3224230577
|  9> C 0.5356053642 -0.7783857093 0.2177777373
| 10> H 0.3180723036 -0.6888099792 1.2887837965
| 11> C -0.7981163556 -0.7326017564 -0.5448378748
| 12> H -0.5964249315 -0.7727409732 -1.6294248063
| 13> C -1.4832900256 0.6149698603 -0.258129084
| 14> H -2.3899673047 0.6935739484 -0.871455943
| 15> O -0.6579082051 1.6742726176 -0.6909478347
| 16> O -1.7654408423 0.6973159787 1.0984612547
| 17> O -1.6550284141 -1.7800548199 -0.1822385394
| 18> O 1.1643685546 -2.0270371726 0.0665094342
| 19> O 2.6543592406 0.4478580234 0.365198142
| 20> H 1.1311182197 2.5571188128 -0.4532782459
| 21> H 0.4496168722 1.8576383318 1.0453033657
| 22> H -2.4128825351 1.397684091 1.2687619589
| 23> H -1.1081938119 -2.5502439119 0.0458293271
| 24> H 1.6044151086 -2.0745922324 -0.7944713227
| 25> H 2.5515149267 0.4854713842 1.3272441174
| 26> *
| 27>
| 28>                          ****END OF INPUT****

CARTESIAN COORDINATES (ANGSTROEM)
---------------------------------
  C      0.599960    1.704649   -0.030792
  C      1.395145    0.406412   -0.251177
  H      1.603496    0.293280   -1.322423
  C      0.535605   -0.778386    0.217778
  H      0.318072   -0.688810    1.288784
  C     -0.798116   -0.732602   -0.544838
  H     -0.596425   -0.772741   -1.629425
  C     -1.483290    0.614970   -0.258129
  H     -2.389967    0.693574   -0.871456
  O     -0.657908    1.674273   -0.690948
  O     -1.765441    0.697316    1.098461
  O     -1.655028   -1.780055   -0.182239
  O      1.164369   -2.027037    0.066509
  O      2.654359    0.447858    0.365198
  H      1.131118    2.557119   -0.453278
  H      0.449617    1.857638    1.045303
  H     -2.412883    1.397684    1.268762
  H     -1.108194   -2.550244    0.045829
  H      1.604415   -2.074592   -0.794471
  H      2.551515    0.485471    1.327244

 Total Charge           Charge          ....    0
 Multiplicity           Mult            ....    1
 Number of Electrons    NEL             ....   80
 Basis Dimension        Dim             ....  160

ORBITAL ENERGIES
----------------

  NO   OCC          E(Eh)            E(eV)
   0   2.0000     -18.766778      -510.6700
   1   2.0000     -18.766522      -510.6630
   2   2.0000     -18.762143      -510.5439
   3   2.0000     -18.756170      -510.3813
   4   2.0000     -18.742002      -509.9958
   5   2.0000      -9.984745      -271.6987
   6   2.0000      -9.946853      -270.6676
   7   2.0000      -9.942952      -270.5615
   8   2.0000      -9.938386      -270.4372
   9   2.0000      -9.934847      -270.3409
  10   2.0000      -0.981433       -26.7061
  11   2.0000      -0.948741       -25.8166
  12   2.0000      -0.931338       -25.3430
  13   2.0000      -0.914836       -24.8939
  14   2.0000      -0.910482       -24.7755
  15   2.0000      -0.701681       -19.0937
  16   2.0000      -0.679052       -18.4780
  17   2.0000      -0.589191       -16.0327
  18   2.0000      -0.577912       -15.7258
  19   2.0000      -0.541673       -14.7397
  20   2.0000      -0.499256       -13.5854
  21   2.0000      -0.494267       -13.4497
  22   2.0000      -0.458188       -12.4679
  23   2.0000      -0.449375       -12.2281
  24   2.0000      -0.427329       -11.6282
  25   2.0000      -0.416710       -11.3392
  26   2.0000      -0.408075       -11.1043
  27   2.0000      -0.375391       -10.2149
  28   2.0000      -0.370329       -10.0772
  29   2.0000      -0.351950        -9.5770
  30   2.0000      -0.329076        -8.9546
  31   2.0000      -0.313632        -8.5344
  32   2.0000      -0.299897        -8.1606
  33   2.0000      -0.286147        -7.7865
  34   2.0000      -0.270118        -7.3503
  35   2.0000      -0.255807        -6.9608
  36   2.0000      -0.244325        -6.6484
  37   2.0000      -0.229666        -6.2495
  38   2.0000      -0.216547        -5.8925
  39   2.0000      -0.205383        -5.5888
  40   0.0000       0.018305         0.4981
  41   0.0000       0.022068         0.6005
  42   0.0000       0.023717         0.6454
  43   0.0000       0.052136         1.4187
  44   0.0000       0.074230         2.0199

MULLIKEN ATOMIC CHARGES
-----------------------
   0 C :    0.082847
   1 C :   -0.006039
   2 H :    0.059885
   3 C :    0.002637
   4 H :    0.073110
   5 C :    0.088217
   6 H :    0.049027
   7 C :    0.145451
   8 H :    0.073374
   9 O :   -0.316057
  10 O :   -0.387769
  11 O :   -0.414694
  12 O :   -0.410484
  13 O :   -0.407736
  14 H :    0.100721
  15 H :    0.051295
  16 H :    0.310414
  17 H :    0.302323
  18 H :    0.302519
  19 H :    0.300959
Sum of atomic charges:   -0.0000000

LOEWDIN ATOMIC CHARGES
----------------------
   0 C :   -0.129079
   1 C :   -0.088931
   2 H :    0.111312
   3 C :   -0.092660
   4 H :    0.117138
   5 C :   -0.087622
   6 H :    0.097858
   7 C :   -0.000673
   8 H :    0.102879
   9 O :   -0.162159
  10 O :   -0.296641
  11 O :   -0.320203
  12 O :   -0.310483
  13 O :   -0.310327
  14 H :    0.119875
  15 H :    0.097661
  16 H :    0.294344
  17 H :    0.282088
  18 H :    0.288464
  19 H :    0.287158

  Mayer bond orders larger than 0.100000
B(  0-C ,  1-C ) :   1.0484 B(  0-C ,  9-O ) :   1.0026 B(  0-C , 14-H ) :   0.9244
B(  0-C , 15-H ) :   0.8867 B(  1-C ,  2-H ) :   0.8659 B(  1-C ,  3-C ) :   1.0187
B(  1-C , 13-O ) :   1.0551 B(  3-C ,  4-H ) :   0.8706 B(  3-C ,  5-C ) :   0.9874
B(  3-C , 12-O ) :   1.0573 B(  5-C ,  6-H ) :   0.8783 B(  5-C ,  7-C ) :   0.9747
B(  5-C , 11-O ) :   1.1101 B(  7-C ,  8-H ) :   0.9026 B(  7-C ,  9-O ) :   1.0505
B(  7-C , 10-O ) :   1.1270 B( 10-O , 16-H ) :   0.8411 B( 11-O , 17-H ) :   0.8287
B( 12-O , 18-H ) :   0.8469 B( 13-O , 19-H ) :   0.8485

Dispersion correction           -0.019205624
FINAL SINGLE POINT ENERGY      -571.414697798954

DIPOLE MOMENT
-------------

Method             : SCF
Type of density    : Electron Density
Multiplicity       :   1
Irrep              :   0
Energy             :  -571.5226667661551119 Eh
Relativity type    :
Basis              : AO
                                X                 Y                 Z
Electronic contribution:     -1.049713876      -0.775152081       0.174942374
Nuclear contribution   :      1.075766536       1.109651947      -0.079516022
                        -----------------------------------------
Total Dipole Moment    :      0.026052660       0.334499866       0.095426351
                        -----------------------------------------
Magnitude (a.u.)       :      0.348819567
Magnitude (Debye)      :      0.886628877

Rotational constants in cm-1:             0.056241             0.045023             0.029106
Rotational constants in MHz :          1686.077198          1349.759326           872.579083

                             ****ORCA TERMINATED NORMALLY****
TOTAL RUN TIME: 0 days 0 hours 0 minutes 10 seconds 794 msec
