                         Program Version 6.0.1  -  RELEASE   -
|  1> ! pbe def2-sv(p) def2/J RI DEFGRID1 loosescf d4 GCP(DFT/SV(P)) printgap
|  2> %output
|  3>     printlevel normal
|  4> end
|  5> * xyz 0 1
|  6> C 5.2961954693 -2.2844711973 -0.819317487
|  7> C 4.6136782949 -1.181175708 -0.0261968465
|  8> O 3.1870633499 -1.3782840483 0.009883576
|  9> C 2.4630878939 -0.8960050104 -0.9764430095
| 10> O 2.902256685 -0.2719612956 -1.9182311452
| 11> C 0.9923358006 -1.228064371 -0.7972808788
| 12> C 0.1543976544 -0.0551226201 -1.2856054825
| 13> H 0.4890196038 0.2281862943 -2.2911084958
| 14> C 0.2767440909 1.1772170897 -0.4112041119
| 15> O -0.6013436325 2.0158131979 -0.3366899401
| 16> O 1.4318971886 1.2473804646 0.1927980316
| 17> C 1.6632006003 2.3676353134 1.0722767988
| 18> C 3.0713504662 2.2474191064 1.6170049486
| 19> S -1.6109499159 -0.4515248652 -1.4673156081
| 20> P -2.3131303612 -0.0180289492 0.4918751993
| 21> S -1.0490154614 -0.1882494397 1.9756984722
| 22> O -3.102801585 1.3466436439 0.5167602729
| 23> C -4.0142801616 1.7447564258 -0.5258230736
| 24> O -3.546464257 -1.0374298272 0.584737006
| 25> C -3.3417102662 -2.4524453543 0.6691740255
| 26> H 4.9854908238 -2.2433184517 -1.8607399929
| 27> H 6.3716499238 -2.150872067 -0.7671618471
| 28> H 5.0350669932 -3.2559298718 -0.4089577316
| 29> H 4.8182731898 -0.2024287066 -0.4688687031
| 30> H 4.9180832698 -1.1975638856 1.0202840215
| 31> H 0.8009115851 -1.4529739601 0.2526191066
| 32> H 0.7640023474 -2.10736857 -1.4028505559
| 33> H 1.5158962737 3.2894409796 0.501533226
| 34> H 0.911610634 2.3242044245 1.8675662788
| 35> H 3.7887900901 2.2710851543 0.8018102435
| 36> H 3.2648177108 3.0751331135 2.2907210047
| 37> H 3.1773764899 1.3111409312 2.1569601929
| 38> H -3.447504841 2.0074328881 -1.4187116813
| 39> H -4.5294192464 2.6166273079 -0.1314474047
| 40> H -4.7160742886 0.9407595512 -0.740227859
| 41> H -3.0117184501 -2.8363934231 -0.2956294429
| 42> H -4.3076357977 -2.8708436959 0.9399433422
| 43> H -2.6002903212 -2.6777730938 1.4371760207
| 44> *
| 45>
| 46>                          ****END OF INPUT****

CARTESIAN COORDINATES (ANGSTROEM)
---------------------------------
  C      5.296195   -2.284471   -0.819317
  C      4.613678   -1.181176   -0.026197
  O      3.187063   -1.378284    0.009884
  C      2.463088   -0.896005   -0.976443
  O      2.902257   -0.271961   -1.918231
  C      0.992336   -1.228064   -0.797281
  C      0.154398   -0.055123   -1.285605
  H      0.489020    0.228186   -2.291108
  C      0.276744    1.177217   -0.411204
  O     -0.601344    2.015813   -0.336690
  O      1.431897    1.247380    0.192798
  C      1.663201    2.367635    1.072277
  C      3.071350    2.247419    1.617005
  S     -1.610950   -0.451525   -1.467316
  P     -2.313130   -0.018029    0.491875
  S     -1.049015   -0.188249    1.975698
  O     -3.102802    1.346644    0.516760
  C     -4.014280    1.744756   -0.525823
  O     -3.546464   -1.037430    0.584737
  C     -3.341710   -2.452445    0.669174
  H      4.985491   -2.243318   -1.860740
  H      6.371650   -2.150872   -0.767162
  H      5.035067   -3.255930   -0.408958
  H      4.818273   -0.202429   -0.468869
  H      4.918083   -1.197564    1.020284
  H      0.800912   -1.452974    0.252619
  H      0.764002   -2.107369   -1.402851
  H      1.515896    3.289441    0.501533
  H      0.911611    2.324204    1.867566
  H      3.788790    2.271085    0.801810
  H      3.264818    3.075133    2.290721
  H      3.177376    1.311141    2.156960
  H     -3.447505    2.007433   -1.418712
  H     -4.529419    2.616627   -0.131447
  H     -4.716074    0.940760   -0.740228
  H     -3.011718   -2.836393   -0.295629
  H     -4.307636   -2.870844    0.939943
  H     -2.600290   -2.677773    1.437176

 Total Charge           Charge          ....    0
 Multiplicity           Mult            ....    1
 Number of Electrons    NEL             ....  174
 Basis Dimension        Dim             ....  316

ORBITAL ENERGIES
----------------

  NO   OCC          E(Eh)            E(eV)
   0   2.0000     -88.040211     -2395.6959
   1   2.0000     -87.982356     -2394.1216
   2   2.0000     -76.424680     -2079.6213
   3   2.0000     -18.809453      -511.8312
   4   2.0000     -18.801418      -511.6126
   5   2.0000     -18.789456      -511.2871
   6   2.0000     -18.786715      -511.2125
   7   2.0000     -18.737529      -509.8741
   8   2.0000     -18.736373      -509.8426
   9   2.0000     -10.016313      -272.5577
  10   2.0000     -10.009009      -272.3590
  11   2.0000      -9.948761      -270.7195
  12   2.0000      -9.946884      -270.6685
  13   2.0000      -9.946155      -270.6486
  14   2.0000      -9.943362      -270.5726
  15   2.0000      -9.942931      -270.5609
  16   2.0000      -9.903228      -269.4805
  17   2.0000      -9.888482      -269.0793
  18   2.0000      -9.888339      -269.0754
  19   2.0000      -7.685145      -209.1234
  20   2.0000      -7.627520      -207.5554
  21   2.0000      -6.421437      -174.7362
  22   2.0000      -5.713084      -155.4609
  23   2.0000      -5.709625      -155.3668
  24   2.0000      -5.702101      -155.1621
  25   2.0000      -5.656556      -153.9227
  26   2.0000      -5.648001      -153.6899
  27   2.0000      -5.647590      -153.6787
  28   2.0000      -4.644111      -126.3727
  29   2.0000      -4.643433      -126.3542
  30   2.0000      -4.641798      -126.3097
  31   2.0000      -1.018785       -27.7225
  32   2.0000      -1.009271       -27.4637
  33   2.0000      -0.982608       -26.7381
  34   2.0000      -0.938297       -25.5324
  35   2.0000      -0.918073       -24.9820
  36   2.0000      -0.914719       -24.8908
  37   2.0000      -0.763823       -20.7847
  38   2.0000      -0.711765       -19.3681
  39   2.0000      -0.708962       -19.2918
  40   2.0000      -0.691719       -18.8226
  41   2.0000      -0.658390       -17.9157
  42   2.0000      -0.633488       -17.2381
  43   2.0000      -0.622124       -16.9288
  44   2.0000      -0.615339       -16.7442
  45   2.0000      -0.592683       -16.1277
  46   2.0000      -0.561138       -15.2694
  47   2.0000      -0.514637       -14.0040
  48   2.0000      -0.506315       -13.7775
  49   2.0000      -0.500818       -13.6279
  50   2.0000      -0.475400       -12.9363
  51   2.0000      -0.470196       -12.7947
  52   2.0000      -0.464082       -12.6283
  53   2.0000      -0.443793       -12.0762
  54   2.0000      -0.435913       -11.8618
  55   2.0000      -0.432934       -11.7807
  56   2.0000      -0.428467       -11.6592
  57   2.0000      -0.417578       -11.3629
  58   2.0000      -0.411851       -11.2070
  59   2.0000      -0.404480       -11.0065
  60   2.0000      -0.400546       -10.8994
  61   2.0000      -0.397542       -10.8177
  62   2.0000      -0.388885       -10.5821
  63   2.0000      -0.383316       -10.4306
  64   2.0000      -0.376687       -10.2502
  65   2.0000      -0.361335        -9.8324
  66   2.0000      -0.359172        -9.7736
  67   2.0000      -0.357675        -9.7328
  68   2.0000      -0.347273        -9.4498
  69   2.0000      -0.340365        -9.2618
  70   2.0000      -0.332193        -9.0394
  71   2.0000      -0.326830        -8.8935
  72   2.0000      -0.321600        -8.7512
  73   2.0000      -0.311145        -8.4667
  74   2.0000      -0.303678        -8.2635
  75   2.0000      -0.298249        -8.1158
  76   2.0000      -0.294529        -8.0145
  77   2.0000      -0.290700        -7.9104
  78   2.0000      -0.272516        -7.4155
  79   2.0000      -0.262324        -7.1382
  80   2.0000      -0.258297        -7.0286
  81   2.0000      -0.254619        -6.9285
  82   2.0000      -0.235655        -6.4125
  83   2.0000      -0.226919        -6.1748
  84   2.0000      -0.215030        -5.8513
  85   2.0000      -0.200231        -5.4486
  86   2.0000      -0.197689        -5.3794
  87   0.0000      -0.043680        -1.1886
  88   0.0000      -0.026910        -0.7323
  89   0.0000      -0.015077        -0.4103
  90   0.0000       0.008830         0.2403
  91   0.0000       0.022329         0.6076

MULLIKEN ATOMIC CHARGES
-----------------------
   0 C :   -0.301368
   1 C :   -0.020983
   2 O :   -0.224353
   3 C :    0.117370
   4 O :   -0.217680
   5 C :   -0.044839
   6 C :   -0.298335
   7 H :    0.166042
   8 C :    0.166807
   9 O :   -0.198211
  10 O :   -0.215588
  11 C :   -0.024378
  12 C :   -0.286814
  13 S :   -0.091010
  14 P :    0.608235
  15 S :   -0.315526
  16 O :   -0.348397
  17 C :   -0.101351
  18 O :   -0.386543
  19 C :   -0.100377
  20 H :    0.126080
  21 H :    0.112679
  22 H :    0.114675
  23 H :    0.111926
  24 H :    0.104361
  25 H :    0.117495
  26 H :    0.113854
  27 H :    0.108040
  28 H :    0.119704
  29 H :    0.121298
  30 H :    0.112796
  31 H :    0.122377
  32 H :    0.129128
  33 H :    0.130665
  34 H :    0.116782
  35 H :    0.113681
  36 H :    0.125033
  37 H :    0.116726
Sum of atomic charges:   -0.0000000

LOEWDIN ATOMIC CHARGES
----------------------
   0 C :   -0.355685
   1 C :   -0.111240
   2 O :   -0.052160
   3 C :    0.028511
   4 O :   -0.178781
   5 C :   -0.259389
   6 C :   -0.265366
   7 H :    0.157517
   8 C :   -0.000611
   9 O :   -0.172000
  10 O :   -0.031544
  11 C :   -0.102982
  12 C :   -0.351967
  13 S :    0.103761
  14 P :    0.584829
  15 S :   -0.302393
  16 O :   -0.226866
  17 C :   -0.207036
  18 O :   -0.261914
  19 C :   -0.217368
  20 H :    0.130289
  21 H :    0.130620
  22 H :    0.125240
  23 H :    0.119382
  24 H :    0.117777
  25 H :    0.133037
  26 H :    0.143424
  27 H :    0.118571
  28 H :    0.121792
  29 H :    0.126442
  30 H :    0.131914
  31 H :    0.128545
  32 H :    0.117003
  33 H :    0.126750
  34 H :    0.111483
  35 H :    0.107160
  36 H :    0.122410
  37 H :    0.110847

  Mayer bond orders larger than 0.100000
B(  0-C ,  1-C ) :   1.1733 B(  0-C , 20-H ) :   0.9461 B(  0-C , 21-H ) :   0.9444
B(  0-C , 22-H ) :   0.9486 B(  1-C ,  2-O ) :   0.9165 B(  1-C , 23-H ) :   0.9115
B(  1-C , 24-H ) :   0.9362 B(  2-O ,  3-C ) :   1.2454 B(  3-C ,  4-O ) :   2.0240
B(  3-C ,  5-C ) :   0.9921 B(  5-C ,  6-C ) :   1.0322 B(  5-C , 25-H ) :   0.8858
B(  5-C , 26-H ) :   0.8783 B(  6-C ,  7-H ) :   0.8480 B(  6-C ,  8-C ) :   0.9112
B(  6-C , 13-S ) :   1.0115 B(  8-C ,  9-O ) :   2.0156 B(  8-C , 10-O ) :   1.2648
B( 10-O , 11-C ) :   0.8922 B( 11-C , 12-C ) :   1.1558 B( 11-C , 27-H ) :   0.9306
B( 11-C , 28-H ) :   0.9227 B( 12-C , 29-H ) :   0.9470 B( 12-C , 30-H ) :   0.9420
B( 12-C , 31-H ) :   0.9469 B( 13-S , 14-P ) :   0.9529 B( 13-S , 15-S ) :   0.1121
B( 14-P , 15-S ) :   1.6010 B( 14-P , 16-O ) :   1.1496 B( 14-P , 18-O ) :   1.0712
B( 16-O , 17-C ) :   0.9165 B( 17-C , 32-H ) :   0.9430 B( 17-C , 33-H ) :   0.9594
B( 17-C , 34-H ) :   0.9451 B( 18-O , 19-C ) :   0.9335 B( 19-C , 35-H ) :   0.9463
B( 19-C , 36-H ) :   0.9587 B( 19-C , 37-H ) :   0.9355

Dispersion correction           -0.052552939
FINAL SINGLE POINT ENERGY     -1979.019328346195

DIPOLE MOMENT
-------------

Method             : SCF
Type of density    : Electron Density
Multiplicity       :   1
Irrep              :   0
Energy             : -1979.1494610850777462 Eh
Relativity type    :
Basis              : AO
                                X                 Y                 Z
Electronic contribution:    -18.885573107       2.184945074      -1.121367314
Nuclear contribution   :     19.249118688      -2.687110090       0.922932138
                        -----------------------------------------
Total Dipole Moment    :      0.363545581      -0.502165016      -0.198435177
                        -----------------------------------------
Magnitude (a.u.)       :      0.650931342
Magnitude (Debye)      :      1.654535983

Rotational constants in cm-1:             0.016721             0.006046             0.005472
Rotational constants in MHz :           501.291078           181.266962           164.031555

                             ****ORCA TERMINATED NORMALLY****
TOTAL RUN TIME: 0 days 0 hours 0 minutes 44 seconds 220 msec
