                         Program Version 6.0.0  -   RELEASE  -
|  1> ! pbe def2-sv(p) def2/J RI DEFGRID1 loosescf d4 GCP(DFT/SV(P)) printgap
|  2> %output
|  3>     printlevel normal
|  4> end
|  5> * xyz 0 1
|  6> C 4.2483204046 2.0179764444 -1.0481820355
|  7> C 4.6437343948 0.6007353154 -0.6885953952
|  8> O 3.5181333375 -0.2981216976 -0.6749374174
|  9> P 2.3349252828 -0.1743876986 0.3795014347
| 10> S 2.8496611785 0.2872485791 2.2073128592
| 11> O 1.6721535935 -1.6024734005 0.2951931949
| 12> C 1.4417284233 -2.3015774751 -0.9552312493
| 13> C 0.6361521076 -3.5430784731 -0.6402864528
| 14> S 0.9630214885 1.167364662 -0.5513846352
| 15> C 0.0321275759 1.5712283784 0.9455758603
| 16> S -1.0179627408 0.2146040449 1.5393687696
| 17> P -2.3380417997 0.077687526 -0.1186364072
| 18> S -1.8034336543 -0.887448545 -1.7416777719
| 19> O -2.7202059383 1.6001910147 -0.3029877748
| 20> C -2.9677308365 2.2200231944 -1.586005652
| 21> C -1.8937433761 3.2487008744 -1.8793651735
| 22> O -3.672510386 -0.4976375983 0.5304067597
| 23> C -3.9330457202 -1.9067789169 0.625978286
| 24> C -3.1087893243 -2.5545352801 1.7205459899
| 25> H 3.6510127785 2.4531999743 -0.2485788749
| 26> H 5.1447461787 2.6150237135 -1.1812712143
| 27> H 3.6675965239 2.0278564279 -1.9673067404
| 28> H 5.1178153543 0.571266734 0.2970891182
| 29> H 5.3096345324 0.166036654 -1.4354567373
| 30> H 0.897755684 -1.6396138362 -1.6357135292
| 31> H 2.4124973332 -2.5474102084 -1.3885497677
| 32> H 0.5063012775 -4.1198474705 -1.5500282332
| 33> H 1.1489672018 -4.1430722034 0.1058217698
| 34> H -0.3430660351 -3.2650739326 -0.259244776
| 35> H -0.5828014284 2.4387512827 0.7221024553
| 36> H 0.7328421364 1.7758992439 1.7567781006
| 37> H -2.9871170306 1.4455283078 -2.3592464049
| 38> H -3.9533210618 2.680399909 -1.5023269968
| 39> H -0.9188461587 2.7675573215 -1.9458060831
| 40> H -2.1151714152 3.7295526997 -2.8265675912
| 41> H -1.8666168706 4.0012442065 -1.0960707391
| 42> H -5.0012135649 -1.9678619849 0.8380793282
| 43> H -3.7204677638 -2.3658796538 -0.3459071561
| 44> H -3.2928648955 -2.0638706338 2.6727261781
| 45> H -3.3695978772 -3.6051699154 1.7978632455
| 46> H -2.0464675477 -2.4679189484 1.4905574876
| 47> *
| 48>
| 49>                          ****END OF INPUT****

CARTESIAN COORDINATES (ANGSTROEM)
---------------------------------
  C      4.248320    2.017976   -1.048182
  C      4.643734    0.600735   -0.688595
  O      3.518133   -0.298122   -0.674937
  P      2.334925   -0.174388    0.379501
  S      2.849661    0.287249    2.207313
  O      1.672154   -1.602473    0.295193
  C      1.441728   -2.301577   -0.955231
  C      0.636152   -3.543078   -0.640286
  S      0.963021    1.167365   -0.551385
  C      0.032128    1.571228    0.945576
  S     -1.017963    0.214604    1.539369
  P     -2.338042    0.077688   -0.118636
  S     -1.803434   -0.887449   -1.741678
  O     -2.720206    1.600191   -0.302988
  C     -2.967731    2.220023   -1.586006
  C     -1.893743    3.248701   -1.879365
  O     -3.672510   -0.497638    0.530407
  C     -3.933046   -1.906779    0.625978
  C     -3.108789   -2.554535    1.720546
  H      3.651013    2.453200   -0.248579
  H      5.144746    2.615024   -1.181271
  H      3.667597    2.027856   -1.967307
  H      5.117815    0.571267    0.297089
  H      5.309635    0.166037   -1.435457
  H      0.897756   -1.639614   -1.635714
  H      2.412497   -2.547410   -1.388550
  H      0.506301   -4.119847   -1.550028
  H      1.148967   -4.143072    0.105822
  H     -0.343066   -3.265074   -0.259245
  H     -0.582801    2.438751    0.722102
  H      0.732842    1.775899    1.756778
  H     -2.987117    1.445528   -2.359246
  H     -3.953321    2.680400   -1.502327
  H     -0.918846    2.767557   -1.945806
  H     -2.115171    3.729553   -2.826568
  H     -1.866617    4.001244   -1.096071
  H     -5.001214   -1.967862    0.838079
  H     -3.720468   -2.365880   -0.345907
  H     -3.292865   -2.063871    2.672726
  H     -3.369598   -3.605170    1.797863
  H     -2.046468   -2.467919    1.490557

 Total Charge           Charge          ....    0
 Multiplicity           Mult            ....    1
 Number of Electrons    NEL             ....  202
 Basis Dimension        Dim             ....  334

ORBITAL ENERGIES
----------------

  NO   OCC          E(Eh)            E(eV)
   0   2.0000     -88.041024     -2395.7181
   1   2.0000     -88.040374     -2395.7004
   2   2.0000     -87.989951     -2394.3283
   3   2.0000     -87.985558     -2394.2088
   4   2.0000     -76.428858     -2079.7350
   5   2.0000     -76.424382     -2079.6132
   6   2.0000     -18.797208      -511.4980
   7   2.0000     -18.794936      -511.4362
   8   2.0000     -18.790904      -511.3265
   9   2.0000     -18.784983      -511.1654
  10   2.0000      -9.956575      -270.9322
  11   2.0000      -9.954603      -270.8785
  12   2.0000      -9.954591      -270.8782
  13   2.0000      -9.952091      -270.8102
  14   2.0000      -9.943055      -270.5643
  15   2.0000      -9.891370      -269.1579
  16   2.0000      -9.886488      -269.0250
  17   2.0000      -9.885092      -268.9870
  18   2.0000      -9.877534      -268.7814
  19   2.0000      -7.685587      -209.1354
  20   2.0000      -7.685483      -209.1326
  21   2.0000      -7.634779      -207.7529
  22   2.0000      -7.630834      -207.6455
  23   2.0000      -6.426486      -174.8736
  24   2.0000      -6.421968      -174.7506
  25   2.0000      -5.713531      -155.4731
  26   2.0000      -5.713313      -155.4672
  27   2.0000      -5.710227      -155.3832
  28   2.0000      -5.710082      -155.3792
  29   2.0000      -5.702635      -155.1766
  30   2.0000      -5.702213      -155.1651
  31   2.0000      -5.663433      -154.1099
  32   2.0000      -5.659781      -154.0105
  33   2.0000      -5.655503      -153.8941
  34   2.0000      -5.655077      -153.8825
  35   2.0000      -5.651373      -153.7817
  36   2.0000      -5.651012      -153.7718
  37   2.0000      -4.649114      -126.5088
  38   2.0000      -4.648354      -126.4881
  39   2.0000      -4.646774      -126.4451
  40   2.0000      -4.644899      -126.3941
  41   2.0000      -4.643511      -126.3564
  42   2.0000      -4.642320      -126.3239
  43   2.0000      -0.989188       -26.9172
  44   2.0000      -0.986024       -26.8311
  45   2.0000      -0.948893       -25.8207
  46   2.0000      -0.940972       -25.6052
  47   2.0000      -0.763032       -20.7632
  48   2.0000      -0.722701       -19.6657
  49   2.0000      -0.709716       -19.3124
  50   2.0000      -0.688951       -18.7473
  51   2.0000      -0.687390       -18.7048
  52   2.0000      -0.673180       -18.3181
  53   2.0000      -0.653100       -17.7718
  54   2.0000      -0.637986       -17.3605
  55   2.0000      -0.601837       -16.3768
  56   2.0000      -0.591529       -16.0963
  57   2.0000      -0.575457       -15.6590
  58   2.0000      -0.564540       -15.3619
  59   2.0000      -0.559227       -15.2173
  60   2.0000      -0.504528       -13.7289
  61   2.0000      -0.500350       -13.6152
  62   2.0000      -0.475366       -12.9354
  63   2.0000      -0.472752       -12.8642
  64   2.0000      -0.462391       -12.5823
  65   2.0000      -0.443862       -12.0781
  66   2.0000      -0.440652       -11.9907
  67   2.0000      -0.435005       -11.8371
  68   2.0000      -0.428033       -11.6474
  69   2.0000      -0.419310       -11.4100
  70   2.0000      -0.410601       -11.1730
  71   2.0000      -0.395428       -10.7601
  72   2.0000      -0.392716       -10.6863
  73   2.0000      -0.386934       -10.5290
  74   2.0000      -0.378528       -10.3003
  75   2.0000      -0.375002       -10.2043
  76   2.0000      -0.364054        -9.9064
  77   2.0000      -0.361831        -9.8459
  78   2.0000      -0.358262        -9.7488
  79   2.0000      -0.353444        -9.6177
  80   2.0000      -0.348467        -9.4823
  81   2.0000      -0.346043        -9.4163
  82   2.0000      -0.339105        -9.2275
  83   2.0000      -0.336669        -9.1612
  84   2.0000      -0.333093        -9.0639
  85   2.0000      -0.319226        -8.6866
  86   2.0000      -0.307804        -8.3758
  87   2.0000      -0.298836        -8.1317
  88   2.0000      -0.297700        -8.1008
  89   2.0000      -0.294666        -8.0183
  90   2.0000      -0.287964        -7.8359
  91   2.0000      -0.276537        -7.5250
  92   2.0000      -0.266667        -7.2564
  93   2.0000      -0.263967        -7.1829
  94   2.0000      -0.256965        -6.9924
  95   2.0000      -0.241094        -6.5605
  96   2.0000      -0.219605        -5.9757
  97   2.0000      -0.209192        -5.6924
  98   2.0000      -0.206867        -5.6291
  99   2.0000      -0.201312        -5.4780
 100   2.0000      -0.193971        -5.2782
 101   0.0000      -0.047348        -1.2884
 102   0.0000      -0.025677        -0.6987
 103   0.0000      -0.015407        -0.4192
 104   0.0000      -0.000353        -0.0096
 105   0.0000       0.014616         0.3977

MULLIKEN ATOMIC CHARGES
-----------------------
   0 C :   -0.317912
   1 C :    0.000982
   2 O :   -0.387346
   3 P :    0.627443
   4 S :   -0.318043
   5 O :   -0.356468
   6 C :   -0.023111
   7 C :   -0.290452
   8 S :   -0.104838
   9 C :   -0.373193
  10 S :   -0.073658
  11 P :    0.608252
  12 S :   -0.328171
  13 O :   -0.373172
  14 C :   -0.004860
  15 C :   -0.315693
  16 O :   -0.363576
  17 C :   -0.005857
  18 C :   -0.345298
  19 H :    0.126770
  20 H :    0.113737
  21 H :    0.118172
  22 H :    0.113450
  23 H :    0.105318
  24 H :    0.122427
  25 H :    0.102020
  26 H :    0.104955
  27 H :    0.114524
  28 H :    0.130205
  29 H :    0.193253
  30 H :    0.194656
  31 H :    0.113642
  32 H :    0.109108
  33 H :    0.133015
  34 H :    0.115736
  35 H :    0.121128
  36 H :    0.106694
  37 H :    0.109747
  38 H :    0.123320
  39 H :    0.116103
  40 H :    0.156991
Sum of atomic charges:   -0.0000000

LOEWDIN ATOMIC CHARGES
----------------------
   0 C :   -0.371385
   1 C :   -0.115071
   2 O :   -0.247118
   3 P :    0.575572
   4 S :   -0.310934
   5 O :   -0.235166
   6 C :   -0.118151
   7 C :   -0.352599
   8 S :    0.078443
   9 C :   -0.485044
  10 S :    0.092487
  11 P :    0.569385
  12 S :   -0.307303
  13 O :   -0.241400
  14 C :   -0.115941
  15 C :   -0.360806
  16 O :   -0.243237
  17 C :   -0.121949
  18 C :   -0.369855
  19 H :    0.121022
  20 H :    0.131434
  21 H :    0.123541
  22 H :    0.113537
  23 H :    0.118944
  24 H :    0.104789
  25 H :    0.110128
  26 H :    0.129672
  27 H :    0.126191
  28 H :    0.122060
  29 H :    0.131923
  30 H :    0.129037
  31 H :    0.108731
  32 H :    0.119371
  33 H :    0.120632
  34 H :    0.133529
  35 H :    0.125039
  36 H :    0.119599
  37 H :    0.107101
  38 H :    0.128428
  39 H :    0.132706
  40 H :    0.122659

  Mayer bond orders larger than 0.100000
B(  0-C ,  1-C ) :   1.1668 B(  0-C , 19-H ) :   0.9348 B(  0-C , 20-H ) :   0.9366
B(  0-C , 21-H ) :   0.9435 B(  1-C ,  2-O ) :   0.9068 B(  1-C , 22-H ) :   0.9192
B(  1-C , 23-H ) :   0.9344 B(  2-O ,  3-P ) :   1.0865 B(  3-P ,  4-S ) :   1.6295
B(  3-P ,  5-O ) :   1.1511 B(  3-P ,  8-S ) :   0.9384 B(  4-S ,  8-S ) :   0.1065
B(  5-O ,  6-C ) :   0.8856 B(  6-C ,  7-C ) :   1.1707 B(  6-C , 24-H ) :   0.9041
B(  6-C , 25-H ) :   0.9281 B(  7-C , 26-H ) :   0.9387 B(  7-C , 27-H ) :   0.9491
B(  7-C , 28-H ) :   0.9329 B(  8-S ,  9-C ) :   1.0150 B(  9-C , 10-S ) :   0.9989
B(  9-C , 29-H ) :   0.8916 B(  9-C , 30-H ) :   0.8692 B( 10-S , 11-P ) :   0.9712
B( 10-S , 12-S ) :   0.1068 B( 11-P , 12-S ) :   1.6036 B( 11-P , 13-O ) :   1.1174
B( 11-P , 16-O ) :   1.1165 B( 13-O , 14-C ) :   0.8961 B( 14-C , 15-C ) :   1.1689
B( 14-C , 31-H ) :   0.9021 B( 14-C , 32-H ) :   0.9321 B( 15-C , 33-H ) :   0.9348
B( 15-C , 34-H ) :   0.9379 B( 15-C , 35-H ) :   0.9436 B( 16-O , 17-C ) :   0.9139
B( 17-C , 18-C ) :   1.1623 B( 17-C , 36-H ) :   0.9322 B( 17-C , 37-H ) :   0.9109
B( 18-C , 38-H ) :   0.9430 B( 18-C , 39-H ) :   0.9394 B( 18-C , 40-H ) :   0.9224

Dispersion correction           -0.066132955
FINAL SINGLE POINT ENERGY     -2929.522374818711

DIPOLE MOMENT
-------------

Method             : SCF
Type of density    : Electron Density
Multiplicity       :   1
Irrep              :   0
Energy             : -2929.6410063444868683 Eh
Relativity type    :
Basis              : AO
                                X                 Y                 Z
Electronic contribution:      1.175363066       1.730525873       8.700532200
Nuclear contribution   :     -1.552657790      -1.367878527      -9.716418692
                        -----------------------------------------
Total Dipole Moment    :     -0.377294724       0.362647347      -1.015886491
                        -----------------------------------------
Magnitude (a.u.)       :      1.142755341
Magnitude (Debye)      :      2.904653241

Rotational constants in cm-1:             0.011348             0.005535             0.004820
Rotational constants in MHz :           340.189601           165.932911           144.493941

                             ****ORCA TERMINATED NORMALLY****
TOTAL RUN TIME: 0 days 0 hours 0 minutes 21 seconds 323 msec
