                         Program Version 6.0.0  -   RELEASE  -
|  1> ! pbe def2-sv(p) def2/J RI DEFGRID1 loosescf d4 GCP(DFT/SV(P)) printgap
|  2> %output
|  3>     printlevel normal
|  4> end
|  5> * xyz 0 1
|  6> C 3.290329125 1.8660669944 -1.4043053906
|  7> C 1.9759044662 2.1489120324 -0.7106894259
|  8> O 1.8829669846 1.553809374 0.6061753106
|  9> P 2.0918941928 0.0325004782 0.9766026837
| 10> S 1.5007039104 -0.3564129686 2.798587984
| 11> O 3.6550693975 -0.1645793949 0.7465970875
| 12> C 4.3882896571 -1.2388173047 1.3560148308
| 13> C 3.9830818548 -2.5937288793 0.8116672096
| 14> S 1.1631871744 -1.0542205196 -0.6167522258
| 15> C -0.2234063763 -1.7644675047 0.3079612682
| 16> S -1.4235795128 -0.54034645 0.8848316726
| 17> P -2.0936449282 0.1432736326 -1.0260586028
| 18> S -1.9050844324 -1.1345095158 -2.4956135937
| 19> O -1.3070660269 1.490784723 -1.3043785248
| 20> C -1.6630828447 2.7899606787 -0.7706098978
| 21> C -1.5440882233 2.8548187656 0.7379865909
| 22> O -3.5678515442 0.6771880906 -0.7644041091
| 23> C -4.722252699 -0.173544303 -0.8843197948
| 24> C -4.7426637892 -1.2706994671 0.1596460453
| 25> H 3.3704403254 0.8072686389 -1.6426970226
| 26> H 3.3311658391 2.4379591742 -2.3265304643
| 27> H 4.1233396884 2.1488790076 -0.7662335446
| 28> H 1.1389314325 1.782798236 -1.3121559096
| 29> H 1.8512741239 3.2139589774 -0.5074861415
| 30> H 5.4291829655 -1.0078826646 1.1256208941
| 31> H 4.2277896518 -1.1966491032 2.4379788953
| 32> H 4.0360431533 -2.5994201967 -0.2741386155
| 33> H 4.6481912074 -3.3536770943 1.2089726681
| 34> H 2.9634869251 -2.8262854301 1.1159190145
| 35> H 0.1420850522 -2.2636672296 1.2038119466
| 36> H -0.7052534566 -2.4616169411 -0.3763949496
| 37> H -0.9582235145 3.4639293662 -1.2599846902
| 38> H -2.6810351466 3.0216441158 -1.0885220358
| 39> H -0.5516830928 2.5485294409 1.0632530366
| 40> H -1.7233783605 3.8745832086 1.0640838238
| 41> H -2.2776794263 2.2002983303 1.2053311756
| 42> H -5.5622663361 0.5121621297 -0.7646217317
| 43> H -4.7297923417 -0.6023955259 -1.8910397405
| 44> H -4.6212623781 -0.8523351773 1.1557399694
| 45> H -5.6883500152 -1.8001334712 0.1035936487
| 46> H -3.9336141103 -1.9755390681 -0.0264103148
| 47> *
| 48>
| 49>                          ****END OF INPUT****

CARTESIAN COORDINATES (ANGSTROEM)
---------------------------------
  C      3.290329    1.866067   -1.404305
  C      1.975904    2.148912   -0.710689
  O      1.882967    1.553809    0.606175
  P      2.091894    0.032500    0.976603
  S      1.500704   -0.356413    2.798588
  O      3.655069   -0.164579    0.746597
  C      4.388290   -1.238817    1.356015
  C      3.983082   -2.593729    0.811667
  S      1.163187   -1.054221   -0.616752
  C     -0.223406   -1.764468    0.307961
  S     -1.423580   -0.540346    0.884832
  P     -2.093645    0.143274   -1.026059
  S     -1.905084   -1.134510   -2.495614
  O     -1.307066    1.490785   -1.304379
  C     -1.663083    2.789961   -0.770610
  C     -1.544088    2.854819    0.737987
  O     -3.567852    0.677188   -0.764404
  C     -4.722253   -0.173544   -0.884320
  C     -4.742664   -1.270699    0.159646
  H      3.370440    0.807269   -1.642697
  H      3.331166    2.437959   -2.326530
  H      4.123340    2.148879   -0.766234
  H      1.138931    1.782798   -1.312156
  H      1.851274    3.213959   -0.507486
  H      5.429183   -1.007883    1.125621
  H      4.227790   -1.196649    2.437979
  H      4.036043   -2.599420   -0.274139
  H      4.648191   -3.353677    1.208973
  H      2.963487   -2.826285    1.115919
  H      0.142085   -2.263667    1.203812
  H     -0.705253   -2.461617   -0.376395
  H     -0.958224    3.463929   -1.259985
  H     -2.681035    3.021644   -1.088522
  H     -0.551683    2.548529    1.063253
  H     -1.723378    3.874583    1.064084
  H     -2.277679    2.200298    1.205331
  H     -5.562266    0.512162   -0.764622
  H     -4.729792   -0.602396   -1.891040
  H     -4.621262   -0.852335    1.155740
  H     -5.688350   -1.800133    0.103594
  H     -3.933614   -1.975539   -0.026410

 Total Charge           Charge          ....    0
 Multiplicity           Mult            ....    1
 Number of Electrons    NEL             ....  202
 Basis Dimension        Dim             ....  334

ORBITAL ENERGIES
----------------

  NO   OCC          E(Eh)            E(eV)
   0   2.0000     -88.041656     -2395.7352
   1   2.0000     -88.039364     -2395.6729
   2   2.0000     -87.986465     -2394.2334
   3   2.0000     -87.985054     -2394.1950
   4   2.0000     -76.427418     -2079.6958
   5   2.0000     -76.425668     -2079.6482
   6   2.0000     -18.798317      -511.5282
   7   2.0000     -18.791172      -511.3338
   8   2.0000     -18.790977      -511.3285
   9   2.0000     -18.790856      -511.3252
  10   2.0000      -9.956850      -270.9397
  11   2.0000      -9.956441      -270.9285
  12   2.0000      -9.953771      -270.8559
  13   2.0000      -9.953669      -270.8531
  14   2.0000      -9.951610      -270.7971
  15   2.0000      -9.886858      -269.0351
  16   2.0000      -9.885501      -268.9982
  17   2.0000      -9.883957      -268.9561
  18   2.0000      -9.883508      -268.9439
  19   2.0000      -7.685901      -209.1440
  20   2.0000      -7.683796      -209.0867
  21   2.0000      -7.631695      -207.6690
  22   2.0000      -7.630299      -207.6310
  23   2.0000      -6.424750      -174.8263
  24   2.0000      -6.422975      -174.7780
  25   2.0000      -5.713783      -155.4799
  26   2.0000      -5.711728      -155.4240
  27   2.0000      -5.710447      -155.3892
  28   2.0000      -5.708407      -155.3336
  29   2.0000      -5.702956      -155.1853
  30   2.0000      -5.700708      -155.1242
  31   2.0000      -5.660644      -154.0339
  32   2.0000      -5.659292      -153.9972
  33   2.0000      -5.652254      -153.8056
  34   2.0000      -5.651868      -153.7951
  35   2.0000      -5.650863      -153.7678
  36   2.0000      -5.650406      -153.7554
  37   2.0000      -4.647857      -126.4746
  38   2.0000      -4.646198      -126.4295
  39   2.0000      -4.645653      -126.4146
  40   2.0000      -4.645047      -126.3982
  41   2.0000      -4.644737      -126.3897
  42   2.0000      -4.643394      -126.3532
  43   2.0000      -0.990557       -26.9544
  44   2.0000      -0.985515       -26.8172
  45   2.0000      -0.945786       -25.7361
  46   2.0000      -0.944124       -25.6909
  47   2.0000      -0.761595       -20.7241
  48   2.0000      -0.718806       -19.5597
  49   2.0000      -0.710700       -19.3391
  50   2.0000      -0.691849       -18.8262
  51   2.0000      -0.689761       -18.7694
  52   2.0000      -0.675830       -18.3903
  53   2.0000      -0.650457       -17.6998
  54   2.0000      -0.637965       -17.3599
  55   2.0000      -0.600586       -16.3428
  56   2.0000      -0.593985       -16.1632
  57   2.0000      -0.580041       -15.7837
  58   2.0000      -0.575299       -15.6547
  59   2.0000      -0.560143       -15.2423
  60   2.0000      -0.498788       -13.5727
  61   2.0000      -0.491414       -13.3721
  62   2.0000      -0.472095       -12.8464
  63   2.0000      -0.470213       -12.7951
  64   2.0000      -0.461203       -12.5500
  65   2.0000      -0.450502       -12.2588
  66   2.0000      -0.443691       -12.0734
  67   2.0000      -0.436860       -11.8876
  68   2.0000      -0.427148       -11.6233
  69   2.0000      -0.423842       -11.5333
  70   2.0000      -0.409708       -11.1487
  71   2.0000      -0.401129       -10.9153
  72   2.0000      -0.396369       -10.7858
  73   2.0000      -0.380727       -10.3601
  74   2.0000      -0.377067       -10.2605
  75   2.0000      -0.374496       -10.1906
  76   2.0000      -0.368453       -10.0261
  77   2.0000      -0.362009        -9.8508
  78   2.0000      -0.354881        -9.6568
  79   2.0000      -0.351603        -9.5676
  80   2.0000      -0.348588        -9.4856
  81   2.0000      -0.345979        -9.4146
  82   2.0000      -0.345053        -9.3894
  83   2.0000      -0.338483        -9.2106
  84   2.0000      -0.336716        -9.1625
  85   2.0000      -0.321154        -8.7390
  86   2.0000      -0.308783        -8.4024
  87   2.0000      -0.298750        -8.1294
  88   2.0000      -0.297028        -8.0825
  89   2.0000      -0.293426        -7.9845
  90   2.0000      -0.290627        -7.9084
  91   2.0000      -0.274741        -7.4761
  92   2.0000      -0.270785        -7.3684
  93   2.0000      -0.261280        -7.1098
  94   2.0000      -0.258642        -7.0380
  95   2.0000      -0.234387        -6.3780
  96   2.0000      -0.213310        -5.8044
  97   2.0000      -0.210242        -5.7210
  98   2.0000      -0.207535        -5.6473
  99   2.0000      -0.200199        -5.4477
 100   2.0000      -0.192715        -5.2440
 101   0.0000      -0.045235        -1.2309
 102   0.0000      -0.029131        -0.7927
 103   0.0000      -0.005292        -0.1440
 104   0.0000       0.002217         0.0603
 105   0.0000       0.007275         0.1980

MULLIKEN ATOMIC CHARGES
-----------------------
   0 C :   -0.290901
   1 C :   -0.055212
   2 O :   -0.362793
   3 P :    0.607367
   4 S :   -0.317140
   5 O :   -0.374731
   6 C :   -0.001745
   7 C :   -0.312975
   8 S :   -0.098695
   9 C :   -0.342127
  10 S :   -0.080968
  11 P :    0.619828
  12 S :   -0.321207
  13 O :   -0.369678
  14 C :    0.004622
  15 C :   -0.340962
  16 O :   -0.387000
  17 C :   -0.000543
  18 C :   -0.315010
  19 H :    0.120971
  20 H :    0.113790
  21 H :    0.120280
  22 H :    0.150784
  23 H :    0.106313
  24 H :    0.104055
  25 H :    0.113278
  26 H :    0.118661
  27 H :    0.112541
  28 H :    0.121744
  29 H :    0.188609
  30 H :    0.189400
  31 H :    0.103711
  32 H :    0.111137
  33 H :    0.152125
  34 H :    0.111408
  35 H :    0.122342
  36 H :    0.104895
  37 H :    0.114314
  38 H :    0.119741
  39 H :    0.113890
  40 H :    0.125880
Sum of atomic charges:    0.0000000

LOEWDIN ATOMIC CHARGES
----------------------
   0 C :   -0.363473
   1 C :   -0.124071
   2 O :   -0.235100
   3 P :    0.572748
   4 S :   -0.311116
   5 O :   -0.243909
   6 C :   -0.119129
   7 C :   -0.368533
   8 S :    0.080444
   9 C :   -0.481620
  10 S :    0.092343
  11 P :    0.574055
  12 S :   -0.314416
  13 O :   -0.241049
  14 C :   -0.110219
  15 C :   -0.372887
  16 O :   -0.247036
  17 C :   -0.116581
  18 C :   -0.370135
  19 H :    0.119731
  20 H :    0.131962
  21 H :    0.127882
  22 H :    0.116323
  23 H :    0.118750
  24 H :    0.118438
  25 H :    0.111428
  26 H :    0.124545
  27 H :    0.130597
  28 H :    0.119201
  29 H :    0.129528
  30 H :    0.130018
  31 H :    0.116781
  32 H :    0.114579
  33 H :    0.131957
  34 H :    0.130857
  35 H :    0.118196
  36 H :    0.118588
  37 H :    0.113186
  38 H :    0.124686
  39 H :    0.131556
  40 H :    0.120896

  Mayer bond orders larger than 0.100000
B(  0-C ,  1-C ) :   1.1730 B(  0-C , 19-H ) :   0.9386 B(  0-C , 20-H ) :   0.9353
B(  0-C , 21-H ) :   0.9424 B(  1-C ,  2-O ) :   0.8897 B(  1-C , 22-H ) :   0.8997
B(  1-C , 23-H ) :   0.9317 B(  2-O ,  3-P ) :   1.1334 B(  3-P ,  4-S ) :   1.6198
B(  3-P ,  5-O ) :   1.0840 B(  3-P ,  8-S ) :   0.9359 B(  4-S ,  8-S ) :   0.1097
B(  5-O ,  6-C ) :   0.9113 B(  6-C ,  7-C ) :   1.1638 B(  6-C , 24-H ) :   0.9337
B(  6-C , 25-H ) :   0.9155 B(  7-C , 26-H ) :   0.9441 B(  7-C , 27-H ) :   0.9376
B(  7-C , 28-H ) :   0.9363 B(  8-S ,  9-C ) :   1.0042 B(  9-C , 10-S ) :   1.0111
B(  9-C , 29-H ) :   0.8849 B(  9-C , 30-H ) :   0.8815 B( 10-S , 11-P ) :   0.9465
B( 10-S , 12-S ) :   0.1129 B( 11-P , 12-S ) :   1.6276 B( 11-P , 13-O ) :   1.1090
B( 11-P , 16-O ) :   1.0750 B( 13-O , 14-C ) :   0.8914 B( 14-C , 15-C ) :   1.1720
B( 14-C , 31-H ) :   0.9313 B( 14-C , 32-H ) :   0.9264 B( 15-C , 33-H ) :   0.9295
B( 15-C , 34-H ) :   0.9355 B( 15-C , 35-H ) :   0.9368 B( 16-O , 17-C ) :   0.9038
B( 17-C , 18-C ) :   1.1667 B( 17-C , 36-H ) :   0.9340 B( 17-C , 37-H ) :   0.9178
B( 18-C , 38-H ) :   0.9437 B( 18-C , 39-H ) :   0.9366 B( 18-C , 40-H ) :   0.9344

Dispersion correction           -0.067987559
FINAL SINGLE POINT ENERGY     -2929.519650585137

DIPOLE MOMENT
-------------

Method             : SCF
Type of density    : Electron Density
Multiplicity       :   1
Irrep              :   0
Energy             : -2929.6389287097526903 Eh
Relativity type    :
Basis              : AO
                                X                 Y                 Z
Electronic contribution:     -1.833747937      -4.175203435       0.288590653
Nuclear contribution   :      1.746912668       4.743735034      -0.500732069
                        -----------------------------------------
Total Dipole Moment    :     -0.086835269       0.568531599      -0.212141416
                        -----------------------------------------
Magnitude (a.u.)       :      0.613002874
Magnitude (Debye)      :      1.558129478

Rotational constants in cm-1:             0.013132             0.005171             0.004853
Rotational constants in MHz :           393.690024           155.017501           145.501897

                             ****ORCA TERMINATED NORMALLY****
TOTAL RUN TIME: 0 days 0 hours 0 minutes 21 seconds 704 msec
