                         Program Version 6.0.1  -  RELEASE   -
|  1> ! pbe def2-sv(p) def2/J RI DEFGRID1 loosescf d4 GCP(DFT/SV(P)) printgap
|  2> %output
|  3>     printlevel normal
|  4> end
|  5> * xyz 0 1
|  6> C 4.225319435 -2.6696122613 1.3053913825
|  7> C 4.4061708175 -2.172948144 -0.1197773554
|  8> O 3.1322586709 -2.06116879 -0.7867670803
|  9> C 2.4522959414 -0.9447228815 -0.6628260847
| 10> O 2.8415190599 0.0430858728 -0.0700993004
| 11> C 1.1027319535 -1.0295662886 -1.3359968434
| 12> C 0.5096992482 0.3647503625 -1.4902270107
| 13> H 0.9051628716 0.8849702904 -2.3634495336
| 14> C 0.7256974723 1.2236602729 -0.2592767311
| 15> O 0.2733565671 0.9177861664 0.8284554635
| 16> O 1.3112972551 2.3559595827 -0.5429444626
| 17> C 1.4846126565 3.3170134456 0.5194339597
| 18> C 0.2457282598 4.1881301419 0.654457857
| 19> S -1.3028042137 0.3264908764 -1.7157164858
| 20> P -2.0197869372 -0.2356658429 0.189928832
| 21> S -1.2586714162 -1.7412342687 1.2058993934
| 22> O -2.3341288201 1.136143769 0.9353309324
| 23> C -2.317186233 1.2378509502 2.3664787135
| 24> O -3.5321206663 -0.567593996 -0.2389387413
| 25> C -3.8803135746 -1.7878675714 -0.8994677526
| 26> H 3.6447184286 -1.9514291795 1.8810976209
| 27> H 3.7022994447 -3.6218949473 1.3068148601
| 28> H 5.1976191218 -2.7918835807 1.7709548666
| 29> H 4.9660542004 -2.8875164893 -0.7228568115
| 30> H 4.8931749064 -1.1938029883 -0.13192328
| 31> H 0.4770873195 -1.6426811643 -0.6760952751
| 32> H 1.181662921 -1.5401295964 -2.2940226077
| 33> H 1.6914893802 2.7731737596 1.4449428538
| 34> H 2.3558622505 3.8984005318 0.2191326463
| 35> H -0.6189380934 3.5723294314 0.8945410257
| 36> H 0.3983762302 4.9095289007 1.4501172239
| 37> H 0.0541718243 4.7128976826 -0.2773408019
| 38> H -2.5481902175 2.2776938675 2.5836964823
| 39> H -1.3271870354 0.9752224527 2.7408820881
| 40> H -3.0667332789 0.5781575831 2.8021896033
| 41> H -3.5901700702 -1.737905796 -1.9484128838
| 42> H -4.9594798733 -1.8761576709 -0.8041559119
| 43> H -3.3839346469 -2.6298021561 -0.4128020587
| 44> *
| 45>
| 46>                          ****END OF INPUT****

CARTESIAN COORDINATES (ANGSTROEM)
---------------------------------
  C      4.225319   -2.669612    1.305391
  C      4.406171   -2.172948   -0.119777
  O      3.132259   -2.061169   -0.786767
  C      2.452296   -0.944723   -0.662826
  O      2.841519    0.043086   -0.070099
  C      1.102732   -1.029566   -1.335997
  C      0.509699    0.364750   -1.490227
  H      0.905163    0.884970   -2.363450
  C      0.725697    1.223660   -0.259277
  O      0.273357    0.917786    0.828455
  O      1.311297    2.355960   -0.542944
  C      1.484613    3.317013    0.519434
  C      0.245728    4.188130    0.654458
  S     -1.302804    0.326491   -1.715716
  P     -2.019787   -0.235666    0.189929
  S     -1.258671   -1.741234    1.205899
  O     -2.334129    1.136144    0.935331
  C     -2.317186    1.237851    2.366479
  O     -3.532121   -0.567594   -0.238939
  C     -3.880314   -1.787868   -0.899468
  H      3.644718   -1.951429    1.881098
  H      3.702299   -3.621895    1.306815
  H      5.197619   -2.791884    1.770955
  H      4.966054   -2.887516   -0.722857
  H      4.893175   -1.193803   -0.131923
  H      0.477087   -1.642681   -0.676095
  H      1.181663   -1.540130   -2.294023
  H      1.691489    2.773174    1.444943
  H      2.355862    3.898401    0.219133
  H     -0.618938    3.572329    0.894541
  H      0.398376    4.909529    1.450117
  H      0.054172    4.712898   -0.277341
  H     -2.548190    2.277694    2.583696
  H     -1.327187    0.975222    2.740882
  H     -3.066733    0.578158    2.802190
  H     -3.590170   -1.737906   -1.948413
  H     -4.959480   -1.876158   -0.804156
  H     -3.383935   -2.629802   -0.412802

 Total Charge           Charge          ....    0
 Multiplicity           Mult            ....    1
 Number of Electrons    NEL             ....  174
 Basis Dimension        Dim             ....  316

ORBITAL ENERGIES
----------------

  NO   OCC          E(Eh)            E(eV)
   0   2.0000     -88.040349     -2395.6997
   1   2.0000     -87.972542     -2393.8546
   2   2.0000     -76.419529     -2079.4811
   3   2.0000     -18.807923      -511.7896
   4   2.0000     -18.802960      -511.6546
   5   2.0000     -18.780640      -511.0472
   6   2.0000     -18.777666      -510.9663
   7   2.0000     -18.747690      -510.1506
   8   2.0000     -18.734835      -509.8008
   9   2.0000     -10.016271      -272.5566
  10   2.0000     -10.015271      -272.5294
  11   2.0000      -9.951665      -270.7986
  12   2.0000      -9.945920      -270.6422
  13   2.0000      -9.945874      -270.6410
  14   2.0000      -9.933742      -270.3109
  15   2.0000      -9.932963      -270.2897
  16   2.0000      -9.906189      -269.5611
  17   2.0000      -9.887832      -269.0616
  18   2.0000      -9.884868      -268.9809
  19   2.0000      -7.685309      -209.1279
  20   2.0000      -7.617665      -207.2872
  21   2.0000      -6.415613      -174.5777
  22   2.0000      -5.713304      -155.4669
  23   2.0000      -5.709747      -155.3701
  24   2.0000      -5.702222      -155.1653
  25   2.0000      -5.646771      -153.6565
  26   2.0000      -5.638661      -153.4358
  27   2.0000      -5.637222      -153.3966
  28   2.0000      -4.637987      -126.2060
  29   2.0000      -4.637533      -126.1937
  30   2.0000      -4.636425      -126.1635
  31   2.0000      -1.018313       -27.7097
  32   2.0000      -1.012194       -27.5432
  33   2.0000      -0.972348       -26.4589
  34   2.0000      -0.929793       -25.3010
  35   2.0000      -0.924730       -25.1632
  36   2.0000      -0.915185       -24.9035
  37   2.0000      -0.763138       -20.7660
  38   2.0000      -0.714676       -19.4473
  39   2.0000      -0.703338       -19.1388
  40   2.0000      -0.686785       -18.6884
  41   2.0000      -0.655497       -17.8370
  42   2.0000      -0.623793       -16.9743
  43   2.0000      -0.617826       -16.8119
  44   2.0000      -0.613180       -16.6855
  45   2.0000      -0.598436       -16.2843
  46   2.0000      -0.559586       -15.2271
  47   2.0000      -0.507151       -13.8003
  48   2.0000      -0.503021       -13.6879
  49   2.0000      -0.493887       -13.4393
  50   2.0000      -0.480797       -13.0832
  51   2.0000      -0.460853       -12.5404
  52   2.0000      -0.458203       -12.4683
  53   2.0000      -0.440346       -11.9824
  54   2.0000      -0.433579       -11.7983
  55   2.0000      -0.429514       -11.6877
  56   2.0000      -0.426804       -11.6139
  57   2.0000      -0.418306       -11.3827
  58   2.0000      -0.414996       -11.2926
  59   2.0000      -0.403763       -10.9869
  60   2.0000      -0.399592       -10.8735
  61   2.0000      -0.396538       -10.7904
  62   2.0000      -0.385427       -10.4880
  63   2.0000      -0.382162       -10.3992
  64   2.0000      -0.377542       -10.2734
  65   2.0000      -0.363437        -9.8896
  66   2.0000      -0.356857        -9.7106
  67   2.0000      -0.354805        -9.6547
  68   2.0000      -0.349811        -9.5188
  69   2.0000      -0.337533        -9.1847
  70   2.0000      -0.333535        -9.0760
  71   2.0000      -0.327814        -8.9203
  72   2.0000      -0.322668        -8.7802
  73   2.0000      -0.303074        -8.2471
  74   2.0000      -0.297073        -8.0838
  75   2.0000      -0.294776        -8.0213
  76   2.0000      -0.290351        -7.9008
  77   2.0000      -0.279615        -7.6087
  78   2.0000      -0.271068        -7.3761
  79   2.0000      -0.265164        -7.2155
  80   2.0000      -0.252664        -6.8753
  81   2.0000      -0.246183        -6.6990
  82   2.0000      -0.237465        -6.4618
  83   2.0000      -0.233625        -6.3572
  84   2.0000      -0.221321        -6.0225
  85   2.0000      -0.192906        -5.2492
  86   2.0000      -0.181394        -4.9360
  87   0.0000      -0.047851        -1.3021
  88   0.0000      -0.027311        -0.7432
  89   0.0000      -0.014283        -0.3887
  90   0.0000       0.016004         0.4355
  91   0.0000       0.034304         0.9335

MULLIKEN ATOMIC CHARGES
-----------------------
   0 C :   -0.304740
   1 C :   -0.015685
   2 O :   -0.223684
   3 C :    0.134166
   4 O :   -0.210262
   5 C :   -0.069100
   6 C :   -0.296615
   7 H :    0.128787
   8 C :    0.207723
   9 O :   -0.211323
  10 O :   -0.212796
  11 C :   -0.008221
  12 C :   -0.316556
  13 S :   -0.078975
  14 P :    0.616067
  15 S :   -0.331882
  16 O :   -0.374074
  17 C :   -0.096951
  18 O :   -0.379322
  19 C :   -0.100023
  20 H :    0.133662
  21 H :    0.119803
  22 H :    0.113449
  23 H :    0.105020
  24 H :    0.110046
  25 H :    0.145641
  26 H :    0.117117
  27 H :    0.114153
  28 H :    0.104066
  29 H :    0.138046
  30 H :    0.110666
  31 H :    0.114300
  32 H :    0.118801
  33 H :    0.137480
  34 H :    0.118035
  35 H :    0.109184
  36 H :    0.120862
  37 H :    0.113138
Sum of atomic charges:   -0.0000000

LOEWDIN ATOMIC CHARGES
----------------------
   0 C :   -0.355074
   1 C :   -0.109578
   2 O :   -0.051959
   3 C :    0.047184
   4 O :   -0.156013
   5 C :   -0.265357
   6 C :   -0.256786
   7 H :    0.140330
   8 C :    0.011819
   9 O :   -0.174392
  10 O :   -0.039053
  11 C :   -0.104987
  12 C :   -0.357999
  13 S :    0.119355
  14 P :    0.584921
  15 S :   -0.319877
  16 O :   -0.246421
  17 C :   -0.209384
  18 O :   -0.263840
  19 C :   -0.220911
  20 H :    0.134029
  21 H :    0.127838
  22 H :    0.130893
  23 H :    0.118880
  24 H :    0.120071
  25 H :    0.142616
  26 H :    0.142783
  27 H :    0.123095
  28 H :    0.119113
  29 H :    0.132089
  30 H :    0.129369
  31 H :    0.125730
  32 H :    0.117386
  33 H :    0.118955
  34 H :    0.111986
  35 H :    0.106720
  36 H :    0.120177
  37 H :    0.106293

  Mayer bond orders larger than 0.100000
B(  0-C ,  1-C ) :   1.1758 B(  0-C , 20-H ) :   0.9450 B(  0-C , 21-H ) :   0.9483
B(  0-C , 22-H ) :   0.9436 B(  1-C ,  2-O ) :   0.9093 B(  1-C , 23-H ) :   0.9368
B(  1-C , 24-H ) :   0.9140 B(  2-O ,  3-C ) :   1.2546 B(  3-C ,  4-O ) :   1.9619
B(  3-C ,  5-C ) :   1.0167 B(  4-O ,  8-C ) :   0.1207 B(  5-C ,  6-C ) :   1.0071
B(  5-C , 25-H ) :   0.8305 B(  5-C , 26-H ) :   0.8993 B(  6-C ,  7-H ) :   0.8828
B(  6-C ,  8-C ) :   0.9001 B(  6-C , 13-S ) :   1.0123 B(  8-C ,  9-O ) :   1.9206
B(  8-C , 10-O ) :   1.2726 B(  9-O , 14-P ) :   0.1045 B( 10-O , 11-C ) :   0.9090
B( 11-C , 12-C ) :   1.1714 B( 11-C , 27-H ) :   0.9153 B( 11-C , 28-H ) :   0.9378
B( 12-C , 29-H ) :   0.9380 B( 12-C , 30-H ) :   0.9437 B( 12-C , 31-H ) :   0.9473
B( 13-S , 14-P ) :   0.9651 B( 13-S , 15-S ) :   0.1183 B( 14-P , 15-S ) :   1.5713
B( 14-P , 16-O ) :   1.1100 B( 14-P , 18-O ) :   1.0796 B( 15-S , 25-H ) :   0.1098
B( 16-O , 17-C ) :   0.9144 B( 17-C , 32-H ) :   0.9545 B( 17-C , 33-H ) :   0.9392
B( 17-C , 34-H ) :   0.9512 B( 18-O , 19-C ) :   0.9391 B( 19-C , 35-H ) :   0.9493
B( 19-C , 36-H ) :   0.9596 B( 19-C , 37-H ) :   0.9280

Dispersion correction           -0.052142808
FINAL SINGLE POINT ENERGY     -1979.014415335946

DIPOLE MOMENT
-------------

Method             : SCF
Type of density    : Electron Density
Multiplicity       :   1
Irrep              :   0
Energy             : -1979.1461114020789864 Eh
Relativity type    :
Basis              : AO
                                X                 Y                 Z
Electronic contribution:    -10.445894781      -2.548542206      -7.180086206
Nuclear contribution   :     11.260330936       2.820207322       6.848771227
                        -----------------------------------------
Total Dipole Moment    :      0.814436155       0.271665117      -0.331314979
                        -----------------------------------------
Magnitude (a.u.)       :      0.920259639
Magnitude (Debye)      :      2.339114109

Rotational constants in cm-1:             0.012184             0.007460             0.005886
Rotational constants in MHz :           365.272117           223.649062           176.443043

                             ****ORCA TERMINATED NORMALLY****
TOTAL RUN TIME: 0 days 0 hours 0 minutes 43 seconds 875 msec
