                         Program Version 6.0.0  -   RELEASE  -
|  1> ! r2scan-3c def2/J RI DEFGRID2 scfconv6 printgap
|  2> %output
|  3>     printlevel normal
|  4> end
|  5> * xyz 0 1
|  6> C -1.7099706906 0.3742557826 -0.0338193008
|  7> C -0.6031931267 -0.6572382516 0.0549376809
|  8> S 1.064733515 0.1004170833 -0.041121675
|  9> H -2.6746622148 -0.1275380002 -0.0441094887
| 10> H -1.6769884453 1.0488635173 0.8186374004
| 11> H -1.6102097774 0.9600092643 -0.9447772363
| 12> H -0.6335282751 -1.3448563622 -0.7896756402
| 13> H -0.6502892229 -1.2269682149 0.981952578
| 14> H 0.9381106475 0.8680550662 1.0344933001
| 15> *
| 16>
| 17>                          ****END OF INPUT****

CARTESIAN COORDINATES (ANGSTROEM)
---------------------------------
  C     -1.709971    0.374256   -0.033819
  C     -0.603193   -0.657238    0.054938
  S      1.064734    0.100417   -0.041122
  H     -2.674662   -0.127538   -0.044109
  H     -1.676988    1.048864    0.818637
  H     -1.610210    0.960009   -0.944777
  H     -0.633528   -1.344856   -0.789676
  H     -0.650289   -1.226968    0.981953
  H      0.938111    0.868055    1.034493

 Total Charge           Charge          ....    0
 Multiplicity           Mult            ....    1
 Number of Electrons    NEL             ....   34
 Basis Dimension        Dim             ....   95

ORBITAL ENERGIES
----------------

  NO   OCC          E(Eh)            E(eV)
   0   2.0000     -88.549597     -2409.5570
   1   2.0000     -10.068912      -273.9890
   2   2.0000     -10.030928      -272.9554
   3   2.0000      -7.844819      -213.4684
   4   2.0000      -5.792017      -157.6088
   5   2.0000      -5.788282      -157.5072
   6   2.0000      -5.781825      -157.3315
   7   2.0000      -0.769461       -20.9381
   8   2.0000      -0.669708       -18.2237
   9   2.0000      -0.575915       -15.6715
  10   2.0000      -0.441761       -12.0209
  11   2.0000      -0.406957       -11.0739
  12   2.0000      -0.381274       -10.3750
  13   2.0000      -0.348133        -9.4732
  14   2.0000      -0.330695        -8.9987
  15   2.0000      -0.295087        -8.0297
  16   2.0000      -0.209476        -5.7001
  17   0.0000       0.012898         0.3510
  18   0.0000       0.057672         1.5693
  19   0.0000       0.107465         2.9243
  20   0.0000       0.124119         3.3774
  21   0.0000       0.153518         4.1774

MULLIKEN ATOMIC CHARGES
-----------------------
   0 C :   -0.423968
   1 C :   -0.196898
   2 S :   -0.257129
   3 H :    0.140835
   4 H :    0.140273
   5 H :    0.158847
   6 H :    0.146573
   7 H :    0.160854
   8 H :    0.130613
Sum of atomic charges:    0.0000000

LOEWDIN ATOMIC CHARGES
----------------------
   0 C :   -0.431568
   1 C :   -0.369887
   2 S :   -0.107971
   3 H :    0.152118
   4 H :    0.150724
   5 H :    0.157977
   6 H :    0.165458
   7 H :    0.157803
   8 H :    0.125346

  Mayer bond orders larger than 0.100000
B(  0-C ,  1-C ) :   0.9079 B(  0-C ,  3-H ) :   0.9612 B(  0-C ,  4-H ) :   0.9753
B(  0-C ,  5-H ) :   0.9727 B(  1-C ,  2-S ) :   0.9677 B(  1-C ,  6-H ) :   0.9532
B(  1-C ,  7-H ) :   0.9564 B(  2-S ,  8-H ) :   0.9611

Dispersion correction           -0.001626093
FINAL SINGLE POINT ENERGY      -477.957550115441

DIPOLE MOMENT
-------------

Method             : SCF
Type of density    : Electron Density
Multiplicity       :   1
Irrep              :   0
Energy             :  -477.9636407192485876 Eh
Relativity type    :
Basis              : AO
                                X                 Y                 Z
Electronic contribution:      5.294551649      -0.224461047      -0.739067860
Nuclear contribution   :     -5.947885927       0.163729668       0.992369557
                        -----------------------------------------
Total Dipole Moment    :     -0.653334278      -0.060731379       0.253301697
                        -----------------------------------------
Magnitude (a.u.)       :      0.703346095
Magnitude (Debye)      :      1.787763697

Rotational constants in cm-1:             0.951921             0.178250             0.162780
Rotational constants in MHz :         28537.882881          5343.786357          4880.018416

                             ****ORCA TERMINATED NORMALLY****
TOTAL RUN TIME: 0 days 0 hours 0 minutes 20 seconds 968 msec
