                         Program Version 6.0.0  -   RELEASE  -
|  1> ! r2scan-3c def2/J RI DEFGRID2 scfconv6 printgap
|  2> %output
|  3>     printlevel normal
|  4> end
|  5> %cpcm
|  6>     smd true
|  7>     smdsolvent "water"
|  8> end
|  9> * xyz 0 1
| 10> C -1.7099706906 0.3742557826 -0.0338193008
| 11> C -0.6031931267 -0.6572382516 0.0549376809
| 12> S 1.064733515 0.1004170833 -0.041121675
| 13> H -2.6746622148 -0.1275380002 -0.0441094887
| 14> H -1.6769884453 1.0488635173 0.8186374004
| 15> H -1.6102097774 0.9600092643 -0.9447772363
| 16> H -0.6335282751 -1.3448563622 -0.7896756402
| 17> H -0.6502892229 -1.2269682149 0.981952578
| 18> H 0.9381106475 0.8680550662 1.0344933001
| 19> *
| 20>
| 21>                          ****END OF INPUT****

CARTESIAN COORDINATES (ANGSTROEM)
---------------------------------
  C     -1.709971    0.374256   -0.033819
  C     -0.603193   -0.657238    0.054938
  S      1.064734    0.100417   -0.041122
  H     -2.674662   -0.127538   -0.044109
  H     -1.676988    1.048864    0.818637
  H     -1.610210    0.960009   -0.944777
  H     -0.633528   -1.344856   -0.789676
  H     -0.650289   -1.226968    0.981953
  H      0.938111    0.868055    1.034493

 Total Charge           Charge          ....    0
 Multiplicity           Mult            ....    1
 Number of Electrons    NEL             ....   34
 Basis Dimension        Dim             ....   95

ORBITAL ENERGIES
----------------

  NO   OCC          E(Eh)            E(eV)
   0   2.0000     -88.547695     -2409.5053
   1   2.0000     -10.057210      -273.6706
   2   2.0000     -10.017079      -272.5786
   3   2.0000      -7.843059      -213.4205
   4   2.0000      -5.789995      -157.5538
   5   2.0000      -5.786370      -157.4551
   6   2.0000      -5.780517      -157.2959
   7   2.0000      -0.760084       -20.6829
   8   2.0000      -0.661866       -18.0103
   9   2.0000      -0.565046       -15.3757
  10   2.0000      -0.429802       -11.6955
  11   2.0000      -0.395108       -10.7514
  12   2.0000      -0.371959       -10.1215
  13   2.0000      -0.337502        -9.1839
  14   2.0000      -0.317140        -8.6298
  15   2.0000      -0.290491        -7.9047
  16   2.0000      -0.210172        -5.7191
  17   0.0000       0.016943         0.4610
  18   0.0000       0.064054         1.7430
  19   0.0000       0.121134         3.2962
  20   0.0000       0.133206         3.6247
  21   0.0000       0.167607         4.5608

MULLIKEN ATOMIC CHARGES
-----------------------
   0 C :   -0.463863
   1 C :   -0.188685
   2 S :   -0.339524
   3 H :    0.158434
   4 H :    0.159181
   5 H :    0.161113
   6 H :    0.167346
   7 H :    0.176675
   8 H :    0.169324
Sum of atomic charges:    0.0000000

LOEWDIN ATOMIC CHARGES
----------------------
   0 C :   -0.436210
   1 C :   -0.363625
   2 S :   -0.147942
   3 H :    0.159018
   4 H :    0.155822
   5 H :    0.157066
   6 H :    0.172658
   7 H :    0.164799
   8 H :    0.138414

  Mayer bond orders larger than 0.100000
B(  0-C ,  1-C ) :   0.9032 B(  0-C ,  3-H ) :   0.9574 B(  0-C ,  4-H ) :   0.9721
B(  0-C ,  5-H ) :   0.9728 B(  1-C ,  2-S ) :   0.9539 B(  1-C ,  6-H ) :   0.9473
B(  1-C ,  7-H ) :   0.9516 B(  2-S ,  8-H ) :   0.9542

Dispersion correction           -0.001626093
FINAL SINGLE POINT ENERGY      -477.959799443332

DIPOLE MOMENT
-------------

Method             : SCF
Type of density    : Electron Density
Multiplicity       :   1
Irrep              :   0
Energy             :  -477.9658900471401353 Eh
Relativity type    :
Basis              : AO
                                X                 Y                 Z
Electronic contribution:      5.079766729      -0.266552487      -0.638540710
Nuclear contribution   :     -5.947885927       0.163729668       0.992369557
                        -----------------------------------------
Total Dipole Moment    :     -0.868119199      -0.102822819       0.353828846
                        -----------------------------------------
Magnitude (a.u.)       :      0.943079174
Magnitude (Debye)      :      2.397116757

Rotational constants in cm-1:             0.951921             0.178250             0.162780
Rotational constants in MHz :         28537.882881          5343.786357          4880.018416

                             ****ORCA TERMINATED NORMALLY****
TOTAL RUN TIME: 0 days 0 hours 0 minutes 21 seconds 279 msec
