                         Program Version 6.0.0  -   RELEASE  -
|  1> ! pbe def2-sv(p) def2/J RI DEFGRID1 loosescf d4 GCP(DFT/SV(P)) printgap
|  2> %output
|  3>     printlevel normal
|  4> end
|  5> * xyz 0 1
|  6> C 3.4650621214 -0.5561084261 -2.5313054973
|  7> C 2.0281629926 -0.1222264483 -2.3393088297
|  8> O 1.5305210222 -0.4908990348 -1.0401399754
|  9> P 2.0713393279 0.1839086669 0.2883221683
| 10> S 2.7777752472 2.005148826 0.1919679532
| 11> O 3.1397005503 -0.9163874754 0.7364269509
| 12> C 4.1504709582 -0.6452784125 1.7193680237
| 13> C 3.5673336399 -0.4982436493 3.1106932349
| 14> S 0.4271259964 -0.1438685623 1.5760649418
| 15> C -0.0718443967 -1.7960974085 1.0331275171
| 16> S -1.0574828307 -1.8428323696 -0.5105536528
| 17> P -1.9183516967 0.08270378 -0.5719575926
| 18> S -0.8308620677 1.6327544607 -1.0980091478
| 19> O -2.6322278295 0.1715109079 0.8531843993
| 20> C -2.7086626596 1.3849060326 1.6218162112
| 21> C -3.853862829 2.2550749693 1.1450075904
| 22> O -3.0552814673 -0.1084400604 -1.6592371587
| 23> C -4.3692621541 -0.6828541838 -1.4451772065
| 24> C -4.3335799758 -2.1008580203 -0.9172087545
| 25> H 3.7704568103 -0.3416092216 -3.5504854653
| 26> H 4.1090636474 -0.0070947688 -1.8450459903
| 27> H 3.5638068477 -1.6208289188 -2.336900476
| 28> H 1.3501196605 -0.6280222425 -3.0293888858
| 29> H 1.921995775 0.9618117948 -2.4549527398
| 30> H 4.822639361 -1.5016300013 1.6500708234
| 31> H 4.6771594334 0.2691795912 1.4281546958
| 32> H 4.3741277507 -0.3710305514 3.8252361101
| 33> H 2.9206519393 0.3783291374 3.1490336139
| 34> H 2.9847867191 -1.3764184772 3.3762314179
| 35> H -0.6810611827 -2.1982897596 1.8389189754
| 36> H 0.8106029773 -2.4074808048 0.8562202407
| 37> H -2.8496355822 1.0467479911 2.6489743856
| 38> H -1.7566858517 1.9192483442 1.5388112933
| 39> H -3.6914977899 2.5355320883 0.1041782822
| 40> H -4.7976655079 1.7229549972 1.2302544457
| 41> H -3.8953721842 3.1565128095 1.7480497463
| 42> H -4.9156189878 -0.0285343899 -0.762492693
| 43> H -4.8188187417 -0.6354653366 -2.4384544731
| 44> H -3.7106758647 -2.727556014 -1.5506275123
| 45> H -3.9365083302 -2.1189623114 0.0948594445
| 46> H -5.3454612744 -2.494591362 -0.908365842
| 47> *
| 48>
| 49>                          ****END OF INPUT****

CARTESIAN COORDINATES (ANGSTROEM)
---------------------------------
  C      3.465062   -0.556108   -2.531305
  C      2.028163   -0.122226   -2.339309
  O      1.530521   -0.490899   -1.040140
  P      2.071339    0.183909    0.288322
  S      2.777775    2.005149    0.191968
  O      3.139701   -0.916387    0.736427
  C      4.150471   -0.645278    1.719368
  C      3.567334   -0.498244    3.110693
  S      0.427126   -0.143869    1.576065
  C     -0.071844   -1.796097    1.033128
  S     -1.057483   -1.842832   -0.510554
  P     -1.918352    0.082704   -0.571958
  S     -0.830862    1.632754   -1.098009
  O     -2.632228    0.171511    0.853184
  C     -2.708663    1.384906    1.621816
  C     -3.853863    2.255075    1.145008
  O     -3.055281   -0.108440   -1.659237
  C     -4.369262   -0.682854   -1.445177
  C     -4.333580   -2.100858   -0.917209
  H      3.770457   -0.341609   -3.550485
  H      4.109064   -0.007095   -1.845046
  H      3.563807   -1.620829   -2.336900
  H      1.350120   -0.628022   -3.029389
  H      1.921996    0.961812   -2.454953
  H      4.822639   -1.501630    1.650071
  H      4.677159    0.269180    1.428155
  H      4.374128   -0.371031    3.825236
  H      2.920652    0.378329    3.149034
  H      2.984787   -1.376418    3.376231
  H     -0.681061   -2.198290    1.838919
  H      0.810603   -2.407481    0.856220
  H     -2.849636    1.046748    2.648974
  H     -1.756686    1.919248    1.538811
  H     -3.691498    2.535532    0.104178
  H     -4.797666    1.722955    1.230254
  H     -3.895372    3.156513    1.748050
  H     -4.915619   -0.028534   -0.762493
  H     -4.818819   -0.635465   -2.438454
  H     -3.710676   -2.727556   -1.550628
  H     -3.936508   -2.118962    0.094859
  H     -5.345461   -2.494591   -0.908366

 Total Charge           Charge          ....    0
 Multiplicity           Mult            ....    1
 Number of Electrons    NEL             ....  202
 Basis Dimension        Dim             ....  334

ORBITAL ENERGIES
----------------

  NO   OCC          E(Eh)            E(eV)
   0   2.0000     -88.044559     -2395.8143
   1   2.0000     -88.035612     -2395.5708
   2   2.0000     -87.984481     -2394.1795
   3   2.0000     -87.972402     -2393.8508
   4   2.0000     -76.422602     -2079.5647
   5   2.0000     -76.422205     -2079.5539
   6   2.0000     -18.792834      -511.3790
   7   2.0000     -18.787776      -511.2414
   8   2.0000     -18.786902      -511.2176
   9   2.0000     -18.781572      -511.0726
  10   2.0000      -9.960392      -271.0360
  11   2.0000      -9.956770      -270.9375
  12   2.0000      -9.949188      -270.7312
  13   2.0000      -9.948861      -270.7223
  14   2.0000      -9.940694      -270.5000
  15   2.0000      -9.886757      -269.0323
  16   2.0000      -9.884344      -268.9667
  17   2.0000      -9.882857      -268.9262
  18   2.0000      -9.875976      -268.7390
  19   2.0000      -7.689017      -209.2288
  20   2.0000      -7.680702      -209.0025
  21   2.0000      -7.629589      -207.6117
  22   2.0000      -7.617307      -207.2775
  23   2.0000      -6.419936      -174.6954
  24   2.0000      -6.419032      -174.6707
  25   2.0000      -5.717368      -155.5775
  26   2.0000      -5.713321      -155.4674
  27   2.0000      -5.708939      -155.3481
  28   2.0000      -5.705714      -155.2604
  29   2.0000      -5.705178      -155.2458
  30   2.0000      -5.697296      -155.0313
  31   2.0000      -5.658603      -153.9784
  32   2.0000      -5.650370      -153.7544
  33   2.0000      -5.649521      -153.7313
  34   2.0000      -5.646523      -153.6497
  35   2.0000      -5.637736      -153.4106
  36   2.0000      -5.637353      -153.4002
  37   2.0000      -4.642373      -126.3254
  38   2.0000      -4.642169      -126.3199
  39   2.0000      -4.641894      -126.3124
  40   2.0000      -4.640590      -126.2769
  41   2.0000      -4.640473      -126.2737
  42   2.0000      -4.639215      -126.2394
  43   2.0000      -0.982055       -26.7231
  44   2.0000      -0.980827       -26.6897
  45   2.0000      -0.941986       -25.6327
  46   2.0000      -0.938701       -25.5434
  47   2.0000      -0.761823       -20.7303
  48   2.0000      -0.717987       -19.5374
  49   2.0000      -0.705055       -19.1855
  50   2.0000      -0.691100       -18.8058
  51   2.0000      -0.681176       -18.5358
  52   2.0000      -0.670364       -18.2415
  53   2.0000      -0.651506       -17.7284
  54   2.0000      -0.633391       -17.2355
  55   2.0000      -0.595441       -16.2028
  56   2.0000      -0.586463       -15.9585
  57   2.0000      -0.578311       -15.7366
  58   2.0000      -0.566612       -15.4183
  59   2.0000      -0.564196       -15.3526
  60   2.0000      -0.494903       -13.4670
  61   2.0000      -0.486719       -13.2443
  62   2.0000      -0.475851       -12.9486
  63   2.0000      -0.466452       -12.6928
  64   2.0000      -0.454199       -12.3594
  65   2.0000      -0.442176       -12.0322
  66   2.0000      -0.438017       -11.9191
  67   2.0000      -0.436102       -11.8669
  68   2.0000      -0.420465       -11.4414
  69   2.0000      -0.414944       -11.2912
  70   2.0000      -0.411935       -11.2093
  71   2.0000      -0.395387       -10.7590
  72   2.0000      -0.392310       -10.6753
  73   2.0000      -0.385865       -10.4999
  74   2.0000      -0.380783       -10.3616
  75   2.0000      -0.373447       -10.1620
  76   2.0000      -0.366493        -9.9728
  77   2.0000      -0.356920        -9.7123
  78   2.0000      -0.351873        -9.5749
  79   2.0000      -0.347930        -9.4677
  80   2.0000      -0.345364        -9.3978
  81   2.0000      -0.343175        -9.3383
  82   2.0000      -0.342278        -9.3139
  83   2.0000      -0.335901        -9.1403
  84   2.0000      -0.324365        -8.8264
  85   2.0000      -0.318915        -8.6781
  86   2.0000      -0.311216        -8.4686
  87   2.0000      -0.302439        -8.2298
  88   2.0000      -0.291614        -7.9352
  89   2.0000      -0.283216        -7.7067
  90   2.0000      -0.281558        -7.6616
  91   2.0000      -0.268848        -7.3157
  92   2.0000      -0.265434        -7.2228
  93   2.0000      -0.261760        -7.1228
  94   2.0000      -0.257785        -7.0147
  95   2.0000      -0.227923        -6.2021
  96   2.0000      -0.215801        -5.8722
  97   2.0000      -0.206878        -5.6294
  98   2.0000      -0.199060        -5.4167
  99   2.0000      -0.187681        -5.1071
 100   2.0000      -0.179683        -4.8894
 101   0.0000      -0.047095        -1.2815
 102   0.0000      -0.025134        -0.6839
 103   0.0000      -0.011001        -0.2994
 104   0.0000      -0.001217        -0.0331
 105   0.0000       0.022070         0.6006

MULLIKEN ATOMIC CHARGES
-----------------------
   0 C :   -0.302571
   1 C :    0.001278
   2 O :   -0.370620
   3 P :    0.627605
   4 S :   -0.306448
   5 O :   -0.377446
   6 C :   -0.006356
   7 C :   -0.305844
   8 S :   -0.095550
   9 C :   -0.310977
  10 S :   -0.106367
  11 P :    0.621898
  12 S :   -0.301086
  13 O :   -0.397235
  14 C :   -0.011648
  15 C :   -0.306805
  16 O :   -0.369669
  17 C :   -0.005148
  18 C :   -0.320664
  19 H :    0.110185
  20 H :    0.119865
  21 H :    0.110580
  22 H :    0.102727
  23 H :    0.119354
  24 H :    0.102211
  25 H :    0.109603
  26 H :    0.111371
  27 H :    0.123545
  28 H :    0.109432
  29 H :    0.181434
  30 H :    0.182831
  31 H :    0.098607
  32 H :    0.124927
  33 H :    0.128411
  34 H :    0.113963
  35 H :    0.114049
  36 H :    0.105875
  37 H :    0.110377
  38 H :    0.126198
  39 H :    0.126903
  40 H :    0.111208
Sum of atomic charges:    0.0000000

LOEWDIN ATOMIC CHARGES
----------------------
   0 C :   -0.366117
   1 C :   -0.115878
   2 O :   -0.236740
   3 P :    0.576332
   4 S :   -0.305359
   5 O :   -0.251684
   6 C :   -0.122673
   7 C :   -0.367472
   8 S :    0.108602
   9 C :   -0.467935
  10 S :    0.080781
  11 P :    0.561866
  12 S :   -0.301639
  13 O :   -0.257078
  14 C :   -0.124851
  15 C :   -0.363386
  16 O :   -0.247874
  17 C :   -0.109276
  18 C :   -0.373484
  19 H :    0.129552
  20 H :    0.120388
  21 H :    0.123605
  22 H :    0.118253
  23 H :    0.112645
  24 H :    0.116888
  25 H :    0.108893
  26 H :    0.129809
  27 H :    0.119745
  28 H :    0.121235
  29 H :    0.134959
  30 H :    0.133804
  31 H :    0.114993
  32 H :    0.110674
  33 H :    0.126526
  34 H :    0.119612
  35 H :    0.132353
  36 H :    0.111648
  37 H :    0.122536
  38 H :    0.124941
  39 H :    0.120799
  40 H :    0.130010

  Mayer bond orders larger than 0.100000
B(  0-C ,  1-C ) :   1.1601 B(  0-C , 19-H ) :   0.9398 B(  0-C , 20-H ) :   0.9351
B(  0-C , 21-H ) :   0.9454 B(  1-C ,  2-O ) :   0.8959 B(  1-C , 22-H ) :   0.9333
B(  1-C , 23-H ) :   0.9180 B(  2-O ,  3-P ) :   1.1214 B(  3-P ,  4-S ) :   1.6400
B(  3-P ,  5-O ) :   1.0684 B(  3-P ,  8-S ) :   0.9425 B(  5-O ,  6-C ) :   0.9181
B(  6-C ,  7-C ) :   1.1650 B(  6-C , 24-H ) :   0.9341 B(  6-C , 25-H ) :   0.9130
B(  7-C , 26-H ) :   0.9387 B(  7-C , 27-H ) :   0.9364 B(  7-C , 28-H ) :   0.9459
B(  8-S ,  9-C ) :   1.0109 B(  9-C , 10-S ) :   0.9631 B(  9-C , 29-H ) :   0.9107
B(  9-C , 30-H ) :   0.9029 B( 10-S , 11-P ) :   0.9880 B( 10-S , 12-S ) :   0.1114
B( 11-P , 12-S ) :   1.6266 B( 11-P , 13-O ) :   1.0499 B( 11-P , 16-O ) :   1.1170
B( 13-O , 14-C ) :   0.8991 B( 14-C , 15-C ) :   1.1657 B( 14-C , 31-H ) :   0.9341
B( 14-C , 32-H ) :   0.9056 B( 15-C , 33-H ) :   0.9365 B( 15-C , 34-H ) :   0.9406
B( 15-C , 35-H ) :   0.9389 B( 16-O , 17-C ) :   0.9047 B( 17-C , 18-C ) :   1.1705
B( 17-C , 36-H ) :   0.9260 B( 17-C , 37-H ) :   0.9353 B( 18-C , 38-H ) :   0.9400
B( 18-C , 39-H ) :   0.9382 B( 18-C , 40-H ) :   0.9332

Dispersion correction           -0.069046742
FINAL SINGLE POINT ENERGY     -2929.508935363616

DIPOLE MOMENT
-------------

Method             : SCF
Type of density    : Electron Density
Multiplicity       :   1
Irrep              :   0
Energy             : -2929.6255747797067670 Eh
Relativity type    :
Basis              : AO
                                X                 Y                 Z
Electronic contribution:      4.200495424       4.928256259      -3.757308759
Nuclear contribution   :     -4.968534968      -6.373267566       4.559488143
                        -----------------------------------------
Total Dipole Moment    :     -0.768039544      -1.445011307       0.802179384
                        -----------------------------------------
Magnitude (a.u.)       :      1.822480228
Magnitude (Debye)      :      4.632376599

Rotational constants in cm-1:             0.013231             0.005251             0.005060
Rotational constants in MHz :           396.666768           157.420114           151.695188

                             ****ORCA TERMINATED NORMALLY****
TOTAL RUN TIME: 0 days 0 hours 0 minutes 21 seconds 689 msec
