                         Program Version 6.0.0  -   RELEASE  -
|  1> ! pbe def2-sv(p) def2/J RI DEFGRID1 loosescf d4 GCP(DFT/SV(P)) printgap
|  2> %output
|  3>     printlevel normal
|  4> end
|  5> * xyz 0 1
|  6> C 4.7201493313 -1.1949998845 -1.754840077
|  7> C 3.9596396815 -1.9686113608 -0.6989414528
|  8> O 3.3907214223 -1.1180362617 0.314852449
|  9> P 2.4313428697 0.1175423797 0.0419972744
| 10> S 3.209119789 1.8027036757 -0.5724965796
| 11> O 1.7647983366 0.3322971827 1.4531063449
| 12> C 1.1868048573 -0.7380628264 2.2369687638
| 13> C 2.1319293798 -1.1448712434 3.3484926732
| 14> S 0.9347663317 -0.7298077442 -1.2353842263
| 15> C 0.2157733284 0.8442653044 -1.7392579982
| 16> S -0.708016989 1.6626771727 -0.4111727195
| 17> P -2.3057934412 0.2699180728 -0.3775057638
| 18> S -2.9097314612 -0.4422706382 -2.0904126593
| 19> O -3.4610961768 1.0431733326 0.3809557701
| 20> C -3.2724964538 1.6264960197 1.694515271
| 21> C -4.6421611897 1.9532898749 2.2519291363
| 22> O -1.7157608196 -0.8032220522 0.6548735925
| 23> C -2.1202173072 -2.1867165005 0.6103342763
| 24> C -3.5383430071 -2.3609991142 1.1138878903
| 25> H 5.1980174037 -1.8902697542 -2.4374691928
| 26> H 4.0397136309 -0.5569555034 -2.317066117
| 27> H 5.4764833909 -0.5647649095 -1.2930964106
| 28> H 4.6206753279 -2.6307017148 -0.1369268646
| 29> H 3.1497367573 -2.5469202546 -1.1522850021
| 30> H 0.2568153331 -0.3235686162 2.631280491
| 31> H 0.9618029548 -1.5803926104 1.5768777642
| 32> H 1.6597918153 -1.9080332937 3.9591662678
| 33> H 3.0548655511 -1.5370515173 2.9294410716
| 34> H 2.3682193957 -0.2835075639 3.966971041
| 35> H -0.4560094784 0.6356339501 -2.572025819
| 36> H 1.0146295574 1.5293706086 -2.0266127728
| 37> H -2.7421679246 0.9074924816 2.323955745
| 38> H -2.65902579 2.5240871666 1.5796997661
| 39> H -5.2358091596 1.0483389736 2.3453251346
| 40> H -4.5288673628 2.413103339 3.2283678005
| 41> H -5.1575850445 2.6409811866 1.5878731072
| 42> H -2.0279129925 -2.5428202415 -0.4202185191
| 43> H -1.3968962333 -2.6986323956 1.2462134838
| 44> H -3.8021053756 -3.4135815233 1.0919149177
| 45> H -3.6307124734 -1.9880051394 2.1306664463
| 46> H -4.2248993867 -1.8113577303 0.4698846702
| 47> *
| 48>
| 49>                          ****END OF INPUT****

CARTESIAN COORDINATES (ANGSTROEM)
---------------------------------
  C      4.720149   -1.195000   -1.754840
  C      3.959640   -1.968611   -0.698941
  O      3.390721   -1.118036    0.314852
  P      2.431343    0.117542    0.041997
  S      3.209120    1.802704   -0.572497
  O      1.764798    0.332297    1.453106
  C      1.186805   -0.738063    2.236969
  C      2.131929   -1.144871    3.348493
  S      0.934766   -0.729808   -1.235384
  C      0.215773    0.844265   -1.739258
  S     -0.708017    1.662677   -0.411173
  P     -2.305793    0.269918   -0.377506
  S     -2.909731   -0.442271   -2.090413
  O     -3.461096    1.043173    0.380956
  C     -3.272496    1.626496    1.694515
  C     -4.642161    1.953290    2.251929
  O     -1.715761   -0.803222    0.654874
  C     -2.120217   -2.186717    0.610334
  C     -3.538343   -2.360999    1.113888
  H      5.198017   -1.890270   -2.437469
  H      4.039714   -0.556956   -2.317066
  H      5.476483   -0.564765   -1.293096
  H      4.620675   -2.630702   -0.136927
  H      3.149737   -2.546920   -1.152285
  H      0.256815   -0.323569    2.631280
  H      0.961803   -1.580393    1.576878
  H      1.659792   -1.908033    3.959166
  H      3.054866   -1.537052    2.929441
  H      2.368219   -0.283508    3.966971
  H     -0.456009    0.635634   -2.572026
  H      1.014630    1.529371   -2.026613
  H     -2.742168    0.907492    2.323956
  H     -2.659026    2.524087    1.579700
  H     -5.235809    1.048339    2.345325
  H     -4.528867    2.413103    3.228368
  H     -5.157585    2.640981    1.587873
  H     -2.027913   -2.542820   -0.420219
  H     -1.396896   -2.698632    1.246213
  H     -3.802105   -3.413582    1.091915
  H     -3.630712   -1.988005    2.130666
  H     -4.224899   -1.811358    0.469885

 Total Charge           Charge          ....    0
 Multiplicity           Mult            ....    1
 Number of Electrons    NEL             ....  202
 Basis Dimension        Dim             ....  334

ORBITAL ENERGIES
----------------

  NO   OCC          E(Eh)            E(eV)
   0   2.0000     -88.042678     -2395.7631
   1   2.0000     -88.039813     -2395.6851
   2   2.0000     -87.989697     -2394.3214
   3   2.0000     -87.982726     -2394.1317
   4   2.0000     -76.426995     -2079.6843
   5   2.0000     -76.426567     -2079.6726
   6   2.0000     -18.798579      -511.5353
   7   2.0000     -18.798066      -511.5214
   8   2.0000     -18.794695      -511.4296
   9   2.0000     -18.788810      -511.2695
  10   2.0000      -9.963395      -271.1178
  11   2.0000      -9.961930      -271.0779
  12   2.0000      -9.955461      -270.9019
  13   2.0000      -9.954078      -270.8642
  14   2.0000      -9.951658      -270.7984
  15   2.0000      -9.895480      -269.2697
  16   2.0000      -9.890467      -269.1333
  17   2.0000      -9.887159      -269.0433
  18   2.0000      -9.884809      -268.9793
  19   2.0000      -7.687388      -209.1845
  20   2.0000      -7.685143      -209.1234
  21   2.0000      -7.634947      -207.7575
  22   2.0000      -7.628081      -207.5706
  23   2.0000      -6.425046      -174.8344
  24   2.0000      -6.423758      -174.7993
  25   2.0000      -5.715012      -155.5134
  26   2.0000      -5.712933      -155.4568
  27   2.0000      -5.711956      -155.4302
  28   2.0000      -5.709901      -155.3743
  29   2.0000      -5.704634      -155.2310
  30   2.0000      -5.701917      -155.1571
  31   2.0000      -5.663960      -154.1242
  32   2.0000      -5.657154      -153.9390
  33   2.0000      -5.655624      -153.8974
  34   2.0000      -5.654898      -153.8776
  35   2.0000      -5.648605      -153.7064
  36   2.0000      -5.648124      -153.6933
  37   2.0000      -4.647955      -126.4773
  38   2.0000      -4.646702      -126.4432
  39   2.0000      -4.646395      -126.4348
  40   2.0000      -4.645715      -126.4163
  41   2.0000      -4.645560      -126.4121
  42   2.0000      -4.643740      -126.3626
  43   2.0000      -0.990597       -26.9555
  44   2.0000      -0.989312       -26.9206
  45   2.0000      -0.948682       -25.8149
  46   2.0000      -0.946177       -25.7468
  47   2.0000      -0.764651       -20.8072
  48   2.0000      -0.725024       -19.7289
  49   2.0000      -0.713950       -19.4276
  50   2.0000      -0.696526       -18.9534
  51   2.0000      -0.693010       -18.8578
  52   2.0000      -0.675647       -18.3853
  53   2.0000      -0.652175       -17.7466
  54   2.0000      -0.640175       -17.4200
  55   2.0000      -0.595599       -16.2071
  56   2.0000      -0.590673       -16.0730
  57   2.0000      -0.578316       -15.7368
  58   2.0000      -0.575212       -15.6523
  59   2.0000      -0.565706       -15.3936
  60   2.0000      -0.512386       -13.9427
  61   2.0000      -0.501709       -13.6522
  62   2.0000      -0.484116       -13.1735
  63   2.0000      -0.476113       -12.9557
  64   2.0000      -0.461510       -12.5583
  65   2.0000      -0.449695       -12.2368
  66   2.0000      -0.446909       -12.1610
  67   2.0000      -0.437341       -11.9007
  68   2.0000      -0.434372       -11.8199
  69   2.0000      -0.413547       -11.2532
  70   2.0000      -0.408072       -11.1042
  71   2.0000      -0.401299       -10.9199
  72   2.0000      -0.399652       -10.8751
  73   2.0000      -0.390944       -10.6381
  74   2.0000      -0.383303       -10.4302
  75   2.0000      -0.372626       -10.1397
  76   2.0000      -0.364669        -9.9231
  77   2.0000      -0.362382        -9.8609
  78   2.0000      -0.357207        -9.7201
  79   2.0000      -0.354218        -9.6388
  80   2.0000      -0.350596        -9.5402
  81   2.0000      -0.348026        -9.4703
  82   2.0000      -0.345244        -9.3946
  83   2.0000      -0.340527        -9.2662
  84   2.0000      -0.339271        -9.2320
  85   2.0000      -0.325985        -8.8705
  86   2.0000      -0.317704        -8.6452
  87   2.0000      -0.317357        -8.6357
  88   2.0000      -0.299440        -8.1482
  89   2.0000      -0.290771        -7.9123
  90   2.0000      -0.284841        -7.7509
  91   2.0000      -0.279509        -7.6058
  92   2.0000      -0.274132        -7.4595
  93   2.0000      -0.272998        -7.4287
  94   2.0000      -0.258053        -7.0220
  95   2.0000      -0.232243        -6.3197
  96   2.0000      -0.218004        -5.9322
  97   2.0000      -0.213139        -5.7998
  98   2.0000      -0.203761        -5.5446
  99   2.0000      -0.200086        -5.4446
 100   2.0000      -0.197621        -5.3775
 101   0.0000      -0.044611        -1.2139
 102   0.0000      -0.023647        -0.6435
 103   0.0000      -0.006575        -0.1789
 104   0.0000       0.003004         0.0817
 105   0.0000       0.009682         0.2635

MULLIKEN ATOMIC CHARGES
-----------------------
   0 C :   -0.308119
   1 C :   -0.011940
   2 O :   -0.381463
   3 P :    0.595470
   4 S :   -0.308332
   5 O :   -0.344853
   6 C :   -0.020222
   7 C :   -0.281817
   8 S :   -0.105498
   9 C :   -0.363397
  10 S :   -0.079677
  11 P :    0.615609
  12 S :   -0.310782
  13 O :   -0.371266
  14 C :   -0.040109
  15 C :   -0.275855
  16 O :   -0.383008
  17 C :   -0.011542
  18 C :   -0.312249
  19 H :    0.112101
  20 H :    0.127118
  21 H :    0.127549
  22 H :    0.108732
  23 H :    0.113858
  24 H :    0.110799
  25 H :    0.102688
  26 H :    0.104884
  27 H :    0.117998
  28 H :    0.119660
  29 H :    0.193957
  30 H :    0.195630
  31 H :    0.111524
  32 H :    0.120189
  33 H :    0.119264
  34 H :    0.113373
  35 H :    0.126528
  36 H :    0.115491
  37 H :    0.101127
  38 H :    0.114420
  39 H :    0.109660
  40 H :    0.132500
Sum of atomic charges:    0.0000000

LOEWDIN ATOMIC CHARGES
----------------------
   0 C :   -0.368648
   1 C :   -0.115105
   2 O :   -0.245580
   3 P :    0.569177
   4 S :   -0.304804
   5 O :   -0.229231
   6 C :   -0.115444
   7 C :   -0.357849
   8 S :    0.064959
   9 C :   -0.485197
  10 S :    0.085031
  11 P :    0.570710
  12 S :   -0.304609
  13 O :   -0.244806
  14 C :   -0.119293
  15 C :   -0.348675
  16 O :   -0.252185
  17 C :   -0.122093
  18 C :   -0.365747
  19 H :    0.130609
  20 H :    0.122288
  21 H :    0.130995
  22 H :    0.120737
  23 H :    0.108257
  24 H :    0.116512
  25 H :    0.102082
  26 H :    0.126825
  27 H :    0.125878
  28 H :    0.128876
  29 H :    0.129659
  30 H :    0.128816
  31 H :    0.108612
  32 H :    0.114208
  33 H :    0.128238
  34 H :    0.131734
  35 H :    0.132567
  36 H :    0.110729
  37 H :    0.112588
  38 H :    0.131995
  39 H :    0.121000
  40 H :    0.126184

  Mayer bond orders larger than 0.100000
B(  0-C ,  1-C ) :   1.1683 B(  0-C , 19-H ) :   0.9348 B(  0-C , 20-H ) :   0.9317
B(  0-C , 21-H ) :   0.9431 B(  1-C ,  2-O ) :   0.9106 B(  1-C , 22-H ) :   0.9329
B(  1-C , 23-H ) :   0.9256 B(  2-O ,  3-P ) :   1.0785 B(  3-P ,  4-S ) :   1.6484
B(  3-P ,  5-O ) :   1.1411 B(  3-P ,  8-S ) :   0.9359 B(  4-S ,  8-S ) :   0.1102
B(  5-O ,  6-C ) :   0.8948 B(  6-C ,  7-C ) :   1.1564 B(  6-C , 24-H ) :   0.9320
B(  6-C , 25-H ) :   0.9104 B(  7-C , 26-H ) :   0.9413 B(  7-C , 27-H ) :   0.9434
B(  7-C , 28-H ) :   0.9467 B(  8-S ,  9-C ) :   1.0092 B(  9-C , 10-S ) :   1.0109
B(  9-C , 29-H ) :   0.8753 B(  9-C , 30-H ) :   0.8695 B( 10-S , 11-P ) :   0.9691
B( 10-S , 12-S ) :   0.1040 B( 11-P , 12-S ) :   1.6351 B( 11-P , 13-O ) :   1.1200
B( 11-P , 16-O ) :   1.0609 B( 13-O , 14-C ) :   0.8993 B( 14-C , 15-C ) :   1.1659
B( 14-C , 31-H ) :   0.9172 B( 14-C , 32-H ) :   0.9244 B( 15-C , 33-H ) :   0.9508
B( 15-C , 34-H ) :   0.9401 B( 15-C , 35-H ) :   0.9489 B( 16-O , 17-C ) :   0.9070
B( 17-C , 18-C ) :   1.1622 B( 17-C , 36-H ) :   0.9122 B( 17-C , 37-H ) :   0.9289
B( 18-C , 38-H ) :   0.9393 B( 18-C , 39-H ) :   0.9465 B( 18-C , 40-H ) :   0.9333

Dispersion correction           -0.065036567
FINAL SINGLE POINT ENERGY     -2929.518872477260

DIPOLE MOMENT
-------------

Method             : SCF
Type of density    : Electron Density
Multiplicity       :   1
Irrep              :   0
Energy             : -2929.6394839720005621 Eh
Relativity type    :
Basis              : AO
                                X                 Y                 Z
Electronic contribution:      3.716930046      12.623972469     -16.494197989
Nuclear contribution   :     -3.937866225     -14.096917087      18.021061997
                        -----------------------------------------
Total Dipole Moment    :     -0.220936179      -1.472944619       1.526864007
                        -----------------------------------------
Magnitude (a.u.)       :      2.133000783
Magnitude (Debye)      :      5.421657125

Rotational constants in cm-1:             0.012326             0.004798             0.004649
Rotational constants in MHz :           369.514931           143.845881           139.378151

                             ****ORCA TERMINATED NORMALLY****
TOTAL RUN TIME: 0 days 0 hours 0 minutes 21 seconds 336 msec
