                         Program Version 6.0.0  -   RELEASE  -
|  1> ! pbe def2-sv(p) def2/J RI DEFGRID1 loosescf d4 GCP(DFT/SV(P)) printgap
|  2> %output
|  3>     printlevel normal
|  4> end
|  5> * xyz 0 1
|  6> C 5.2190531473 -2.5206354002 -1.0031032779
|  7> C 4.1846387793 -1.4642648504 -1.3355072112
|  8> O 3.2331426558 -1.4212551869 -0.2533761785
|  9> P 2.2696176371 -0.1800175621 -0.03864408
| 10> S 3.1399898958 1.5824151551 -0.0703557531
| 11> O 1.5235815786 -0.5698989499 1.2985363949
| 12> C 1.9556529966 -0.0809105689 2.5865455721
| 13> C 3.2766707829 -0.6960577093 2.9953995054
| 14> S 0.7485160006 -0.4802050283 -1.475648774
| 15> C -0.0051507581 1.1592183428 -1.2895191352
| 16> S -0.9378755856 1.3384526754 0.2447555614
| 17> P -2.811155855 0.5234326547 -0.4032562695
| 18> S -3.0425283149 0.5124442066 -2.347888722
| 19> O -3.9047180435 1.3892139657 0.3210310489
| 20> C -4.2990328234 1.2638447493 1.7115296022
| 21> C -3.1460146577 1.4910753286 2.6646951315
| 22> O -2.9966427318 -0.8906428146 0.3058158118
| 23> C -2.3683904886 -2.1018429246 -0.1552082399
| 24> C -1.3299901377 -2.5664590152 0.8468689269
| 25> H 5.7501000583 -2.2535356613 -0.0939482326
| 26> H 4.7323982853 -3.4805688129 -0.8582189079
| 27> H 5.9269826139 -2.5955679434 -1.8219464865
| 28> H 3.6455818763 -1.7080522466 -2.2550270465
| 29> H 4.6402505163 -0.4736454038 -1.4406054764
| 30> H 2.0306986309 1.0097825103 2.5359115317
| 31> H 1.1466707649 -0.3652133792 3.2600978507
| 32> H 4.0599162377 -0.3705233296 2.3116212267
| 33> H 3.529909499 -0.3744972286 4.0007048801
| 34> H 3.2116974253 -1.780313805 2.9646519154
| 35> H -0.6773041115 1.2976871086 -2.1379867713
| 36> H 0.7833471466 1.9121056506 -1.2756049256
| 37> H -5.0687522427 2.029455822 1.8187640658
| 38> H -4.7349520575 0.2731397208 1.8518779137
| 39> H -2.3966080948 0.711511495 2.5406257368
| 40> H -2.6796901745 2.4549565259 2.476296543
| 41> H -3.5175829398 1.4657398146 3.6844184408
| 42> H -3.1780151136 -2.8288749321 -0.2481689988
| 43> H -1.9276925071 -1.9315724473 -1.1429912404
| 44> H -1.7897206706 -2.7050397572 1.8212761357
| 45> H -0.9109123567 -3.5087873548 0.5093493214
| 46> H -0.5264976189 -1.839178721 0.935265667
| 47> *
| 48>
| 49>                          ****END OF INPUT****

CARTESIAN COORDINATES (ANGSTROEM)
---------------------------------
  C      5.219053   -2.520635   -1.003103
  C      4.184639   -1.464265   -1.335507
  O      3.233143   -1.421255   -0.253376
  P      2.269618   -0.180018   -0.038644
  S      3.139990    1.582415   -0.070356
  O      1.523582   -0.569899    1.298536
  C      1.955653   -0.080911    2.586546
  C      3.276671   -0.696058    2.995400
  S      0.748516   -0.480205   -1.475649
  C     -0.005151    1.159218   -1.289519
  S     -0.937876    1.338453    0.244756
  P     -2.811156    0.523433   -0.403256
  S     -3.042528    0.512444   -2.347889
  O     -3.904718    1.389214    0.321031
  C     -4.299033    1.263845    1.711530
  C     -3.146015    1.491075    2.664695
  O     -2.996643   -0.890643    0.305816
  C     -2.368390   -2.101843   -0.155208
  C     -1.329990   -2.566459    0.846869
  H      5.750100   -2.253536   -0.093948
  H      4.732398   -3.480569   -0.858219
  H      5.926983   -2.595568   -1.821946
  H      3.645582   -1.708052   -2.255027
  H      4.640251   -0.473645   -1.440605
  H      2.030699    1.009783    2.535912
  H      1.146671   -0.365213    3.260098
  H      4.059916   -0.370523    2.311621
  H      3.529909   -0.374497    4.000705
  H      3.211697   -1.780314    2.964652
  H     -0.677304    1.297687   -2.137987
  H      0.783347    1.912106   -1.275605
  H     -5.068752    2.029456    1.818764
  H     -4.734952    0.273140    1.851878
  H     -2.396608    0.711511    2.540626
  H     -2.679690    2.454957    2.476297
  H     -3.517583    1.465740    3.684418
  H     -3.178015   -2.828875   -0.248169
  H     -1.927693   -1.931572   -1.142991
  H     -1.789721   -2.705040    1.821276
  H     -0.910912   -3.508787    0.509349
  H     -0.526498   -1.839179    0.935266

 Total Charge           Charge          ....    0
 Multiplicity           Mult            ....    1
 Number of Electrons    NEL             ....  202
 Basis Dimension        Dim             ....  334

ORBITAL ENERGIES
----------------

  NO   OCC          E(Eh)            E(eV)
   0   2.0000     -88.043954     -2395.7978
   1   2.0000     -88.039261     -2395.6701
   2   2.0000     -87.992867     -2394.4076
   3   2.0000     -87.983815     -2394.1613
   4   2.0000     -76.430783     -2079.7873
   5   2.0000     -76.426247     -2079.6639
   6   2.0000     -18.799543      -511.5616
   7   2.0000     -18.797770      -511.5133
   8   2.0000     -18.793862      -511.4070
   9   2.0000     -18.791208      -511.3348
  10   2.0000      -9.960268      -271.0327
  11   2.0000      -9.958096      -270.9736
  12   2.0000      -9.956515      -270.9305
  13   2.0000      -9.949200      -270.7315
  14   2.0000      -9.948096      -270.7015
  15   2.0000      -9.893482      -269.2153
  16   2.0000      -9.892888      -269.1992
  17   2.0000      -9.888424      -269.0777
  18   2.0000      -9.878152      -268.7982
  19   2.0000      -7.689077      -209.2304
  20   2.0000      -7.683960      -209.0912
  21   2.0000      -7.637723      -207.8330
  22   2.0000      -7.629084      -207.5979
  23   2.0000      -6.428640      -174.9322
  24   2.0000      -6.423656      -174.7966
  25   2.0000      -5.716778      -155.5614
  26   2.0000      -5.713725      -155.4784
  27   2.0000      -5.711858      -155.4276
  28   2.0000      -5.708460      -155.3351
  29   2.0000      -5.706089      -155.2706
  30   2.0000      -5.701028      -155.1329
  31   2.0000      -5.666490      -154.1930
  32   2.0000      -5.658379      -153.9723
  33   2.0000      -5.658055      -153.9635
  34   2.0000      -5.658033      -153.9629
  35   2.0000      -5.649574      -153.7327
  36   2.0000      -5.649260      -153.7242
  37   2.0000      -4.651080      -126.5623
  38   2.0000      -4.650411      -126.5441
  39   2.0000      -4.649123      -126.5091
  40   2.0000      -4.646620      -126.4410
  41   2.0000      -4.645154      -126.4011
  42   2.0000      -4.644017      -126.3701
  43   2.0000      -0.994210       -27.0538
  44   2.0000      -0.988626       -26.9019
  45   2.0000      -0.953478       -25.9455
  46   2.0000      -0.943640       -25.6777
  47   2.0000      -0.763164       -20.7668
  48   2.0000      -0.725237       -19.7347
  49   2.0000      -0.713860       -19.4251
  50   2.0000      -0.694107       -18.8876
  51   2.0000      -0.690989       -18.8028
  52   2.0000      -0.676319       -18.4036
  53   2.0000      -0.651252       -17.7215
  54   2.0000      -0.636759       -17.3271
  55   2.0000      -0.604050       -16.4370
  56   2.0000      -0.596130       -16.2215
  57   2.0000      -0.575548       -15.6614
  58   2.0000      -0.570852       -15.5337
  59   2.0000      -0.559348       -15.2206
  60   2.0000      -0.509036       -13.8516
  61   2.0000      -0.499298       -13.5866
  62   2.0000      -0.483840       -13.1660
  63   2.0000      -0.476203       -12.9582
  64   2.0000      -0.459998       -12.5172
  65   2.0000      -0.449755       -12.2385
  66   2.0000      -0.444060       -12.0835
  67   2.0000      -0.439697       -11.9648
  68   2.0000      -0.426387       -11.6026
  69   2.0000      -0.426013       -11.5924
  70   2.0000      -0.410911       -11.1815
  71   2.0000      -0.400941       -10.9102
  72   2.0000      -0.389204       -10.5908
  73   2.0000      -0.385731       -10.4963
  74   2.0000      -0.384350       -10.4587
  75   2.0000      -0.377000       -10.2587
  76   2.0000      -0.368516       -10.0278
  77   2.0000      -0.362090        -9.8530
  78   2.0000      -0.360440        -9.8081
  79   2.0000      -0.352729        -9.5982
  80   2.0000      -0.351189        -9.5563
  81   2.0000      -0.350400        -9.5349
  82   2.0000      -0.345031        -9.3888
  83   2.0000      -0.341401        -9.2900
  84   2.0000      -0.331475        -9.0199
  85   2.0000      -0.324490        -8.8298
  86   2.0000      -0.312694        -8.5088
  87   2.0000      -0.305320        -8.3082
  88   2.0000      -0.299238        -8.1427
  89   2.0000      -0.292596        -7.9619
  90   2.0000      -0.289049        -7.8654
  91   2.0000      -0.281030        -7.6472
  92   2.0000      -0.276497        -7.5239
  93   2.0000      -0.267863        -7.2889
  94   2.0000      -0.255374        -6.9491
  95   2.0000      -0.236023        -6.4225
  96   2.0000      -0.220053        -5.9880
  97   2.0000      -0.214675        -5.8416
  98   2.0000      -0.205275        -5.5858
  99   2.0000      -0.201758        -5.4901
 100   2.0000      -0.198770        -5.4088
 101   0.0000      -0.044905        -1.2219
 102   0.0000      -0.026180        -0.7124
 103   0.0000      -0.005759        -0.1567
 104   0.0000       0.000101         0.0027
 105   0.0000       0.010733         0.2921

MULLIKEN ATOMIC CHARGES
-----------------------
   0 C :   -0.281847
   1 C :   -0.014392
   2 O :   -0.375009
   3 P :    0.615013
   4 S :   -0.332835
   5 O :   -0.354160
   6 C :    0.000143
   7 C :   -0.309440
   8 S :   -0.087017
   9 C :   -0.363095
  10 S :   -0.110519
  11 P :    0.612577
  12 S :   -0.309917
  13 O :   -0.363406
  14 C :    0.010050
  15 C :   -0.343594
  16 O :   -0.386699
  17 C :   -0.002783
  18 C :   -0.319108
  19 H :    0.119754
  20 H :    0.118116
  21 H :    0.114738
  22 H :    0.106538
  23 H :    0.109045
  24 H :    0.114587
  25 H :    0.105604
  26 H :    0.124000
  27 H :    0.113979
  28 H :    0.117561
  29 H :    0.197513
  30 H :    0.194125
  31 H :    0.113315
  32 H :    0.112396
  33 H :    0.134005
  34 H :    0.133413
  35 H :    0.118817
  36 H :    0.104437
  37 H :    0.104648
  38 H :    0.102876
  39 H :    0.104905
  40 H :    0.151670
Sum of atomic charges:    0.0000000

LOEWDIN ATOMIC CHARGES
----------------------
   0 C :   -0.350139
   1 C :   -0.119466
   2 O :   -0.245549
   3 P :    0.571685
   4 S :   -0.320347
   5 O :   -0.230213
   6 C :   -0.116022
   7 C :   -0.364940
   8 S :    0.087234
   9 C :   -0.492042
  10 S :    0.073048
  11 P :    0.572790
  12 S :   -0.303665
  13 O :   -0.236449
  14 C :   -0.106137
  15 C :   -0.374780
  16 O :   -0.251759
  17 C :   -0.116122
  18 C :   -0.368538
  19 H :    0.128128
  20 H :    0.127688
  21 H :    0.132270
  22 H :    0.111966
  23 H :    0.109926
  24 H :    0.112015
  25 H :    0.118519
  26 H :    0.122350
  27 H :    0.131482
  28 H :    0.126758
  29 H :    0.127874
  30 H :    0.128602
  31 H :    0.124106
  32 H :    0.116352
  33 H :    0.119545
  34 H :    0.129331
  35 H :    0.134388
  36 H :    0.117143
  37 H :    0.102464
  38 H :    0.120134
  39 H :    0.128678
  40 H :    0.121693

  Mayer bond orders larger than 0.100000
B(  0-C ,  1-C ) :   1.1608 B(  0-C , 19-H ) :   0.9515 B(  0-C , 20-H ) :   0.9503
B(  0-C , 21-H ) :   0.9415 B(  1-C ,  2-O ) :   0.9010 B(  1-C , 22-H ) :   0.9295
B(  1-C , 23-H ) :   0.9105 B(  2-O ,  3-P ) :   1.1131 B(  3-P ,  4-S ) :   1.5999
B(  3-P ,  5-O ) :   1.1232 B(  3-P ,  8-S ) :   0.9682 B(  4-S ,  8-S ) :   0.1077
B(  5-O ,  6-C ) :   0.8966 B(  6-C ,  7-C ) :   1.1648 B(  6-C , 24-H ) :   0.9162
B(  6-C , 25-H ) :   0.9334 B(  7-C , 26-H ) :   0.9345 B(  7-C , 27-H ) :   0.9388
B(  7-C , 28-H ) :   0.9460 B(  8-S ,  9-C ) :   0.9969 B(  9-C , 10-S ) :   1.0174
B(  9-C , 29-H ) :   0.8553 B(  9-C , 30-H ) :   0.8684 B( 10-S , 11-P ) :   0.9348
B( 10-S , 12-S ) :   0.1156 B( 11-P , 12-S ) :   1.6476 B( 11-P , 13-O ) :   1.1489
B( 11-P , 16-O ) :   1.0719 B( 12-S , 29-H ) :   0.1075 B( 13-O , 14-C ) :   0.8965
B( 14-C , 15-C ) :   1.1707 B( 14-C , 31-H ) :   0.9338 B( 14-C , 32-H ) :   0.9278
B( 15-C , 33-H ) :   0.9309 B( 15-C , 34-H ) :   0.9398 B( 15-C , 35-H ) :   0.9347
B( 16-O , 17-C ) :   0.9002 B( 17-C , 18-C ) :   1.1651 B( 17-C , 36-H ) :   0.9356
B( 17-C , 37-H ) :   0.9019 B( 18-C , 38-H ) :   0.9460 B( 18-C , 39-H ) :   0.9403
B( 18-C , 40-H ) :   0.9203

Dispersion correction           -0.064064407
FINAL SINGLE POINT ENERGY     -2929.522327262675

DIPOLE MOMENT
-------------

Method             : SCF
Type of density    : Electron Density
Multiplicity       :   1
Irrep              :   0
Energy             : -2929.6436745074797727 Eh
Relativity type    :
Basis              : AO
                                X                 Y                 Z
Electronic contribution:    -11.209879212      13.404533193     -17.182453605
Nuclear contribution   :     11.759571076     -14.544231242      18.759883286
                        -----------------------------------------
Total Dipole Moment    :      0.549691864      -1.139698049       1.577429681
                        -----------------------------------------
Magnitude (a.u.)       :      2.022215910
Magnitude (Debye)      :      5.140064356

Rotational constants in cm-1:             0.012955             0.004581             0.004294
Rotational constants in MHz :           388.395642           137.324199           128.732382

                             ****ORCA TERMINATED NORMALLY****
TOTAL RUN TIME: 0 days 0 hours 0 minutes 21 seconds 128 msec
