                         Program Version 6.0.0  -   RELEASE  -
|  1> ! r2scan-3c def2/J RI DEFGRID2 scfconv6 printgap
|  2> %output
|  3>     printlevel normal
|  4> end
|  5> * xyz 0 1
|  6> C 4.4305664308 -1.8343042711 -0.7364400927
|  7> C 4.6250752876 -0.3524240973 -0.4869365661
|  8> O 3.5732408164 0.2089350106 0.3154277034
|  9> P 2.0741018461 0.3374095332 -0.2022940068
| 10> S 1.9102236356 0.8080658557 -2.1009398022
| 11> O 1.4839080138 1.3443021274 0.8723411556
| 12> C 1.4999613211 2.7719013874 0.6804395001
| 13> C 2.9067018498 3.326739303 0.6192775301
| 14> S 1.1806806649 -1.4587485417 0.4514310423
| 15> C -0.0170698299 -1.7549819315 -0.9027324987
| 16> S -1.6761387039 -2.1365942142 -0.2974964052
| 17> P -2.3481952321 -0.1897211741 0.2404889663
| 18> S -1.3978058402 1.308115609 -0.6098065052
| 19> O -2.4101157937 -0.1719543696 1.8223588042
| 20> C -1.2374284757 -0.1561726357 2.657698424
| 21> C -1.6682006876 0.2740917386 4.0452194579
| 22> O -3.9103713018 -0.2233739446 0.0298508511
| 23> C -4.5222100215 0.1521174325 -1.2178751293
| 24> C -4.2133461357 -0.8322866311 -2.328056739
| 25> H 4.2744519552 -2.3592177376 0.2026500552
| 26> H 3.563645443 -1.9912166363 -1.3770290747
| 27> H 5.3100600462 -2.2325902934 -1.2321337693
| 28> H 4.6632310397 0.1927598634 -1.4356103546
| 29> H 5.5282425722 -0.1560953925 0.0923546446
| 30> H 0.9450495667 2.9999469657 -0.2361301955
| 31> H 0.9489558192 3.1560875778 1.5403926533
| 32> H 2.8618305757 4.4107313591 0.5837135173
| 33> H 3.4711177001 3.0128455921 1.4935306358
| 34> H 3.4097919012 2.964385271 -0.2765008651
| 35> H 0.3033960992 -2.63350902 -1.4561073
| 36> H -0.0402635031 -0.868767694 -1.5422883411
| 37> H -0.8055233146 -1.1619928585 2.6699582726
| 38> H -0.5029289222 0.5383851284 2.2346957509
| 39> H -2.4149393938 -0.4152678498 4.4278246959
| 40> H -0.8045587606 0.2739348792 4.7019794578
| 41> H -2.0964320354 1.2718748882 4.010588898
| 42> H -5.5878532343 0.1759394651 -0.9860024851
| 43> H -4.1787804296 1.1564895814 -1.486498456
| 44> H -4.8064746393 -0.583795802 -3.2024179097
| 45> H -3.1580538059 -0.7782129235 -2.5927824674
| 46> H -4.4446494743 -1.8453249905 -2.009030868
| 47> *
| 48>
| 49>                          ****END OF INPUT****

CARTESIAN COORDINATES (ANGSTROEM)
---------------------------------
  C      4.430566   -1.834304   -0.736440
  C      4.625075   -0.352424   -0.486937
  O      3.573241    0.208935    0.315428
  P      2.074102    0.337410   -0.202294
  S      1.910224    0.808066   -2.100940
  O      1.483908    1.344302    0.872341
  C      1.499961    2.771901    0.680440
  C      2.906702    3.326739    0.619278
  S      1.180681   -1.458749    0.451431
  C     -0.017070   -1.754982   -0.902732
  S     -1.676139   -2.136594   -0.297496
  P     -2.348195   -0.189721    0.240489
  S     -1.397806    1.308116   -0.609807
  O     -2.410116   -0.171954    1.822359
  C     -1.237428   -0.156173    2.657698
  C     -1.668201    0.274092    4.045219
  O     -3.910371   -0.223374    0.029851
  C     -4.522210    0.152117   -1.217875
  C     -4.213346   -0.832287   -2.328057
  H      4.274452   -2.359218    0.202650
  H      3.563645   -1.991217   -1.377029
  H      5.310060   -2.232590   -1.232134
  H      4.663231    0.192760   -1.435610
  H      5.528243   -0.156095    0.092355
  H      0.945050    2.999947   -0.236130
  H      0.948956    3.156088    1.540393
  H      2.861831    4.410731    0.583714
  H      3.471118    3.012846    1.493531
  H      3.409792    2.964385   -0.276501
  H      0.303396   -2.633509   -1.456107
  H     -0.040264   -0.868768   -1.542288
  H     -0.805523   -1.161993    2.669958
  H     -0.502929    0.538385    2.234696
  H     -2.414939   -0.415268    4.427825
  H     -0.804559    0.273935    4.701979
  H     -2.096432    1.271875    4.010589
  H     -5.587853    0.175939   -0.986002
  H     -4.178780    1.156490   -1.486498
  H     -4.806475   -0.583796   -3.202418
  H     -3.158054   -0.778213   -2.592782
  H     -4.444649   -1.845325   -2.009031

 Total Charge           Charge          ....    0
 Multiplicity           Mult            ....    1
 Number of Electrons    NEL             ....  202
 Basis Dimension        Dim             ....  539

ORBITAL ENERGIES
----------------

  NO   OCC          E(Eh)            E(eV)
   0   2.0000     -88.577465     -2410.3154
   1   2.0000     -88.573667     -2410.2120
   2   2.0000     -88.520236     -2408.7581
   3   2.0000     -88.517558     -2408.6852
   4   2.0000     -76.912772     -2092.9029
   5   2.0000     -76.911494     -2092.8681
   6   2.0000     -18.990588      -516.7602
   7   2.0000     -18.989384      -516.7274
   8   2.0000     -18.985628      -516.6252
   9   2.0000     -18.984344      -516.5903
  10   2.0000     -10.106422      -275.0097
  11   2.0000     -10.097443      -274.7654
  12   2.0000     -10.097236      -274.7598
  13   2.0000     -10.093059      -274.6461
  14   2.0000     -10.089915      -274.5605
  15   2.0000     -10.027969      -272.8749
  16   2.0000     -10.027249      -272.8553
  17   2.0000     -10.026595      -272.8375
  18   2.0000     -10.025544      -272.8089
  19   2.0000      -7.871745      -214.2011
  20   2.0000      -7.868259      -214.1062
  21   2.0000      -7.814926      -212.6549
  22   2.0000      -7.812283      -212.5830
  23   2.0000      -6.591173      -179.3549
  24   2.0000      -6.590057      -179.3246
  25   2.0000      -5.818758      -158.3365
  26   2.0000      -5.815331      -158.2432
  27   2.0000      -5.815055      -158.2357
  28   2.0000      -5.812244      -158.1592
  29   2.0000      -5.808999      -158.0709
  30   2.0000      -5.805266      -157.9693
  31   2.0000      -5.762601      -156.8083
  32   2.0000      -5.759948      -156.7361
  33   2.0000      -5.755382      -156.6119
  34   2.0000      -5.754744      -156.5945
  35   2.0000      -5.752536      -156.5345
  36   2.0000      -5.752322      -156.5286
  37   2.0000      -4.736413      -128.8844
  38   2.0000      -4.735993      -128.8729
  39   2.0000      -4.735402      -128.8568
  40   2.0000      -4.735267      -128.8532
  41   2.0000      -4.735170      -128.8505
  42   2.0000      -4.733737      -128.8115
  43   2.0000      -1.050173       -28.5766
  44   2.0000      -1.047262       -28.4974
  45   2.0000      -1.007435       -27.4137
  46   2.0000      -1.006666       -27.3928
  47   2.0000      -0.797921       -21.7125
  48   2.0000      -0.757041       -20.6001
  49   2.0000      -0.748426       -20.3657
  50   2.0000      -0.729453       -19.8494
  51   2.0000      -0.726368       -19.7655
  52   2.0000      -0.711525       -19.3616
  53   2.0000      -0.685260       -18.6469
  54   2.0000      -0.664688       -18.0871
  55   2.0000      -0.634347       -17.2615
  56   2.0000      -0.624982       -17.0066
  57   2.0000      -0.603363       -16.4183
  58   2.0000      -0.595787       -16.2122
  59   2.0000      -0.589487       -16.0407
  60   2.0000      -0.525603       -14.3024
  61   2.0000      -0.514058       -13.9882
  62   2.0000      -0.489175       -13.3111
  63   2.0000      -0.487026       -13.2526
  64   2.0000      -0.468880       -12.7589
  65   2.0000      -0.464557       -12.6412
  66   2.0000      -0.456823       -12.4308
  67   2.0000      -0.454176       -12.3588
  68   2.0000      -0.443479       -12.0677
  69   2.0000      -0.434764       -11.8305
  70   2.0000      -0.428739       -11.6666
  71   2.0000      -0.412655       -11.2289
  72   2.0000      -0.407901       -11.0995
  73   2.0000      -0.402140       -10.9428
  74   2.0000      -0.396553       -10.7908
  75   2.0000      -0.391713       -10.6591
  76   2.0000      -0.385934       -10.5018
  77   2.0000      -0.368757       -10.0344
  78   2.0000      -0.366749        -9.9798
  79   2.0000      -0.361675        -9.8417
  80   2.0000      -0.360844        -9.8191
  81   2.0000      -0.355405        -9.6711
  82   2.0000      -0.352992        -9.6054
  83   2.0000      -0.351665        -9.5693
  84   2.0000      -0.347965        -9.4686
  85   2.0000      -0.325799        -8.8654
  86   2.0000      -0.322325        -8.7709
  87   2.0000      -0.314193        -8.5496
  88   2.0000      -0.307622        -8.3708
  89   2.0000      -0.305203        -8.3050
  90   2.0000      -0.295931        -8.0527
  91   2.0000      -0.284473        -7.7409
  92   2.0000      -0.281514        -7.6604
  93   2.0000      -0.278991        -7.5917
  94   2.0000      -0.269573        -7.3354
  95   2.0000      -0.247939        -6.7468
  96   2.0000      -0.231213        -6.2916
  97   2.0000      -0.229726        -6.2512
  98   2.0000      -0.217404        -5.9159
  99   2.0000      -0.212807        -5.7908
 100   2.0000      -0.204200        -5.5566
 101   0.0000      -0.045131        -1.2281
 102   0.0000      -0.035836        -0.9751
 103   0.0000      -0.015531        -0.4226
 104   0.0000       0.011655         0.3172
 105   0.0000       0.017494         0.4760

MULLIKEN ATOMIC CHARGES
-----------------------
   0 C :   -0.441803
   1 C :   -0.156431
   2 O :   -0.290672
   3 P :    0.662276
   4 S :   -0.462480
   5 O :   -0.288994
   6 C :   -0.154781
   7 C :   -0.449404
   8 S :   -0.138264
   9 C :   -0.209230
  10 S :   -0.129402
  11 P :    0.652268
  12 S :   -0.422159
  13 O :   -0.273816
  14 C :   -0.112916
  15 C :   -0.471317
  16 O :   -0.317520
  17 C :   -0.149530
  18 C :   -0.441725
  19 H :    0.156413
  20 H :    0.169934
  21 H :    0.147205
  22 H :    0.171910
  23 H :    0.147634
  24 H :    0.177170
  25 H :    0.152097
  26 H :    0.147239
  27 H :    0.156088
  28 H :    0.169210
  29 H :    0.193366
  30 H :    0.216410
  31 H :    0.156070
  32 H :    0.178504
  33 H :    0.154094
  34 H :    0.146030
  35 H :    0.156226
  36 H :    0.149676
  37 H :    0.173872
  38 H :    0.147938
  39 H :    0.173015
  40 H :    0.155800
Sum of atomic charges:   -0.0000000

LOEWDIN ATOMIC CHARGES
----------------------
   0 C :   -0.407426
   1 C :    0.018328
   2 O :   -0.668641
   3 P :    0.374826
   4 S :   -0.122856
   5 O :   -0.692715
   6 C :    0.011590
   7 C :   -0.400685
   8 S :    0.156892
   9 C :   -0.416586
  10 S :    0.142401
  11 P :    0.383149
  12 S :   -0.084219
  13 O :   -0.652490
  14 C :    0.015143
  15 C :   -0.385660
  16 O :   -0.647776
  17 C :    0.023607
  18 C :   -0.406617
  19 H :    0.161070
  20 H :    0.162926
  21 H :    0.158281
  22 H :    0.179226
  23 H :    0.179166
  24 H :    0.182752
  25 H :    0.181349
  26 H :    0.159440
  27 H :    0.161186
  28 H :    0.165168
  29 H :    0.178614
  30 H :    0.201799
  31 H :    0.174126
  32 H :    0.189745
  33 H :    0.160363
  34 H :    0.159204
  35 H :    0.160778
  36 H :    0.180524
  37 H :    0.180028
  38 H :    0.159151
  39 H :    0.164046
  40 H :    0.160791

  Mayer bond orders larger than 0.100000
B(  0-C ,  1-C ) :   0.9204 B(  0-C , 19-H ) :   0.9667 B(  0-C , 20-H ) :   0.9669
B(  0-C , 21-H ) :   0.9596 B(  1-C ,  2-O ) :   0.8219 B(  1-C , 22-H ) :   0.9680
B(  1-C , 23-H ) :   0.9583 B(  2-O ,  3-P ) :   1.0549 B(  3-P ,  4-S ) :   1.7471
B(  3-P ,  5-O ) :   1.1611 B(  3-P ,  8-S ) :   1.1180 B(  5-O ,  6-C ) :   0.8157
B(  6-C ,  7-C ) :   0.9135 B(  6-C , 24-H ) :   0.9637 B(  6-C , 25-H ) :   0.9603
B(  7-C , 26-H ) :   0.9598 B(  7-C , 27-H ) :   0.9713 B(  7-C , 28-H ) :   0.9615
B(  8-S ,  9-C ) :   0.8799 B(  9-C , 10-S ) :   0.9153 B(  9-C , 29-H ) :   0.9123
B(  9-C , 30-H ) :   0.9027 B( 10-S , 11-P ) :   1.0653 B( 11-P , 12-S ) :   1.7644
B( 11-P , 13-O ) :   1.1403 B( 11-P , 16-O ) :   1.1323 B( 13-O , 14-C ) :   0.7688
B( 14-C , 15-C ) :   0.9456 B( 14-C , 31-H ) :   0.9389 B( 14-C , 32-H ) :   0.9426
B( 15-C , 33-H ) :   0.9746 B( 15-C , 34-H ) :   0.9658 B( 15-C , 35-H ) :   0.9747
B( 16-O , 17-C ) :   0.8162 B( 17-C , 18-C ) :   0.9199 B( 17-C , 36-H ) :   0.9602
B( 17-C , 37-H ) :   0.9697 B( 18-C , 38-H ) :   0.9593 B( 18-C , 39-H ) :   0.9640
B( 18-C , 40-H ) :   0.9676

Dispersion correction           -0.021902263
FINAL SINGLE POINT ENERGY     -2932.461273532641

DIPOLE MOMENT
-------------

Method             : SCF
Type of density    : Electron Density
Multiplicity       :   1
Irrep              :   0
Energy             : -2932.4859072274452956 Eh
Relativity type    :
Basis              : AO
                                X                 Y                 Z
Electronic contribution:     -5.882072051      -5.008706529      -3.537308641
Nuclear contribution   :      6.266886589       4.738378278       3.955013373
                        -----------------------------------------
Total Dipole Moment    :      0.384814538      -0.270328251       0.417704732
                        -----------------------------------------
Magnitude (a.u.)       :      0.628996689
Magnitude (Debye)      :      1.598782526

Rotational constants in cm-1:             0.011796             0.005185             0.004922
Rotational constants in MHz :           353.631913           155.428246           147.563604

                             ****ORCA TERMINATED NORMALLY****
TOTAL RUN TIME: 0 days 0 hours 1 minutes 20 seconds 542 msec
