                         Program Version 6.0.0  -   RELEASE  -
|  1> ! r2scan-3c def2/J RI DEFGRID2 scfconv6 printgap
|  2> %output
|  3>     printlevel normal
|  4> end
|  5> %cpcm
|  6>     smd true
|  7>     smdsolvent "water"
|  8> end
|  9> * xyz 0 1
| 10> C 4.4305664308 -1.8343042711 -0.7364400927
| 11> C 4.6250752876 -0.3524240973 -0.4869365661
| 12> O 3.5732408164 0.2089350106 0.3154277034
| 13> P 2.0741018461 0.3374095332 -0.2022940068
| 14> S 1.9102236356 0.8080658557 -2.1009398022
| 15> O 1.4839080138 1.3443021274 0.8723411556
| 16> C 1.4999613211 2.7719013874 0.6804395001
| 17> C 2.9067018498 3.326739303 0.6192775301
| 18> S 1.1806806649 -1.4587485417 0.4514310423
| 19> C -0.0170698299 -1.7549819315 -0.9027324987
| 20> S -1.6761387039 -2.1365942142 -0.2974964052
| 21> P -2.3481952321 -0.1897211741 0.2404889663
| 22> S -1.3978058402 1.308115609 -0.6098065052
| 23> O -2.4101157937 -0.1719543696 1.8223588042
| 24> C -1.2374284757 -0.1561726357 2.657698424
| 25> C -1.6682006876 0.2740917386 4.0452194579
| 26> O -3.9103713018 -0.2233739446 0.0298508511
| 27> C -4.5222100215 0.1521174325 -1.2178751293
| 28> C -4.2133461357 -0.8322866311 -2.328056739
| 29> H 4.2744519552 -2.3592177376 0.2026500552
| 30> H 3.563645443 -1.9912166363 -1.3770290747
| 31> H 5.3100600462 -2.2325902934 -1.2321337693
| 32> H 4.6632310397 0.1927598634 -1.4356103546
| 33> H 5.5282425722 -0.1560953925 0.0923546446
| 34> H 0.9450495667 2.9999469657 -0.2361301955
| 35> H 0.9489558192 3.1560875778 1.5403926533
| 36> H 2.8618305757 4.4107313591 0.5837135173
| 37> H 3.4711177001 3.0128455921 1.4935306358
| 38> H 3.4097919012 2.964385271 -0.2765008651
| 39> H 0.3033960992 -2.63350902 -1.4561073
| 40> H -0.0402635031 -0.868767694 -1.5422883411
| 41> H -0.8055233146 -1.1619928585 2.6699582726
| 42> H -0.5029289222 0.5383851284 2.2346957509
| 43> H -2.4149393938 -0.4152678498 4.4278246959
| 44> H -0.8045587606 0.2739348792 4.7019794578
| 45> H -2.0964320354 1.2718748882 4.010588898
| 46> H -5.5878532343 0.1759394651 -0.9860024851
| 47> H -4.1787804296 1.1564895814 -1.486498456
| 48> H -4.8064746393 -0.583795802 -3.2024179097
| 49> H -3.1580538059 -0.7782129235 -2.5927824674
| 50> H -4.4446494743 -1.8453249905 -2.009030868
| 51> *
| 52>
| 53>                          ****END OF INPUT****

CARTESIAN COORDINATES (ANGSTROEM)
---------------------------------
  C      4.430566   -1.834304   -0.736440
  C      4.625075   -0.352424   -0.486937
  O      3.573241    0.208935    0.315428
  P      2.074102    0.337410   -0.202294
  S      1.910224    0.808066   -2.100940
  O      1.483908    1.344302    0.872341
  C      1.499961    2.771901    0.680440
  C      2.906702    3.326739    0.619278
  S      1.180681   -1.458749    0.451431
  C     -0.017070   -1.754982   -0.902732
  S     -1.676139   -2.136594   -0.297496
  P     -2.348195   -0.189721    0.240489
  S     -1.397806    1.308116   -0.609807
  O     -2.410116   -0.171954    1.822359
  C     -1.237428   -0.156173    2.657698
  C     -1.668201    0.274092    4.045219
  O     -3.910371   -0.223374    0.029851
  C     -4.522210    0.152117   -1.217875
  C     -4.213346   -0.832287   -2.328057
  H      4.274452   -2.359218    0.202650
  H      3.563645   -1.991217   -1.377029
  H      5.310060   -2.232590   -1.232134
  H      4.663231    0.192760   -1.435610
  H      5.528243   -0.156095    0.092355
  H      0.945050    2.999947   -0.236130
  H      0.948956    3.156088    1.540393
  H      2.861831    4.410731    0.583714
  H      3.471118    3.012846    1.493531
  H      3.409792    2.964385   -0.276501
  H      0.303396   -2.633509   -1.456107
  H     -0.040264   -0.868768   -1.542288
  H     -0.805523   -1.161993    2.669958
  H     -0.502929    0.538385    2.234696
  H     -2.414939   -0.415268    4.427825
  H     -0.804559    0.273935    4.701979
  H     -2.096432    1.271875    4.010589
  H     -5.587853    0.175939   -0.986002
  H     -4.178780    1.156490   -1.486498
  H     -4.806475   -0.583796   -3.202418
  H     -3.158054   -0.778213   -2.592782
  H     -4.444649   -1.845325   -2.009031

 Total Charge           Charge          ....    0
 Multiplicity           Mult            ....    1
 Number of Electrons    NEL             ....  202
 Basis Dimension        Dim             ....  539

ORBITAL ENERGIES
----------------

  NO   OCC          E(Eh)            E(eV)
   0   2.0000     -88.581155     -2410.4158
   1   2.0000     -88.575629     -2410.2654
   2   2.0000     -88.527040     -2408.9432
   3   2.0000     -88.526080     -2408.9171
   4   2.0000     -76.918281     -2093.0528
   5   2.0000     -76.917319     -2093.0266
   6   2.0000     -18.996238      -516.9139
   7   2.0000     -18.992438      -516.8105
   8   2.0000     -18.991783      -516.7927
   9   2.0000     -18.988775      -516.7108
  10   2.0000     -10.104794      -274.9654
  11   2.0000     -10.090849      -274.5860
  12   2.0000     -10.088090      -274.5109
  13   2.0000     -10.087788      -274.5027
  14   2.0000     -10.087756      -274.5018
  15   2.0000     -10.018671      -272.6219
  16   2.0000     -10.018529      -272.6180
  17   2.0000     -10.017837      -272.5992
  18   2.0000     -10.017402      -272.5874
  19   2.0000      -7.875378      -214.2999
  20   2.0000      -7.870209      -214.1593
  21   2.0000      -7.822040      -212.8485
  22   2.0000      -7.821002      -212.8203
  23   2.0000      -6.596986      -179.5131
  24   2.0000      -6.595771      -179.4801
  25   2.0000      -5.822409      -158.4358
  26   2.0000      -5.818977      -158.3424
  27   2.0000      -5.817027      -158.2894
  28   2.0000      -5.814214      -158.2128
  29   2.0000      -5.812624      -158.1695
  30   2.0000      -5.807181      -158.0214
  31   2.0000      -5.769649      -157.0001
  32   2.0000      -5.768614      -156.9720
  33   2.0000      -5.762476      -156.8049
  34   2.0000      -5.761886      -156.7889
  35   2.0000      -5.761192      -156.7700
  36   2.0000      -5.761119      -156.7680
  37   2.0000      -4.742335      -129.0455
  38   2.0000      -4.742107      -129.0393
  39   2.0000      -4.740991      -129.0089
  40   2.0000      -4.740656      -128.9998
  41   2.0000      -4.740573      -128.9975
  42   2.0000      -4.739932      -128.9801
  43   2.0000      -1.056828       -28.7578
  44   2.0000      -1.049749       -28.5651
  45   2.0000      -1.012867       -27.5615
  46   2.0000      -1.009318       -27.4649
  47   2.0000      -0.798990       -21.7416
  48   2.0000      -0.756158       -20.5761
  49   2.0000      -0.745012       -20.2728
  50   2.0000      -0.722346       -19.6560
  51   2.0000      -0.720858       -19.6156
  52   2.0000      -0.711124       -19.3507
  53   2.0000      -0.689590       -18.7647
  54   2.0000      -0.670457       -18.2441
  55   2.0000      -0.634048       -17.2533
  56   2.0000      -0.623158       -16.9570
  57   2.0000      -0.597917       -16.2702
  58   2.0000      -0.594176       -16.1683
  59   2.0000      -0.586758       -15.9665
  60   2.0000      -0.525825       -14.3084
  61   2.0000      -0.511549       -13.9200
  62   2.0000      -0.488742       -13.2993
  63   2.0000      -0.486103       -13.2275
  64   2.0000      -0.470437       -12.8013
  65   2.0000      -0.464871       -12.6498
  66   2.0000      -0.454955       -12.3800
  67   2.0000      -0.452452       -12.3119
  68   2.0000      -0.440874       -11.9968
  69   2.0000      -0.432047       -11.7566
  70   2.0000      -0.425506       -11.5786
  71   2.0000      -0.411581       -11.1997
  72   2.0000      -0.406081       -11.0500
  73   2.0000      -0.401116       -10.9149
  74   2.0000      -0.394625       -10.7383
  75   2.0000      -0.391833       -10.6623
  76   2.0000      -0.384688       -10.4679
  77   2.0000      -0.363905        -9.9024
  78   2.0000      -0.360798        -9.8178
  79   2.0000      -0.356211        -9.6930
  80   2.0000      -0.354010        -9.6331
  81   2.0000      -0.350319        -9.5327
  82   2.0000      -0.349768        -9.5177
  83   2.0000      -0.347150        -9.4464
  84   2.0000      -0.344847        -9.3838
  85   2.0000      -0.324478        -8.8295
  86   2.0000      -0.322184        -8.7671
  87   2.0000      -0.313726        -8.5369
  88   2.0000      -0.305466        -8.3122
  89   2.0000      -0.303179        -8.2499
  90   2.0000      -0.296219        -8.0605
  91   2.0000      -0.284687        -7.7467
  92   2.0000      -0.283305        -7.7091
  93   2.0000      -0.279993        -7.6190
  94   2.0000      -0.273553        -7.4437
  95   2.0000      -0.250529        -6.8173
  96   2.0000      -0.239258        -6.5105
  97   2.0000      -0.235531        -6.4091
  98   2.0000      -0.225190        -6.1277
  99   2.0000      -0.217988        -5.9318
 100   2.0000      -0.212980        -5.7955
 101   0.0000      -0.049379        -1.3437
 102   0.0000      -0.040447        -1.1006
 103   0.0000      -0.018475        -0.5027
 104   0.0000       0.006402         0.1742
 105   0.0000       0.014582         0.3968

MULLIKEN ATOMIC CHARGES
-----------------------
   0 C :   -0.476158
   1 C :   -0.158316
   2 O :   -0.319018
   3 P :    0.704739
   4 S :   -0.517417
   5 O :   -0.311056
   6 C :   -0.152382
   7 C :   -0.492059
   8 S :   -0.138793
   9 C :   -0.206357
  10 S :   -0.135758
  11 P :    0.674217
  12 S :   -0.461579
  13 O :   -0.307671
  14 C :   -0.109882
  15 C :   -0.510197
  16 O :   -0.347424
  17 C :   -0.148369
  18 C :   -0.477526
  19 H :    0.166188
  20 H :    0.171104
  21 H :    0.171406
  22 H :    0.177255
  23 H :    0.173772
  24 H :    0.176276
  25 H :    0.178104
  26 H :    0.171629
  27 H :    0.169624
  28 H :    0.169915
  29 H :    0.234149
  30 H :    0.211473
  31 H :    0.171705
  32 H :    0.178790
  33 H :    0.166128
  34 H :    0.169268
  35 H :    0.166643
  36 H :    0.176042
  37 H :    0.178648
  38 H :    0.173030
  39 H :    0.171621
  40 H :    0.168235
Sum of atomic charges:   -0.0000000

LOEWDIN ATOMIC CHARGES
----------------------
   0 C :   -0.410238
   1 C :    0.023288
   2 O :   -0.681321
   3 P :    0.380630
   4 S :   -0.155915
   5 O :   -0.703012
   6 C :    0.013923
   7 C :   -0.403711
   8 S :    0.159034
   9 C :   -0.409012
  10 S :    0.145191
  11 P :    0.383443
  12 S :   -0.107954
  13 O :   -0.673296
  14 C :    0.017771
  15 C :   -0.388996
  16 O :   -0.666204
  17 C :    0.027943
  18 C :   -0.409132
  19 H :    0.163298
  20 H :    0.160878
  21 H :    0.167071
  22 H :    0.180951
  23 H :    0.190096
  24 H :    0.181706
  25 H :    0.190995
  26 H :    0.168455
  27 H :    0.164553
  28 H :    0.163040
  29 H :    0.194841
  30 H :    0.200054
  31 H :    0.179755
  32 H :    0.189837
  33 H :    0.163456
  34 H :    0.168707
  35 H :    0.163086
  36 H :    0.191581
  37 H :    0.181613
  38 H :    0.168399
  39 H :    0.161199
  40 H :    0.163998

  Mayer bond orders larger than 0.100000
B(  0-C ,  1-C ) :   0.9087 B(  0-C , 19-H ) :   0.9647 B(  0-C , 20-H ) :   0.9664
B(  0-C , 21-H ) :   0.9545 B(  1-C ,  2-O ) :   0.8096 B(  1-C , 22-H ) :   0.9662
B(  1-C , 23-H ) :   0.9488 B(  2-O ,  3-P ) :   1.0620 B(  3-P ,  4-S ) :   1.6939
B(  3-P ,  5-O ) :   1.1657 B(  3-P ,  8-S ) :   1.1362 B(  5-O ,  6-C ) :   0.8015
B(  6-C ,  7-C ) :   0.9068 B(  6-C , 24-H ) :   0.9611 B(  6-C , 25-H ) :   0.9495
B(  7-C , 26-H ) :   0.9537 B(  7-C , 27-H ) :   0.9696 B(  7-C , 28-H ) :   0.9616
B(  8-S ,  9-C ) :   0.8760 B(  9-C , 10-S ) :   0.9094 B(  9-C , 29-H ) :   0.8969
B(  9-C , 30-H ) :   0.9066 B( 10-S , 11-P ) :   1.0791 B( 11-P , 12-S ) :   1.7464
B( 11-P , 13-O ) :   1.1357 B( 11-P , 16-O ) :   1.1308 B( 13-O , 14-C ) :   0.7641
B( 14-C , 15-C ) :   0.9395 B( 14-C , 31-H ) :   0.9324 B( 14-C , 32-H ) :   0.9395
B( 15-C , 33-H ) :   0.9721 B( 15-C , 34-H ) :   0.9584 B( 15-C , 35-H ) :   0.9722
B( 16-O , 17-C ) :   0.8054 B( 17-C , 18-C ) :   0.9093 B( 17-C , 36-H ) :   0.9502
B( 17-C , 37-H ) :   0.9662 B( 18-C , 38-H ) :   0.9538 B( 18-C , 39-H ) :   0.9644
B( 18-C , 40-H ) :   0.9652

Dispersion correction           -0.021902263
FINAL SINGLE POINT ENERGY     -2932.467970590949

DIPOLE MOMENT
-------------

Method             : SCF
Type of density    : Electron Density
Multiplicity       :   1
Irrep              :   0
Energy             : -2932.4926042857528046 Eh
Relativity type    :
Basis              : AO
                                X                 Y                 Z
Electronic contribution:     -5.645347402      -5.262762843      -3.468925473
Nuclear contribution   :      6.266886589       4.738378278       3.955013373
                        -----------------------------------------
Total Dipole Moment    :      0.621539188      -0.524384565       0.486087900
                        -----------------------------------------
Magnitude (a.u.)       :      0.947402544
Magnitude (Debye)      :      2.408105892

Rotational constants in cm-1:             0.011796             0.005185             0.004922
Rotational constants in MHz :           353.631913           155.428246           147.563604

                             ****ORCA TERMINATED NORMALLY****
TOTAL RUN TIME: 0 days 0 hours 1 minutes 53 seconds 229 msec
