                         Program Version 6.0.1  -  RELEASE   -
|  1> ! pbe def2-sv(p) def2/J RI DEFGRID1 loosescf d4 GCP(DFT/SV(P)) printgap
|  2> %output
|  3>     printlevel normal
|  4> end
|  5> * xyz 0 1
|  6> C 3.4453526609 -1.502408583 1.7408497085
|  7> C 2.9351721305 -2.1710471022 0.4772711816
|  8> O 2.6587548731 -1.1683202071 -0.5205472435
|  9> C 1.4737630726 -1.1039717555 -1.0769625271
| 10> O 0.539573102 -1.8423457324 -0.8197198701
| 11> C 1.3952638731 -0.0052137806 -2.115630735
| 12> C 0.2088235024 0.9275925361 -1.8644787819
| 13> H 0.0858562066 1.5888733655 -2.727947778
| 14> C 0.3709068734 1.8006771573 -0.6308883405
| 15> O -0.5314079775 1.9654282984 0.1660251329
| 16> O 1.5501670273 2.3529437161 -0.5718237593
| 17> C 1.8702879423 3.1949067894 0.5582147062
| 18> C 2.500517755 2.3732850631 1.6693693578
| 19> S -1.3939575608 0.0708387069 -1.7348272595
| 20> P -1.5219155685 -0.4942469657 0.3281285436
| 21> S -0.1755227989 -0.4360980397 1.7510989188
| 22> O -2.9089419977 0.2018124957 0.7583457237
| 23> C -3.0642233751 1.4784635617 1.3705257256
| 24> O -2.0477112763 -1.9894462821 0.2380399079
| 25> C -3.0679541447 -2.4309327118 -0.6700923901
| 26> H 2.6588568262 -0.8940108477 2.1818856863
| 27> H 3.7377867159 -2.2664500705 2.4530777441
| 28> H 4.3017638797 -0.875765118 1.5116440756
| 29> H 2.0187857251 -2.7354248347 0.6711049997
| 30> H 3.6931363969 -2.8261253055 0.0412037465
| 31> H 1.2573074475 -0.4832295681 -3.0870521795
| 32> H 2.3223188347 0.5671761589 -2.1051145642
| 33> H 2.5692758203 3.9284063151 0.1561083097
| 34> H 0.9545335243 3.6814439365 0.9030920261
| 35> H 2.7684840018 3.0270276096 2.4922870401
| 36> H 1.7962691708 1.6243838194 2.0293394125
| 37> H 3.3907061861 1.8689400601 1.304891137
| 38> H -2.2695790317 1.6459018563 2.0983617825
| 39> H -4.0342973865 1.4495878766 1.8616674162
| 40> H -3.0335258 2.2602571416 0.613203323
| 41> H -2.6840179678 -2.41611929 -1.6901352242
| 42> H -3.9477881957 -1.7942069096 -0.5882848316
| 43> H -3.2970206417 -3.4484263181 -0.3633911018
| 44> *
| 45>
| 46>                          ****END OF INPUT****

CARTESIAN COORDINATES (ANGSTROEM)
---------------------------------
  C      3.445353   -1.502409    1.740850
  C      2.935172   -2.171047    0.477271
  O      2.658755   -1.168320   -0.520547
  C      1.473763   -1.103972   -1.076963
  O      0.539573   -1.842346   -0.819720
  C      1.395264   -0.005214   -2.115631
  C      0.208824    0.927593   -1.864479
  H      0.085856    1.588873   -2.727948
  C      0.370907    1.800677   -0.630888
  O     -0.531408    1.965428    0.166025
  O      1.550167    2.352944   -0.571824
  C      1.870288    3.194907    0.558215
  C      2.500518    2.373285    1.669369
  S     -1.393958    0.070839   -1.734827
  P     -1.521916   -0.494247    0.328129
  S     -0.175523   -0.436098    1.751099
  O     -2.908942    0.201812    0.758346
  C     -3.064223    1.478464    1.370526
  O     -2.047711   -1.989446    0.238040
  C     -3.067954   -2.430933   -0.670092
  H      2.658857   -0.894011    2.181886
  H      3.737787   -2.266450    2.453078
  H      4.301764   -0.875765    1.511644
  H      2.018786   -2.735425    0.671105
  H      3.693136   -2.826125    0.041204
  H      1.257307   -0.483230   -3.087052
  H      2.322319    0.567176   -2.105115
  H      2.569276    3.928406    0.156108
  H      0.954534    3.681444    0.903092
  H      2.768484    3.027028    2.492287
  H      1.796269    1.624384    2.029339
  H      3.390706    1.868940    1.304891
  H     -2.269579    1.645902    2.098362
  H     -4.034297    1.449588    1.861667
  H     -3.033526    2.260257    0.613203
  H     -2.684018   -2.416119   -1.690135
  H     -3.947788   -1.794207   -0.588285
  H     -3.297021   -3.448426   -0.363391

 Total Charge           Charge          ....    0
 Multiplicity           Mult            ....    1
 Number of Electrons    NEL             ....  174
 Basis Dimension        Dim             ....  316

ORBITAL ENERGIES
----------------

  NO   OCC          E(Eh)            E(eV)
   0   2.0000     -88.026465     -2395.3219
   1   2.0000     -87.965009     -2393.6496
   2   2.0000     -76.414013     -2079.3310
   3   2.0000     -18.819753      -512.1115
   4   2.0000     -18.802291      -511.6364
   5   2.0000     -18.768072      -510.7052
   6   2.0000     -18.767254      -510.6829
   7   2.0000     -18.755647      -510.3671
   8   2.0000     -18.733196      -509.7562
   9   2.0000     -10.024775      -272.7880
  10   2.0000     -10.007980      -272.3310
  11   2.0000      -9.955882      -270.9133
  12   2.0000      -9.954211      -270.8678
  13   2.0000      -9.939450      -270.4662
  14   2.0000      -9.931539      -270.2509
  15   2.0000      -9.923024      -270.0192
  16   2.0000      -9.912938      -269.7448
  17   2.0000      -9.884953      -268.9833
  18   2.0000      -9.878888      -268.8182
  19   2.0000      -7.671432      -208.7503
  20   2.0000      -7.610260      -207.0857
  21   2.0000      -6.408836      -174.3933
  22   2.0000      -5.699783      -155.0990
  23   2.0000      -5.696337      -155.0052
  24   2.0000      -5.687490      -154.7645
  25   2.0000      -5.639701      -153.4641
  26   2.0000      -5.630714      -153.2195
  27   2.0000      -5.629888      -153.1971
  28   2.0000      -4.631668      -126.0341
  29   2.0000      -4.631011      -126.0162
  30   2.0000      -4.629300      -125.9697
  31   2.0000      -1.029089       -28.0029
  32   2.0000      -1.008054       -27.4305
  33   2.0000      -0.962250       -26.1841
  34   2.0000      -0.934158       -25.4197
  35   2.0000      -0.916886       -24.9497
  36   2.0000      -0.911337       -24.7987
  37   2.0000      -0.764039       -20.7906
  38   2.0000      -0.710454       -19.3324
  39   2.0000      -0.706531       -19.2257
  40   2.0000      -0.682599       -18.5745
  41   2.0000      -0.652678       -17.7603
  42   2.0000      -0.622499       -16.9391
  43   2.0000      -0.616114       -16.7653
  44   2.0000      -0.603775       -16.4295
  45   2.0000      -0.589894       -16.0518
  46   2.0000      -0.565369       -15.3845
  47   2.0000      -0.509988       -13.8775
  48   2.0000      -0.500532       -13.6202
  49   2.0000      -0.497355       -13.5337
  50   2.0000      -0.484716       -13.1898
  51   2.0000      -0.459264       -12.4972
  52   2.0000      -0.454271       -12.3613
  53   2.0000      -0.452087       -12.3019
  54   2.0000      -0.432379       -11.7656
  55   2.0000      -0.426801       -11.6138
  56   2.0000      -0.419939       -11.4271
  57   2.0000      -0.411651       -11.2016
  58   2.0000      -0.410275       -11.1641
  59   2.0000      -0.400971       -10.9110
  60   2.0000      -0.394149       -10.7253
  61   2.0000      -0.392208       -10.6725
  62   2.0000      -0.383816       -10.4442
  63   2.0000      -0.380135       -10.3440
  64   2.0000      -0.372819       -10.1449
  65   2.0000      -0.366571        -9.9749
  66   2.0000      -0.356987        -9.7141
  67   2.0000      -0.352212        -9.5842
  68   2.0000      -0.344949        -9.3865
  69   2.0000      -0.341351        -9.2886
  70   2.0000      -0.333465        -9.0740
  71   2.0000      -0.324242        -8.8231
  72   2.0000      -0.318579        -8.6690
  73   2.0000      -0.306012        -8.3270
  74   2.0000      -0.299419        -8.1476
  75   2.0000      -0.289795        -7.8857
  76   2.0000      -0.281553        -7.6615
  77   2.0000      -0.278779        -7.5860
  78   2.0000      -0.275112        -7.4862
  79   2.0000      -0.255772        -6.9599
  80   2.0000      -0.248368        -6.7584
  81   2.0000      -0.247560        -6.7364
  82   2.0000      -0.240061        -6.5324
  83   2.0000      -0.225534        -6.1371
  84   2.0000      -0.192513        -5.2385
  85   2.0000      -0.182184        -4.9575
  86   2.0000      -0.175627        -4.7791
  87   0.0000      -0.043723        -1.1898
  88   0.0000      -0.041651        -1.1334
  89   0.0000      -0.025552        -0.6953
  90   0.0000       0.003760         0.1023
  91   0.0000       0.036999         1.0068

MULLIKEN ATOMIC CHARGES
-----------------------
   0 C :   -0.304931
   1 C :   -0.024489
   2 O :   -0.222141
   3 C :    0.092920
   4 O :   -0.193711
   5 C :   -0.026512
   6 C :   -0.314259
   7 H :    0.152772
   8 C :    0.201926
   9 O :   -0.181415
  10 O :   -0.220268
  11 C :   -0.009922
  12 C :   -0.328910
  13 S :   -0.097080
  14 P :    0.646195
  15 S :   -0.339594
  16 O :   -0.396487
  17 C :   -0.079890
  18 O :   -0.360663
  19 C :   -0.110612
  20 H :    0.138261
  21 H :    0.108542
  22 H :    0.109119
  23 H :    0.129276
  24 H :    0.099173
  25 H :    0.120429
  26 H :    0.115176
  27 H :    0.105323
  28 H :    0.112398
  29 H :    0.110935
  30 H :    0.158071
  31 H :    0.117513
  32 H :    0.111246
  33 H :    0.110236
  34 H :    0.106033
  35 H :    0.124066
  36 H :    0.115769
  37 H :    0.125504
Sum of atomic charges:    0.0000000

LOEWDIN ATOMIC CHARGES
----------------------
   0 C :   -0.355151
   1 C :   -0.110728
   2 O :   -0.047079
   3 C :    0.021520
   4 O :   -0.169946
   5 C :   -0.249766
   6 C :   -0.262065
   7 H :    0.153281
   8 C :    0.013291
   9 O :   -0.152869
  10 O :   -0.038062
  11 C :   -0.104508
  12 C :   -0.361677
  13 S :    0.099511
  14 P :    0.601982
  15 S :   -0.308194
  16 O :   -0.264359
  17 C :   -0.210434
  18 O :   -0.239417
  19 C :   -0.215225
  20 H :    0.125779
  21 H :    0.129891
  22 H :    0.120205
  23 H :    0.126768
  24 H :    0.114786
  25 H :    0.147245
  26 H :    0.137854
  27 H :    0.118889
  28 H :    0.122136
  29 H :    0.130930
  30 H :    0.129665
  31 H :    0.124907
  32 H :    0.107563
  33 H :    0.113038
  34 H :    0.107495
  35 H :    0.109136
  36 H :    0.110016
  37 H :    0.123595

  Mayer bond orders larger than 0.100000
B(  0-C ,  1-C ) :   1.1772 B(  0-C , 20-H ) :   0.9338 B(  0-C , 21-H ) :   0.9414
B(  0-C , 22-H ) :   0.9455 B(  1-C ,  2-O ) :   0.8999 B(  1-C , 23-H ) :   0.9025
B(  1-C , 24-H ) :   0.9346 B(  2-O ,  3-C ) :   1.2560 B(  3-C ,  4-O ) :   1.9871
B(  3-C ,  5-C ) :   0.9933 B(  5-C ,  6-C ) :   1.0228 B(  5-C , 25-H ) :   0.8859
B(  5-C , 26-H ) :   0.8869 B(  6-C ,  7-H ) :   0.8706 B(  6-C ,  8-C ) :   0.8905
B(  6-C , 13-S ) :   1.0654 B(  8-C ,  9-O ) :   1.9741 B(  8-C , 10-O ) :   1.2710
B( 10-O , 11-C ) :   0.8950 B( 11-C , 12-C ) :   1.1799 B( 11-C , 27-H ) :   0.9365
B( 11-C , 28-H ) :   0.9118 B( 12-C , 29-H ) :   0.9389 B( 12-C , 30-H ) :   0.9215
B( 12-C , 31-H ) :   0.9443 B( 13-S , 14-P ) :   0.8982 B( 13-S , 15-S ) :   0.1170
B( 14-P , 15-S ) :   1.5369 B( 14-P , 16-O ) :   1.0718 B( 14-P , 18-O ) :   1.1196
B( 16-O , 17-C ) :   0.9404 B( 17-C , 32-H ) :   0.9382 B( 17-C , 33-H ) :   0.9560
B( 17-C , 34-H ) :   0.9514 B( 18-O , 19-C ) :   0.9339 B( 19-C , 35-H ) :   0.9383
B( 19-C , 36-H ) :   0.9441 B( 19-C , 37-H ) :   0.9602

Dispersion correction           -0.056609939
FINAL SINGLE POINT ENERGY     -1978.997753758465

DIPOLE MOMENT
-------------

Method             : SCF
Type of density    : Electron Density
Multiplicity       :   1
Irrep              :   0
Energy             : -1979.1259021736250361 Eh
Relativity type    :
Basis              : AO
                                X                 Y                 Z
Electronic contribution:    -12.058228554      -3.212195221      -7.749361796
Nuclear contribution   :     12.923371172       4.106048443       6.971642552
                        -----------------------------------------
Total Dipole Moment    :      0.865142618       0.893853222      -0.777719244
                        -----------------------------------------
Magnitude (a.u.)       :      1.467069376
Magnitude (Debye)      :      3.728994006

Rotational constants in cm-1:             0.012725             0.009256             0.007851
Rotational constants in MHz :           381.489018           277.481504           235.378853

                             ****ORCA TERMINATED NORMALLY****
TOTAL RUN TIME: 0 days 0 hours 1 minutes 32 seconds 351 msec
