                         Program Version 6.0.1  -  RELEASE   -
|  1> ! pbe def2-sv(p) def2/J RI DEFGRID1 loosescf d4 GCP(DFT/SV(P)) printgap
|  2> %output
|  3>     printlevel normal
|  4> end
|  5> * xyz 0 1
|  6> C 3.8213872026 -2.7864138173 0.6788095173
|  7> C 2.3120904658 -2.6748965398 0.5380329538
|  8> O 1.9603046906 -1.9159228036 -0.633635302
|  9> C 1.9424957526 -0.6028704572 -0.560867016
| 10> O 2.1607988265 0.0486906043 0.438739836
| 11> C 1.6112881226 0.0298254808 -1.9011863598
| 12> C 0.3346585802 0.8691573904 -1.7997489003
| 13> H 0.2409154084 1.5023124075 -2.6852564685
| 14> C 0.3426424977 1.7463516978 -0.5628290357
| 15> O -0.4869226737 1.6241869502 0.3239585778
| 16> O 1.2768579467 2.6433216394 -0.6073768277
| 17> C 1.4948372905 3.5188846503 0.5230839193
| 18> C 2.886509334 3.2720091905 1.0773565966
| 19> S -1.1746600921 -0.1599159893 -1.7882311884
| 20> P -1.8030892666 -0.3989723026 0.2247516389
| 21> S -0.6632115405 -0.96866208 1.7261427265
| 22> O -2.9528704343 0.6620799949 0.5103178012
| 23> C -2.9667669543 1.5824934865 1.6017767227
| 24> O -2.8467322688 -1.5798508818 -0.120880477
| 25> C -2.4104703061 -2.915342445 -0.3752722284
| 26> H 4.2495978101 -3.2168001119 -0.2223037243
| 27> H 4.2551439321 -1.8035164534 0.8474883214
| 28> H 4.0526600562 -3.4224139104 1.5266484143
| 29> H 1.866222669 -2.1939412477 1.4141885235
| 30> H 1.8530204039 -3.6501477607 0.3754704224
| 31> H 1.4852737513 -0.7468445957 -2.6532105378
| 32> H 2.4386577306 0.6891618807 -2.1699444573
| 33> H 1.3924237104 4.5330838017 0.1321998181
| 34> H 0.7268931672 3.3220259444 1.2746567027
| 35> H 2.979924744 2.2311053897 1.3785523169
| 36> H 3.6355215217 3.4897319162 0.3223062652
| 37> H 3.0468369101 3.9098171855 1.9400325293
| 38> H -2.7558722538 2.5815217014 1.2236094664
| 39> H -2.2187504188 1.3043289032 2.346596864
| 40> H -3.9648113628 1.5340713252 2.0327196837
| 41> H -1.9529005767 -2.9828207704 -1.3628471006
| 42> H -3.3054245495 -3.5303940835 -0.326362014
| 43> H -1.6943583575 -3.2249795389 0.3895972085
| 44> *
| 45>
| 46>                          ****END OF INPUT****

CARTESIAN COORDINATES (ANGSTROEM)
---------------------------------
  C      3.821387   -2.786414    0.678810
  C      2.312090   -2.674897    0.538033
  O      1.960305   -1.915923   -0.633635
  C      1.942496   -0.602870   -0.560867
  O      2.160799    0.048691    0.438740
  C      1.611288    0.029825   -1.901186
  C      0.334659    0.869157   -1.799749
  H      0.240915    1.502312   -2.685256
  C      0.342642    1.746352   -0.562829
  O     -0.486923    1.624187    0.323959
  O      1.276858    2.643322   -0.607377
  C      1.494837    3.518885    0.523084
  C      2.886509    3.272009    1.077357
  S     -1.174660   -0.159916   -1.788231
  P     -1.803089   -0.398972    0.224752
  S     -0.663212   -0.968662    1.726143
  O     -2.952870    0.662080    0.510318
  C     -2.966767    1.582493    1.601777
  O     -2.846732   -1.579851   -0.120880
  C     -2.410470   -2.915342   -0.375272
  H      4.249598   -3.216800   -0.222304
  H      4.255144   -1.803516    0.847488
  H      4.052660   -3.422414    1.526648
  H      1.866223   -2.193941    1.414189
  H      1.853020   -3.650148    0.375470
  H      1.485274   -0.746845   -2.653211
  H      2.438658    0.689162   -2.169944
  H      1.392424    4.533084    0.132200
  H      0.726893    3.322026    1.274657
  H      2.979925    2.231105    1.378552
  H      3.635522    3.489732    0.322306
  H      3.046837    3.909817    1.940033
  H     -2.755872    2.581522    1.223609
  H     -2.218750    1.304329    2.346597
  H     -3.964811    1.534071    2.032720
  H     -1.952901   -2.982821   -1.362847
  H     -3.305425   -3.530394   -0.326362
  H     -1.694358   -3.224980    0.389597

 Total Charge           Charge          ....    0
 Multiplicity           Mult            ....    1
 Number of Electrons    NEL             ....  174
 Basis Dimension        Dim             ....  316

ORBITAL ENERGIES
----------------

  NO   OCC          E(Eh)            E(eV)
   0   2.0000     -88.032478     -2395.4855
   1   2.0000     -87.962457     -2393.5801
   2   2.0000     -76.414604     -2079.3471
   3   2.0000     -18.821943      -512.1711
   4   2.0000     -18.805870      -511.7337
   5   2.0000     -18.770449      -510.7699
   6   2.0000     -18.765062      -510.6233
   7   2.0000     -18.763483      -510.5803
   8   2.0000     -18.740933      -509.9667
   9   2.0000     -10.033688      -273.0305
  10   2.0000     -10.014478      -272.5078
  11   2.0000      -9.956708      -270.9358
  12   2.0000      -9.956246      -270.9232
  13   2.0000      -9.941263      -270.5155
  14   2.0000      -9.927208      -270.1331
  15   2.0000      -9.924869      -270.0694
  16   2.0000      -9.917993      -269.8823
  17   2.0000      -9.886318      -269.0204
  18   2.0000      -9.885210      -268.9902
  19   2.0000      -7.677602      -208.9182
  20   2.0000      -7.607523      -207.0112
  21   2.0000      -6.409404      -174.4087
  22   2.0000      -5.705887      -155.2651
  23   2.0000      -5.701730      -155.1520
  24   2.0000      -5.694500      -154.9552
  25   2.0000      -5.636635      -153.3806
  26   2.0000      -5.628460      -153.1582
  27   2.0000      -5.627092      -153.1209
  28   2.0000      -4.632003      -126.0432
  29   2.0000      -4.631583      -126.0318
  30   2.0000      -4.630008      -125.9889
  31   2.0000      -1.033708       -28.1286
  32   2.0000      -1.011857       -27.5340
  33   2.0000      -0.963788       -26.2260
  34   2.0000      -0.939780       -25.5727
  35   2.0000      -0.919603       -25.0237
  36   2.0000      -0.918054       -24.9815
  37   2.0000      -0.768839       -20.9212
  38   2.0000      -0.715143       -19.4600
  39   2.0000      -0.706621       -19.2281
  40   2.0000      -0.683996       -18.6125
  41   2.0000      -0.652486       -17.7551
  42   2.0000      -0.624511       -16.9938
  43   2.0000      -0.613335       -16.6897
  44   2.0000      -0.604404       -16.4467
  45   2.0000      -0.596251       -16.2248
  46   2.0000      -0.565948       -15.4002
  47   2.0000      -0.515301       -14.0221
  48   2.0000      -0.501822       -13.6553
  49   2.0000      -0.499604       -13.5949
  50   2.0000      -0.486375       -13.2349
  51   2.0000      -0.466156       -12.6847
  52   2.0000      -0.458142       -12.4667
  53   2.0000      -0.448832       -12.2133
  54   2.0000      -0.437890       -11.9156
  55   2.0000      -0.431461       -11.7407
  56   2.0000      -0.423959       -11.5365
  57   2.0000      -0.412300       -11.2193
  58   2.0000      -0.407871       -11.0987
  59   2.0000      -0.399854       -10.8806
  60   2.0000      -0.396731       -10.7956
  61   2.0000      -0.392357       -10.6766
  62   2.0000      -0.386948       -10.5294
  63   2.0000      -0.380795       -10.3620
  64   2.0000      -0.377820       -10.2810
  65   2.0000      -0.368243       -10.0204
  66   2.0000      -0.361056        -9.8248
  67   2.0000      -0.356605        -9.7037
  68   2.0000      -0.351700        -9.5702
  69   2.0000      -0.338837        -9.2202
  70   2.0000      -0.334558        -9.1038
  71   2.0000      -0.332879        -9.0581
  72   2.0000      -0.323463        -8.8019
  73   2.0000      -0.308939        -8.4067
  74   2.0000      -0.296492        -8.0680
  75   2.0000      -0.292079        -7.9479
  76   2.0000      -0.285823        -7.7777
  77   2.0000      -0.280669        -7.6374
  78   2.0000      -0.270849        -7.3702
  79   2.0000      -0.260043        -7.0761
  80   2.0000      -0.258034        -7.0215
  81   2.0000      -0.241491        -6.5713
  82   2.0000      -0.238591        -6.4924
  83   2.0000      -0.227684        -6.1956
  84   2.0000      -0.219502        -5.9729
  85   2.0000      -0.184186        -5.0119
  86   2.0000      -0.172812        -4.7025
  87   0.0000      -0.044575        -1.2130
  88   0.0000      -0.032666        -0.8889
  89   0.0000      -0.029155        -0.7934
  90   0.0000       0.004392         0.1195
  91   0.0000       0.035722         0.9720

MULLIKEN ATOMIC CHARGES
-----------------------
   0 C :   -0.304566
   1 C :   -0.025130
   2 O :   -0.217168
   3 C :    0.107370
   4 O :   -0.199084
   5 C :   -0.028721
   6 C :   -0.306897
   7 H :    0.151101
   8 C :    0.232687
   9 O :   -0.202127
  10 O :   -0.217487
  11 C :   -0.025712
  12 C :   -0.303252
  13 S :   -0.104280
  14 P :    0.631738
  15 S :   -0.343964
  16 O :   -0.373292
  17 C :   -0.085247
  18 O :   -0.382194
  19 C :   -0.097985
  20 H :    0.109599
  21 H :    0.122503
  22 H :    0.114821
  23 H :    0.135100
  24 H :    0.102170
  25 H :    0.115245
  26 H :    0.121983
  27 H :    0.108248
  28 H :    0.125783
  29 H :    0.149125
  30 H :    0.108746
  31 H :    0.111387
  32 H :    0.105260
  33 H :    0.119018
  34 H :    0.116560
  35 H :    0.105106
  36 H :    0.117427
  37 H :    0.106127
Sum of atomic charges:   -0.0000000

LOEWDIN ATOMIC CHARGES
----------------------
   0 C :   -0.356989
   1 C :   -0.114342
   2 O :   -0.042889
   3 C :    0.030452
   4 O :   -0.157355
   5 C :   -0.246053
   6 C :   -0.260288
   7 H :    0.149000
   8 C :    0.032652
   9 O :   -0.146906
  10 O :   -0.031678
  11 C :   -0.102759
  12 C :   -0.356323
  13 S :    0.098483
  14 P :    0.580360
  15 S :   -0.328803
  16 O :   -0.244946
  17 C :   -0.209606
  18 O :   -0.265779
  19 C :   -0.223168
  20 H :    0.122401
  21 H :    0.128032
  22 H :    0.131826
  23 H :    0.121117
  24 H :    0.118518
  25 H :    0.136016
  26 H :    0.145738
  27 H :    0.118980
  28 H :    0.126055
  29 H :    0.138650
  30 H :    0.123275
  31 H :    0.130164
  32 H :    0.108486
  33 H :    0.109338
  34 H :    0.115980
  35 H :    0.101939
  36 H :    0.118385
  37 H :    0.102034

  Mayer bond orders larger than 0.100000
B(  0-C ,  1-C ) :   1.1648 B(  0-C , 20-H ) :   0.9476 B(  0-C , 21-H ) :   0.9466
B(  0-C , 22-H ) :   0.9449 B(  1-C ,  2-O ) :   0.9063 B(  1-C , 23-H ) :   0.9053
B(  1-C , 24-H ) :   0.9385 B(  2-O ,  3-C ) :   1.2664 B(  2-O ,  4-O ) :   0.1004
B(  3-C ,  4-O ) :   1.9457 B(  3-C ,  5-C ) :   0.9975 B(  5-C ,  6-C ) :   1.0266
B(  5-C , 25-H ) :   0.9036 B(  5-C , 26-H ) :   0.8780 B(  6-C ,  7-H ) :   0.8768
B(  6-C ,  8-C ) :   0.9065 B(  6-C , 13-S ) :   1.0320 B(  8-C ,  9-O ) :   1.8870
B(  8-C , 10-O ) :   1.2806 B(  9-O , 14-P ) :   0.1563 B( 10-O , 11-C ) :   0.8875
B( 11-C , 12-C ) :   1.1776 B( 11-C , 27-H ) :   0.9365 B( 11-C , 28-H ) :   0.9092
B( 12-C , 29-H ) :   0.9318 B( 12-C , 30-H ) :   0.9500 B( 12-C , 31-H ) :   0.9419
B( 13-S , 14-P ) :   0.9367 B( 13-S , 15-S ) :   0.1156 B( 14-P , 15-S ) :   1.5670
B( 14-P , 16-O ) :   1.1203 B( 14-P , 18-O ) :   1.0519 B( 16-O , 17-C ) :   0.9328
B( 17-C , 32-H ) :   0.9567 B( 17-C , 33-H ) :   0.9309 B( 17-C , 34-H ) :   0.9551
B( 18-O , 19-C ) :   0.9511 B( 19-C , 35-H ) :   0.9456 B( 19-C , 36-H ) :   0.9595
B( 19-C , 37-H ) :   0.9284

Dispersion correction           -0.054142765
FINAL SINGLE POINT ENERGY     -1979.009236491078

DIPOLE MOMENT
-------------

Method             : SCF
Type of density    : Electron Density
Multiplicity       :   1
Irrep              :   0
Energy             : -1979.1390172119704403 Eh
Relativity type    :
Basis              : AO
                                X                 Y                 Z
Electronic contribution:    -15.767701200      -0.054883701      -5.906373375
Nuclear contribution   :     16.972368032       0.716300365       5.226180324
                        -----------------------------------------
Total Dipole Moment    :      1.204666832       0.661416664      -0.680193051
                        -----------------------------------------
Magnitude (a.u.)       :      1.533413436
Magnitude (Debye)      :      3.897627205

Rotational constants in cm-1:             0.011356             0.009384             0.006867
Rotational constants in MHz :           340.446902           281.313537           205.877694

                             ****ORCA TERMINATED NORMALLY****
TOTAL RUN TIME: 0 days 0 hours 0 minutes 33 seconds 876 msec
