                         Program Version 6.0.0  -   RELEASE  -
|  1> ! wb97x-v def2-tzvp def2/J RIJCOSX DEFGRID2 scfconv7 GCP(DFT/TZ) printgap
|  2> %output
|  3>     printlevel normal
|  4> end
|  5> * xyz 0 1
|  6> C -2.9383619716294733 -0.3718038841370983 -3.622894814105053e-05
|  7> C -2.6968902192181354 1.0195548974318058 -2.0915554104658562e-05
|  8> C -1.4108780296765333 1.507876443996265 -1.1151714799357197e-06
|  9> C -0.30128557290773705 0.6254879361384678 -2.714665935391643e-06
| 10> C 1.0325228010961494 1.0983177811430687 -1.503863834401659e-05
| 11> C 2.0787575797003157 0.20384223639696747 -3.759918021072288e-05
| 12> C 1.8473218763957153 -1.1904578654951044 -1.5355739664640404e-05
| 13> C 0.561515979627086 -1.6676584721592973 2.270767404964769e-06
| 14> C -0.5476956599176664 -0.7855503030428566 -3.6458743344783974e-06
| 15> C -1.882970791840761 -1.254248891645174 -2.250924055447169e-05
| 16> O 3.3976600231310106 0.5975665586958943 -7.972450795932129e-05
| 17> H -3.958973183561237 -0.7407808629734003 -6.263291546616306e-05
| 18> H -3.5362263227904442 1.7081868500392636 -2.483379083232518e-05
| 19> H -1.2276375495037266 2.5786521245005387 1.0352852795142563e-05
| 20> H 1.2241001085738086 2.168289765823736 -1.9537212452442184e-05
| 21> H 2.6975444504556383 -1.8647407052327434 -1.7983707269626994e-05
| 22> H 0.38004138793973985 -2.7386037582328924 1.5640909416352146e-05
| 23> H -2.0579364305431396 -2.3266280490998787 -3.406697305642805e-05
| 24> H 3.4383245913517326 1.5647885429263968 -0.00017204414517539324
| 25> *
| 26>
| 27>                          ****END OF INPUT****

CARTESIAN COORDINATES (ANGSTROEM)
---------------------------------
  C     -2.938362   -0.371804   -0.000036
  C     -2.696890    1.019555   -0.000021
  C     -1.410878    1.507876   -0.000001
  C     -0.301286    0.625488   -0.000003
  C      1.032523    1.098318   -0.000015
  C      2.078758    0.203842   -0.000038
  C      1.847322   -1.190458   -0.000015
  C      0.561516   -1.667658    0.000002
  C     -0.547696   -0.785550   -0.000004
  C     -1.882971   -1.254249   -0.000023
  O      3.397660    0.597567   -0.000080
  H     -3.958973   -0.740781   -0.000063
  H     -3.536226    1.708187   -0.000025
  H     -1.227638    2.578652    0.000010
  H      1.224100    2.168290   -0.000020
  H      2.697544   -1.864741   -0.000018
  H      0.380041   -2.738604    0.000016
  H     -2.057936   -2.326628   -0.000034
  H      3.438325    1.564789   -0.000172

 Total Charge           Charge          ....    0
 Multiplicity           Mult            ....    1
 Number of Electrons    NEL             ....   76
 Basis Dimension        Dim             ....  389

ORBITAL ENERGIES
----------------

  NO   OCC          E(Eh)            E(eV)
   0   2.0000     -21.707074      -590.6795
   1   2.0000     -12.118628      -329.7646
   2   2.0000     -12.066848      -328.3556
   3   2.0000     -12.061104      -328.1993
   4   2.0000     -12.059054      -328.1435
   5   2.0000     -12.054657      -328.0239
   6   2.0000     -12.054499      -328.0196
   7   2.0000     -12.053815      -328.0010
   8   2.0000     -12.051979      -327.9510
   9   2.0000     -12.051156      -327.9286
  10   2.0000     -12.049727      -327.8897
  11   2.0000      -1.719931       -46.8017
  12   2.0000      -1.405004       -38.2321
  13   2.0000      -1.353237       -36.8235
  14   2.0000      -1.306416       -35.5494
  15   2.0000      -1.277404       -34.7599
  16   2.0000      -1.252581       -34.0845
  17   2.0000      -1.172300       -31.8999
  18   2.0000      -1.133671       -30.8487
  19   2.0000      -1.101444       -29.9718
  20   2.0000      -1.074697       -29.2440
  21   2.0000      -1.022279       -27.8176
  22   2.0000      -0.989961       -26.9382
  23   2.0000      -0.966653       -26.3040
  24   2.0000      -0.955411       -25.9981
  25   2.0000      -0.950956       -25.8768
  26   2.0000      -0.908989       -24.7348
  27   2.0000      -0.906637       -24.6709
  28   2.0000      -0.890227       -24.2243
  29   2.0000      -0.879301       -23.9270
  30   2.0000      -0.845332       -23.0027
  31   2.0000      -0.827871       -22.5275
  32   2.0000      -0.798062       -21.7164
  33   2.0000      -0.798030       -21.7155
  34   2.0000      -0.727348       -19.7921
  35   2.0000      -0.683873       -18.6091
  36   2.0000      -0.629649       -17.1336
  37   2.0000      -0.602376       -16.3915
  38   0.0000      -0.288451        -7.8491
  39   0.0000      -0.261575        -7.1178
  40   0.0000      -0.201118        -5.4727
  41   0.0000      -0.150230        -4.0880
  42   0.0000      -0.133849        -3.6422

MULLIKEN ATOMIC CHARGES
-----------------------
   0 C :   -0.121631
   1 C :   -0.103528
   2 C :   -0.217519
   3 C :    0.140601
   4 C :   -0.269669
   5 C :    0.265081
   6 C :   -0.191414
   7 C :   -0.176001
   8 C :    0.143521
   9 C :   -0.196339
  10 O :   -0.389882
  11 H :    0.116736
  12 H :    0.116867
  13 H :    0.107840
  14 H :    0.106672
  15 H :    0.125526
  16 H :    0.115938
  17 H :    0.113269
  18 H :    0.313930
Sum of atomic charges:   -0.0000000

LOEWDIN ATOMIC CHARGES
----------------------
   0 C :   -0.147966
   1 C :   -0.138633
   2 C :   -0.106763
   3 C :   -0.090386
   4 C :   -0.115907
   5 C :   -0.259275
   6 C :   -0.114454
   7 C :   -0.090348
   8 C :   -0.100060
   9 C :   -0.100238
  10 O :    0.066386
  11 H :    0.141178
  12 H :    0.142036
  13 H :    0.143582
  14 H :    0.142551
  15 H :    0.149331
  16 H :    0.147497
  17 H :    0.145222
  18 H :    0.186247

  Mayer bond orders larger than 0.100000
B(  0-C ,  1-C ) :   1.2713 B(  0-C ,  9-C ) :   1.5694 B(  0-C , 11-H ) :   0.9762
B(  1-C ,  2-C ) :   1.5710 B(  1-C , 12-H ) :   0.9759 B(  2-C ,  3-C ) :   1.2025
B(  2-C , 13-H ) :   0.9846 B(  3-C ,  4-C ) :   1.2430 B(  3-C ,  8-C ) :   1.2712
B(  4-C ,  5-C ) :   1.4974 B(  4-C , 14-H ) :   0.9366 B(  5-C ,  6-C ) :   1.2663
B(  5-C , 10-O ) :   1.1492 B(  6-C ,  7-C ) :   1.5910 B(  6-C , 15-H ) :   0.9777
B(  7-C ,  8-C ) :   1.2037 B(  7-C , 16-H ) :   0.9817 B(  8-C ,  9-C ) :   1.2189
B(  9-C , 17-H ) :   0.9805 B( 10-O , 18-H ) :   0.8899

FINAL SINGLE POINT ENERGY      -461.136087346515

DIPOLE MOMENT
-------------

Method             : SCF
Type of density    : Electron Density
Multiplicity       :   1
Irrep              :   0
Energy             :  -461.1455966743146746 Eh
Relativity type    :
Basis              : AO
                                X                 Y                 Z
Electronic contribution:      2.686459326       0.056051241       0.000051336
Nuclear contribution   :     -2.810434224       0.329749698      -0.000109085
                        -----------------------------------------
Total Dipole Moment    :     -0.123974898       0.385800939      -0.000057749
                        -----------------------------------------
Magnitude (a.u.)       :      0.405230975
Magnitude (Debye)      :      1.030015282

Rotational constants in cm-1:             0.094966             0.027567             0.021365
Rotational constants in MHz :          2846.998406           826.423938           640.500170

                             ****ORCA TERMINATED NORMALLY****
TOTAL RUN TIME: 0 days 0 hours 4 minutes 47 seconds 122 msec
