                         Program Version 6.0.0  -   RELEASE  -
|  1> ! wb97x-v def2-tzvp def2/J RIJCOSX DEFGRID2 scfconv7 GCP(DFT/TZ) printgap
|  2> %output
|  3>     printlevel normal
|  4> end
|  5> %cpcm
|  6>     smd true
|  7>     smdsolvent "water"
|  8> end
|  9> * xyz 0 1
| 10> C -2.9383619716294733 -0.3718038841370983 -3.622894814105053e-05
| 11> C -2.6968902192181354 1.0195548974318058 -2.0915554104658562e-05
| 12> C -1.4108780296765333 1.507876443996265 -1.1151714799357197e-06
| 13> C -0.30128557290773705 0.6254879361384678 -2.714665935391643e-06
| 14> C 1.0325228010961494 1.0983177811430687 -1.503863834401659e-05
| 15> C 2.0787575797003157 0.20384223639696747 -3.759918021072288e-05
| 16> C 1.8473218763957153 -1.1904578654951044 -1.5355739664640404e-05
| 17> C 0.561515979627086 -1.6676584721592973 2.270767404964769e-06
| 18> C -0.5476956599176664 -0.7855503030428566 -3.6458743344783974e-06
| 19> C -1.882970791840761 -1.254248891645174 -2.250924055447169e-05
| 20> O 3.3976600231310106 0.5975665586958943 -7.972450795932129e-05
| 21> H -3.958973183561237 -0.7407808629734003 -6.263291546616306e-05
| 22> H -3.5362263227904442 1.7081868500392636 -2.483379083232518e-05
| 23> H -1.2276375495037266 2.5786521245005387 1.0352852795142563e-05
| 24> H 1.2241001085738086 2.168289765823736 -1.9537212452442184e-05
| 25> H 2.6975444504556383 -1.8647407052327434 -1.7983707269626994e-05
| 26> H 0.38004138793973985 -2.7386037582328924 1.5640909416352146e-05
| 27> H -2.0579364305431396 -2.3266280490998787 -3.406697305642805e-05
| 28> H 3.4383245913517326 1.5647885429263968 -0.00017204414517539324
| 29> *
| 30>
| 31>                          ****END OF INPUT****

CARTESIAN COORDINATES (ANGSTROEM)
---------------------------------
  C     -2.938362   -0.371804   -0.000036
  C     -2.696890    1.019555   -0.000021
  C     -1.410878    1.507876   -0.000001
  C     -0.301286    0.625488   -0.000003
  C      1.032523    1.098318   -0.000015
  C      2.078758    0.203842   -0.000038
  C      1.847322   -1.190458   -0.000015
  C      0.561516   -1.667658    0.000002
  C     -0.547696   -0.785550   -0.000004
  C     -1.882971   -1.254249   -0.000023
  O      3.397660    0.597567   -0.000080
  H     -3.958973   -0.740781   -0.000063
  H     -3.536226    1.708187   -0.000025
  H     -1.227638    2.578652    0.000010
  H      1.224100    2.168290   -0.000020
  H      2.697544   -1.864741   -0.000018
  H      0.380041   -2.738604    0.000016
  H     -2.057936   -2.326628   -0.000034
  H      3.438325    1.564789   -0.000172

 Total Charge           Charge          ....    0
 Multiplicity           Mult            ....    1
 Number of Electrons    NEL             ....   76
 Basis Dimension        Dim             ....  389

ORBITAL ENERGIES
----------------

  NO   OCC          E(Eh)            E(eV)
   0   2.0000     -21.702957      -590.5675
   1   2.0000     -12.116345      -329.7025
   2   2.0000     -12.065702      -328.3244
   3   2.0000     -12.059141      -328.1459
   4   2.0000     -12.056779      -328.0816
   5   2.0000     -12.051901      -327.9489
   6   2.0000     -12.051521      -327.9386
   7   2.0000     -12.051421      -327.9358
   8   2.0000     -12.048922      -327.8678
   9   2.0000     -12.047013      -327.8159
  10   2.0000     -12.046223      -327.7944
  11   2.0000      -1.716216       -46.7006
  12   2.0000      -1.404360       -38.2146
  13   2.0000      -1.352046       -36.7910
  14   2.0000      -1.304440       -35.4956
  15   2.0000      -1.276249       -34.7285
  16   2.0000      -1.250375       -34.0244
  17   2.0000      -1.169249       -31.8169
  18   2.0000      -1.131525       -30.7904
  19   2.0000      -1.098798       -29.8998
  20   2.0000      -1.071595       -29.1596
  21   2.0000      -1.021113       -27.7859
  22   2.0000      -0.986762       -26.8512
  23   2.0000      -0.964881       -26.2557
  24   2.0000      -0.953155       -25.9367
  25   2.0000      -0.949619       -25.8405
  26   2.0000      -0.905919       -24.6513
  27   2.0000      -0.900365       -24.5002
  28   2.0000      -0.886116       -24.1124
  29   2.0000      -0.874119       -23.7860
  30   2.0000      -0.840477       -22.8706
  31   2.0000      -0.824165       -22.4267
  32   2.0000      -0.798915       -21.7396
  33   2.0000      -0.793435       -21.5905
  34   2.0000      -0.727387       -19.7932
  35   2.0000      -0.683440       -18.5974
  36   2.0000      -0.630579       -17.1589
  37   2.0000      -0.601281       -16.3617
  38   0.0000      -0.287403        -7.8206
  39   0.0000      -0.262173        -7.1341
  40   0.0000      -0.200325        -5.4511
  41   0.0000      -0.146128        -3.9763
  42   0.0000      -0.132847        -3.6150

MULLIKEN ATOMIC CHARGES
-----------------------
   0 C :   -0.165301
   1 C :   -0.141598
   2 C :   -0.260512
   3 C :    0.144400
   4 C :   -0.333698
   5 C :    0.286701
   6 C :   -0.231152
   7 C :   -0.225472
   8 C :    0.121651
   9 C :   -0.236945
  10 O :   -0.466733
  11 H :    0.160975
  12 H :    0.161231
  13 H :    0.157870
  14 H :    0.168550
  15 H :    0.159260
  16 H :    0.162051
  17 H :    0.160088
  18 H :    0.378634
Sum of atomic charges:   -0.0000000

LOEWDIN ATOMIC CHARGES
----------------------
   0 C :   -0.157663
   1 C :   -0.147566
   2 C :   -0.113288
   3 C :   -0.103610
   4 C :   -0.109994
   5 C :   -0.268998
   6 C :   -0.125505
   7 C :   -0.096020
   8 C :   -0.113300
   9 C :   -0.107593
  10 O :    0.042601
  11 H :    0.150581
  12 H :    0.151774
  13 H :    0.155195
  14 H :    0.160193
  15 H :    0.156531
  16 H :    0.158959
  17 H :    0.156247
  18 H :    0.211457

  Mayer bond orders larger than 0.100000
B(  0-C ,  1-C ) :   1.2500 B(  0-C ,  9-C ) :   1.5476 B(  0-C , 11-H ) :   0.9797
B(  1-C ,  2-C ) :   1.5493 B(  1-C , 12-H ) :   0.9789 B(  2-C ,  3-C ) :   1.1908
B(  2-C , 13-H ) :   0.9891 B(  3-C ,  4-C ) :   1.1876 B(  3-C ,  8-C ) :   1.2316
B(  4-C ,  5-C ) :   1.5007 B(  4-C , 14-H ) :   0.9691 B(  5-C ,  6-C ) :   1.2341
B(  5-C , 10-O ) :   1.1094 B(  6-C ,  7-C ) :   1.5858 B(  6-C , 15-H ) :   0.9823
B(  7-C ,  8-C ) :   1.1966 B(  7-C , 16-H ) :   0.9868 B(  8-C ,  9-C ) :   1.2066
B(  9-C , 17-H ) :   0.9864 B( 10-O , 18-H ) :   0.8486

FINAL SINGLE POINT ENERGY      -461.146983778644

DIPOLE MOMENT
-------------

Method             : SCF
Type of density    : Electron Density
Multiplicity       :   1
Irrep              :   0
Energy             :  -461.1564931064443726 Eh
Relativity type    :
Basis              : AO
                                X                 Y                 Z
Electronic contribution:      2.632852594       0.252456327       0.000028245
Nuclear contribution   :     -2.810434224       0.329749698      -0.000109085
                        -----------------------------------------
Total Dipole Moment    :     -0.177581630       0.582206025      -0.000080839
                        -----------------------------------------
Magnitude (a.u.)       :      0.608686370
Magnitude (Debye)      :      1.547157799

Rotational constants in cm-1:             0.094966             0.027567             0.021365
Rotational constants in MHz :          2846.998406           826.423938           640.500170

                             ****ORCA TERMINATED NORMALLY****
TOTAL RUN TIME: 0 days 0 hours 4 minutes 51 seconds 231 msec
