                         Program Version 6.0.0  -   RELEASE  -
|  1> ! pbe def2-sv(p) def2/J RI DEFGRID1 loosescf d4 GCP(DFT/SV(P)) printgap
|  2> %output
|  3>     printlevel normal
|  4> end
|  5> * xyz 0 1
|  6> C 3.0156774387 -1.2858372767 -2.8614501698
|  7> C 3.2520310552 -0.3222879557 -1.716441476
|  8> O 2.6466467046 -0.8719298705 -0.5248069368
|  9> P 1.8740919005 -0.0217854131 0.5566790674
| 10> S 1.1483144943 1.7159372936 -0.0370800581
| 11> O 2.9871533996 0.1667080077 1.6777816402
| 12> C 2.8462103512 1.0631354115 2.7960586286
| 13> C 4.2343080824 1.4180947265 3.2905602658
| 14> S 0.6880741215 -1.5185462768 1.4390407033
| 15> C -0.2505764464 -2.1721625218 0.0071964081
| 16> S -0.4353564009 -1.0244400291 -1.3794041092
| 17> P -1.9897985395 0.193736613 -0.6462618661
| 18> S -2.3998833024 1.8402174373 -1.6220584403
| 19> O -1.5501841297 0.3208265968 0.8693921571
| 20> C -2.2840579349 1.1610362975 1.7883966381
| 21> C -1.4045054386 1.3951058311 2.9986011731
| 22> O -3.248591118 -0.7824149596 -0.4857600394
| 23> C -4.2237975936 -0.9466005302 -1.5264051081
| 24> C -3.6573504358 -1.692734222 -2.7176235084
| 25> H 1.9497334179 -1.3859245377 -3.0524275652
| 26> H 3.5047500192 -0.9041998356 -3.7517210868
| 27> H 3.4250556868 -2.2608057402 -2.6145081491
| 28> H 2.8082832903 0.6589233738 -1.918759508
| 29> H 4.3166262836 -0.1993276139 -1.5069756956
| 30> H 2.301282849 1.9532749268 2.4624656241
| 31> H 2.266448459 0.5522066131 3.5692345379
| 32> H 4.7898520919 1.9300198004 2.5097026698
| 33> H 4.1483873254 2.0683972112 4.1548546214
| 34> H 4.7686732571 0.5145147427 3.5689945015
| 35> H -1.2312005014 -2.4585251797 0.3816913739
| 36> H 0.290660595 -3.0276423439 -0.3902170838
| 37> H -2.5283413409 2.1000477762 1.2797577654
| 38> H -3.208131368 0.6417746173 2.0536174163
| 39> H -1.1394212944 0.4446746823 3.4541619618
| 40> H -0.4939683274 1.9081956398 2.6972974499
| 41> H -1.9392992761 2.0085040154 3.7159238133
| 42> H -5.0324247117 -1.4999314626 -1.0470215471
| 43> H -4.5751363574 0.0454016787 -1.8277645357
| 44> H -3.2496281242 -2.652040894 -2.4099910494
| 45> H -4.4437702417 -1.8524558666 -3.4480806314
| 46> H -2.8638989684 -1.102874783 -3.1767941153
| 47> *
| 48>
| 49>                          ****END OF INPUT****

CARTESIAN COORDINATES (ANGSTROEM)
---------------------------------
  C      3.015677   -1.285837   -2.861450
  C      3.252031   -0.322288   -1.716441
  O      2.646647   -0.871930   -0.524807
  P      1.874092   -0.021785    0.556679
  S      1.148314    1.715937   -0.037080
  O      2.987153    0.166708    1.677782
  C      2.846210    1.063135    2.796059
  C      4.234308    1.418095    3.290560
  S      0.688074   -1.518546    1.439041
  C     -0.250576   -2.172163    0.007196
  S     -0.435356   -1.024440   -1.379404
  P     -1.989799    0.193737   -0.646262
  S     -2.399883    1.840217   -1.622058
  O     -1.550184    0.320827    0.869392
  C     -2.284058    1.161036    1.788397
  C     -1.404505    1.395106    2.998601
  O     -3.248591   -0.782415   -0.485760
  C     -4.223798   -0.946601   -1.526405
  C     -3.657350   -1.692734   -2.717624
  H      1.949733   -1.385925   -3.052428
  H      3.504750   -0.904200   -3.751721
  H      3.425056   -2.260806   -2.614508
  H      2.808283    0.658923   -1.918760
  H      4.316626   -0.199328   -1.506976
  H      2.301283    1.953275    2.462466
  H      2.266448    0.552207    3.569235
  H      4.789852    1.930020    2.509703
  H      4.148387    2.068397    4.154855
  H      4.768673    0.514515    3.568995
  H     -1.231201   -2.458525    0.381691
  H      0.290661   -3.027642   -0.390217
  H     -2.528341    2.100048    1.279758
  H     -3.208131    0.641775    2.053617
  H     -1.139421    0.444675    3.454162
  H     -0.493968    1.908196    2.697297
  H     -1.939299    2.008504    3.715924
  H     -5.032425   -1.499931   -1.047022
  H     -4.575136    0.045402   -1.827765
  H     -3.249628   -2.652041   -2.409991
  H     -4.443770   -1.852456   -3.448081
  H     -2.863899   -1.102875   -3.176794

 Total Charge           Charge          ....    0
 Multiplicity           Mult            ....    1
 Number of Electrons    NEL             ....  202
 Basis Dimension        Dim             ....  334

ORBITAL ENERGIES
----------------

  NO   OCC          E(Eh)            E(eV)
   0   2.0000     -88.048352     -2395.9175
   1   2.0000     -88.036783     -2395.6027
   2   2.0000     -87.982989     -2394.1389
   3   2.0000     -87.976754     -2393.9692
   4   2.0000     -76.422764     -2079.5691
   5   2.0000     -76.422327     -2079.5572
   6   2.0000     -18.789128      -511.2782
   7   2.0000     -18.787855      -511.2435
   8   2.0000     -18.785036      -511.1668
   9   2.0000     -18.783913      -511.1363
  10   2.0000      -9.962867      -271.1034
  11   2.0000      -9.948696      -270.7178
  12   2.0000      -9.948663      -270.7169
  13   2.0000      -9.948261      -270.7060
  14   2.0000      -9.946698      -270.6634
  15   2.0000      -9.884937      -268.9828
  16   2.0000      -9.884086      -268.9596
  17   2.0000      -9.883276      -268.9376
  18   2.0000      -9.878350      -268.8036
  19   2.0000      -7.692841      -209.3328
  20   2.0000      -7.682264      -209.0450
  21   2.0000      -7.628181      -207.5734
  22   2.0000      -7.621451      -207.3902
  23   2.0000      -6.420326      -174.7060
  24   2.0000      -6.419368      -174.6799
  25   2.0000      -5.721161      -155.6807
  26   2.0000      -5.717112      -155.5705
  27   2.0000      -5.710478      -155.3900
  28   2.0000      -5.709586      -155.3657
  29   2.0000      -5.706825      -155.2906
  30   2.0000      -5.698748      -155.0708
  31   2.0000      -5.657194      -153.9401
  32   2.0000      -5.650439      -153.7563
  33   2.0000      -5.649005      -153.7173
  34   2.0000      -5.648053      -153.6913
  35   2.0000      -5.642025      -153.5273
  36   2.0000      -5.641623      -153.5164
  37   2.0000      -4.642719      -126.3348
  38   2.0000      -4.642278      -126.3228
  39   2.0000      -4.641994      -126.3151
  40   2.0000      -4.641259      -126.2951
  41   2.0000      -4.640784      -126.2822
  42   2.0000      -4.639706      -126.2528
  43   2.0000      -0.982526       -26.7359
  44   2.0000      -0.981452       -26.7067
  45   2.0000      -0.941145       -25.6099
  46   2.0000      -0.939150       -25.5556
  47   2.0000      -0.764627       -20.8066
  48   2.0000      -0.720914       -19.6171
  49   2.0000      -0.707302       -19.2467
  50   2.0000      -0.686070       -18.6689
  51   2.0000      -0.683166       -18.5899
  52   2.0000      -0.670613       -18.2483
  53   2.0000      -0.647775       -17.6269
  54   2.0000      -0.633408       -17.2359
  55   2.0000      -0.593933       -16.1617
  56   2.0000      -0.586899       -15.9703
  57   2.0000      -0.571132       -15.5413
  58   2.0000      -0.564347       -15.3567
  59   2.0000      -0.558447       -15.1961
  60   2.0000      -0.504115       -13.7177
  61   2.0000      -0.500544       -13.6205
  62   2.0000      -0.478630       -13.0242
  63   2.0000      -0.469095       -12.7647
  64   2.0000      -0.455514       -12.3952
  65   2.0000      -0.441002       -12.0003
  66   2.0000      -0.436900       -11.8887
  67   2.0000      -0.432157       -11.7596
  68   2.0000      -0.424107       -11.5405
  69   2.0000      -0.416603       -11.3363
  70   2.0000      -0.411455       -11.1963
  71   2.0000      -0.392033       -10.6678
  72   2.0000      -0.388931       -10.5834
  73   2.0000      -0.385381       -10.4867
  74   2.0000      -0.376456       -10.2439
  75   2.0000      -0.376290       -10.2394
  76   2.0000      -0.364668        -9.9231
  77   2.0000      -0.354596        -9.6491
  78   2.0000      -0.351709        -9.5705
  79   2.0000      -0.349820        -9.5191
  80   2.0000      -0.347889        -9.4665
  81   2.0000      -0.339430        -9.2364
  82   2.0000      -0.337150        -9.1743
  83   2.0000      -0.332686        -9.0528
  84   2.0000      -0.328043        -8.9265
  85   2.0000      -0.319474        -8.6933
  86   2.0000      -0.311574        -8.4784
  87   2.0000      -0.298098        -8.1117
  88   2.0000      -0.295572        -8.0429
  89   2.0000      -0.289198        -7.8695
  90   2.0000      -0.282069        -7.6755
  91   2.0000      -0.270571        -7.3626
  92   2.0000      -0.267658        -7.2833
  93   2.0000      -0.260366        -7.0849
  94   2.0000      -0.256724        -6.9858
  95   2.0000      -0.232217        -6.3190
  96   2.0000      -0.217702        -5.9240
  97   2.0000      -0.206314        -5.6141
  98   2.0000      -0.197848        -5.3837
  99   2.0000      -0.190601        -5.1865
 100   2.0000      -0.183513        -4.9937
 101   0.0000      -0.051753        -1.4083
 102   0.0000      -0.028471        -0.7747
 103   0.0000      -0.014267        -0.3882
 104   0.0000      -0.003801        -0.1034
 105   0.0000       0.021119         0.5747

MULLIKEN ATOMIC CHARGES
-----------------------
   0 C :   -0.296289
   1 C :   -0.002802
   2 O :   -0.374965
   3 P :    0.617421
   4 S :   -0.315808
   5 O :   -0.375409
   6 C :   -0.022120
   7 C :   -0.276894
   8 S :   -0.106275
   9 C :   -0.314374
  10 S :   -0.091991
  11 P :    0.635381
  12 S :   -0.307818
  13 O :   -0.372152
  14 C :   -0.002485
  15 C :   -0.292476
  16 O :   -0.387348
  17 C :   -0.005632
  18 C :   -0.307409
  19 H :    0.126273
  20 H :    0.111511
  21 H :    0.112511
  22 H :    0.113969
  23 H :    0.103886
  24 H :    0.113583
  25 H :    0.099830
  26 H :    0.117323
  27 H :    0.109556
  28 H :    0.115603
  29 H :    0.182767
  30 H :    0.186136
  31 H :    0.106903
  32 H :    0.097623
  33 H :    0.113719
  34 H :    0.128580
  35 H :    0.104378
  36 H :    0.100756
  37 H :    0.110235
  38 H :    0.109198
  39 H :    0.112003
  40 H :    0.123101
Sum of atomic charges:   -0.0000000

LOEWDIN ATOMIC CHARGES
----------------------
   0 C :   -0.355597
   1 C :   -0.115793
   2 O :   -0.245209
   3 P :    0.558255
   4 S :   -0.305850
   5 O :   -0.252493
   6 C :   -0.122426
   7 C :   -0.350395
   8 S :    0.071781
   9 C :   -0.465481
  10 S :    0.115102
  11 P :    0.570743
  12 S :   -0.306707
  13 O :   -0.241789
  14 C :   -0.111645
  15 C :   -0.356731
  16 O :   -0.256345
  17 C :   -0.123662
  18 C :   -0.367122
  19 H :    0.121147
  20 H :    0.130931
  21 H :    0.124334
  22 H :    0.109655
  23 H :    0.115110
  24 H :    0.105632
  25 H :    0.109131
  26 H :    0.127897
  27 H :    0.129657
  28 H :    0.126285
  29 H :    0.133333
  30 H :    0.137551
  31 H :    0.110918
  32 H :    0.109511
  33 H :    0.121944
  34 H :    0.125080
  35 H :    0.127101
  36 H :    0.116149
  37 H :    0.108936
  38 H :    0.121118
  39 H :    0.130157
  40 H :    0.119787

  Mayer bond orders larger than 0.100000
B(  0-C ,  1-C ) :   1.1617 B(  0-C , 19-H ) :   0.9449 B(  0-C , 20-H ) :   0.9411
B(  0-C , 21-H ) :   0.9501 B(  1-C ,  2-O ) :   0.8918 B(  1-C , 22-H ) :   0.9027
B(  1-C , 23-H ) :   0.9343 B(  2-O ,  3-P ) :   1.1244 B(  3-P ,  4-S ) :   1.5979
B(  3-P ,  5-O ) :   1.1046 B(  3-P ,  8-S ) :   0.9861 B(  4-S ,  8-S ) :   0.1181
B(  5-O ,  6-C ) :   0.9124 B(  6-C ,  7-C ) :   1.1599 B(  6-C , 24-H ) :   0.9016
B(  6-C , 25-H ) :   0.9311 B(  7-C , 26-H ) :   0.9507 B(  7-C , 27-H ) :   0.9422
B(  7-C , 28-H ) :   0.9507 B(  8-S ,  9-C ) :   0.9684 B(  9-C , 10-S ) :   1.0116
B(  9-C , 29-H ) :   0.9027 B(  9-C , 30-H ) :   0.9092 B( 10-S , 11-P ) :   0.9477
B( 11-P , 12-S ) :   1.6614 B( 11-P , 13-O ) :   1.1184 B( 11-P , 16-O ) :   1.0581
B( 13-O , 14-C ) :   0.8962 B( 14-C , 15-C ) :   1.1626 B( 14-C , 31-H ) :   0.9132
B( 14-C , 32-H ) :   0.9320 B( 15-C , 33-H ) :   0.9473 B( 15-C , 34-H ) :   0.9393
B( 15-C , 35-H ) :   0.9390 B( 16-O , 17-C ) :   0.9182 B( 17-C , 18-C ) :   1.1636
B( 17-C , 36-H ) :   0.9337 B( 17-C , 37-H ) :   0.9117 B( 18-C , 38-H ) :   0.9466
B( 18-C , 39-H ) :   0.9389 B( 18-C , 40-H ) :   0.9358

Dispersion correction           -0.067082925
FINAL SINGLE POINT ENERGY     -2929.511958293792

DIPOLE MOMENT
-------------

Method             : SCF
Type of density    : Electron Density
Multiplicity       :   1
Irrep              :   0
Energy             : -2929.6285159871586075 Eh
Relativity type    :
Basis              : AO
                                X                 Y                 Z
Electronic contribution:     -3.762695754       1.408050204      -3.991527247
Nuclear contribution   :      3.770260899      -2.562370834       4.561736729
                        -----------------------------------------
Total Dipole Moment    :      0.007565145      -1.154320629       0.570209482
                        -----------------------------------------
Magnitude (a.u.)       :      1.287498427
Magnitude (Debye)      :      3.272560928

Rotational constants in cm-1:             0.011611             0.005836             0.004947
Rotational constants in MHz :           348.074986           174.957041           148.309501

                             ****ORCA TERMINATED NORMALLY****
TOTAL RUN TIME: 0 days 0 hours 0 minutes 21 seconds 542 msec
