                         Program Version 6.0.0  -   RELEASE  -
|  1> ! r2scan-3c def2/J RI DEFGRID2 scfconv6 printgap
|  2> %output
|  3>     printlevel normal
|  4> end
|  5> * xyz 0 1
|  6> C 5.6418041019 -1.395985809 -1.1302056069
|  7> C 4.8054657251 -0.1469036614 -0.9429894932
|  8> O 3.5913571024 -0.5224583449 -0.2546380284
|  9> P 2.2524389603 0.3060566143 -0.4090489349
| 10> S 1.7812195773 0.7642755196 -2.2623752534
| 11> O 2.5696821098 1.5527744262 0.5294964809
| 12> C 1.7254118908 2.7090727247 0.6599441506
| 13> C 0.8805327264 2.6166859549 1.9151669396
| 14> S 0.9868856864 -0.9648570791 0.6770828151
| 15> C 0.0022037459 -1.6486483436 -0.7079885113
| 16> S -1.7071002522 -1.9515610615 -0.2289247965
| 17> P -2.2359156226 0.0474135067 0.2980444473
| 18> S -1.4453039479 1.4925480009 -0.7574702855
| 19> O -1.9045731379 0.1934110981 1.8317874483
| 20> C -2.4067947579 -0.7262204774 2.8393684093
| 21> C -1.2602076132 -1.5133837079 3.4401122759
| 22> O -3.8266234829 0.0010414171 0.319451744
| 23> C -4.6382378372 0.2545173526 -0.8408304559
| 24> C -4.4379084401 -0.7820131542 -1.9273590064
| 25> H 5.8479367836 -1.8500596239 -0.1654163588
| 26> H 5.1097878196 -2.1119863569 -1.7502770283
| 27> H 6.576872811 -1.1294696252 -1.6119693631
| 28> H 4.5360354462 0.3050625498 -1.9039228348
| 29> H 5.3208433706 0.5952703359 -0.3292038789
| 30> H 2.4153962887 3.5537082416 0.7094999911
| 31> H 1.0991859133 2.8040233637 -0.2336358438
| 32> H 1.5155893484 2.432900625 2.7771793321
| 33> H 0.3441784754 3.5505530463 2.0497625284
| 34> H 0.1553319338 1.8092205106 1.8303852189
| 35> H 0.412323971 -2.611620186 -1.0014771815
| 36> H 0.0379197635 -0.9331092533 -1.5345918123
| 37> H -2.8890859567 -0.0914711549 3.5840149412
| 38> H -3.1475865102 -1.3858145714 2.3828325313
| 39> H -0.5084274677 -0.8370942381 3.8365360217
| 40> H -1.6422143435 -2.1372400114 4.2416334956
| 41> H -0.7916238513 -2.1432177824 2.6874892169
| 42> H -5.6568317958 0.2373730581 -0.450431558
| 43> H -4.4002256109 1.2549311011 -1.2152084479
| 44> H -4.5583487663 -1.7841211569 -1.5236670472
| 45> H -5.1666863487 -0.619020688 -2.7149187075
| 46> H -3.4386866041 -0.690489711 -2.3509513705
| 47> *
| 48>
| 49>                          ****END OF INPUT****

CARTESIAN COORDINATES (ANGSTROEM)
---------------------------------
  C      5.641804   -1.395986   -1.130206
  C      4.805466   -0.146904   -0.942989
  O      3.591357   -0.522458   -0.254638
  P      2.252439    0.306057   -0.409049
  S      1.781220    0.764276   -2.262375
  O      2.569682    1.552774    0.529496
  C      1.725412    2.709073    0.659944
  C      0.880533    2.616686    1.915167
  S      0.986886   -0.964857    0.677083
  C      0.002204   -1.648648   -0.707989
  S     -1.707100   -1.951561   -0.228925
  P     -2.235916    0.047414    0.298044
  S     -1.445304    1.492548   -0.757470
  O     -1.904573    0.193411    1.831787
  C     -2.406795   -0.726220    2.839368
  C     -1.260208   -1.513384    3.440112
  O     -3.826623    0.001041    0.319452
  C     -4.638238    0.254517   -0.840830
  C     -4.437908   -0.782013   -1.927359
  H      5.847937   -1.850060   -0.165416
  H      5.109788   -2.111986   -1.750277
  H      6.576873   -1.129470   -1.611969
  H      4.536035    0.305063   -1.903923
  H      5.320843    0.595270   -0.329204
  H      2.415396    3.553708    0.709500
  H      1.099186    2.804023   -0.233636
  H      1.515589    2.432901    2.777179
  H      0.344178    3.550553    2.049763
  H      0.155332    1.809221    1.830385
  H      0.412324   -2.611620   -1.001477
  H      0.037920   -0.933109   -1.534592
  H     -2.889086   -0.091471    3.584015
  H     -3.147587   -1.385815    2.382833
  H     -0.508427   -0.837094    3.836536
  H     -1.642214   -2.137240    4.241633
  H     -0.791624   -2.143218    2.687489
  H     -5.656832    0.237373   -0.450432
  H     -4.400226    1.254931   -1.215208
  H     -4.558349   -1.784121   -1.523667
  H     -5.166686   -0.619021   -2.714919
  H     -3.438687   -0.690490   -2.350951

 Total Charge           Charge          ....    0
 Multiplicity           Mult            ....    1
 Number of Electrons    NEL             ....  202
 Basis Dimension        Dim             ....  539

ORBITAL ENERGIES
----------------

  NO   OCC          E(Eh)            E(eV)
   0   2.0000     -88.579353     -2410.3667
   1   2.0000     -88.572458     -2410.1791
   2   2.0000     -88.517890     -2408.6942
   3   2.0000     -88.512653     -2408.5517
   4   2.0000     -76.914795     -2092.9580
   5   2.0000     -76.906816     -2092.7409
   6   2.0000     -18.993889      -516.8500
   7   2.0000     -18.991255      -516.7783
   8   2.0000     -18.984043      -516.5821
   9   2.0000     -18.980526      -516.4864
  10   2.0000     -10.104624      -274.9608
  11   2.0000     -10.104579      -274.9596
  12   2.0000     -10.100647      -274.8526
  13   2.0000     -10.090613      -274.5795
  14   2.0000     -10.085945      -274.4525
  15   2.0000     -10.031604      -272.9738
  16   2.0000     -10.029708      -272.9222
  17   2.0000     -10.027010      -272.8488
  18   2.0000     -10.013952      -272.4935
  19   2.0000      -7.873751      -214.2557
  20   2.0000      -7.866967      -214.0711
  21   2.0000      -7.812575      -212.5910
  22   2.0000      -7.807368      -212.4493
  23   2.0000      -6.593103      -179.4075
  24   2.0000      -6.585313      -179.1955
  25   2.0000      -5.820686      -158.3889
  26   2.0000      -5.817442      -158.3006
  27   2.0000      -5.813800      -158.2015
  28   2.0000      -5.810962      -158.1243
  29   2.0000      -5.810917      -158.1231
  30   2.0000      -5.803957      -157.9337
  31   2.0000      -5.760372      -156.7477
  32   2.0000      -5.754999      -156.6015
  33   2.0000      -5.752675      -156.5382
  34   2.0000      -5.752618      -156.5367
  35   2.0000      -5.747730      -156.4037
  36   2.0000      -5.747305      -156.3921
  37   2.0000      -4.738893      -128.9518
  38   2.0000      -4.738050      -128.9289
  39   2.0000      -4.736568      -128.8886
  40   2.0000      -4.730736      -128.7299
  41   2.0000      -4.730251      -128.7167
  42   2.0000      -4.729089      -128.6850
  43   2.0000      -1.052226       -28.6325
  44   2.0000      -1.041279       -28.3346
  45   2.0000      -1.010855       -27.5068
  46   2.0000      -1.000719       -27.2309
  47   2.0000      -0.800119       -21.7723
  48   2.0000      -0.758201       -20.6317
  49   2.0000      -0.748632       -20.3713
  50   2.0000      -0.734835       -19.9959
  51   2.0000      -0.722096       -19.6492
  52   2.0000      -0.709553       -19.3079
  53   2.0000      -0.684236       -18.6190
  54   2.0000      -0.661448       -17.9989
  55   2.0000      -0.628344       -17.0981
  56   2.0000      -0.616350       -16.7717
  57   2.0000      -0.610084       -16.6012
  58   2.0000      -0.595916       -16.2157
  59   2.0000      -0.587661       -15.9911
  60   2.0000      -0.529577       -14.4105
  61   2.0000      -0.521984       -14.2039
  62   2.0000      -0.493128       -13.4187
  63   2.0000      -0.489212       -13.3121
  64   2.0000      -0.466622       -12.6974
  65   2.0000      -0.463143       -12.6028
  66   2.0000      -0.458699       -12.4818
  67   2.0000      -0.451400       -12.2832
  68   2.0000      -0.448634       -12.2079
  69   2.0000      -0.431513       -11.7421
  70   2.0000      -0.427745       -11.6395
  71   2.0000      -0.409985       -11.1563
  72   2.0000      -0.403557       -10.9814
  73   2.0000      -0.396221       -10.7817
  74   2.0000      -0.391575       -10.6553
  75   2.0000      -0.386035       -10.5045
  76   2.0000      -0.381601       -10.3839
  77   2.0000      -0.374481       -10.1901
  78   2.0000      -0.367929       -10.0118
  79   2.0000      -0.365355        -9.9418
  80   2.0000      -0.360912        -9.8209
  81   2.0000      -0.357339        -9.7237
  82   2.0000      -0.352632        -9.5956
  83   2.0000      -0.346564        -9.4305
  84   2.0000      -0.341238        -9.2856
  85   2.0000      -0.328152        -8.9295
  86   2.0000      -0.319292        -8.6884
  87   2.0000      -0.318076        -8.6553
  88   2.0000      -0.309638        -8.4257
  89   2.0000      -0.302266        -8.2251
  90   2.0000      -0.296028        -8.0553
  91   2.0000      -0.288624        -7.8539
  92   2.0000      -0.280476        -7.6321
  93   2.0000      -0.278210        -7.5705
  94   2.0000      -0.271265        -7.3815
  95   2.0000      -0.244451        -6.6518
  96   2.0000      -0.236334        -6.4310
  97   2.0000      -0.223251        -6.0750
  98   2.0000      -0.214546        -5.8381
  99   2.0000      -0.207765        -5.6536
 100   2.0000      -0.199561        -5.4303
 101   0.0000      -0.047029        -1.2797
 102   0.0000      -0.034102        -0.9280
 103   0.0000      -0.009690        -0.2637
 104   0.0000       0.010750         0.2925
 105   0.0000       0.016692         0.4542

MULLIKEN ATOMIC CHARGES
-----------------------
   0 C :   -0.448744
   1 C :   -0.144602
   2 O :   -0.284472
   3 P :    0.685763
   4 S :   -0.469005
   5 O :   -0.283943
   6 C :   -0.153974
   7 C :   -0.441168
   8 S :   -0.123215
   9 C :   -0.235185
  10 S :   -0.154096
  11 P :    0.648048
  12 S :   -0.407183
  13 O :   -0.275360
  14 C :   -0.113454
  15 C :   -0.450054
  16 O :   -0.294103
  17 C :   -0.164344
  18 C :   -0.448156
  19 H :    0.153424
  20 H :    0.156479
  21 H :    0.144842
  22 H :    0.168052
  23 H :    0.150139
  24 H :    0.144246
  25 H :    0.172641
  26 H :    0.144684
  27 H :    0.143828
  28 H :    0.182361
  29 H :    0.190537
  30 H :    0.222093
  31 H :    0.154530
  32 H :    0.155433
  33 H :    0.160653
  34 H :    0.145759
  35 H :    0.161919
  36 H :    0.147756
  37 H :    0.174472
  38 H :    0.152831
  39 H :    0.149007
  40 H :    0.181562
Sum of atomic charges:    0.0000000

LOEWDIN ATOMIC CHARGES
----------------------
   0 C :   -0.387236
   1 C :    0.022017
   2 O :   -0.674334
   3 P :    0.373135
   4 S :   -0.131671
   5 O :   -0.657613
   6 C :    0.019832
   7 C :   -0.406318
   8 S :    0.174631
   9 C :   -0.410314
  10 S :    0.133966
  11 P :    0.377959
  12 S :   -0.077552
  13 O :   -0.667646
  14 C :    0.024542
  15 C :   -0.400052
  16 O :   -0.672816
  17 C :    0.022496
  18 C :   -0.408723
  19 H :    0.159575
  20 H :    0.160460
  21 H :    0.158687
  22 H :    0.180946
  23 H :    0.171017
  24 H :    0.175154
  25 H :    0.183404
  26 H :    0.155166
  27 H :    0.160869
  28 H :    0.174181
  29 H :    0.178786
  30 H :    0.200013
  31 H :    0.180627
  32 H :    0.176765
  33 H :    0.162739
  34 H :    0.158572
  35 H :    0.162669
  36 H :    0.179622
  37 H :    0.180530
  38 H :    0.159325
  39 H :    0.159810
  40 H :    0.166781

  Mayer bond orders larger than 0.100000
B(  0-C ,  1-C ) :   0.9596 B(  0-C , 19-H ) :   0.9724 B(  0-C , 20-H ) :   0.9726
B(  0-C , 21-H ) :   0.9665 B(  1-C ,  2-O ) :   0.7624 B(  1-C , 22-H ) :   0.9483
B(  1-C , 23-H ) :   0.9474 B(  2-O ,  3-P ) :   1.2005 B(  3-P ,  4-S ) :   1.7530
B(  3-P ,  5-O ) :   1.0764 B(  3-P ,  8-S ) :   1.0867 B(  5-O ,  6-C ) :   0.7736
B(  6-C ,  7-C ) :   0.9474 B(  6-C , 24-H ) :   0.9663 B(  6-C , 25-H ) :   0.9556
B(  7-C , 26-H ) :   0.9751 B(  7-C , 27-H ) :   0.9638 B(  7-C , 28-H ) :   0.9503
B(  8-S ,  9-C ) :   0.8979 B(  9-C , 10-S ) :   0.9234 B(  9-C , 29-H ) :   0.9140
B(  9-C , 30-H ) :   0.9029 B( 10-S , 11-P ) :   0.9944 B( 11-P , 12-S ) :   1.8455
B( 11-P , 13-O ) :   1.1275 B( 11-P , 16-O ) :   1.0552 B( 13-O , 14-C ) :   0.7427
B( 14-C , 15-C ) :   0.9486 B( 14-C , 31-H ) :   0.9562 B( 14-C , 32-H ) :   0.9720
B( 15-C , 33-H ) :   0.9667 B( 15-C , 34-H ) :   0.9638 B( 15-C , 35-H ) :   0.9644
B( 16-O , 17-C ) :   0.8250 B( 17-C , 18-C ) :   0.9167 B( 17-C , 36-H ) :   0.9612
B( 17-C , 37-H ) :   0.9692 B( 18-C , 38-H ) :   0.9669 B( 18-C , 39-H ) :   0.9565
B( 18-C , 40-H ) :   0.9629

Dispersion correction           -0.021689415
FINAL SINGLE POINT ENERGY     -2932.458016408194

DIPOLE MOMENT
-------------

Method             : SCF
Type of density    : Electron Density
Multiplicity       :   1
Irrep              :   0
Energy             : -2932.4828834968143383 Eh
Relativity type    :
Basis              : AO
                                X                 Y                 Z
Electronic contribution:     -1.618211591       1.249986225      -6.147081696
Nuclear contribution   :      1.101968149      -1.950108829       7.071028620
                        -----------------------------------------
Total Dipole Moment    :     -0.516243441      -0.700122605       0.923946924
                        -----------------------------------------
Magnitude (a.u.)       :      1.268998373
Magnitude (Debye)      :      3.225537526

Rotational constants in cm-1:             0.012648             0.004863             0.004745
Rotational constants in MHz :           379.190566           145.801597           142.261187

                             ****ORCA TERMINATED NORMALLY****
TOTAL RUN TIME: 0 days 0 hours 1 minutes 19 seconds 278 msec
