                         Program Version 6.0.0  -   RELEASE  -
|  1> ! r2scan-3c def2/J RI DEFGRID2 scfconv6 printgap
|  2> %output
|  3>     printlevel normal
|  4> end
|  5> %cpcm
|  6>     smd true
|  7>     smdsolvent "water"
|  8> end
|  9> * xyz 0 1
| 10> C 5.6418041019 -1.395985809 -1.1302056069
| 11> C 4.8054657251 -0.1469036614 -0.9429894932
| 12> O 3.5913571024 -0.5224583449 -0.2546380284
| 13> P 2.2524389603 0.3060566143 -0.4090489349
| 14> S 1.7812195773 0.7642755196 -2.2623752534
| 15> O 2.5696821098 1.5527744262 0.5294964809
| 16> C 1.7254118908 2.7090727247 0.6599441506
| 17> C 0.8805327264 2.6166859549 1.9151669396
| 18> S 0.9868856864 -0.9648570791 0.6770828151
| 19> C 0.0022037459 -1.6486483436 -0.7079885113
| 20> S -1.7071002522 -1.9515610615 -0.2289247965
| 21> P -2.2359156226 0.0474135067 0.2980444473
| 22> S -1.4453039479 1.4925480009 -0.7574702855
| 23> O -1.9045731379 0.1934110981 1.8317874483
| 24> C -2.4067947579 -0.7262204774 2.8393684093
| 25> C -1.2602076132 -1.5133837079 3.4401122759
| 26> O -3.8266234829 0.0010414171 0.319451744
| 27> C -4.6382378372 0.2545173526 -0.8408304559
| 28> C -4.4379084401 -0.7820131542 -1.9273590064
| 29> H 5.8479367836 -1.8500596239 -0.1654163588
| 30> H 5.1097878196 -2.1119863569 -1.7502770283
| 31> H 6.576872811 -1.1294696252 -1.6119693631
| 32> H 4.5360354462 0.3050625498 -1.9039228348
| 33> H 5.3208433706 0.5952703359 -0.3292038789
| 34> H 2.4153962887 3.5537082416 0.7094999911
| 35> H 1.0991859133 2.8040233637 -0.2336358438
| 36> H 1.5155893484 2.432900625 2.7771793321
| 37> H 0.3441784754 3.5505530463 2.0497625284
| 38> H 0.1553319338 1.8092205106 1.8303852189
| 39> H 0.412323971 -2.611620186 -1.0014771815
| 40> H 0.0379197635 -0.9331092533 -1.5345918123
| 41> H -2.8890859567 -0.0914711549 3.5840149412
| 42> H -3.1475865102 -1.3858145714 2.3828325313
| 43> H -0.5084274677 -0.8370942381 3.8365360217
| 44> H -1.6422143435 -2.1372400114 4.2416334956
| 45> H -0.7916238513 -2.1432177824 2.6874892169
| 46> H -5.6568317958 0.2373730581 -0.450431558
| 47> H -4.4002256109 1.2549311011 -1.2152084479
| 48> H -4.5583487663 -1.7841211569 -1.5236670472
| 49> H -5.1666863487 -0.619020688 -2.7149187075
| 50> H -3.4386866041 -0.690489711 -2.3509513705
| 51> *
| 52>
| 53>                          ****END OF INPUT****

CARTESIAN COORDINATES (ANGSTROEM)
---------------------------------
  C      5.641804   -1.395986   -1.130206
  C      4.805466   -0.146904   -0.942989
  O      3.591357   -0.522458   -0.254638
  P      2.252439    0.306057   -0.409049
  S      1.781220    0.764276   -2.262375
  O      2.569682    1.552774    0.529496
  C      1.725412    2.709073    0.659944
  C      0.880533    2.616686    1.915167
  S      0.986886   -0.964857    0.677083
  C      0.002204   -1.648648   -0.707989
  S     -1.707100   -1.951561   -0.228925
  P     -2.235916    0.047414    0.298044
  S     -1.445304    1.492548   -0.757470
  O     -1.904573    0.193411    1.831787
  C     -2.406795   -0.726220    2.839368
  C     -1.260208   -1.513384    3.440112
  O     -3.826623    0.001041    0.319452
  C     -4.638238    0.254517   -0.840830
  C     -4.437908   -0.782013   -1.927359
  H      5.847937   -1.850060   -0.165416
  H      5.109788   -2.111986   -1.750277
  H      6.576873   -1.129470   -1.611969
  H      4.536035    0.305063   -1.903923
  H      5.320843    0.595270   -0.329204
  H      2.415396    3.553708    0.709500
  H      1.099186    2.804023   -0.233636
  H      1.515589    2.432901    2.777179
  H      0.344178    3.550553    2.049763
  H      0.155332    1.809221    1.830385
  H      0.412324   -2.611620   -1.001477
  H      0.037920   -0.933109   -1.534592
  H     -2.889086   -0.091471    3.584015
  H     -3.147587   -1.385815    2.382833
  H     -0.508427   -0.837094    3.836536
  H     -1.642214   -2.137240    4.241633
  H     -0.791624   -2.143218    2.687489
  H     -5.656832    0.237373   -0.450432
  H     -4.400226    1.254931   -1.215208
  H     -4.558349   -1.784121   -1.523667
  H     -5.166686   -0.619021   -2.714919
  H     -3.438687   -0.690490   -2.350951

 Total Charge           Charge          ....    0
 Multiplicity           Mult            ....    1
 Number of Electrons    NEL             ....  202
 Basis Dimension        Dim             ....  539

ORBITAL ENERGIES
----------------

  NO   OCC          E(Eh)            E(eV)
   0   2.0000     -88.580742     -2410.4045
   1   2.0000     -88.579098     -2410.3598
   2   2.0000     -88.525710     -2408.9070
   3   2.0000     -88.525494     -2408.9011
   4   2.0000     -76.918758     -2093.0658
   5   2.0000     -76.917278     -2093.0256
   6   2.0000     -18.994099      -516.8557
   7   2.0000     -18.993682      -516.8444
   8   2.0000     -18.992597      -516.8149
   9   2.0000     -18.989638      -516.7343
  10   2.0000     -10.104404      -274.9548
  11   2.0000     -10.092683      -274.6359
  12   2.0000     -10.090224      -274.5690
  13   2.0000     -10.087323      -274.4900
  14   2.0000     -10.087244      -274.4879
  15   2.0000     -10.018939      -272.6292
  16   2.0000     -10.018603      -272.6200
  17   2.0000     -10.018522      -272.6179
  18   2.0000     -10.014487      -272.5080
  19   2.0000      -7.875048      -214.2909
  20   2.0000      -7.873559      -214.2504
  21   2.0000      -7.820732      -212.8129
  22   2.0000      -7.820525      -212.8073
  23   2.0000      -6.597119      -179.5167
  24   2.0000      -6.595852      -179.4823
  25   2.0000      -5.822024      -158.4253
  26   2.0000      -5.820390      -158.3809
  27   2.0000      -5.818780      -158.3371
  28   2.0000      -5.817469      -158.3014
  29   2.0000      -5.812189      -158.1577
  30   2.0000      -5.810607      -158.1147
  31   2.0000      -5.768418      -156.9666
  32   2.0000      -5.768077      -156.9574
  33   2.0000      -5.760889      -156.7618
  34   2.0000      -5.760866      -156.7611
  35   2.0000      -5.760763      -156.7583
  36   2.0000      -5.760502      -156.7512
  37   2.0000      -4.742857      -129.0597
  38   2.0000      -4.742046      -129.0376
  39   2.0000      -4.741273      -129.0166
  40   2.0000      -4.740757      -129.0026
  41   2.0000      -4.740691      -129.0008
  42   2.0000      -4.739685      -128.9734
  43   2.0000      -1.052764       -28.6472
  44   2.0000      -1.050453       -28.5843
  45   2.0000      -1.010723       -27.5032
  46   2.0000      -1.009396       -27.4671
  47   2.0000      -0.802380       -21.8339
  48   2.0000      -0.756863       -20.5953
  49   2.0000      -0.745499       -20.2860
  50   2.0000      -0.724974       -19.7275
  51   2.0000      -0.721785       -19.6408
  52   2.0000      -0.710436       -19.3319
  53   2.0000      -0.688368       -18.7315
  54   2.0000      -0.670702       -18.2507
  55   2.0000      -0.628654       -17.1065
  56   2.0000      -0.615751       -16.7554
  57   2.0000      -0.602514       -16.3952
  58   2.0000      -0.596448       -16.2302
  59   2.0000      -0.586331       -15.9549
  60   2.0000      -0.526847       -14.3362
  61   2.0000      -0.522307       -14.2127
  62   2.0000      -0.494251       -13.4492
  63   2.0000      -0.487466       -13.2646
  64   2.0000      -0.466480       -12.6936
  65   2.0000      -0.464592       -12.6422
  66   2.0000      -0.455652       -12.3989
  67   2.0000      -0.451992       -12.2993
  68   2.0000      -0.442196       -12.0328
  69   2.0000      -0.431408       -11.7392
  70   2.0000      -0.424634       -11.5549
  71   2.0000      -0.410573       -11.1723
  72   2.0000      -0.404270       -11.0008
  73   2.0000      -0.399383       -10.8678
  74   2.0000      -0.387217       -10.5367
  75   2.0000      -0.385564       -10.4917
  76   2.0000      -0.380894       -10.3646
  77   2.0000      -0.368819       -10.0361
  78   2.0000      -0.363257        -9.8847
  79   2.0000      -0.359451        -9.7812
  80   2.0000      -0.354840        -9.6557
  81   2.0000      -0.354145        -9.6368
  82   2.0000      -0.346968        -9.4415
  83   2.0000      -0.344285        -9.3685
  84   2.0000      -0.343177        -9.3383
  85   2.0000      -0.325719        -8.8633
  86   2.0000      -0.320732        -8.7276
  87   2.0000      -0.312379        -8.5003
  88   2.0000      -0.307808        -8.3759
  89   2.0000      -0.304944        -8.2979
  90   2.0000      -0.300082        -8.1656
  91   2.0000      -0.286722        -7.8021
  92   2.0000      -0.284324        -7.7369
  93   2.0000      -0.279625        -7.6090
  94   2.0000      -0.276103        -7.5132
  95   2.0000      -0.248999        -6.7756
  96   2.0000      -0.243136        -6.6161
  97   2.0000      -0.233305        -6.3486
  98   2.0000      -0.222912        -6.0657
  99   2.0000      -0.219582        -5.9751
 100   2.0000      -0.210415        -5.7257
 101   0.0000      -0.050901        -1.3851
 102   0.0000      -0.041657        -1.1336
 103   0.0000      -0.013942        -0.3794
 104   0.0000       0.010577         0.2878
 105   0.0000       0.012138         0.3303

MULLIKEN ATOMIC CHARGES
-----------------------
   0 C :   -0.489024
   1 C :   -0.137159
   2 O :   -0.318791
   3 P :    0.715602
   4 S :   -0.520825
   5 O :   -0.308592
   6 C :   -0.139234
   7 C :   -0.486320
   8 S :   -0.135194
   9 C :   -0.233913
  10 S :   -0.145970
  11 P :    0.666070
  12 S :   -0.460982
  13 O :   -0.303120
  14 C :   -0.109289
  15 C :   -0.490649
  16 O :   -0.315054
  17 C :   -0.159511
  18 C :   -0.485777
  19 H :    0.165547
  20 H :    0.165852
  21 H :    0.169165
  22 H :    0.169039
  23 H :    0.172446
  24 H :    0.172193
  25 H :    0.166468
  26 H :    0.163548
  27 H :    0.168358
  28 H :    0.170855
  29 H :    0.231588
  30 H :    0.216697
  31 H :    0.178994
  32 H :    0.173695
  33 H :    0.171380
  34 H :    0.171325
  35 H :    0.160312
  36 H :    0.175028
  37 H :    0.178474
  38 H :    0.168425
  39 H :    0.173127
  40 H :    0.175217
Sum of atomic charges:   -0.0000000

LOEWDIN ATOMIC CHARGES
----------------------
   0 C :   -0.391163
   1 C :    0.026117
   2 O :   -0.692224
   3 P :    0.376374
   4 S :   -0.167122
   5 O :   -0.669359
   6 C :    0.022915
   7 C :   -0.410879
   8 S :    0.172411
   9 C :   -0.404345
  10 S :    0.146937
  11 P :    0.380842
  12 S :   -0.116237
  13 O :   -0.684410
  14 C :    0.030800
  15 C :   -0.402328
  16 O :   -0.680673
  17 C :    0.027084
  18 C :   -0.411661
  19 H :    0.162887
  20 H :    0.162113
  21 H :    0.168392
  22 H :    0.181743
  23 H :    0.180135
  24 H :    0.186500
  25 H :    0.181568
  26 H :    0.161693
  27 H :    0.168366
  28 H :    0.167901
  29 H :    0.194450
  30 H :    0.197740
  31 H :    0.190928
  32 H :    0.183762
  33 H :    0.164145
  34 H :    0.168493
  35 H :    0.160078
  36 H :    0.191189
  37 H :    0.181152
  38 H :    0.163500
  39 H :    0.168435
  40 H :    0.161750

  Mayer bond orders larger than 0.100000
B(  0-C ,  1-C ) :   0.9533 B(  0-C , 19-H ) :   0.9694 B(  0-C , 20-H ) :   0.9700
B(  0-C , 21-H ) :   0.9601 B(  1-C ,  2-O ) :   0.7552 B(  1-C , 22-H ) :   0.9454
B(  1-C , 23-H ) :   0.9379 B(  2-O ,  3-P ) :   1.1991 B(  3-P ,  4-S ) :   1.7142
B(  3-P ,  5-O ) :   1.0783 B(  3-P ,  8-S ) :   1.1042 B(  5-O ,  6-C ) :   0.7648
B(  6-C ,  7-C ) :   0.9354 B(  6-C , 24-H ) :   0.9564 B(  6-C , 25-H ) :   0.9541
B(  7-C , 26-H ) :   0.9708 B(  7-C , 27-H ) :   0.9615 B(  7-C , 28-H ) :   0.9562
B(  8-S ,  9-C ) :   0.8878 B(  9-C , 10-S ) :   0.9198 B(  9-C , 29-H ) :   0.8998
B(  9-C , 30-H ) :   0.9066 B( 10-S , 11-P ) :   1.0086 B( 11-P , 12-S ) :   1.8165
B( 11-P , 13-O ) :   1.1345 B( 11-P , 16-O ) :   1.0618 B( 13-O , 14-C ) :   0.7298
B( 14-C , 15-C ) :   0.9369 B( 14-C , 31-H ) :   0.9456 B( 14-C , 32-H ) :   0.9630
B( 15-C , 33-H ) :   0.9660 B( 15-C , 34-H ) :   0.9581 B( 15-C , 35-H ) :   0.9643
B( 16-O , 17-C ) :   0.8142 B( 17-C , 18-C ) :   0.9046 B( 17-C , 36-H ) :   0.9509
B( 17-C , 37-H ) :   0.9679 B( 18-C , 38-H ) :   0.9640 B( 18-C , 39-H ) :   0.9514
B( 18-C , 40-H ) :   0.9653

Dispersion correction           -0.021689415
FINAL SINGLE POINT ENERGY     -2932.466216370338

DIPOLE MOMENT
-------------

Method             : SCF
Type of density    : Electron Density
Multiplicity       :   1
Irrep              :   0
Energy             : -2932.4910834589577462 Eh
Relativity type    :
Basis              : AO
                                X                 Y                 Z
Electronic contribution:     -1.830486072       0.860857856      -5.821031458
Nuclear contribution   :      1.101968149      -1.950108829       7.071028620
                        -----------------------------------------
Total Dipole Moment    :     -0.728517922      -1.089250974       1.249997162
                        -----------------------------------------
Magnitude (a.u.)       :      1.810993913
Magnitude (Debye)      :      4.603180705

Rotational constants in cm-1:             0.012648             0.004863             0.004745
Rotational constants in MHz :           379.190566           145.801597           142.261187

                             ****ORCA TERMINATED NORMALLY****
TOTAL RUN TIME: 0 days 0 hours 1 minutes 48 seconds 675 msec
