                         Program Version 6.0.1  -  RELEASE   -
|  1> ! r2scan-3c def2/J RI DEFGRID2 scfconv6 printgap
|  2> %output
|  3>     printlevel normal
|  4> end
|  5> * xyz 0 1
|  6> C 5.6627869929 -1.4983849746 -0.2591589347
|  7> C 4.8169519763 -1.6725957539 -1.5102612692
|  8> O 3.4757026575 -2.0802072929 -1.1711962793
|  9> C 2.5920150656 -1.1540355137 -0.8722018647
| 10> O 2.8050558455 0.0415268399 -0.8994478688
| 11> C 1.2605340889 -1.7537887132 -0.4746550503
| 12> C 0.1960349107 -0.6712081511 -0.5358919752
| 13> H -0.0469827425 -0.3826769411 -1.5629132382
| 14> C 0.599406236 0.5802563804 0.2213569006
| 15> O 0.3735690113 1.6968653352 -0.192781075
| 16> O 1.0842730627 0.2960992967 1.4122302193
| 17> C 1.5091893314 1.3825695192 2.2574960623
| 18> C 3.011618725 1.5797159031 2.1414305996
| 19> S -1.3419344568 -1.2447705802 0.2632065051
| 20> P -2.4975903443 0.5019536753 -0.1000236359
| 21> S -2.3790331247 1.2554604749 -1.8985547551
| 22> O -3.9563737112 0.0110999331 0.3231656243
| 23> C -4.6940081823 -0.9056865186 -0.4961508873
| 24> O -2.1848693101 1.5224491787 1.068877333
| 25> C -2.4050527617 1.1819115013 2.4552585813
| 26> H 5.2723303364 -0.6826753152 0.3452752946
| 27> H 5.6548315078 -2.4124291903 0.3277858923
| 28> H 6.682709101 -1.2649473964 -0.5460696026
| 29> H 5.1941801571 -2.4799492989 -2.137636206
| 30> H 4.7654890249 -0.7392071197 -2.0780972502
| 31> H 1.3519706478 -2.12750114 0.548158983
| 32> H 1.0158606595 -2.5915864003 -1.1259199571
| 33> H 0.9708729325 2.2857870487 1.9557246438
| 34> H 1.2226186951 1.0817247486 3.266170456
| 35> H 3.5338533432 0.6890722747 2.4799474419
| 36> H 3.2762741414 1.7698433802 1.1028150328
| 37> H 3.3133732283 2.4271817298 2.747702592
| 38> H -5.7207304401 -0.8513030258 -0.1436518972
| 39> H -4.2944482113 -1.9113222001 -0.3715487379
| 40> H -4.6320255251 -0.604691332 -1.5429191378
| 41> H -1.9575343755 1.9948072512 3.0214053897
| 42> H -1.9231776394 0.2317405678 2.6889803671
| 43> H -3.4736296782 1.115953491 2.6482296091
| 44> *
| 45>
| 46>                          ****END OF INPUT****

CARTESIAN COORDINATES (ANGSTROEM)
---------------------------------
  C      5.662787   -1.498385   -0.259159
  C      4.816952   -1.672596   -1.510261
  O      3.475703   -2.080207   -1.171196
  C      2.592015   -1.154036   -0.872202
  O      2.805056    0.041527   -0.899448
  C      1.260534   -1.753789   -0.474655
  C      0.196035   -0.671208   -0.535892
  H     -0.046983   -0.382677   -1.562913
  C      0.599406    0.580256    0.221357
  O      0.373569    1.696865   -0.192781
  O      1.084273    0.296099    1.412230
  C      1.509189    1.382570    2.257496
  C      3.011619    1.579716    2.141431
  S     -1.341934   -1.244771    0.263207
  P     -2.497590    0.501954   -0.100024
  S     -2.379033    1.255460   -1.898555
  O     -3.956374    0.011100    0.323166
  C     -4.694008   -0.905687   -0.496151
  O     -2.184869    1.522449    1.068877
  C     -2.405053    1.181912    2.455259
  H      5.272330   -0.682675    0.345275
  H      5.654832   -2.412429    0.327786
  H      6.682709   -1.264947   -0.546070
  H      5.194180   -2.479949   -2.137636
  H      4.765489   -0.739207   -2.078097
  H      1.351971   -2.127501    0.548159
  H      1.015861   -2.591586   -1.125920
  H      0.970873    2.285787    1.955725
  H      1.222619    1.081725    3.266170
  H      3.533853    0.689072    2.479947
  H      3.276274    1.769843    1.102815
  H      3.313373    2.427182    2.747703
  H     -5.720730   -0.851303   -0.143652
  H     -4.294448   -1.911322   -0.371549
  H     -4.632026   -0.604691   -1.542919
  H     -1.957534    1.994807    3.021405
  H     -1.923178    0.231741    2.688980
  H     -3.473630    1.115953    2.648230

 Total Charge           Charge          ....    0
 Multiplicity           Mult            ....    1
 Number of Electrons    NEL             ....  174
 Basis Dimension        Dim             ....  510

ORBITAL ENERGIES
----------------

  NO   OCC          E(Eh)            E(eV)
   0   2.0000     -88.575305     -2410.2566
   1   2.0000     -88.509439     -2408.4643
   2   2.0000     -76.908663     -2092.7911
   3   2.0000     -19.013384      -517.3805
   4   2.0000     -18.993271      -516.8332
   5   2.0000     -18.991106      -516.7743
   6   2.0000     -18.989385      -516.7274
   7   2.0000     -18.946417      -515.5582
   8   2.0000     -18.917043      -514.7589
   9   2.0000     -10.171766      -276.7878
  10   2.0000     -10.150386      -276.2061
  11   2.0000     -10.103461      -274.9292
  12   2.0000     -10.094033      -274.6726
  13   2.0000     -10.091148      -274.5941
  14   2.0000     -10.089686      -274.5543
  15   2.0000     -10.088961      -274.5346
  16   2.0000     -10.066929      -273.9351
  17   2.0000     -10.038808      -273.1699
  18   2.0000     -10.024971      -272.7933
  19   2.0000      -7.869598      -214.1427
  20   2.0000      -7.803936      -212.3559
  21   2.0000      -6.586937      -179.2397
  22   2.0000      -5.816183      -158.2664
  23   2.0000      -5.813557      -158.1949
  24   2.0000      -5.806915      -158.0142
  25   2.0000      -5.751843      -156.5156
  26   2.0000      -5.744102      -156.3050
  27   2.0000      -5.743855      -156.2982
  28   2.0000      -4.732832      -128.7869
  29   2.0000      -4.732054      -128.7657
  30   2.0000      -4.730137      -128.7136
  31   2.0000      -1.090745       -29.6807
  32   2.0000      -1.070137       -29.1199
  33   2.0000      -1.048081       -28.5197
  34   2.0000      -1.006067       -27.3765
  35   2.0000      -0.995073       -27.0773
  36   2.0000      -0.969565       -26.3832
  37   2.0000      -0.812148       -22.0997
  38   2.0000      -0.762101       -20.7378
  39   2.0000      -0.739615       -20.1259
  40   2.0000      -0.731213       -19.8973
  41   2.0000      -0.700699       -19.0670
  42   2.0000      -0.675688       -18.3864
  43   2.0000      -0.656520       -17.8648
  44   2.0000      -0.644063       -17.5258
  45   2.0000      -0.632238       -17.2041
  46   2.0000      -0.596085       -16.2203
  47   2.0000      -0.540549       -14.7091
  48   2.0000      -0.535712       -14.5775
  49   2.0000      -0.522632       -14.2216
  50   2.0000      -0.500002       -13.6058
  51   2.0000      -0.492806       -13.4099
  52   2.0000      -0.484122       -13.1736
  53   2.0000      -0.464475       -12.6390
  54   2.0000      -0.460301       -12.5254
  55   2.0000      -0.453589       -12.3428
  56   2.0000      -0.448779       -12.2119
  57   2.0000      -0.438199       -11.9240
  58   2.0000      -0.431726       -11.7478
  59   2.0000      -0.430700       -11.7199
  60   2.0000      -0.422223       -11.4893
  61   2.0000      -0.417963       -11.3734
  62   2.0000      -0.410557       -11.1718
  63   2.0000      -0.405069       -11.0225
  64   2.0000      -0.392118       -10.6701
  65   2.0000      -0.384593       -10.4653
  66   2.0000      -0.377309       -10.2671
  67   2.0000      -0.373996       -10.1770
  68   2.0000      -0.360770        -9.8170
  69   2.0000      -0.353880        -9.6296
  70   2.0000      -0.348239        -9.4761
  71   2.0000      -0.343966        -9.3598
  72   2.0000      -0.335230        -9.1221
  73   2.0000      -0.331173        -9.0117
  74   2.0000      -0.321181        -8.7398
  75   2.0000      -0.318158        -8.6575
  76   2.0000      -0.312886        -8.5141
  77   2.0000      -0.303231        -8.2513
  78   2.0000      -0.287514        -7.8237
  79   2.0000      -0.285835        -7.7780
  80   2.0000      -0.276054        -7.5118
  81   2.0000      -0.264176        -7.1886
  82   2.0000      -0.253652        -6.9022
  83   2.0000      -0.246535        -6.7086
  84   2.0000      -0.228963        -6.2304
  85   2.0000      -0.205503        -5.5920
  86   2.0000      -0.199580        -5.4308
  87   0.0000      -0.043805        -1.1920
  88   0.0000      -0.028958        -0.7880
  89   0.0000      -0.012365        -0.3365
  90   0.0000       0.011952         0.3252
  91   0.0000       0.023846         0.6489

MULLIKEN ATOMIC CHARGES
-----------------------
   0 C :   -0.469856
   1 C :   -0.136637
   2 O :   -0.166881
   3 C :    0.391580
   4 O :   -0.397794
   5 C :   -0.373135
   6 C :   -0.117717
   7 H :    0.255229
   8 C :    0.285882
   9 O :   -0.361056
  10 O :   -0.131959
  11 C :   -0.140964
  12 C :   -0.498811
  13 S :   -0.229716
  14 P :    0.732070
  15 S :   -0.406523
  16 O :   -0.334185
  17 C :   -0.295175
  18 O :   -0.298109
  19 C :   -0.280773
  20 H :    0.170507
  21 H :    0.154964
  22 H :    0.151560
  23 H :    0.152369
  24 H :    0.171491
  25 H :    0.198031
  26 H :    0.180582
  27 H :    0.186996
  28 H :    0.144353
  29 H :    0.146009
  30 H :    0.191181
  31 H :    0.145603
  32 H :    0.151541
  33 H :    0.153515
  34 H :    0.180426
  35 H :    0.156930
  36 H :    0.172708
  37 H :    0.165761
Sum of atomic charges:   -0.0000000

LOEWDIN ATOMIC CHARGES
----------------------
   0 C :   -0.387970
   1 C :    0.032462
   2 O :   -0.575578
   3 C :    0.378552
   4 O :   -0.423393
   5 C :   -0.208942
   6 C :   -0.189714
   7 H :    0.207517
   8 C :    0.328536
   9 O :   -0.410985
  10 O :   -0.596977
  11 C :    0.029978
  12 C :   -0.390810
  13 S :    0.178778
  14 P :    0.382097
  15 S :   -0.067263
  16 O :   -0.683275
  17 C :   -0.057946
  18 O :   -0.643238
  19 C :   -0.052912
  20 H :    0.164766
  21 H :    0.158491
  22 H :    0.161365
  23 H :    0.180285
  24 H :    0.189759
  25 H :    0.200726
  26 H :    0.188422
  27 H :    0.195887
  28 H :    0.174656
  29 H :    0.154071
  30 H :    0.174709
  31 H :    0.157622
  32 H :    0.176864
  33 H :    0.167352
  34 H :    0.179301
  35 H :    0.179234
  36 H :    0.173446
  37 H :    0.174129

  Mayer bond orders larger than 0.100000
B(  0-C ,  1-C ) :   0.9374 B(  0-C , 20-H ) :   0.9699 B(  0-C , 21-H ) :   0.9736
B(  0-C , 22-H ) :   0.9635 B(  1-C ,  2-O ) :   0.7977 B(  1-C , 23-H ) :   0.9610
B(  1-C , 24-H ) :   0.9666 B(  2-O ,  3-C ) :   1.1351 B(  3-C ,  4-O ) :   1.7476
B(  3-C ,  5-C ) :   1.0014 B(  4-O ,  8-C ) :   0.1148 B(  5-C ,  6-C ) :   0.9493
B(  5-C , 10-O ) :   0.1252 B(  5-C , 25-H ) :   0.9430 B(  5-C , 26-H ) :   0.9384
B(  6-C ,  7-H ) :   0.9802 B(  6-C ,  8-C ) :   0.8482 B(  6-C , 13-S ) :   0.8577
B(  8-C ,  9-O ) :   1.8890 B(  8-C , 10-O ) :   1.0762 B( 10-O , 11-C ) :   0.7803
B( 11-C , 12-C ) :   0.9285 B( 11-C , 27-H ) :   0.9704 B( 11-C , 28-H ) :   0.9601
B( 12-C , 29-H ) :   0.9745 B( 12-C , 30-H ) :   0.9691 B( 12-C , 31-H ) :   0.9650
B( 13-S , 14-P ) :   0.9597 B( 14-P , 15-S ) :   1.8880 B( 14-P , 16-O ) :   1.0347
B( 14-P , 18-O ) :   1.1319 B( 16-O , 17-C ) :   0.8282 B( 17-C , 32-H ) :   0.9679
B( 17-C , 33-H ) :   0.9578 B( 17-C , 34-H ) :   0.9577 B( 18-O , 19-C ) :   0.7928
B( 19-C , 35-H ) :   0.9653 B( 19-C , 36-H ) :   0.9577 B( 19-C , 37-H ) :   0.9594

Dispersion correction           -0.017409740
FINAL SINGLE POINT ENERGY     -1981.449394672583

DIPOLE MOMENT
-------------

Method             : SCF
Type of density    : Electron Density
Multiplicity       :   1
Irrep              :   0
Energy             : -1981.4689657514559258 Eh
Relativity type    :
Basis              : AO
                                X                 Y                 Z
Electronic contribution:    -20.402407215       2.866536270      -9.602218472
Nuclear contribution   :     21.319522555      -4.603679962      11.049501031
                        -----------------------------------------
Total Dipole Moment    :      0.917115341      -1.737143692       1.447282560
                        -----------------------------------------
Magnitude (a.u.)       :      2.439958107
Magnitude (Debye)      :      6.201880636

Rotational constants in cm-1:             0.017853             0.005625             0.005008
Rotational constants in MHz :           535.213111           168.645020           150.142361

                             ****ORCA TERMINATED NORMALLY****
TOTAL RUN TIME: 0 days 0 hours 1 minutes 18 seconds 24 msec
