                         Program Version 6.0.1  -  RELEASE   -
|  1> ! r2scan-3c def2/J RI DEFGRID2 scfconv6 printgap
|  2> %output
|  3>     printlevel normal
|  4> end
|  5> %cpcm
|  6>     smd true
|  7>     smdsolvent "water"
|  8> end
|  9> * xyz 0 1
| 10> C 5.6627869929 -1.4983849746 -0.2591589347
| 11> C 4.8169519763 -1.6725957539 -1.5102612692
| 12> O 3.4757026575 -2.0802072929 -1.1711962793
| 13> C 2.5920150656 -1.1540355137 -0.8722018647
| 14> O 2.8050558455 0.0415268399 -0.8994478688
| 15> C 1.2605340889 -1.7537887132 -0.4746550503
| 16> C 0.1960349107 -0.6712081511 -0.5358919752
| 17> H -0.0469827425 -0.3826769411 -1.5629132382
| 18> C 0.599406236 0.5802563804 0.2213569006
| 19> O 0.3735690113 1.6968653352 -0.192781075
| 20> O 1.0842730627 0.2960992967 1.4122302193
| 21> C 1.5091893314 1.3825695192 2.2574960623
| 22> C 3.011618725 1.5797159031 2.1414305996
| 23> S -1.3419344568 -1.2447705802 0.2632065051
| 24> P -2.4975903443 0.5019536753 -0.1000236359
| 25> S -2.3790331247 1.2554604749 -1.8985547551
| 26> O -3.9563737112 0.0110999331 0.3231656243
| 27> C -4.6940081823 -0.9056865186 -0.4961508873
| 28> O -2.1848693101 1.5224491787 1.068877333
| 29> C -2.4050527617 1.1819115013 2.4552585813
| 30> H 5.2723303364 -0.6826753152 0.3452752946
| 31> H 5.6548315078 -2.4124291903 0.3277858923
| 32> H 6.682709101 -1.2649473964 -0.5460696026
| 33> H 5.1941801571 -2.4799492989 -2.137636206
| 34> H 4.7654890249 -0.7392071197 -2.0780972502
| 35> H 1.3519706478 -2.12750114 0.548158983
| 36> H 1.0158606595 -2.5915864003 -1.1259199571
| 37> H 0.9708729325 2.2857870487 1.9557246438
| 38> H 1.2226186951 1.0817247486 3.266170456
| 39> H 3.5338533432 0.6890722747 2.4799474419
| 40> H 3.2762741414 1.7698433802 1.1028150328
| 41> H 3.3133732283 2.4271817298 2.747702592
| 42> H -5.7207304401 -0.8513030258 -0.1436518972
| 43> H -4.2944482113 -1.9113222001 -0.3715487379
| 44> H -4.6320255251 -0.604691332 -1.5429191378
| 45> H -1.9575343755 1.9948072512 3.0214053897
| 46> H -1.9231776394 0.2317405678 2.6889803671
| 47> H -3.4736296782 1.115953491 2.6482296091
| 48> *
| 49>
| 50>                          ****END OF INPUT****

CARTESIAN COORDINATES (ANGSTROEM)
---------------------------------
  C      5.662787   -1.498385   -0.259159
  C      4.816952   -1.672596   -1.510261
  O      3.475703   -2.080207   -1.171196
  C      2.592015   -1.154036   -0.872202
  O      2.805056    0.041527   -0.899448
  C      1.260534   -1.753789   -0.474655
  C      0.196035   -0.671208   -0.535892
  H     -0.046983   -0.382677   -1.562913
  C      0.599406    0.580256    0.221357
  O      0.373569    1.696865   -0.192781
  O      1.084273    0.296099    1.412230
  C      1.509189    1.382570    2.257496
  C      3.011619    1.579716    2.141431
  S     -1.341934   -1.244771    0.263207
  P     -2.497590    0.501954   -0.100024
  S     -2.379033    1.255460   -1.898555
  O     -3.956374    0.011100    0.323166
  C     -4.694008   -0.905687   -0.496151
  O     -2.184869    1.522449    1.068877
  C     -2.405053    1.181912    2.455259
  H      5.272330   -0.682675    0.345275
  H      5.654832   -2.412429    0.327786
  H      6.682709   -1.264947   -0.546070
  H      5.194180   -2.479949   -2.137636
  H      4.765489   -0.739207   -2.078097
  H      1.351971   -2.127501    0.548159
  H      1.015861   -2.591586   -1.125920
  H      0.970873    2.285787    1.955725
  H      1.222619    1.081725    3.266170
  H      3.533853    0.689072    2.479947
  H      3.276274    1.769843    1.102815
  H      3.313373    2.427182    2.747703
  H     -5.720730   -0.851303   -0.143652
  H     -4.294448   -1.911322   -0.371549
  H     -4.632026   -0.604691   -1.542919
  H     -1.957534    1.994807    3.021405
  H     -1.923178    0.231741    2.688980
  H     -3.473630    1.115953    2.648230

 Total Charge           Charge          ....    0
 Multiplicity           Mult            ....    1
 Number of Electrons    NEL             ....  174
 Basis Dimension        Dim             ....  510

ORBITAL ENERGIES
----------------

  NO   OCC          E(Eh)            E(eV)
   0   2.0000     -88.584022     -2410.4938
   1   2.0000     -88.529320     -2409.0053
   2   2.0000     -76.922179     -2093.1589
   3   2.0000     -19.010683      -517.3070
   4   2.0000     -19.005012      -517.1527
   5   2.0000     -18.999847      -517.0121
   6   2.0000     -18.997958      -516.9607
   7   2.0000     -18.953673      -515.7557
   8   2.0000     -18.942785      -515.4594
   9   2.0000     -10.175393      -276.8865
  10   2.0000     -10.170902      -276.7643
  11   2.0000     -10.095579      -274.7147
  12   2.0000     -10.087378      -274.4915
  13   2.0000     -10.085329      -274.4358
  14   2.0000     -10.084919      -274.4246
  15   2.0000     -10.083392      -274.3831
  16   2.0000     -10.060281      -273.7542
  17   2.0000     -10.019830      -272.6534
  18   2.0000     -10.018468      -272.6164
  19   2.0000      -7.878168      -214.3758
  20   2.0000      -7.824302      -212.9101
  21   2.0000      -6.600565      -179.6105
  22   2.0000      -5.824795      -158.5007
  23   2.0000      -5.822201      -158.4301
  24   2.0000      -5.815385      -158.2447
  25   2.0000      -5.772043      -157.0653
  26   2.0000      -5.764515      -156.8604
  27   2.0000      -5.764242      -156.8530
  28   2.0000      -4.746412      -129.1564
  29   2.0000      -4.745591      -129.1341
  30   2.0000      -4.743953      -129.0895
  31   2.0000      -1.090600       -29.6767
  32   2.0000      -1.083807       -29.4919
  33   2.0000      -1.056353       -28.7448
  34   2.0000      -1.013541       -27.5799
  35   2.0000      -1.000056       -27.2129
  36   2.0000      -0.992839       -27.0165
  37   2.0000      -0.816152       -22.2086
  38   2.0000      -0.754224       -20.5235
  39   2.0000      -0.741359       -20.1734
  40   2.0000      -0.729422       -19.8486
  41   2.0000      -0.699420       -19.0322
  42   2.0000      -0.673109       -18.3162
  43   2.0000      -0.661431       -17.9985
  44   2.0000      -0.649453       -17.6725
  45   2.0000      -0.625911       -17.0319
  46   2.0000      -0.596132       -16.2216
  47   2.0000      -0.542716       -14.7681
  48   2.0000      -0.529238       -14.4013
  49   2.0000      -0.523743       -14.2518
  50   2.0000      -0.500683       -13.6243
  51   2.0000      -0.495464       -13.4822
  52   2.0000      -0.485130       -13.2011
  53   2.0000      -0.468934       -12.7603
  54   2.0000      -0.461259       -12.5515
  55   2.0000      -0.459062       -12.4917
  56   2.0000      -0.450671       -12.2634
  57   2.0000      -0.448107       -12.1936
  58   2.0000      -0.436813       -11.8863
  59   2.0000      -0.428862       -11.6699
  60   2.0000      -0.421317       -11.4646
  61   2.0000      -0.415303       -11.3010
  62   2.0000      -0.409089       -11.1319
  63   2.0000      -0.405907       -11.0453
  64   2.0000      -0.389298       -10.5933
  65   2.0000      -0.382487       -10.4080
  66   2.0000      -0.376522       -10.2457
  67   2.0000      -0.364375        -9.9151
  68   2.0000      -0.361745        -9.8436
  69   2.0000      -0.352711        -9.5977
  70   2.0000      -0.347671        -9.4606
  71   2.0000      -0.342739        -9.3264
  72   2.0000      -0.336277        -9.1506
  73   2.0000      -0.334137        -9.0923
  74   2.0000      -0.323255        -8.7962
  75   2.0000      -0.317486        -8.6392
  76   2.0000      -0.308959        -8.4072
  77   2.0000      -0.305589        -8.3155
  78   2.0000      -0.291985        -7.9453
  79   2.0000      -0.286556        -7.7976
  80   2.0000      -0.283631        -7.7180
  81   2.0000      -0.276784        -7.5317
  82   2.0000      -0.265211        -7.2168
  83   2.0000      -0.260846        -7.0980
  84   2.0000      -0.247771        -6.7422
  85   2.0000      -0.225929        -6.1478
  86   2.0000      -0.220997        -6.0136
  87   0.0000      -0.054448        -1.4816
  88   0.0000      -0.031691        -0.8624
  89   0.0000      -0.027642        -0.7522
  90   0.0000       0.000609         0.0166
  91   0.0000       0.015908         0.4329

MULLIKEN ATOMIC CHARGES
-----------------------
   0 C :   -0.496131
   1 C :   -0.140857
   2 O :   -0.179272
   3 C :    0.425060
   4 O :   -0.464526
   5 C :   -0.371588
   6 C :   -0.123972
   7 H :    0.271038
   8 C :    0.273529
   9 O :   -0.440719
  10 O :   -0.146854
  11 C :   -0.123089
  12 C :   -0.528906
  13 S :   -0.206945
  14 P :    0.750423
  15 S :   -0.481782
  16 O :   -0.356534
  17 C :   -0.304823
  18 O :   -0.339267
  19 C :   -0.285971
  20 H :    0.169677
  21 H :    0.168088
  22 H :    0.172772
  23 H :    0.177624
  24 H :    0.175457
  25 H :    0.228750
  26 H :    0.211216
  27 H :    0.181996
  28 H :    0.177580
  29 H :    0.171275
  30 H :    0.175523
  31 H :    0.171131
  32 H :    0.181200
  33 H :    0.176560
  34 H :    0.179534
  35 H :    0.184969
  36 H :    0.184446
  37 H :    0.183389
Sum of atomic charges:    0.0000000

LOEWDIN ATOMIC CHARGES
----------------------
   0 C :   -0.390603
   1 C :    0.037964
   2 O :   -0.573454
   3 C :    0.390970
   4 O :   -0.470542
   5 C :   -0.199668
   6 C :   -0.187670
   7 H :    0.209552
   8 C :    0.329019
   9 O :   -0.480531
  10 O :   -0.592719
  11 C :    0.038412
  12 C :   -0.392137
  13 S :    0.201330
  14 P :    0.383355
  15 S :   -0.126191
  16 O :   -0.688598
  17 C :   -0.051067
  18 O :   -0.670016
  19 C :   -0.041824
  20 H :    0.163140
  21 H :    0.163179
  22 H :    0.169015
  23 H :    0.191225
  24 H :    0.191085
  25 H :    0.211862
  26 H :    0.203452
  27 H :    0.194586
  28 H :    0.189809
  29 H :    0.162555
  30 H :    0.166844
  31 H :    0.167529
  32 H :    0.189746
  33 H :    0.176948
  34 H :    0.179047
  35 H :    0.191538
  36 H :    0.180328
  37 H :    0.182532

  Mayer bond orders larger than 0.100000
B(  0-C ,  1-C ) :   0.9355 B(  0-C , 20-H ) :   0.9671 B(  0-C , 21-H ) :   0.9697
B(  0-C , 22-H ) :   0.9590 B(  1-C ,  2-O ) :   0.7805 B(  1-C , 23-H ) :   0.9517
B(  1-C , 24-H ) :   0.9628 B(  2-O ,  3-C ) :   1.1560 B(  3-C ,  4-O ) :   1.7025
B(  3-C ,  5-C ) :   1.0075 B(  4-O ,  8-C ) :   0.1212 B(  5-C ,  6-C ) :   0.9589
B(  5-C , 10-O ) :   0.1084 B(  5-C , 25-H ) :   0.9377 B(  5-C , 26-H ) :   0.9173
B(  6-C ,  7-H ) :   0.9640 B(  6-C ,  8-C ) :   0.8549 B(  6-C , 13-S ) :   0.8468
B(  8-C ,  9-O ) :   1.8244 B(  8-C , 10-O ) :   1.0897 B( 10-O , 11-C ) :   0.7673
B( 11-C , 12-C ) :   0.9142 B( 11-C , 27-H ) :   0.9656 B( 11-C , 28-H ) :   0.9480
B( 12-C , 29-H ) :   0.9692 B( 12-C , 30-H ) :   0.9708 B( 12-C , 31-H ) :   0.9590
B( 13-S , 14-P ) :   0.9863 B( 14-P , 15-S ) :   1.8423 B( 14-P , 16-O ) :   1.0488
B( 14-P , 18-O ) :   1.1371 B( 16-O , 17-C ) :   0.8178 B( 17-C , 32-H ) :   0.9571
B( 17-C , 33-H ) :   0.9496 B( 17-C , 34-H ) :   0.9548 B( 18-O , 19-C ) :   0.7833
B( 19-C , 35-H ) :   0.9537 B( 19-C , 36-H ) :   0.9482 B( 19-C , 37-H ) :   0.9505

Dispersion correction           -0.017409740
FINAL SINGLE POINT ENERGY     -1981.469670309386

DIPOLE MOMENT
-------------

Method             : SCF
Type of density    : Electron Density
Multiplicity       :   1
Irrep              :   0
Energy             : -1981.4892413882591882 Eh
Relativity type    :
Basis              : AO
                                X                 Y                 Z
Electronic contribution:    -20.287826743       1.737839820      -8.834231857
Nuclear contribution   :     21.319522555      -4.603679962      11.049501031
                        -----------------------------------------
Total Dipole Moment    :      1.031695813      -2.865840141       2.215269174
                        -----------------------------------------
Magnitude (a.u.)       :      3.766278465
Magnitude (Debye)      :      9.573119070

Rotational constants in cm-1:             0.017853             0.005625             0.005008
Rotational constants in MHz :           535.213111           168.645020           150.142361

                             ****ORCA TERMINATED NORMALLY****
TOTAL RUN TIME: 0 days 0 hours 1 minutes 44 seconds 958 msec
