                         Program Version 6.0.0  -   RELEASE  -
|  1> ! pbe def2-sv(p) def2/J RI DEFGRID1 loosescf d4 GCP(DFT/SV(P)) printgap
|  2> %output
|  3>     printlevel normal
|  4> end
|  5> * xyz 0 1
|  6> C 1.3027208325 -0.1094519415 -3.2012245892
|  7> C 2.3809119538 0.463947417 -2.3026278466
|  8> O 2.7761212882 -0.5054549255 -1.3193512393
|  9> P 2.4056427821 -0.4294535931 0.2164519434
| 10> S 2.5494719624 1.3557026713 1.0284096865
| 11> O 3.4765731179 -1.5117822216 0.6515445465
| 12> C 3.4143023789 -2.2836193121 1.8636975156
| 13> C 3.5091006735 -1.4220854976 3.1073674976
| 14> S 0.5417211414 -1.4207687812 0.4517727514
| 15> C -0.2590983057 -0.3148406953 1.6707189635
| 16> S -2.0372267219 -0.2167947441 1.4193876636
| 17> P -2.0122717687 0.6824411286 -0.5133640372
| 18> S -0.5826051957 1.9828249141 -0.8342918641
| 19> O -3.5167077829 1.1649035105 -0.6872711481
| 20> C -4.2693346021 1.919755007 0.2806595764
| 21> C -3.5738148177 3.1993515185 0.6948755439
| 22> O -1.9299296451 -0.4548693934 -1.6023458155
| 23> C -2.8819905599 -1.5408939837 -1.7433121984
| 24> C -2.3421562456 -2.8178877374 -1.130548492
| 25> H 1.6341426234 -1.055777198 -3.6189450648
| 26> H 0.3840781148 -0.2694547063 -2.640004512
| 27> H 1.0998882865 0.5931771567 -4.0030971954
| 28> H 2.0379398437 1.3780451409 -1.8045612364
| 29> H 3.2889128079 0.6839528867 -2.8679934708
| 30> H 2.4867517148 -2.864548784 1.8595173926
| 31> H 4.2689998551 -2.9572617412 1.7813470023
| 32> H 3.5245075019 -2.0577356349 3.9868473107
| 33> H 4.4143903855 -0.8206539826 3.0805301011
| 34> H 2.6564399239 -0.7469682478 3.1666536674
| 35> H 0.1908986771 0.6782025383 1.5747490561
| 36> H -0.1213434429 -0.7193325286 2.6704973974
| 37> H -5.2102656664 2.1263425588 -0.2324445487
| 38> H -4.4495429893 1.2791438276 1.14828671
| 39> H -3.3395544228 3.8044529778 -0.1780259812
| 40> H -4.2195588924 3.7628886897 1.3605190135
| 41> H -2.6427818444 2.9724410272 1.212900113
| 42> H -3.8284800955 -1.2465434885 -1.2868510902
| 43> H -3.0109464767 -1.6432742572 -2.8220166524
| 44> H -1.3651596033 -3.0499903414 -1.5457102815
| 45> H -2.2428942287 -2.7197143369 -0.0524438304
| 46> H -3.0276292824 -3.6297758541 -1.3515552976
| 47> *
| 48>
| 49>                          ****END OF INPUT****

CARTESIAN COORDINATES (ANGSTROEM)
---------------------------------
  C      1.302721   -0.109452   -3.201225
  C      2.380912    0.463947   -2.302628
  O      2.776121   -0.505455   -1.319351
  P      2.405643   -0.429454    0.216452
  S      2.549472    1.355703    1.028410
  O      3.476573   -1.511782    0.651545
  C      3.414302   -2.283619    1.863698
  C      3.509101   -1.422085    3.107367
  S      0.541721   -1.420769    0.451773
  C     -0.259098   -0.314841    1.670719
  S     -2.037227   -0.216795    1.419388
  P     -2.012272    0.682441   -0.513364
  S     -0.582605    1.982825   -0.834292
  O     -3.516708    1.164904   -0.687271
  C     -4.269335    1.919755    0.280660
  C     -3.573815    3.199352    0.694876
  O     -1.929930   -0.454869   -1.602346
  C     -2.881991   -1.540894   -1.743312
  C     -2.342156   -2.817888   -1.130548
  H      1.634143   -1.055777   -3.618945
  H      0.384078   -0.269455   -2.640005
  H      1.099888    0.593177   -4.003097
  H      2.037940    1.378045   -1.804561
  H      3.288913    0.683953   -2.867993
  H      2.486752   -2.864549    1.859517
  H      4.269000   -2.957262    1.781347
  H      3.524508   -2.057736    3.986847
  H      4.414390   -0.820654    3.080530
  H      2.656440   -0.746968    3.166654
  H      0.190899    0.678203    1.574749
  H     -0.121343   -0.719333    2.670497
  H     -5.210266    2.126343   -0.232445
  H     -4.449543    1.279144    1.148287
  H     -3.339554    3.804453   -0.178026
  H     -4.219559    3.762889    1.360519
  H     -2.642782    2.972441    1.212900
  H     -3.828480   -1.246543   -1.286851
  H     -3.010946   -1.643274   -2.822017
  H     -1.365160   -3.049990   -1.545710
  H     -2.242894   -2.719714   -0.052444
  H     -3.027629   -3.629776   -1.351555

 Total Charge           Charge          ....    0
 Multiplicity           Mult            ....    1
 Number of Electrons    NEL             ....  202
 Basis Dimension        Dim             ....  334

ORBITAL ENERGIES
----------------

  NO   OCC          E(Eh)            E(eV)
   0   2.0000     -88.052706     -2396.0360
   1   2.0000     -88.043578     -2395.7876
   2   2.0000     -87.982965     -2394.1382
   3   2.0000     -87.980767     -2394.0784
   4   2.0000     -76.429808     -2079.7608
   5   2.0000     -76.421347     -2079.5306
   6   2.0000     -18.799193      -511.5521
   7   2.0000     -18.794048      -511.4120
   8   2.0000     -18.783586      -511.1274
   9   2.0000     -18.780505      -511.0435
  10   2.0000      -9.963062      -271.1087
  11   2.0000      -9.958412      -270.9822
  12   2.0000      -9.956932      -270.9419
  13   2.0000      -9.951707      -270.7997
  14   2.0000      -9.935927      -270.3703
  15   2.0000      -9.886683      -269.0303
  16   2.0000      -9.885625      -269.0015
  17   2.0000      -9.882120      -268.9061
  18   2.0000      -9.865753      -268.4608
  19   2.0000      -7.697487      -209.4593
  20   2.0000      -7.687782      -209.1952
  21   2.0000      -7.627811      -207.5633
  22   2.0000      -7.625753      -207.5073
  23   2.0000      -6.426726      -174.8801
  24   2.0000      -6.418451      -174.6549
  25   2.0000      -5.725255      -155.7921
  26   2.0000      -5.721808      -155.6983
  27   2.0000      -5.715601      -155.5294
  28   2.0000      -5.714814      -155.5080
  29   2.0000      -5.712250      -155.4382
  30   2.0000      -5.704964      -155.2400
  31   2.0000      -5.656946      -153.9333
  32   2.0000      -5.654668      -153.8713
  33   2.0000      -5.648185      -153.6949
  34   2.0000      -5.647995      -153.6897
  35   2.0000      -5.646308      -153.6439
  36   2.0000      -5.645980      -153.6349
  37   2.0000      -4.649567      -126.5212
  38   2.0000      -4.648835      -126.5012
  39   2.0000      -4.646696      -126.4430
  40   2.0000      -4.640670      -126.2790
  41   2.0000      -4.640644      -126.2783
  42   2.0000      -4.638854      -126.2296
  43   2.0000      -0.992473       -27.0066
  44   2.0000      -0.981247       -26.7011
  45   2.0000      -0.948148       -25.8004
  46   2.0000      -0.935629       -25.4598
  47   2.0000      -0.765609       -20.8333
  48   2.0000      -0.721473       -19.6323
  49   2.0000      -0.710473       -19.3330
  50   2.0000      -0.693260       -18.8646
  51   2.0000      -0.681585       -18.5469
  52   2.0000      -0.671893       -18.2831
  53   2.0000      -0.650924       -17.7125
  54   2.0000      -0.633205       -17.2304
  55   2.0000      -0.593178       -16.1412
  56   2.0000      -0.589953       -16.0534
  57   2.0000      -0.580852       -15.8058
  58   2.0000      -0.570010       -15.5108
  59   2.0000      -0.555649       -15.1200
  60   2.0000      -0.507444       -13.8083
  61   2.0000      -0.492492       -13.4014
  62   2.0000      -0.475578       -12.9411
  63   2.0000      -0.463550       -12.6138
  64   2.0000      -0.453527       -12.3411
  65   2.0000      -0.450224       -12.2512
  66   2.0000      -0.443788       -12.0761
  67   2.0000      -0.435091       -11.8394
  68   2.0000      -0.421286       -11.4638
  69   2.0000      -0.414313       -11.2740
  70   2.0000      -0.413262       -11.2454
  71   2.0000      -0.407888       -11.0992
  72   2.0000      -0.400215       -10.8904
  73   2.0000      -0.388167       -10.5626
  74   2.0000      -0.376973       -10.2579
  75   2.0000      -0.363598        -9.8940
  76   2.0000      -0.359437        -9.7808
  77   2.0000      -0.357426        -9.7261
  78   2.0000      -0.350721        -9.5436
  79   2.0000      -0.348022        -9.4702
  80   2.0000      -0.346399        -9.4260
  81   2.0000      -0.343967        -9.3598
  82   2.0000      -0.341695        -9.2980
  83   2.0000      -0.335092        -9.1183
  84   2.0000      -0.321569        -8.7503
  85   2.0000      -0.320011        -8.7080
  86   2.0000      -0.311496        -8.4762
  87   2.0000      -0.300957        -8.1895
  88   2.0000      -0.297042        -8.0829
  89   2.0000      -0.291018        -7.9190
  90   2.0000      -0.281903        -7.6710
  91   2.0000      -0.277554        -7.5526
  92   2.0000      -0.266461        -7.2508
  93   2.0000      -0.262881        -7.1534
  94   2.0000      -0.254518        -6.9258
  95   2.0000      -0.235409        -6.4058
  96   2.0000      -0.225543        -6.1373
  97   2.0000      -0.209780        -5.7084
  98   2.0000      -0.199361        -5.4249
  99   2.0000      -0.196255        -5.3404
 100   2.0000      -0.185423        -5.0456
 101   0.0000      -0.047349        -1.2884
 102   0.0000      -0.035661        -0.9704
 103   0.0000      -0.014958        -0.4070
 104   0.0000       0.008894         0.2420
 105   0.0000       0.013142         0.3576

MULLIKEN ATOMIC CHARGES
-----------------------
   0 C :   -0.310154
   1 C :   -0.010891
   2 O :   -0.356271
   3 P :    0.610358
   4 S :   -0.310408
   5 O :   -0.356200
   6 C :   -0.007494
   7 C :   -0.311207
   8 S :   -0.131194
   9 C :   -0.345262
  10 S :   -0.129461
  11 P :    0.604012
  12 S :   -0.292688
  13 O :   -0.378134
  14 C :   -0.013116
  15 C :   -0.308934
  16 O :   -0.347017
  17 C :   -0.008867
  18 C :   -0.295121
  19 H :    0.101477
  20 H :    0.141807
  21 H :    0.103443
  22 H :    0.121852
  23 H :    0.099521
  24 H :    0.104681
  25 H :    0.108044
  26 H :    0.107594
  27 H :    0.125637
  28 H :    0.121350
  29 H :    0.217521
  30 H :    0.180698
  31 H :    0.110584
  32 H :    0.113089
  33 H :    0.128856
  34 H :    0.112187
  35 H :    0.129342
  36 H :    0.100760
  37 H :    0.112447
  38 H :    0.126971
  39 H :    0.121103
  40 H :    0.109086
Sum of atomic charges:   -0.0000000

LOEWDIN ATOMIC CHARGES
----------------------
   0 C :   -0.367130
   1 C :   -0.118233
   2 O :   -0.231358
   3 P :    0.566788
   4 S :   -0.295969
   5 O :   -0.235833
   6 C :   -0.119807
   7 C :   -0.367474
   8 S :    0.071557
   9 C :   -0.480702
  10 S :    0.069822
  11 P :    0.563857
  12 S :   -0.282850
  13 O :   -0.244664
  14 C :   -0.115353
  15 C :   -0.368460
  16 O :   -0.228915
  17 C :   -0.111080
  18 C :   -0.365522
  19 H :    0.119215
  20 H :    0.121359
  21 H :    0.128234
  22 H :    0.105688
  23 H :    0.114983
  24 H :    0.101613
  25 H :    0.120729
  26 H :    0.127637
  27 H :    0.131191
  28 H :    0.117385
  29 H :    0.124268
  30 H :    0.131608
  31 H :    0.121970
  32 H :    0.107237
  33 H :    0.131732
  34 H :    0.130595
  35 H :    0.122722
  36 H :    0.108365
  37 H :    0.122960
  38 H :    0.128395
  39 H :    0.114343
  40 H :    0.129098

  Mayer bond orders larger than 0.100000
B(  0-C ,  1-C ) :   1.1703 B(  0-C , 19-H ) :   0.9463 B(  0-C , 20-H ) :   0.9249
B(  0-C , 21-H ) :   0.9407 B(  1-C ,  2-O ) :   0.9020 B(  1-C , 22-H ) :   0.9013
B(  1-C , 23-H ) :   0.9342 B(  2-O ,  3-P ) :   1.1471 B(  3-P ,  4-S ) :   1.6261
B(  3-P ,  5-O ) :   1.1166 B(  3-P ,  8-S ) :   0.9280 B(  4-S ,  8-S ) :   0.1262
B(  5-O ,  6-C ) :   0.9279 B(  6-C ,  7-C ) :   1.1600 B(  6-C , 24-H ) :   0.9160
B(  6-C , 25-H ) :   0.9341 B(  7-C , 26-H ) :   0.9371 B(  7-C , 27-H ) :   0.9447
B(  7-C , 28-H ) :   0.9332 B(  8-S ,  9-C ) :   0.9914 B(  9-C , 10-S ) :   1.0143
B(  9-C , 29-H ) :   0.8403 B(  9-C , 30-H ) :   0.9044 B( 10-S , 11-P ) :   0.9219
B( 10-S , 12-S ) :   0.1081 B( 11-P , 12-S ) :   1.6615 B( 11-P , 13-O ) :   1.0890
B( 11-P , 16-O ) :   1.1208 B( 13-O , 14-C ) :   0.9103 B( 14-C , 15-C ) :   1.1671
B( 14-C , 31-H ) :   0.9330 B( 14-C , 32-H ) :   0.9260 B( 15-C , 33-H ) :   0.9429
B( 15-C , 34-H ) :   0.9349 B( 15-C , 35-H ) :   0.9323 B( 16-O , 17-C ) :   0.8916
B( 17-C , 18-C ) :   1.1684 B( 17-C , 36-H ) :   0.9185 B( 17-C , 37-H ) :   0.9352
B( 18-C , 38-H ) :   0.9441 B( 18-C , 39-H ) :   0.9317 B( 18-C , 40-H ) :   0.9381

Dispersion correction           -0.067322096
FINAL SINGLE POINT ENERGY     -2929.517330041906

DIPOLE MOMENT
-------------

Method             : SCF
Type of density    : Electron Density
Multiplicity       :   1
Irrep              :   0
Energy             : -2929.6350347039674489 Eh
Relativity type    :
Basis              : AO
                                X                 Y                 Z
Electronic contribution:      5.797484735       5.230894703       0.762657536
Nuclear contribution   :     -7.362461858      -6.394997422      -0.365357799
                        -----------------------------------------
Total Dipole Moment    :     -1.564977123      -1.164102719       0.397299737
                        -----------------------------------------
Magnitude (a.u.)       :      1.990511396
Magnitude (Debye)      :      5.059477885

Rotational constants in cm-1:             0.011883             0.005206             0.005157
Rotational constants in MHz :           356.244915           156.057282           154.612744

                             ****ORCA TERMINATED NORMALLY****
TOTAL RUN TIME: 0 days 0 hours 0 minutes 21 seconds 537 msec
