                         Program Version 6.0.0  -   RELEASE  -
|  1> ! pbe def2-sv(p) def2/J RI DEFGRID1 loosescf d4 GCP(DFT/SV(P)) printgap
|  2> %output
|  3>     printlevel normal
|  4> end
|  5> * xyz 0 1
|  6> C 5.7959472252 -0.2657653385 -0.8531544495
|  7> C 4.3354520069 -0.6305789445 -1.0261816069
|  8> O 3.5503098124 0.3161202488 -0.2755208639
|  9> P 1.9881597833 0.4695566404 -0.5370156241
| 10> S 1.537676316 0.7355789011 -2.4252207662
| 11> O 1.6309566474 1.6813393983 0.4027668285
| 12> C 2.3345007269 2.0234880955 1.625745354
| 13> C 2.3426971556 0.8965337704 2.6368983679
| 14> S 1.1852614832 -1.3093093187 0.3416166048
| 15> C 0.0609404792 -1.8631182705 -0.9721892543
| 16> S -1.6215152989 -2.1914556662 -0.3833316659
| 17> P -2.1420206785 -0.2782956293 0.3153334618
| 18> S -1.4426953577 1.3136512043 -0.6111951928
| 19> O -1.7049881518 -0.4272863878 1.8304095955
| 20> C -1.582619572 0.7064165836 2.7121943942
| 21> C -2.9283058021 1.310980545 3.0542531879
| 22> O -3.7269849457 -0.3372821622 0.4198441009
| 23> C -4.5902669567 0.0593914828 -0.658442919
| 24> C -4.4782003688 -0.8668626614 -1.8521657474
| 25> H 5.9786662632 0.7340684249 -1.236835641
| 26> H 6.0663478706 -0.2958722393 0.198242838
| 27> H 6.4058986749 -0.9757343668 -1.4017504159
| 28> H 4.1239137478 -1.6306164432 -0.6376588495
| 29> H 4.0300305675 -0.5810210854 -2.0766843974
| 30> H 3.3514317907 2.3156339892 1.3582575947
| 31> H 1.7820099771 2.8913714615 1.9901497503
| 32> H 2.909234809 0.0492930739 2.2552898544
| 33> H 2.8060027233 1.2494907111 3.5529628498
| 34> H 1.3300259453 0.5659237505 2.8517799184
| 35> H 0.421313451 -2.8110762239 -1.3637491537
| 36> H 0.047018363 -1.0961308754 -1.7528772284
| 37> H -1.0908597667 0.2957439375 3.5956611476
| 38> H -0.9393335997 1.4507447028 2.2296306308
| 39> H -3.3668588637 1.7681727177 2.1685244744
| 40> H -3.6008528669 0.5406811207 3.42187859
| 41> H -2.7962100025 2.0724289419 3.8167187958
| 42> H -5.5879504562 0.0313934953 -0.2182946928
| 43> H -4.3359915819 1.0852359278 -0.9447481174
| 44> H -3.4943583326 -0.7662002032 -2.3096943594
| 45> H -4.6168033756 -1.8999903112 -1.5436225626
| 46> H -5.2336846608 -0.6025103706 -2.5851702399
| 47> *
| 48>
| 49>                          ****END OF INPUT****

CARTESIAN COORDINATES (ANGSTROEM)
---------------------------------
  C      5.795947   -0.265765   -0.853154
  C      4.335452   -0.630579   -1.026182
  O      3.550310    0.316120   -0.275521
  P      1.988160    0.469557   -0.537016
  S      1.537676    0.735579   -2.425221
  O      1.630957    1.681339    0.402767
  C      2.334501    2.023488    1.625745
  C      2.342697    0.896534    2.636898
  S      1.185261   -1.309309    0.341617
  C      0.060940   -1.863118   -0.972189
  S     -1.621515   -2.191456   -0.383332
  P     -2.142021   -0.278296    0.315333
  S     -1.442695    1.313651   -0.611195
  O     -1.704988   -0.427286    1.830410
  C     -1.582620    0.706417    2.712194
  C     -2.928306    1.310981    3.054253
  O     -3.726985   -0.337282    0.419844
  C     -4.590267    0.059391   -0.658443
  C     -4.478200   -0.866863   -1.852166
  H      5.978666    0.734068   -1.236836
  H      6.066348   -0.295872    0.198243
  H      6.405899   -0.975734   -1.401750
  H      4.123914   -1.630616   -0.637659
  H      4.030031   -0.581021   -2.076684
  H      3.351432    2.315634    1.358258
  H      1.782010    2.891371    1.990150
  H      2.909235    0.049293    2.255290
  H      2.806003    1.249491    3.552963
  H      1.330026    0.565924    2.851780
  H      0.421313   -2.811076   -1.363749
  H      0.047018   -1.096131   -1.752877
  H     -1.090860    0.295744    3.595661
  H     -0.939334    1.450745    2.229631
  H     -3.366859    1.768173    2.168524
  H     -3.600853    0.540681    3.421879
  H     -2.796210    2.072429    3.816719
  H     -5.587950    0.031393   -0.218295
  H     -4.335992    1.085236   -0.944748
  H     -3.494358   -0.766200   -2.309694
  H     -4.616803   -1.899990   -1.543623
  H     -5.233685   -0.602510   -2.585170

 Total Charge           Charge          ....    0
 Multiplicity           Mult            ....    1
 Number of Electrons    NEL             ....  202
 Basis Dimension        Dim             ....  334

ORBITAL ENERGIES
----------------

  NO   OCC          E(Eh)            E(eV)
   0   2.0000     -88.039690     -2395.6818
   1   2.0000     -88.038169     -2395.6404
   2   2.0000     -87.980172     -2394.0622
   3   2.0000     -87.979190     -2394.0355
   4   2.0000     -76.423172     -2079.5802
   5   2.0000     -76.420506     -2079.5077
   6   2.0000     -18.791788      -511.3505
   7   2.0000     -18.789581      -511.2905
   8   2.0000     -18.788348      -511.2569
   9   2.0000     -18.783512      -511.1253
  10   2.0000      -9.957942      -270.9694
  11   2.0000      -9.950933      -270.7787
  12   2.0000      -9.949685      -270.7447
  13   2.0000      -9.949635      -270.7433
  14   2.0000      -9.949188      -270.7312
  15   2.0000      -9.891438      -269.1597
  16   2.0000      -9.888784      -269.0875
  17   2.0000      -9.882457      -268.9153
  18   2.0000      -9.880582      -268.8643
  19   2.0000      -7.685248      -209.1262
  20   2.0000      -7.682546      -209.0527
  21   2.0000      -7.624655      -207.4774
  22   2.0000      -7.624345      -207.4690
  23   2.0000      -6.420354      -174.7067
  24   2.0000      -6.418017      -174.6431
  25   2.0000      -5.713214      -155.4645
  26   2.0000      -5.710387      -155.3875
  27   2.0000      -5.709673      -155.3681
  28   2.0000      -5.707076      -155.2974
  29   2.0000      -5.702122      -155.1626
  30   2.0000      -5.699664      -155.0957
  31   2.0000      -5.653461      -153.8385
  32   2.0000      -5.653404      -153.8369
  33   2.0000      -5.645334      -153.6173
  34   2.0000      -5.644966      -153.6073
  35   2.0000      -5.644804      -153.6029
  36   2.0000      -5.644469      -153.5938
  37   2.0000      -4.643377      -126.3527
  38   2.0000      -4.641882      -126.3120
  39   2.0000      -4.640652      -126.2786
  40   2.0000      -4.640436      -126.2727
  41   2.0000      -4.639783      -126.2549
  42   2.0000      -4.638600      -126.2227
  43   2.0000      -0.987385       -26.8681
  44   2.0000      -0.982106       -26.7245
  45   2.0000      -0.942082       -25.6354
  46   2.0000      -0.941301       -25.6141
  47   2.0000      -0.758275       -20.6337
  48   2.0000      -0.719133       -19.5686
  49   2.0000      -0.707631       -19.2556
  50   2.0000      -0.693884       -18.8815
  51   2.0000      -0.684616       -18.6293
  52   2.0000      -0.672902       -18.3106
  53   2.0000      -0.647833       -17.6284
  54   2.0000      -0.629342       -17.1253
  55   2.0000      -0.598499       -16.2860
  56   2.0000      -0.592016       -16.1096
  57   2.0000      -0.572755       -15.5854
  58   2.0000      -0.569870       -15.5070
  59   2.0000      -0.557975       -15.1833
  60   2.0000      -0.504790       -13.7360
  61   2.0000      -0.488824       -13.3016
  62   2.0000      -0.474183       -12.9032
  63   2.0000      -0.468678       -12.7534
  64   2.0000      -0.447881       -12.1875
  65   2.0000      -0.445890       -12.1333
  66   2.0000      -0.445222       -12.1151
  67   2.0000      -0.435645       -11.8545
  68   2.0000      -0.428729       -11.6663
  69   2.0000      -0.418859       -11.3977
  70   2.0000      -0.406902       -11.0724
  71   2.0000      -0.401353       -10.9214
  72   2.0000      -0.389985       -10.6120
  73   2.0000      -0.383805       -10.4439
  74   2.0000      -0.378216       -10.2918
  75   2.0000      -0.372324       -10.1315
  76   2.0000      -0.367787       -10.0080
  77   2.0000      -0.356980        -9.7139
  78   2.0000      -0.352586        -9.5943
  79   2.0000      -0.351013        -9.5516
  80   2.0000      -0.346920        -9.4402
  81   2.0000      -0.343298        -9.3416
  82   2.0000      -0.341265        -9.2863
  83   2.0000      -0.336552        -9.1581
  84   2.0000      -0.333502        -9.0751
  85   2.0000      -0.313366        -8.5271
  86   2.0000      -0.310809        -8.4575
  87   2.0000      -0.300688        -8.1821
  88   2.0000      -0.293424        -7.9845
  89   2.0000      -0.292038        -7.9468
  90   2.0000      -0.278500        -7.5784
  91   2.0000      -0.273751        -7.4492
  92   2.0000      -0.269828        -7.3424
  93   2.0000      -0.259857        -7.0711
  94   2.0000      -0.254265        -6.9189
  95   2.0000      -0.230069        -6.2605
  96   2.0000      -0.221867        -6.0373
  97   2.0000      -0.210580        -5.7302
  98   2.0000      -0.196955        -5.3594
  99   2.0000      -0.191458        -5.2098
 100   2.0000      -0.181623        -4.9422
 101   0.0000      -0.037719        -1.0264
 102   0.0000      -0.033326        -0.9068
 103   0.0000      -0.005774        -0.1571
 104   0.0000       0.014101         0.3837
 105   0.0000       0.016719         0.4550

MULLIKEN ATOMIC CHARGES
-----------------------
   0 C :   -0.281431
   1 C :   -0.003953
   2 O :   -0.390306
   3 P :    0.620127
   4 S :   -0.292380
   5 O :   -0.359454
   6 C :    0.014403
   7 C :   -0.358339
   8 S :   -0.124451
   9 C :   -0.341693
  10 S :   -0.089206
  11 P :    0.600322
  12 S :   -0.306108
  13 O :   -0.362704
  14 C :   -0.044022
  15 C :   -0.281785
  16 O :   -0.373647
  17 C :   -0.002538
  18 C :   -0.317391
  19 H :    0.120611
  20 H :    0.112514
  21 H :    0.112260
  22 H :    0.096896
  23 H :    0.103688
  24 H :    0.111452
  25 H :    0.111286
  26 H :    0.127814
  27 H :    0.115716
  28 H :    0.146405
  29 H :    0.176580
  30 H :    0.204537
  31 H :    0.112906
  32 H :    0.122274
  33 H :    0.121283
  34 H :    0.116127
  35 H :    0.107414
  36 H :    0.103615
  37 H :    0.109999
  38 H :    0.130715
  39 H :    0.117856
  40 H :    0.112610
Sum of atomic charges:   -0.0000000

LOEWDIN ATOMIC CHARGES
----------------------
   0 C :   -0.350563
   1 C :   -0.123785
   2 O :   -0.252142
   3 P :    0.575123
   4 S :   -0.290649
   5 O :   -0.231768
   6 C :   -0.105883
   7 C :   -0.374395
   8 S :    0.060336
   9 C :   -0.482138
  10 S :    0.091293
  11 P :    0.560536
  12 S :   -0.302435
  13 O :   -0.240932
  14 C :   -0.121961
  15 C :   -0.362696
  16 O :   -0.245570
  17 C :   -0.119647
  18 C :   -0.370080
  19 H :    0.128749
  20 H :    0.124436
  21 H :    0.131107
  22 H :    0.105926
  23 H :    0.107238
  24 H :    0.115956
  25 H :    0.122213
  26 H :    0.119729
  27 H :    0.133337
  28 H :    0.128598
  29 H :    0.134742
  30 H :    0.123802
  31 H :    0.116821
  32 H :    0.110056
  33 H :    0.123768
  34 H :    0.127041
  35 H :    0.128378
  36 H :    0.117895
  37 H :    0.110229
  38 H :    0.122824
  39 H :    0.123692
  40 H :    0.130821

  Mayer bond orders larger than 0.100000
B(  0-C ,  1-C ) :   1.1598 B(  0-C , 19-H ) :   0.9508 B(  0-C , 20-H ) :   0.9520
B(  0-C , 21-H ) :   0.9422 B(  1-C ,  2-O ) :   0.9040 B(  1-C , 22-H ) :   0.9247
B(  1-C , 23-H ) :   0.9066 B(  2-O ,  3-P ) :   1.0584 B(  3-P ,  4-S ) :   1.6384
B(  3-P ,  5-O ) :   1.1353 B(  3-P ,  8-S ) :   0.9379 B(  4-S ,  8-S ) :   0.1240
B(  4-S , 30-H ) :   0.1134 B(  5-O ,  6-C ) :   0.8975 B(  6-C ,  7-C ) :   1.1705
B(  6-C , 24-H ) :   0.9287 B(  6-C , 25-H ) :   0.9310 B(  7-C , 26-H ) :   0.9322
B(  7-C , 27-H ) :   0.9342 B(  7-C , 28-H ) :   0.9315 B(  8-S ,  9-C ) :   1.0007
B(  9-C , 10-S ) :   0.9979 B(  9-C , 29-H ) :   0.9117 B(  9-C , 30-H ) :   0.8444
B( 10-S , 11-P ) :   0.9583 B( 10-S , 12-S ) :   0.1139 B( 11-P , 12-S ) :   1.6217
B( 11-P , 13-O ) :   1.1214 B( 11-P , 16-O ) :   1.0972 B( 13-O , 14-C ) :   0.9132
B( 14-C , 15-C ) :   1.1568 B( 14-C , 31-H ) :   0.9266 B( 14-C , 32-H ) :   0.9073
B( 15-C , 33-H ) :   0.9366 B( 15-C , 34-H ) :   0.9442 B( 15-C , 35-H ) :   0.9393
B( 16-O , 17-C ) :   0.9092 B( 17-C , 18-C ) :   1.1668 B( 17-C , 36-H ) :   0.9340
B( 17-C , 37-H ) :   0.9151 B( 18-C , 38-H ) :   0.9351 B( 18-C , 39-H ) :   0.9440
B( 18-C , 40-H ) :   0.9377

Dispersion correction           -0.066632143
FINAL SINGLE POINT ENERGY     -2929.515838686555

DIPOLE MOMENT
-------------

Method             : SCF
Type of density    : Electron Density
Multiplicity       :   1
Irrep              :   0
Energy             : -2929.6344831551896277 Eh
Relativity type    :
Basis              : AO
                                X                 Y                 Z
Electronic contribution:     -3.658825570      -4.288264112      -9.786021934
Nuclear contribution   :      4.073634271       4.008925237      10.987535965
                        -----------------------------------------
Total Dipole Moment    :      0.414808701      -0.279338875       1.201514031
                        -----------------------------------------
Magnitude (a.u.)       :      1.301434759
Magnitude (Debye)      :      3.307984268

Rotational constants in cm-1:             0.013170             0.005219             0.004619
Rotational constants in MHz :           394.838320           156.467114           138.467942

                             ****ORCA TERMINATED NORMALLY****
TOTAL RUN TIME: 0 days 0 hours 0 minutes 21 seconds 441 msec
