                         Program Version 6.0.0  -   RELEASE  -
|  1> ! pbe def2-sv(p) def2/J RI DEFGRID1 loosescf d4 GCP(DFT/SV(P)) printgap
|  2> %output
|  3>     printlevel normal
|  4> end
|  5> * xyz 0 1
|  6> C -1.2797658126 -0.5620045612 -8.0065e-05
|  7> C -1.1074314442 0.8132694665 -0.0001334949
|  8> C 0.153214738 1.3893704632 -0.0003083705
|  9> C 1.2580479889 0.5524065328 -0.0001715633
| 10> C 1.1266498808 -0.8273539373 -5.20414e-05
| 11> C -0.1505450969 -1.365640327 -7.73188e-05
| 12> Cl -0.339982742 -3.0830553987 6.00791e-05
| 13> Cl 2.8400922827 1.2471258106 0.0001112295
| 14> Cl -2.5001706997 1.8359142263 0.0001125977
| 15> H -2.2657944301 -0.9950411145 -6.99439e-05
| 16> H 0.2712970641 2.4598320406 -0.0001646603
| 17> H 1.9946197867 -1.4648182416 5.38103e-05
| 18> *
| 19>
| 20>                          ****END OF INPUT****

CARTESIAN COORDINATES (ANGSTROEM)
---------------------------------
  C     -1.279766   -0.562005   -0.000080
  C     -1.107431    0.813269   -0.000133
  C      0.153215    1.389370   -0.000308
  C      1.258048    0.552407   -0.000172
  C      1.126650   -0.827354   -0.000052
  C     -0.150545   -1.365640   -0.000077
  Cl    -0.339983   -3.083055    0.000060
  Cl     2.840092    1.247126    0.000111
  Cl    -2.500171    1.835914    0.000113
  H     -2.265794   -0.995041   -0.000070
  H      0.271297    2.459832   -0.000165
  H      1.994620   -1.464818    0.000054

 Total Charge           Charge          ....    0
 Multiplicity           Mult            ....    1
 Number of Electrons    NEL             ....   90
 Basis Dimension        Dim             ....  144

ORBITAL ENERGIES
----------------

  NO   OCC          E(Eh)            E(eV)
   0   2.0000    -100.654760     -2738.9553
   1   2.0000    -100.654748     -2738.9549
   2   2.0000    -100.654743     -2738.9548
   3   2.0000      -9.974068      -271.4082
   4   2.0000      -9.974030      -271.4071
   5   2.0000      -9.974005      -271.4065
   6   2.0000      -9.921534      -269.9787
   7   2.0000      -9.921519      -269.9783
   8   2.0000      -9.921509      -269.9780
   9   2.0000      -9.190810      -250.0947
  10   2.0000      -9.190798      -250.0943
  11   2.0000      -9.190793      -250.0942
  12   2.0000      -7.022231      -191.0846
  13   2.0000      -7.022214      -191.0842
  14   2.0000      -7.022213      -191.0841
  15   2.0000      -7.010803      -190.7736
  16   2.0000      -7.010801      -190.7736
  17   2.0000      -7.010798      -190.7735
  18   2.0000      -7.010072      -190.7538
  19   2.0000      -7.010069      -190.7537
  20   2.0000      -7.010059      -190.7534
  21   2.0000      -0.849375       -23.1127
  22   2.0000      -0.812822       -22.1180
  23   2.0000      -0.812819       -22.1179
  24   2.0000      -0.748737       -20.3742
  25   2.0000      -0.678309       -18.4577
  26   2.0000      -0.678303       -18.4576
  27   2.0000      -0.559451       -15.2234
  28   2.0000      -0.559447       -15.2233
  29   2.0000      -0.490763       -13.3543
  30   2.0000      -0.465654       -12.6711
  31   2.0000      -0.434539       -11.8244
  32   2.0000      -0.412117       -11.2143
  33   2.0000      -0.412110       -11.2141
  34   2.0000      -0.394285       -10.7290
  35   2.0000      -0.357334        -9.7236
  36   2.0000      -0.357331        -9.7235
  37   2.0000      -0.336666        -9.1611
  38   2.0000      -0.336661        -9.1610
  39   2.0000      -0.287041        -7.8108
  40   2.0000      -0.287035        -7.8106
  41   2.0000      -0.274890        -7.4801
  42   2.0000      -0.274649        -7.4736
  43   2.0000      -0.233169        -6.3448
  44   2.0000      -0.233160        -6.3446
  45   0.0000      -0.064084        -1.7438
  46   0.0000      -0.064080        -1.7437
  47   0.0000      -0.030817        -0.8386
  48   0.0000       0.028072         0.7639
  49   0.0000       0.028075         0.7640

MULLIKEN ATOMIC CHARGES
-----------------------
   0 C :   -0.065337
   1 C :    0.078632
   2 C :   -0.065182
   3 C :    0.077974
   4 C :   -0.065042
   5 C :    0.078345
   6 Cl:   -0.067084
   7 Cl:   -0.067068
   8 Cl:   -0.067060
   9 H :    0.053922
  10 H :    0.053934
  11 H :    0.053966
Sum of atomic charges:   -0.0000000

LOEWDIN ATOMIC CHARGES
----------------------
   0 C :   -0.161761
   1 C :   -0.123286
   2 C :   -0.161747
   3 C :   -0.123324
   4 C :   -0.161701
   5 C :   -0.123313
   6 Cl:    0.145649
   7 Cl:    0.145646
   8 Cl:    0.145651
   9 H :    0.139396
  10 H :    0.139397
  11 H :    0.139395

  Mayer bond orders larger than 0.100000
B(  0-C ,  1-C ) :   1.3606 B(  0-C ,  5-C ) :   1.3606 B(  0-C ,  9-H ) :   0.9653
B(  1-C ,  2-C ) :   1.3606 B(  1-C ,  8-Cl) :   0.9725 B(  2-C ,  3-C ) :   1.3607
B(  2-C , 10-H ) :   0.9653 B(  3-C ,  4-C ) :   1.3606 B(  3-C ,  7-Cl) :   0.9726
B(  4-C ,  5-C ) :   1.3603 B(  4-C , 11-H ) :   0.9653 B(  5-C ,  6-Cl) :   0.9726

Dispersion correction           -0.017759000
FINAL SINGLE POINT ENERGY     -1609.563655418586

DIPOLE MOMENT
-------------

Method             : SCF
Type of density    : Electron Density
Multiplicity       :   1
Irrep              :   0
Energy             : -1609.5852587511458296 Eh
Relativity type    :
Basis              : AO
                                X                 Y                 Z
Electronic contribution:     -0.000111659       0.000001563       0.000563541
Nuclear contribution   :      0.000196941      -0.000005008      -0.000550679
                        -----------------------------------------
Total Dipole Moment    :      0.000085281      -0.000003445       0.000012862
                        -----------------------------------------
Magnitude (a.u.)       :      0.000086315
Magnitude (Debye)      :      0.000219394

Rotational constants in cm-1:             0.028568             0.028565             0.014283
Rotational constants in MHz :           856.433956           856.359136           428.198274

                             ****ORCA TERMINATED NORMALLY****
TOTAL RUN TIME: 0 days 0 hours 0 minutes 7 seconds 741 msec
