                         Program Version 6.0.1  -  RELEASE   -
|  1> ! r2scan-3c def2/J RI DEFGRID2 scfconv6 printgap
|  2> %output
|  3>     printlevel normal
|  4> end
|  5> * xyz 0 1
|  6> C 3.9224778364 -3.1828021562 -2.7197777879
|  7> C 2.8369781507 -3.2309748428 -1.6629465857
|  8> O 2.6801219252 -1.9040405773 -1.1224577277
|  9> C 1.8794824756 -1.7519155997 -0.0905538501
| 10> O 1.281711724 -2.65667153 0.449987612
| 11> C 1.7594569479 -0.2943263478 0.3142832397
| 12> C 0.9155749201 0.4358515741 -0.7315357739
| 13> H 1.4734670687 0.5193543213 -1.6692620319
| 14> C 0.488725437 1.8281611109 -0.2956121418
| 15> O -0.6228008549 2.2676762191 -0.5164653414
| 16> O 1.450000792 2.4725278909 0.3011555481
| 17> C 1.1674685117 3.7947915728 0.8089729762
| 18> C 2.2385130084 4.1433760505 1.8224924128
| 19> S -0.5922738354 -0.485503878 -1.1900788691
| 20> P -1.8696211797 0.0268647662 0.4302696403
| 21> S -1.1196799047 0.6879837542 2.112942397
| 22> O -3.0422148448 0.931059991 -0.1134749737
| 23> C -3.7590879573 0.6396822304 -1.3286106125
| 24> O -2.6589158304 -1.3612616915 0.6104519433
| 25> C -2.0455313782 -2.4817319724 1.2548759115
| 26> H 3.6416338492 -2.4944260977 -3.510874385
| 27> H 4.8577122138 -2.8501361395 -2.2796744848
| 28> H 4.0574801352 -4.1739405409 -3.1395461905
| 29> H 3.0924275355 -3.9095221888 -0.8432646711
| 30> H 1.8748796411 -3.5419154332 -2.0816132148
| 31> H 2.7460417173 0.1655032729 0.354818597
| 32> H 1.2834354824 -0.2424247025 1.2950525824
| 33> H 1.1669892414 4.4869194953 -0.0378501098
| 34> H 0.1681553914 3.7825242106 1.2551393964
| 35> H 2.2085519651 3.4410281968 2.6503246365
| 36> H 3.2185173942 4.1030955331 1.3574414523
| 37> H 2.0594300037 5.1448049691 2.1989743162
| 38> H -3.0697808637 0.6417708199 -2.1729512774
| 39> H -4.4848502719 1.4428407848 -1.4247272895
| 40> H -4.2531578034 -0.3268835873 -1.2460221299
| 41> H -2.7813200853 -3.2800410176 1.2150435295
| 42> H -1.8072248389 -2.2290432317 2.288797192
| 43> H -1.1302320897 -2.7755931739 0.7385008061
| 44> *
| 45>
| 46>                          ****END OF INPUT****

CARTESIAN COORDINATES (ANGSTROEM)
---------------------------------
  C      3.922478   -3.182802   -2.719778
  C      2.836978   -3.230975   -1.662947
  O      2.680122   -1.904041   -1.122458
  C      1.879482   -1.751916   -0.090554
  O      1.281712   -2.656672    0.449988
  C      1.759457   -0.294326    0.314283
  C      0.915575    0.435852   -0.731536
  H      1.473467    0.519354   -1.669262
  C      0.488725    1.828161   -0.295612
  O     -0.622801    2.267676   -0.516465
  O      1.450001    2.472528    0.301156
  C      1.167469    3.794792    0.808973
  C      2.238513    4.143376    1.822492
  S     -0.592274   -0.485504   -1.190079
  P     -1.869621    0.026865    0.430270
  S     -1.119680    0.687984    2.112942
  O     -3.042215    0.931060   -0.113475
  C     -3.759088    0.639682   -1.328611
  O     -2.658916   -1.361262    0.610452
  C     -2.045531   -2.481732    1.254876
  H      3.641634   -2.494426   -3.510874
  H      4.857712   -2.850136   -2.279674
  H      4.057480   -4.173941   -3.139546
  H      3.092428   -3.909522   -0.843265
  H      1.874880   -3.541915   -2.081613
  H      2.746042    0.165503    0.354819
  H      1.283435   -0.242425    1.295053
  H      1.166989    4.486919   -0.037850
  H      0.168155    3.782524    1.255139
  H      2.208552    3.441028    2.650325
  H      3.218517    4.103096    1.357441
  H      2.059430    5.144805    2.198974
  H     -3.069781    0.641771   -2.172951
  H     -4.484850    1.442841   -1.424727
  H     -4.253158   -0.326884   -1.246022
  H     -2.781320   -3.280041    1.215044
  H     -1.807225   -2.229043    2.288797
  H     -1.130232   -2.775593    0.738501

 Total Charge           Charge          ....    0
 Multiplicity           Mult            ....    1
 Number of Electrons    NEL             ....  174
 Basis Dimension        Dim             ....  510

ORBITAL ENERGIES
----------------

  NO   OCC          E(Eh)            E(eV)
   0   2.0000     -88.570065     -2410.1140
   1   2.0000     -88.510139     -2408.4833
   2   2.0000     -76.906908     -2092.7434
   3   2.0000     -19.012124      -517.3462
   4   2.0000     -19.007061      -517.2084
   5   2.0000     -18.981875      -516.5231
   6   2.0000     -18.976868      -516.3868
   7   2.0000     -18.935782      -515.2688
   8   2.0000     -18.933734      -515.2131
   9   2.0000     -10.167341      -276.6674
  10   2.0000     -10.159483      -276.4536
  11   2.0000     -10.102384      -274.8998
  12   2.0000     -10.098774      -274.8016
  13   2.0000     -10.097200      -274.7588
  14   2.0000     -10.087864      -274.5047
  15   2.0000     -10.071539      -274.0605
  16   2.0000     -10.052339      -273.5380
  17   2.0000     -10.038077      -273.1500
  18   2.0000     -10.034479      -273.0521
  19   2.0000      -7.864643      -214.0078
  20   2.0000      -7.805275      -212.3923
  21   2.0000      -6.584820      -179.1821
  22   2.0000      -5.811742      -158.1455
  23   2.0000      -5.808520      -158.0579
  24   2.0000      -5.801447      -157.8654
  25   2.0000      -5.753218      -156.5530
  26   2.0000      -5.745652      -156.3471
  27   2.0000      -5.744819      -156.3245
  28   2.0000      -4.730423      -128.7214
  29   2.0000      -4.729983      -128.7094
  30   2.0000      -4.728398      -128.6662
  31   2.0000      -1.090153       -29.6646
  32   2.0000      -1.083246       -29.4766
  33   2.0000      -1.038088       -28.2478
  34   2.0000      -0.995375       -27.0855
  35   2.0000      -0.988778       -26.9060
  36   2.0000      -0.983055       -26.7503
  37   2.0000      -0.811996       -22.0955
  38   2.0000      -0.759305       -20.6617
  39   2.0000      -0.751715       -20.4552
  40   2.0000      -0.724333       -19.7101
  41   2.0000      -0.693996       -18.8846
  42   2.0000      -0.662843       -18.0369
  43   2.0000      -0.655848       -17.8465
  44   2.0000      -0.648588       -17.6490
  45   2.0000      -0.621064       -16.9000
  46   2.0000      -0.596928       -16.2432
  47   2.0000      -0.544634       -14.8203
  48   2.0000      -0.543405       -14.7868
  49   2.0000      -0.525526       -14.3003
  50   2.0000      -0.500511       -13.6196
  51   2.0000      -0.481854       -13.1119
  52   2.0000      -0.477774       -13.0009
  53   2.0000      -0.469509       -12.7760
  54   2.0000      -0.467212       -12.7135
  55   2.0000      -0.448225       -12.1968
  56   2.0000      -0.445045       -12.1103
  57   2.0000      -0.437782       -11.9126
  58   2.0000      -0.433836       -11.8053
  59   2.0000      -0.431583       -11.7440
  60   2.0000      -0.417575       -11.3628
  61   2.0000      -0.406746       -11.0681
  62   2.0000      -0.401487       -10.9250
  63   2.0000      -0.395636       -10.7658
  64   2.0000      -0.393412       -10.7053
  65   2.0000      -0.380767       -10.3612
  66   2.0000      -0.377662       -10.2767
  67   2.0000      -0.371061       -10.0971
  68   2.0000      -0.370598       -10.0845
  69   2.0000      -0.354455        -9.6452
  70   2.0000      -0.350789        -9.5454
  71   2.0000      -0.337489        -9.1836
  72   2.0000      -0.334058        -9.0902
  73   2.0000      -0.328772        -8.9463
  74   2.0000      -0.323288        -8.7971
  75   2.0000      -0.321223        -8.7409
  76   2.0000      -0.308344        -8.3905
  77   2.0000      -0.302868        -8.2415
  78   2.0000      -0.283915        -7.7257
  79   2.0000      -0.281295        -7.6544
  80   2.0000      -0.278092        -7.5673
  81   2.0000      -0.264478        -7.1968
  82   2.0000      -0.254916        -6.9366
  83   2.0000      -0.236080        -6.4241
  84   2.0000      -0.228940        -6.2298
  85   2.0000      -0.209933        -5.7126
  86   2.0000      -0.205361        -5.5882
  87   0.0000      -0.044125        -1.2007
  88   0.0000      -0.031172        -0.8482
  89   0.0000      -0.013834        -0.3764
  90   0.0000       0.006174         0.1680
  91   0.0000       0.023409         0.6370

MULLIKEN ATOMIC CHARGES
-----------------------
   0 C :   -0.443654
   1 C :   -0.149970
   2 O :   -0.151217
   3 C :    0.396677
   4 O :   -0.389646
   5 C :   -0.482946
   6 C :    0.058983
   7 H :    0.196306
   8 C :    0.241263
   9 O :   -0.386086
  10 O :   -0.129447
  11 C :   -0.152678
  12 C :   -0.449042
  13 S :   -0.184493
  14 P :    0.788618
  15 S :   -0.462504
  16 O :   -0.297480
  17 C :   -0.301197
  18 O :   -0.359315
  19 C :   -0.300625
  20 H :    0.151793
  21 H :    0.154260
  22 H :    0.149655
  23 H :    0.163594
  24 H :    0.158311
  25 H :    0.175720
  26 H :    0.221391
  27 H :    0.149029
  28 H :    0.185490
  29 H :    0.162289
  30 H :    0.150043
  31 H :    0.150234
  32 H :    0.168352
  33 H :    0.155354
  34 H :    0.167390
  35 H :    0.142520
  36 H :    0.168787
  37 H :    0.184243
Sum of atomic charges:   -0.0000000

LOEWDIN ATOMIC CHARGES
----------------------
   0 C :   -0.385691
   1 C :    0.035678
   2 O :   -0.593184
   3 C :    0.335503
   4 O :   -0.433061
   5 C :   -0.211037
   6 C :   -0.190333
   7 H :    0.204088
   8 C :    0.335366
   9 O :   -0.453053
  10 O :   -0.574553
  11 C :    0.038897
  12 C :   -0.384226
  13 S :    0.223717
  14 P :    0.417520
  15 S :   -0.072293
  16 O :   -0.640013
  17 C :   -0.051280
  18 O :   -0.689402
  19 C :   -0.061927
  20 H :    0.159167
  21 H :    0.159980
  22 H :    0.160771
  23 H :    0.183038
  24 H :    0.179766
  25 H :    0.189137
  26 H :    0.200846
  27 H :    0.176588
  28 H :    0.194777
  29 H :    0.162970
  30 H :    0.158413
  31 H :    0.161434
  32 H :    0.173850
  33 H :    0.180666
  34 H :    0.171802
  35 H :    0.172432
  36 H :    0.175405
  37 H :    0.188243

  Mayer bond orders larger than 0.100000
B(  0-C ,  1-C ) :   0.9451 B(  0-C , 20-H ) :   0.9708 B(  0-C , 21-H ) :   0.9734
B(  0-C , 22-H ) :   0.9674 B(  1-C ,  2-O ) :   0.7952 B(  1-C , 23-H ) :   0.9560
B(  1-C , 24-H ) :   0.9489 B(  2-O ,  3-C ) :   1.0540 B(  3-C ,  4-O ) :   1.7980
B(  3-C ,  5-C ) :   0.8972 B(  5-C ,  6-C ) :   0.9051 B(  5-C , 25-H ) :   0.9447
B(  5-C , 26-H ) :   0.9761 B(  6-C ,  7-H ) :   0.8812 B(  6-C ,  8-C ) :   0.9433
B(  6-C , 13-S ) :   0.8281 B(  8-C ,  9-O ) :   1.7826 B(  8-C , 10-O ) :   1.1630
B( 10-O , 11-C ) :   0.7763 B( 11-C , 12-C ) :   0.9470 B( 11-C , 27-H ) :   0.9440
B( 11-C , 28-H ) :   0.9575 B( 12-C , 29-H ) :   0.9736 B( 12-C , 30-H ) :   0.9706
B( 12-C , 31-H ) :   0.9668 B( 13-S , 14-P ) :   0.9971 B( 14-P , 15-S ) :   1.7411
B( 14-P , 16-O ) :   1.1944 B( 14-P , 18-O ) :   1.0251 B( 16-O , 17-C ) :   0.7984
B( 17-C , 32-H ) :   0.9572 B( 17-C , 33-H ) :   0.9649 B( 17-C , 34-H ) :   0.9633
B( 18-O , 19-C ) :   0.8360 B( 19-C , 35-H ) :   0.9691 B( 19-C , 36-H ) :   0.9580
B( 19-C , 37-H ) :   0.9423

Dispersion correction           -0.017361954
FINAL SINGLE POINT ENERGY     -1981.447515511769

DIPOLE MOMENT
-------------

Method             : SCF
Type of density    : Electron Density
Multiplicity       :   1
Irrep              :   0
Energy             : -1981.4675732792043163 Eh
Relativity type    :
Basis              : AO
                                X                 Y                 Z
Electronic contribution:    -13.947543191       1.972914109       3.847817337
Nuclear contribution   :     15.143205025      -2.000064738      -5.156306086
                        -----------------------------------------
Total Dipole Moment    :      1.195661835      -0.027150629      -1.308488749
                        -----------------------------------------
Magnitude (a.u.)       :      1.772706176
Magnitude (Debye)      :      4.505861012

Rotational constants in cm-1:             0.010745             0.007932             0.005689
Rotational constants in MHz :           322.122233           237.783311           170.564103

                             ****ORCA TERMINATED NORMALLY****
TOTAL RUN TIME: 0 days 0 hours 1 minutes 14 seconds 387 msec
