                         Program Version 6.0.1  -  RELEASE   -
|  1> ! r2scan-3c def2/J RI DEFGRID2 scfconv6 printgap
|  2> %output
|  3>     printlevel normal
|  4> end
|  5> %cpcm
|  6>     smd true
|  7>     smdsolvent "water"
|  8> end
|  9> * xyz 0 1
| 10> C 3.9224778364 -3.1828021562 -2.7197777879
| 11> C 2.8369781507 -3.2309748428 -1.6629465857
| 12> O 2.6801219252 -1.9040405773 -1.1224577277
| 13> C 1.8794824756 -1.7519155997 -0.0905538501
| 14> O 1.281711724 -2.65667153 0.449987612
| 15> C 1.7594569479 -0.2943263478 0.3142832397
| 16> C 0.9155749201 0.4358515741 -0.7315357739
| 17> H 1.4734670687 0.5193543213 -1.6692620319
| 18> C 0.488725437 1.8281611109 -0.2956121418
| 19> O -0.6228008549 2.2676762191 -0.5164653414
| 20> O 1.450000792 2.4725278909 0.3011555481
| 21> C 1.1674685117 3.7947915728 0.8089729762
| 22> C 2.2385130084 4.1433760505 1.8224924128
| 23> S -0.5922738354 -0.485503878 -1.1900788691
| 24> P -1.8696211797 0.0268647662 0.4302696403
| 25> S -1.1196799047 0.6879837542 2.112942397
| 26> O -3.0422148448 0.931059991 -0.1134749737
| 27> C -3.7590879573 0.6396822304 -1.3286106125
| 28> O -2.6589158304 -1.3612616915 0.6104519433
| 29> C -2.0455313782 -2.4817319724 1.2548759115
| 30> H 3.6416338492 -2.4944260977 -3.510874385
| 31> H 4.8577122138 -2.8501361395 -2.2796744848
| 32> H 4.0574801352 -4.1739405409 -3.1395461905
| 33> H 3.0924275355 -3.9095221888 -0.8432646711
| 34> H 1.8748796411 -3.5419154332 -2.0816132148
| 35> H 2.7460417173 0.1655032729 0.354818597
| 36> H 1.2834354824 -0.2424247025 1.2950525824
| 37> H 1.1669892414 4.4869194953 -0.0378501098
| 38> H 0.1681553914 3.7825242106 1.2551393964
| 39> H 2.2085519651 3.4410281968 2.6503246365
| 40> H 3.2185173942 4.1030955331 1.3574414523
| 41> H 2.0594300037 5.1448049691 2.1989743162
| 42> H -3.0697808637 0.6417708199 -2.1729512774
| 43> H -4.4848502719 1.4428407848 -1.4247272895
| 44> H -4.2531578034 -0.3268835873 -1.2460221299
| 45> H -2.7813200853 -3.2800410176 1.2150435295
| 46> H -1.8072248389 -2.2290432317 2.288797192
| 47> H -1.1302320897 -2.7755931739 0.7385008061
| 48> *
| 49>
| 50>                          ****END OF INPUT****

CARTESIAN COORDINATES (ANGSTROEM)
---------------------------------
  C      3.922478   -3.182802   -2.719778
  C      2.836978   -3.230975   -1.662947
  O      2.680122   -1.904041   -1.122458
  C      1.879482   -1.751916   -0.090554
  O      1.281712   -2.656672    0.449988
  C      1.759457   -0.294326    0.314283
  C      0.915575    0.435852   -0.731536
  H      1.473467    0.519354   -1.669262
  C      0.488725    1.828161   -0.295612
  O     -0.622801    2.267676   -0.516465
  O      1.450001    2.472528    0.301156
  C      1.167469    3.794792    0.808973
  C      2.238513    4.143376    1.822492
  S     -0.592274   -0.485504   -1.190079
  P     -1.869621    0.026865    0.430270
  S     -1.119680    0.687984    2.112942
  O     -3.042215    0.931060   -0.113475
  C     -3.759088    0.639682   -1.328611
  O     -2.658916   -1.361262    0.610452
  C     -2.045531   -2.481732    1.254876
  H      3.641634   -2.494426   -3.510874
  H      4.857712   -2.850136   -2.279674
  H      4.057480   -4.173941   -3.139546
  H      3.092428   -3.909522   -0.843265
  H      1.874880   -3.541915   -2.081613
  H      2.746042    0.165503    0.354819
  H      1.283435   -0.242425    1.295053
  H      1.166989    4.486919   -0.037850
  H      0.168155    3.782524    1.255139
  H      2.208552    3.441028    2.650325
  H      3.218517    4.103096    1.357441
  H      2.059430    5.144805    2.198974
  H     -3.069781    0.641771   -2.172951
  H     -4.484850    1.442841   -1.424727
  H     -4.253158   -0.326884   -1.246022
  H     -2.781320   -3.280041    1.215044
  H     -1.807225   -2.229043    2.288797
  H     -1.130232   -2.775593    0.738501

 Total Charge           Charge          ....    0
 Multiplicity           Mult            ....    1
 Number of Electrons    NEL             ....  174
 Basis Dimension        Dim             ....  510

ORBITAL ENERGIES
----------------

  NO   OCC          E(Eh)            E(eV)
   0   2.0000     -88.579147     -2410.3611
   1   2.0000     -88.528012     -2408.9697
   2   2.0000     -76.921568     -2093.1423
   3   2.0000     -19.016506      -517.4654
   4   2.0000     -19.008905      -517.2586
   5   2.0000     -18.996460      -516.9200
   6   2.0000     -18.990654      -516.7620
   7   2.0000     -18.950418      -515.6671
   8   2.0000     -18.947556      -515.5892
   9   2.0000     -10.178398      -276.9683
  10   2.0000     -10.169126      -276.7160
  11   2.0000     -10.103214      -274.9224
  12   2.0000     -10.089605      -274.5521
  13   2.0000     -10.086786      -274.4754
  14   2.0000     -10.084700      -274.4186
  15   2.0000     -10.077830      -274.2317
  16   2.0000     -10.053037      -273.5570
  17   2.0000     -10.020586      -272.6740
  18   2.0000     -10.019822      -272.6532
  19   2.0000      -7.873636      -214.2525
  20   2.0000      -7.823408      -212.8858
  21   2.0000      -6.599651      -179.5856
  22   2.0000      -5.820718      -158.3898
  23   2.0000      -5.817502      -158.3023
  24   2.0000      -5.810485      -158.1113
  25   2.0000      -5.771242      -157.0435
  26   2.0000      -5.763793      -156.8408
  27   2.0000      -5.762997      -156.8191
  28   2.0000      -4.745263      -129.1252
  29   2.0000      -4.744742      -129.1110
  30   2.0000      -4.743285      -129.0713
  31   2.0000      -1.096339       -29.8329
  32   2.0000      -1.087268       -29.5861
  33   2.0000      -1.052210       -28.6321
  34   2.0000      -1.008994       -27.4561
  35   2.0000      -1.001523       -27.2528
  36   2.0000      -0.994437       -27.0600
  37   2.0000      -0.814974       -22.1766
  38   2.0000      -0.751341       -20.4450
  39   2.0000      -0.748395       -20.3649
  40   2.0000      -0.729624       -19.8541
  41   2.0000      -0.696486       -18.9523
  42   2.0000      -0.667861       -18.1734
  43   2.0000      -0.661999       -18.0139
  44   2.0000      -0.653881       -17.7930
  45   2.0000      -0.612859       -16.6767
  46   2.0000      -0.594383       -16.1740
  47   2.0000      -0.544158       -14.8073
  48   2.0000      -0.539282       -14.6746
  49   2.0000      -0.531532       -14.4637
  50   2.0000      -0.504577       -13.7302
  51   2.0000      -0.491100       -13.3635
  52   2.0000      -0.479046       -13.0355
  53   2.0000      -0.477917       -13.0048
  54   2.0000      -0.464976       -12.6526
  55   2.0000      -0.456700       -12.4274
  56   2.0000      -0.450583       -12.2610
  57   2.0000      -0.445831       -12.1317
  58   2.0000      -0.440161       -11.9774
  59   2.0000      -0.431407       -11.7392
  60   2.0000      -0.424510       -11.5515
  61   2.0000      -0.410789       -11.1781
  62   2.0000      -0.407957       -11.1011
  63   2.0000      -0.395786       -10.7699
  64   2.0000      -0.394519       -10.7354
  65   2.0000      -0.373304       -10.1581
  66   2.0000      -0.368244       -10.0204
  67   2.0000      -0.365627        -9.9492
  68   2.0000      -0.364596        -9.9212
  69   2.0000      -0.356986        -9.7141
  70   2.0000      -0.349144        -9.5007
  71   2.0000      -0.336268        -9.1503
  72   2.0000      -0.330612        -8.9964
  73   2.0000      -0.329606        -8.9690
  74   2.0000      -0.324481        -8.8296
  75   2.0000      -0.319857        -8.7038
  76   2.0000      -0.315404        -8.5826
  77   2.0000      -0.313015        -8.5176
  78   2.0000      -0.291003        -7.9186
  79   2.0000      -0.287507        -7.8234
  80   2.0000      -0.283148        -7.7048
  81   2.0000      -0.276724        -7.5300
  82   2.0000      -0.268582        -7.3085
  83   2.0000      -0.250777        -6.8240
  84   2.0000      -0.241929        -6.5832
  85   2.0000      -0.226750        -6.1702
  86   2.0000      -0.224212        -6.1011
  87   0.0000      -0.053778        -1.4634
  88   0.0000      -0.041101        -1.1184
  89   0.0000      -0.021803        -0.5933
  90   0.0000      -0.001590        -0.0433
  91   0.0000       0.011427         0.3109

MULLIKEN ATOMIC CHARGES
-----------------------
   0 C :   -0.491532
   1 C :   -0.152059
   2 O :   -0.156815
   3 C :    0.427915
   4 O :   -0.461722
   5 C :   -0.497927
   6 C :    0.081253
   7 H :    0.245888
   8 C :    0.261191
   9 O :   -0.448562
  10 O :   -0.137428
  11 C :   -0.147706
  12 C :   -0.490200
  13 S :   -0.188672
  14 P :    0.787325
  15 S :   -0.499564
  16 O :   -0.348359
  17 C :   -0.304706
  18 O :   -0.382098
  19 C :   -0.318613
  20 H :    0.165593
  21 H :    0.166873
  22 H :    0.170559
  23 H :    0.174633
  24 H :    0.176739
  25 H :    0.207238
  26 H :    0.214998
  27 H :    0.178749
  28 H :    0.177159
  29 H :    0.168125
  30 H :    0.166758
  31 H :    0.172514
  32 H :    0.179518
  33 H :    0.182409
  34 H :    0.186326
  35 H :    0.176087
  36 H :    0.178642
  37 H :    0.179472
Sum of atomic charges:   -0.0000000

LOEWDIN ATOMIC CHARGES
----------------------
   0 C :   -0.388458
   1 C :    0.039515
   2 O :   -0.586578
   3 C :    0.343823
   4 O :   -0.485059
   5 C :   -0.206260
   6 C :   -0.181057
   7 H :    0.224719
   8 C :    0.345080
   9 O :   -0.501297
  10 O :   -0.569570
  11 C :    0.042849
  12 C :   -0.386664
  13 S :    0.230839
  14 P :    0.410980
  15 S :   -0.102882
  16 O :   -0.671878
  17 C :   -0.043910
  18 O :   -0.701155
  19 C :   -0.060913
  20 H :    0.163096
  21 H :    0.163291
  22 H :    0.169098
  23 H :    0.187184
  24 H :    0.186026
  25 H :    0.203762
  26 H :    0.196935
  27 H :    0.187694
  28 H :    0.191683
  29 H :    0.163586
  30 H :    0.164134
  31 H :    0.170077
  32 H :    0.179637
  33 H :    0.191943
  34 H :    0.181196
  35 H :    0.186520
  36 H :    0.176867
  37 H :    0.185145

  Mayer bond orders larger than 0.100000
B(  0-C ,  1-C ) :   0.9451 B(  0-C , 20-H ) :   0.9681 B(  0-C , 21-H ) :   0.9717
B(  0-C , 22-H ) :   0.9612 B(  1-C ,  2-O ) :   0.7821 B(  1-C , 23-H ) :   0.9498
B(  1-C , 24-H ) :   0.9402 B(  2-O ,  3-C ) :   1.0905 B(  3-C ,  4-O ) :   1.7384
B(  3-C ,  5-C ) :   0.9036 B(  5-C ,  6-C ) :   0.8918 B(  5-C , 25-H ) :   0.9259
B(  5-C , 26-H ) :   0.9854 B(  6-C ,  7-H ) :   0.8544 B(  6-C ,  8-C ) :   0.9607
B(  6-C , 13-S ) :   0.7999 B(  8-C ,  9-O ) :   1.7404 B(  8-C , 10-O ) :   1.1834
B( 10-O , 11-C ) :   0.7628 B( 11-C , 12-C ) :   0.9442 B( 11-C , 27-H ) :   0.9352
B( 11-C , 28-H ) :   0.9545 B( 12-C , 29-H ) :   0.9724 B( 12-C , 30-H ) :   0.9663
B( 12-C , 31-H ) :   0.9608 B( 13-S , 14-P ) :   1.0202 B( 14-P , 15-S ) :   1.7435
B( 14-P , 16-O ) :   1.1800 B( 14-P , 18-O ) :   1.0163 B( 16-O , 17-C ) :   0.7919
B( 17-C , 32-H ) :   0.9475 B( 17-C , 33-H ) :   0.9541 B( 17-C , 34-H ) :   0.9534
B( 18-O , 19-C ) :   0.8272 B( 19-C , 35-H ) :   0.9582 B( 19-C , 36-H ) :   0.9549
B( 19-C , 37-H ) :   0.9423

Dispersion correction           -0.017361954
FINAL SINGLE POINT ENERGY     -1981.462596809667

DIPOLE MOMENT
-------------

Method             : SCF
Type of density    : Electron Density
Multiplicity       :   1
Irrep              :   0
Energy             : -1981.4826545771020392 Eh
Relativity type    :
Basis              : AO
                                X                 Y                 Z
Electronic contribution:    -13.293533289       1.909743154       3.204884007
Nuclear contribution   :     15.143205025      -2.000064738      -5.156306086
                        -----------------------------------------
Total Dipole Moment    :      1.849671737      -0.090321584      -1.951422078
                        -----------------------------------------
Magnitude (a.u.)       :      2.690258659
Magnitude (Debye)      :      6.838094078

Rotational constants in cm-1:             0.010745             0.007932             0.005689
Rotational constants in MHz :           322.122233           237.783311           170.564103

                             ****ORCA TERMINATED NORMALLY****
TOTAL RUN TIME: 0 days 0 hours 1 minutes 42 seconds 566 msec
