                         Program Version 6.0.0  -   RELEASE  -
|  1> ! r2scan-3c def2/J RI DEFGRID2 scfconv6 printgap
|  2> %output
|  3>     printlevel normal
|  4> end
|  5> * xyz 0 1
|  6> C 4.2430034455 -1.550928687 -2.398233715
|  7> C 3.2393010139 -2.4591347 -1.7182661592
|  8> O 2.8550241936 -1.9858768373 -0.4135735415
|  9> P 2.2565054946 -0.5558476281 -0.0946767088
| 10> S 3.4863526934 0.9727270348 0.0213513006
| 11> O 1.5561791752 -0.9350912231 1.2734744093
| 12> C 1.6707557506 -0.1829534692 2.4984435649
| 13> C 0.3732865255 -0.3124408692 3.2698633963
| 14> S 0.7075261192 -0.3725165308 -1.5473056219
| 15> C 0.4420816885 1.4010090932 -1.3341397018
| 16> S -0.2082789718 1.8004053136 0.3117494083
| 17> P -2.0764250773 0.84013122 0.0673698784
| 18> S -2.9216777408 0.9731686822 -1.6982268008
| 19> O -2.7792590117 1.5957136276 1.2701294191
| 20> C -4.2129362172 1.7120200733 1.3735142885
| 21> C -4.884595014 0.3651205283 1.5464812424
| 22> O -1.9077148487 -0.6442081881 0.6181011269
| 23> C -2.0838068967 -1.8493175799 -0.1543626957
| 24> C -1.158613523 -2.9160662348 0.3938507517
| 25> H 5.1056390236 -1.3911489176 -1.7556413095
| 26> H 4.5672959074 -2.0044670152 -3.3292966208
| 27> H 3.7907840845 -0.5838282376 -2.6136607896
| 28> H 3.6646002811 -3.4437837083 -1.5163688807
| 29> H 2.3360344901 -2.5625952052 -2.3260510271
| 30> H 2.5061774154 -0.608164784 3.0597816455
| 31> H 1.896329243 0.8623764546 2.2631385713
| 32> H 0.4722599418 0.2103606511 4.2155160224
| 33> H -0.4503577556 0.1233110436 2.7088438126
| 34> H 0.1566355661 -1.3603098324 3.4554377846
| 35> H -0.269329497 1.7102234062 -2.0995527441
| 36> H 1.391230125 1.928349619 -1.4313243697
| 37> H -4.3587295644 2.3529712676 2.2440473796
| 38> H -4.5832853852 2.2150601298 0.4748614887
| 39> H -4.4415377814 -0.1723580406 2.3810020772
| 40> H -5.943867806 0.5127264498 1.7328248804
| 41> H -4.766367589 -0.225261023 0.6379744565
| 42> H -3.1296753934 -2.1504961895 -0.0530864039
| 43> H -1.8768367253 -1.6379323544 -1.2076133264
| 44> H -1.3816783422 -3.0983883189 1.4409453803
| 45> H -1.3020981459 -3.8313267678 -0.1708980576
| 46> H -0.1205792372 -2.6034501895 0.3084492152
| 47> *
| 48>
| 49>                          ****END OF INPUT****

CARTESIAN COORDINATES (ANGSTROEM)
---------------------------------
  C      4.243003   -1.550929   -2.398234
  C      3.239301   -2.459135   -1.718266
  O      2.855024   -1.985877   -0.413574
  P      2.256505   -0.555848   -0.094677
  S      3.486353    0.972727    0.021351
  O      1.556179   -0.935091    1.273474
  C      1.670756   -0.182953    2.498444
  C      0.373287   -0.312441    3.269863
  S      0.707526   -0.372517   -1.547306
  C      0.442082    1.401009   -1.334140
  S     -0.208279    1.800405    0.311749
  P     -2.076425    0.840131    0.067370
  S     -2.921678    0.973169   -1.698227
  O     -2.779259    1.595714    1.270129
  C     -4.212936    1.712020    1.373514
  C     -4.884595    0.365121    1.546481
  O     -1.907715   -0.644208    0.618101
  C     -2.083807   -1.849318   -0.154363
  C     -1.158614   -2.916066    0.393851
  H      5.105639   -1.391149   -1.755641
  H      4.567296   -2.004467   -3.329297
  H      3.790784   -0.583828   -2.613661
  H      3.664600   -3.443784   -1.516369
  H      2.336034   -2.562595   -2.326051
  H      2.506177   -0.608165    3.059782
  H      1.896329    0.862376    2.263139
  H      0.472260    0.210361    4.215516
  H     -0.450358    0.123311    2.708844
  H      0.156636   -1.360310    3.455438
  H     -0.269329    1.710223   -2.099553
  H      1.391230    1.928350   -1.431324
  H     -4.358730    2.352971    2.244047
  H     -4.583285    2.215060    0.474861
  H     -4.441538   -0.172358    2.381002
  H     -5.943868    0.512726    1.732825
  H     -4.766368   -0.225261    0.637974
  H     -3.129675   -2.150496   -0.053086
  H     -1.876837   -1.637932   -1.207613
  H     -1.381678   -3.098388    1.440945
  H     -1.302098   -3.831327   -0.170898
  H     -0.120579   -2.603450    0.308449

 Total Charge           Charge          ....    0
 Multiplicity           Mult            ....    1
 Number of Electrons    NEL             ....  202
 Basis Dimension        Dim             ....  539

ORBITAL ENERGIES
----------------

  NO   OCC          E(Eh)            E(eV)
   0   2.0000     -88.578950     -2410.3558
   1   2.0000     -88.575604     -2410.2647
   2   2.0000     -88.524753     -2408.8810
   3   2.0000     -88.520778     -2408.7728
   4   2.0000     -76.916570     -2093.0063
   5   2.0000     -76.916447     -2093.0029
   6   2.0000     -18.995096      -516.8828
   7   2.0000     -18.993529      -516.8402
   8   2.0000     -18.990497      -516.7577
   9   2.0000     -18.987511      -516.6764
  10   2.0000     -10.106302      -275.0064
  11   2.0000     -10.106047      -274.9995
  12   2.0000     -10.103252      -274.9235
  13   2.0000     -10.096619      -274.7430
  14   2.0000     -10.092198      -274.6227
  15   2.0000     -10.034637      -273.0564
  16   2.0000     -10.029223      -272.9090
  17   2.0000     -10.026812      -272.8434
  18   2.0000     -10.023517      -272.7538
  19   2.0000      -7.873424      -214.2468
  20   2.0000      -7.869885      -214.1504
  21   2.0000      -7.819473      -212.7787
  22   2.0000      -7.815534      -212.6715
  23   2.0000      -6.594828      -179.4544
  24   2.0000      -6.594718      -179.4514
  25   2.0000      -5.820161      -158.3746
  26   2.0000      -5.817186      -158.2937
  27   2.0000      -5.816781      -158.2826
  28   2.0000      -5.813869      -158.2034
  29   2.0000      -5.810765      -158.1190
  30   2.0000      -5.806860      -158.0127
  31   2.0000      -5.767107      -156.9310
  32   2.0000      -5.763219      -156.8252
  33   2.0000      -5.760033      -156.7385
  34   2.0000      -5.759222      -156.7164
  35   2.0000      -5.755856      -156.6248
  36   2.0000      -5.755475      -156.6144
  37   2.0000      -4.740156      -128.9862
  38   2.0000      -4.740117      -128.9852
  39   2.0000      -4.739821      -128.9771
  40   2.0000      -4.739575      -128.9704
  41   2.0000      -4.738932      -128.9529
  42   2.0000      -4.738365      -128.9375
  43   2.0000      -1.051771       -28.6201
  44   2.0000      -1.049602       -28.5611
  45   2.0000      -1.011003       -27.5108
  46   2.0000      -1.009319       -27.4650
  47   2.0000      -0.805260       -21.9122
  48   2.0000      -0.762290       -20.7430
  49   2.0000      -0.752252       -20.4698
  50   2.0000      -0.734302       -19.9814
  51   2.0000      -0.729417       -19.8484
  52   2.0000      -0.709778       -19.3140
  53   2.0000      -0.686233       -18.6734
  54   2.0000      -0.671471       -18.2716
  55   2.0000      -0.635866       -17.3028
  56   2.0000      -0.626845       -17.0573
  57   2.0000      -0.604806       -16.4576
  58   2.0000      -0.601270       -16.3614
  59   2.0000      -0.591164       -16.0864
  60   2.0000      -0.530015       -14.4225
  61   2.0000      -0.523191       -14.2368
  62   2.0000      -0.499161       -13.5829
  63   2.0000      -0.491853       -13.3840
  64   2.0000      -0.481662       -13.1067
  65   2.0000      -0.464624       -12.6431
  66   2.0000      -0.455830       -12.4038
  67   2.0000      -0.450013       -12.2455
  68   2.0000      -0.444420       -12.0933
  69   2.0000      -0.438344       -11.9279
  70   2.0000      -0.420615       -11.4455
  71   2.0000      -0.419724       -11.4213
  72   2.0000      -0.412732       -11.2310
  73   2.0000      -0.405747       -11.0409
  74   2.0000      -0.400541       -10.8993
  75   2.0000      -0.393992       -10.7211
  76   2.0000      -0.381365       -10.3775
  77   2.0000      -0.374029       -10.1778
  78   2.0000      -0.367184        -9.9916
  79   2.0000      -0.364523        -9.9192
  80   2.0000      -0.363513        -9.8917
  81   2.0000      -0.360510        -9.8100
  82   2.0000      -0.354072        -9.6348
  83   2.0000      -0.350476        -9.5369
  84   2.0000      -0.346752        -9.4356
  85   2.0000      -0.340087        -9.2542
  86   2.0000      -0.326123        -8.8743
  87   2.0000      -0.313996        -8.5443
  88   2.0000      -0.312174        -8.4947
  89   2.0000      -0.303365        -8.2550
  90   2.0000      -0.301028        -8.1914
  91   2.0000      -0.293998        -8.0001
  92   2.0000      -0.291020        -7.9191
  93   2.0000      -0.282821        -7.6960
  94   2.0000      -0.269797        -7.3415
  95   2.0000      -0.247380        -6.7315
  96   2.0000      -0.231670        -6.3041
  97   2.0000      -0.229856        -6.2547
  98   2.0000      -0.221031        -6.0145
  99   2.0000      -0.214958        -5.8493
 100   2.0000      -0.213381        -5.8064
 101   0.0000      -0.053396        -1.4530
 102   0.0000      -0.029525        -0.8034
 103   0.0000      -0.006570        -0.1788
 104   0.0000       0.002409         0.0655
 105   0.0000       0.004984         0.1356

MULLIKEN ATOMIC CHARGES
-----------------------
   0 C :   -0.425119
   1 C :   -0.149677
   2 O :   -0.305960
   3 P :    0.671547
   4 S :   -0.460572
   5 O :   -0.263487
   6 C :   -0.115777
   7 C :   -0.456181
   8 S :   -0.172406
   9 C :   -0.226835
  10 S :   -0.135656
  11 P :    0.669045
  12 S :   -0.475583
  13 O :   -0.313654
  14 C :   -0.155813
  15 C :   -0.443564
  16 O :   -0.253876
  17 C :   -0.096288
  18 C :   -0.471722
  19 H :    0.164350
  20 H :    0.147323
  21 H :    0.168698
  22 H :    0.151401
  23 H :    0.151421
  24 H :    0.148165
  25 H :    0.172119
  26 H :    0.144731
  27 H :    0.170736
  28 H :    0.146550
  29 H :    0.215540
  30 H :    0.213841
  31 H :    0.151130
  32 H :    0.173017
  33 H :    0.159701
  34 H :    0.150665
  35 H :    0.166298
  36 H :    0.144216
  37 H :    0.170247
  38 H :    0.147615
  39 H :    0.145284
  40 H :    0.178529
Sum of atomic charges:   -0.0000000

LOEWDIN ATOMIC CHARGES
----------------------
   0 C :   -0.405365
   1 C :    0.023292
   2 O :   -0.652583
   3 P :    0.385611
   4 S :   -0.122489
   5 O :   -0.665872
   6 C :    0.014197
   7 C :   -0.392623
   8 S :    0.144468
   9 C :   -0.420627
  10 S :    0.184549
  11 P :    0.380745
  12 S :   -0.123964
  13 O :   -0.674249
  14 C :    0.026246
  15 C :   -0.400273
  16 O :   -0.672494
  17 C :    0.008915
  18 C :   -0.392711
  19 H :    0.165618
  20 H :    0.158450
  21 H :    0.166115
  22 H :    0.182174
  23 H :    0.171770
  24 H :    0.172694
  25 H :    0.182309
  26 H :    0.158566
  27 H :    0.168613
  28 H :    0.158466
  29 H :    0.190541
  30 H :    0.192425
  31 H :    0.181422
  32 H :    0.179860
  33 H :    0.161853
  34 H :    0.160626
  35 H :    0.163507
  36 H :    0.169729
  37 H :    0.180821
  38 H :    0.159085
  39 H :    0.158390
  40 H :    0.172195

  Mayer bond orders larger than 0.100000
B(  0-C ,  1-C ) :   0.9417 B(  0-C , 19-H ) :   0.9658 B(  0-C , 20-H ) :   0.9629
B(  0-C , 21-H ) :   0.9547 B(  1-C ,  2-O ) :   0.8056 B(  1-C , 22-H ) :   0.9578
B(  1-C , 23-H ) :   0.9610 B(  2-O ,  3-P ) :   1.1106 B(  3-P ,  4-S ) :   1.8026
B(  3-P ,  5-O ) :   1.1339 B(  3-P ,  8-S ) :   1.0011 B(  5-O ,  6-C ) :   0.7651
B(  6-C ,  7-C ) :   0.9401 B(  6-C , 24-H ) :   0.9459 B(  6-C , 25-H ) :   0.9638
B(  7-C , 26-H ) :   0.9675 B(  7-C , 27-H ) :   0.9642 B(  7-C , 28-H ) :   0.9670
B(  8-S ,  9-C ) :   0.8910 B(  9-C , 10-S ) :   0.8968 B(  9-C , 29-H ) :   0.9094
B(  9-C , 30-H ) :   0.9060 B( 10-S , 11-P ) :   1.0650 B( 11-P , 12-S ) :   1.7733
B( 11-P , 13-O ) :   1.1506 B( 11-P , 16-O ) :   1.0598 B( 13-O , 14-C ) :   0.8127
B( 14-C , 15-C ) :   0.9161 B( 14-C , 31-H ) :   0.9597 B( 14-C , 32-H ) :   0.9689
B( 15-C , 33-H ) :   0.9693 B( 15-C , 34-H ) :   0.9591 B( 15-C , 35-H ) :   0.9627
B( 16-O , 17-C ) :   0.7506 B( 17-C , 18-C ) :   0.9324 B( 17-C , 36-H ) :   0.9449
B( 17-C , 37-H ) :   0.9613 B( 18-C , 38-H ) :   0.9670 B( 18-C , 39-H ) :   0.9693
B( 18-C , 40-H ) :   0.9657

Dispersion correction           -0.022612797
FINAL SINGLE POINT ENERGY     -2932.462007609948

DIPOLE MOMENT
-------------

Method             : SCF
Type of density    : Electron Density
Multiplicity       :   1
Irrep              :   0
Energy             : -2932.4860822435362024 Eh
Relativity type    :
Basis              : AO
                                X                 Y                 Z
Electronic contribution:      5.894002995      13.996646765      -7.595420612
Nuclear contribution   :     -6.516583109     -15.164673396       8.048183157
                        -----------------------------------------
Total Dipole Moment    :     -0.622580114      -1.168026631       0.452762545
                        -----------------------------------------
Magnitude (a.u.)       :      1.398887462
Magnitude (Debye)      :      3.555689352

Rotational constants in cm-1:             0.013420             0.005164             0.005025
Rotational constants in MHz :           402.316420           154.815536           150.657114

                             ****ORCA TERMINATED NORMALLY****
TOTAL RUN TIME: 0 days 0 hours 1 minutes 25 seconds 32 msec
