                         Program Version 6.0.0  -   RELEASE  -
|  1> ! r2scan-3c def2/J RI DEFGRID2 scfconv6 printgap
|  2> %output
|  3>     printlevel normal
|  4> end
|  5> %cpcm
|  6>     smd true
|  7>     smdsolvent "water"
|  8> end
|  9> * xyz 0 1
| 10> C 4.2430034455 -1.550928687 -2.398233715
| 11> C 3.2393010139 -2.4591347 -1.7182661592
| 12> O 2.8550241936 -1.9858768373 -0.4135735415
| 13> P 2.2565054946 -0.5558476281 -0.0946767088
| 14> S 3.4863526934 0.9727270348 0.0213513006
| 15> O 1.5561791752 -0.9350912231 1.2734744093
| 16> C 1.6707557506 -0.1829534692 2.4984435649
| 17> C 0.3732865255 -0.3124408692 3.2698633963
| 18> S 0.7075261192 -0.3725165308 -1.5473056219
| 19> C 0.4420816885 1.4010090932 -1.3341397018
| 20> S -0.2082789718 1.8004053136 0.3117494083
| 21> P -2.0764250773 0.84013122 0.0673698784
| 22> S -2.9216777408 0.9731686822 -1.6982268008
| 23> O -2.7792590117 1.5957136276 1.2701294191
| 24> C -4.2129362172 1.7120200733 1.3735142885
| 25> C -4.884595014 0.3651205283 1.5464812424
| 26> O -1.9077148487 -0.6442081881 0.6181011269
| 27> C -2.0838068967 -1.8493175799 -0.1543626957
| 28> C -1.158613523 -2.9160662348 0.3938507517
| 29> H 5.1056390236 -1.3911489176 -1.7556413095
| 30> H 4.5672959074 -2.0044670152 -3.3292966208
| 31> H 3.7907840845 -0.5838282376 -2.6136607896
| 32> H 3.6646002811 -3.4437837083 -1.5163688807
| 33> H 2.3360344901 -2.5625952052 -2.3260510271
| 34> H 2.5061774154 -0.608164784 3.0597816455
| 35> H 1.896329243 0.8623764546 2.2631385713
| 36> H 0.4722599418 0.2103606511 4.2155160224
| 37> H -0.4503577556 0.1233110436 2.7088438126
| 38> H 0.1566355661 -1.3603098324 3.4554377846
| 39> H -0.269329497 1.7102234062 -2.0995527441
| 40> H 1.391230125 1.928349619 -1.4313243697
| 41> H -4.3587295644 2.3529712676 2.2440473796
| 42> H -4.5832853852 2.2150601298 0.4748614887
| 43> H -4.4415377814 -0.1723580406 2.3810020772
| 44> H -5.943867806 0.5127264498 1.7328248804
| 45> H -4.766367589 -0.225261023 0.6379744565
| 46> H -3.1296753934 -2.1504961895 -0.0530864039
| 47> H -1.8768367253 -1.6379323544 -1.2076133264
| 48> H -1.3816783422 -3.0983883189 1.4409453803
| 49> H -1.3020981459 -3.8313267678 -0.1708980576
| 50> H -0.1205792372 -2.6034501895 0.3084492152
| 51> *
| 52>
| 53>                          ****END OF INPUT****

CARTESIAN COORDINATES (ANGSTROEM)
---------------------------------
  C      4.243003   -1.550929   -2.398234
  C      3.239301   -2.459135   -1.718266
  O      2.855024   -1.985877   -0.413574
  P      2.256505   -0.555848   -0.094677
  S      3.486353    0.972727    0.021351
  O      1.556179   -0.935091    1.273474
  C      1.670756   -0.182953    2.498444
  C      0.373287   -0.312441    3.269863
  S      0.707526   -0.372517   -1.547306
  C      0.442082    1.401009   -1.334140
  S     -0.208279    1.800405    0.311749
  P     -2.076425    0.840131    0.067370
  S     -2.921678    0.973169   -1.698227
  O     -2.779259    1.595714    1.270129
  C     -4.212936    1.712020    1.373514
  C     -4.884595    0.365121    1.546481
  O     -1.907715   -0.644208    0.618101
  C     -2.083807   -1.849318   -0.154363
  C     -1.158614   -2.916066    0.393851
  H      5.105639   -1.391149   -1.755641
  H      4.567296   -2.004467   -3.329297
  H      3.790784   -0.583828   -2.613661
  H      3.664600   -3.443784   -1.516369
  H      2.336034   -2.562595   -2.326051
  H      2.506177   -0.608165    3.059782
  H      1.896329    0.862376    2.263139
  H      0.472260    0.210361    4.215516
  H     -0.450358    0.123311    2.708844
  H      0.156636   -1.360310    3.455438
  H     -0.269329    1.710223   -2.099553
  H      1.391230    1.928350   -1.431324
  H     -4.358730    2.352971    2.244047
  H     -4.583285    2.215060    0.474861
  H     -4.441538   -0.172358    2.381002
  H     -5.943868    0.512726    1.732825
  H     -4.766368   -0.225261    0.637974
  H     -3.129675   -2.150496   -0.053086
  H     -1.876837   -1.637932   -1.207613
  H     -1.381678   -3.098388    1.440945
  H     -1.302098   -3.831327   -0.170898
  H     -0.120579   -2.603450    0.308449

 Total Charge           Charge          ....    0
 Multiplicity           Mult            ....    1
 Number of Electrons    NEL             ....  202
 Basis Dimension        Dim             ....  539

ORBITAL ENERGIES
----------------

  NO   OCC          E(Eh)            E(eV)
   0   2.0000     -88.581216     -2410.4174
   1   2.0000     -88.580028     -2410.3851
   2   2.0000     -88.530856     -2409.0471
   3   2.0000     -88.528386     -2408.9799
   4   2.0000     -76.921727     -2093.1466
   5   2.0000     -76.920790     -2093.1211
   6   2.0000     -18.997022      -516.9353
   7   2.0000     -18.994743      -516.8732
   8   2.0000     -18.992906      -516.8232
   9   2.0000     -18.992668      -516.8168
  10   2.0000     -10.105585      -274.9869
  11   2.0000     -10.093873      -274.6683
  12   2.0000     -10.091392      -274.6007
  13   2.0000     -10.088805      -274.5303
  14   2.0000     -10.088505      -274.5222
  15   2.0000     -10.019644      -272.6484
  16   2.0000     -10.019051      -272.6322
  17   2.0000     -10.017566      -272.5918
  18   2.0000     -10.017505      -272.5902
  19   2.0000      -7.875624      -214.3066
  20   2.0000      -7.874384      -214.2729
  21   2.0000      -7.825850      -212.9522
  22   2.0000      -7.823447      -212.8868
  23   2.0000      -6.599946      -179.5937
  24   2.0000      -6.599188      -179.5730
  25   2.0000      -5.822391      -158.4353
  26   2.0000      -5.821215      -158.4033
  27   2.0000      -5.819400      -158.3539
  28   2.0000      -5.818317      -158.3245
  29   2.0000      -5.812929      -158.1778
  30   2.0000      -5.811480      -158.1384
  31   2.0000      -5.773433      -157.1031
  32   2.0000      -5.771055      -157.0384
  33   2.0000      -5.766327      -156.9097
  34   2.0000      -5.765682      -156.8922
  35   2.0000      -5.763804      -156.8411
  36   2.0000      -5.763372      -156.8293
  37   2.0000      -4.745355      -129.1277
  38   2.0000      -4.745060      -129.1197
  39   2.0000      -4.744437      -129.1027
  40   2.0000      -4.743938      -129.0891
  41   2.0000      -4.743638      -129.0809
  42   2.0000      -4.743361      -129.0734
  43   2.0000      -1.054780       -28.7020
  44   2.0000      -1.050900       -28.5964
  45   2.0000      -1.012338       -27.5471
  46   2.0000      -1.011781       -27.5319
  47   2.0000      -0.807096       -21.9622
  48   2.0000      -0.759414       -20.6647
  49   2.0000      -0.746806       -20.3216
  50   2.0000      -0.724849       -19.7241
  51   2.0000      -0.722548       -19.6615
  52   2.0000      -0.709234       -19.2992
  53   2.0000      -0.689498       -18.7622
  54   2.0000      -0.676691       -18.4137
  55   2.0000      -0.633716       -17.2443
  56   2.0000      -0.623037       -16.9537
  57   2.0000      -0.598972       -16.2989
  58   2.0000      -0.595507       -16.2046
  59   2.0000      -0.589192       -16.0327
  60   2.0000      -0.527095       -14.3430
  61   2.0000      -0.520219       -14.1559
  62   2.0000      -0.494749       -13.4628
  63   2.0000      -0.489499       -13.3199
  64   2.0000      -0.480426       -13.0730
  65   2.0000      -0.459830       -12.5126
  66   2.0000      -0.450600       -12.2614
  67   2.0000      -0.446090       -12.1387
  68   2.0000      -0.441253       -12.0071
  69   2.0000      -0.436474       -11.8771
  70   2.0000      -0.419293       -11.4095
  71   2.0000      -0.413539       -11.2530
  72   2.0000      -0.410612       -11.1733
  73   2.0000      -0.403931       -10.9915
  74   2.0000      -0.398972       -10.8566
  75   2.0000      -0.393241       -10.7006
  76   2.0000      -0.378075       -10.2879
  77   2.0000      -0.367198        -9.9920
  78   2.0000      -0.360713        -9.8155
  79   2.0000      -0.357118        -9.7177
  80   2.0000      -0.355462        -9.6726
  81   2.0000      -0.353999        -9.6328
  82   2.0000      -0.349322        -9.5055
  83   2.0000      -0.344872        -9.3844
  84   2.0000      -0.342414        -9.3176
  85   2.0000      -0.336156        -9.1473
  86   2.0000      -0.323708        -8.8086
  87   2.0000      -0.310595        -8.4517
  88   2.0000      -0.305994        -8.3265
  89   2.0000      -0.304354        -8.2819
  90   2.0000      -0.301005        -8.1908
  91   2.0000      -0.291635        -7.9358
  92   2.0000      -0.289645        -7.8816
  93   2.0000      -0.282470        -7.6864
  94   2.0000      -0.270886        -7.3712
  95   2.0000      -0.250122        -6.8062
  96   2.0000      -0.238108        -6.4793
  97   2.0000      -0.235848        -6.4178
  98   2.0000      -0.228568        -6.2197
  99   2.0000      -0.222254        -6.0478
 100   2.0000      -0.219856        -5.9826
 101   0.0000      -0.057851        -1.5742
 102   0.0000      -0.034754        -0.9457
 103   0.0000      -0.010628        -0.2892
 104   0.0000       0.000352         0.0096
 105   0.0000       0.005406         0.1471

MULLIKEN ATOMIC CHARGES
-----------------------
   0 C :   -0.466453
   1 C :   -0.150635
   2 O :   -0.336803
   3 P :    0.705121
   4 S :   -0.508326
   5 O :   -0.291887
   6 C :   -0.105989
   7 C :   -0.507274
   8 S :   -0.167144
   9 C :   -0.237410
  10 S :   -0.159131
  11 P :    0.693895
  12 S :   -0.514608
  13 O :   -0.342481
  14 C :   -0.155199
  15 C :   -0.477336
  16 O :   -0.277995
  17 C :   -0.087989
  18 C :   -0.516415
  19 H :    0.170457
  20 H :    0.173921
  21 H :    0.165782
  22 H :    0.178113
  23 H :    0.172374
  24 H :    0.171570
  25 H :    0.171987
  26 H :    0.170218
  27 H :    0.167801
  28 H :    0.167582
  29 H :    0.236955
  30 H :    0.232611
  31 H :    0.176500
  32 H :    0.178751
  33 H :    0.170663
  34 H :    0.174600
  35 H :    0.170442
  36 H :    0.173401
  37 H :    0.169414
  38 H :    0.168450
  39 H :    0.170953
  40 H :    0.171514
Sum of atomic charges:    0.0000000

LOEWDIN ATOMIC CHARGES
----------------------
   0 C :   -0.409134
   1 C :    0.030060
   2 O :   -0.666922
   3 P :    0.389707
   4 S :   -0.154712
   5 O :   -0.680735
   6 C :    0.016246
   7 C :   -0.396796
   8 S :    0.152538
   9 C :   -0.415114
  10 S :    0.170099
  11 P :    0.383360
  12 S :   -0.149347
  13 O :   -0.688134
  14 C :    0.030410
  15 C :   -0.402234
  16 O :   -0.683350
  17 C :    0.013368
  18 C :   -0.396519
  19 H :    0.164562
  20 H :    0.168557
  21 H :    0.161893
  22 H :    0.193595
  23 H :    0.179861
  24 H :    0.181489
  25 H :    0.182165
  26 H :    0.168412
  27 H :    0.164817
  28 H :    0.163663
  29 H :    0.196914
  30 H :    0.198140
  31 H :    0.191935
  32 H :    0.181684
  33 H :    0.165001
  34 H :    0.169584
  35 H :    0.163253
  36 H :    0.181028
  37 H :    0.180860
  38 H :    0.163813
  39 H :    0.168683
  40 H :    0.167301

  Mayer bond orders larger than 0.100000
B(  0-C ,  1-C ) :   0.9217 B(  0-C , 19-H ) :   0.9668 B(  0-C , 20-H ) :   0.9567
B(  0-C , 21-H ) :   0.9572 B(  1-C ,  2-O ) :   0.7957 B(  1-C , 22-H ) :   0.9480
B(  1-C , 23-H ) :   0.9558 B(  2-O ,  3-P ) :   1.1185 B(  3-P ,  4-S ) :   1.7653
B(  3-P ,  5-O ) :   1.1346 B(  3-P ,  8-S ) :   1.0166 B(  5-O ,  6-C ) :   0.7552
B(  6-C ,  7-C ) :   0.9276 B(  6-C , 24-H ) :   0.9369 B(  6-C , 25-H ) :   0.9609
B(  7-C , 26-H ) :   0.9610 B(  7-C , 27-H ) :   0.9670 B(  7-C , 28-H ) :   0.9645
B(  8-S ,  9-C ) :   0.8826 B(  9-C , 10-S ) :   0.8853 B(  9-C , 29-H ) :   0.9040
B(  9-C , 30-H ) :   0.9006 B( 10-S , 11-P ) :   1.0735 B( 11-P , 12-S ) :   1.7518
B( 11-P , 13-O ) :   1.1547 B( 11-P , 16-O ) :   1.0631 B( 13-O , 14-C ) :   0.8002
B( 14-C , 15-C ) :   0.9063 B( 14-C , 31-H ) :   0.9499 B( 14-C , 32-H ) :   0.9649
B( 15-C , 33-H ) :   0.9674 B( 15-C , 34-H ) :   0.9534 B( 15-C , 35-H ) :   0.9604
B( 16-O , 17-C ) :   0.7406 B( 17-C , 18-C ) :   0.9222 B( 17-C , 36-H ) :   0.9368
B( 17-C , 37-H ) :   0.9576 B( 18-C , 38-H ) :   0.9656 B( 18-C , 39-H ) :   0.9618
B( 18-C , 40-H ) :   0.9670

Dispersion correction           -0.022612797
FINAL SINGLE POINT ENERGY     -2932.470379419316

DIPOLE MOMENT
-------------

Method             : SCF
Type of density    : Electron Density
Multiplicity       :   1
Irrep              :   0
Energy             : -2932.4944540529036203 Eh
Relativity type    :
Basis              : AO
                                X                 Y                 Z
Electronic contribution:      5.614080204      13.554628341      -7.614880538
Nuclear contribution   :     -6.516583109     -15.164673396       8.048183157
                        -----------------------------------------
Total Dipole Moment    :     -0.902502905      -1.610045055       0.433302619
                        -----------------------------------------
Magnitude (a.u.)       :      1.895918704
Magnitude (Debye)      :      4.819042371

Rotational constants in cm-1:             0.013420             0.005164             0.005025
Rotational constants in MHz :           402.316420           154.815536           150.657114

                             ****ORCA TERMINATED NORMALLY****
TOTAL RUN TIME: 0 days 0 hours 1 minutes 53 seconds 392 msec
