                         Program Version 6.0.0  -   RELEASE  -
|  1> ! pbe def2-sv(p) def2/J RI DEFGRID1 loosescf d4 GCP(DFT/SV(P)) printgap
|  2> %output
|  3>     printlevel normal
|  4> end
|  5> * xyz 0 1
|  6> C 5.7732337817 -0.0850640506 0.1891374098
|  7> C 4.4539112452 -0.7367369899 -0.1739835422
|  8> O 3.3900285728 0.0544892857 0.3902689727
|  9> P 1.9365095378 0.1097550453 -0.2555468911
| 10> S 1.9553207184 0.2067042216 -2.2200836797
| 11> O 1.2732557677 1.2495119689 0.6146780133
| 12> C 1.8519904381 2.5511191999 0.8506296493
| 13> C 2.1269140303 3.3024040252 -0.4345792802
| 14> S 1.0007388699 -1.6079085233 0.5167778664
| 15> C -0.1888654346 -1.981271944 -0.8154176639
| 16> S -1.8985410283 -1.9576614332 -0.2512039925
| 17> P -2.0460273696 0.1243266894 0.1777289035
| 18> S -1.3275432339 1.2891430984 -1.2257691757
| 19> O -1.3272180135 0.4449672996 1.5434178783
| 20> C -1.7976196423 0.1041331439 2.8721488053
| 21> C -1.8110038151 -1.3886726669 3.1293529113
| 22> O -3.5732287809 0.2982617133 0.5745389288
| 23> C -4.6895227469 -0.2313072537 -0.1656851633
| 24> C -4.7110135815 0.2316820896 -1.6069063686
| 25> H 5.8329805593 0.9100673464 -0.2431757858
| 26> H 5.864716282 -0.007785681 1.2687019369
| 27> H 6.5854351019 -0.6910487532 -0.1984423472
| 28> H 4.3775234342 -1.7435805359 0.2434741144
| 29> H 4.3148341707 -0.7842871948 -1.2595635521
| 30> H 1.0931950721 3.0561641905 1.4512718909
| 31> H 2.7661649392 2.4153414842 1.4330525377
| 32> H 2.8952035367 2.7908001519 -1.0134361773
| 33> H 1.2217069756 3.3535348563 -1.037805679
| 34> H 2.4638095442 4.3079842917 -0.2036613195
| 35> H 9.51201e-05 -2.9933554338 -1.1637984666
| 36> H -0.04510548 -1.2535996875 -1.619950095
| 37> H -1.0818386284 0.6122620049 3.5205133844
| 38> H -2.7912007818 0.5367076198 3.0016171739
| 39> H -2.57750987 -1.8765925755 2.5317710168
| 40> H -0.8440729628 -1.823669708 2.8851644649
| 41> H -2.0222202115 -1.5592416067 4.1805205606
| 42> H -4.6475789115 -1.3224596597 -0.1116602766
| 43> H -5.5574060878 0.1368626738 0.3843764707
| 44> H -4.689130947 1.3177619997 -1.6581336586
| 45> H -3.8414788386 -0.1523105112 -2.1384983097
| 46> H -5.6111595381 -0.1342040166 -2.0900002358
| 47> *
| 48>
| 49>                          ****END OF INPUT****

CARTESIAN COORDINATES (ANGSTROEM)
---------------------------------
  C      5.773234   -0.085064    0.189137
  C      4.453911   -0.736737   -0.173984
  O      3.390029    0.054489    0.390269
  P      1.936510    0.109755   -0.255547
  S      1.955321    0.206704   -2.220084
  O      1.273256    1.249512    0.614678
  C      1.851990    2.551119    0.850630
  C      2.126914    3.302404   -0.434579
  S      1.000739   -1.607909    0.516778
  C     -0.188865   -1.981272   -0.815418
  S     -1.898541   -1.957661   -0.251204
  P     -2.046027    0.124327    0.177729
  S     -1.327543    1.289143   -1.225769
  O     -1.327218    0.444967    1.543418
  C     -1.797620    0.104133    2.872149
  C     -1.811004   -1.388673    3.129353
  O     -3.573229    0.298262    0.574539
  C     -4.689523   -0.231307   -0.165685
  C     -4.711014    0.231682   -1.606906
  H      5.832981    0.910067   -0.243176
  H      5.864716   -0.007786    1.268702
  H      6.585435   -0.691049   -0.198442
  H      4.377523   -1.743581    0.243474
  H      4.314834   -0.784287   -1.259564
  H      1.093195    3.056164    1.451272
  H      2.766165    2.415341    1.433053
  H      2.895204    2.790800   -1.013436
  H      1.221707    3.353535   -1.037806
  H      2.463810    4.307984   -0.203661
  H      0.000095   -2.993355   -1.163798
  H     -0.045105   -1.253600   -1.619950
  H     -1.081839    0.612262    3.520513
  H     -2.791201    0.536708    3.001617
  H     -2.577510   -1.876593    2.531771
  H     -0.844073   -1.823670    2.885164
  H     -2.022220   -1.559242    4.180521
  H     -4.647579   -1.322460   -0.111660
  H     -5.557406    0.136863    0.384376
  H     -4.689131    1.317762   -1.658134
  H     -3.841479   -0.152311   -2.138498
  H     -5.611160   -0.134204   -2.090000

 Total Charge           Charge          ....    0
 Multiplicity           Mult            ....    1
 Number of Electrons    NEL             ....  202
 Basis Dimension        Dim             ....  334

ORBITAL ENERGIES
----------------

  NO   OCC          E(Eh)            E(eV)
   0   2.0000     -88.041065     -2395.7192
   1   2.0000     -88.037168     -2395.6131
   2   2.0000     -87.977003     -2393.9760
   3   2.0000     -87.971820     -2393.8349
   4   2.0000     -76.421132     -2079.5247
   5   2.0000     -76.419597     -2079.4830
   6   2.0000     -18.793999      -511.4107
   7   2.0000     -18.789295      -511.2827
   8   2.0000     -18.782585      -511.1001
   9   2.0000     -18.777818      -510.9704
  10   2.0000      -9.959021      -270.9987
  11   2.0000      -9.951620      -270.7973
  12   2.0000      -9.951180      -270.7854
  13   2.0000      -9.947563      -270.6870
  14   2.0000      -9.945735      -270.6372
  15   2.0000      -9.886337      -269.0209
  16   2.0000      -9.882701      -268.9220
  17   2.0000      -9.880888      -268.8726
  18   2.0000      -9.872397      -268.6416
  19   2.0000      -7.686048      -209.1480
  20   2.0000      -7.682423      -209.0493
  21   2.0000      -7.621973      -207.4044
  22   2.0000      -7.616895      -207.2663
  23   2.0000      -6.418001      -174.6427
  24   2.0000      -6.416812      -174.6103
  25   2.0000      -5.713817      -155.4809
  26   2.0000      -5.710437      -155.3889
  27   2.0000      -5.710284      -155.3847
  28   2.0000      -5.706895      -155.2925
  29   2.0000      -5.703268      -155.1938
  30   2.0000      -5.699356      -155.0874
  31   2.0000      -5.650874      -153.7681
  32   2.0000      -5.645966      -153.6345
  33   2.0000      -5.642763      -153.5474
  34   2.0000      -5.641974      -153.5259
  35   2.0000      -5.637518      -153.4047
  36   2.0000      -5.636866      -153.3869
  37   2.0000      -4.641065      -126.2898
  38   2.0000      -4.640002      -126.2609
  39   2.0000      -4.639633      -126.2508
  40   2.0000      -4.638358      -126.2161
  41   2.0000      -4.637860      -126.2026
  42   2.0000      -4.637289      -126.1871
  43   2.0000      -0.985082       -26.8054
  44   2.0000      -0.980512       -26.6811
  45   2.0000      -0.939732       -25.5714
  46   2.0000      -0.935315       -25.4512
  47   2.0000      -0.759734       -20.6734
  48   2.0000      -0.717526       -19.5249
  49   2.0000      -0.707524       -19.2527
  50   2.0000      -0.688881       -18.7454
  51   2.0000      -0.683978       -18.6120
  52   2.0000      -0.671213       -18.2646
  53   2.0000      -0.645938       -17.5769
  54   2.0000      -0.627698       -17.0805
  55   2.0000      -0.589273       -16.0349
  56   2.0000      -0.584379       -15.9018
  57   2.0000      -0.578283       -15.7359
  58   2.0000      -0.566382       -15.4120
  59   2.0000      -0.559791       -15.2327
  60   2.0000      -0.500293       -13.6137
  61   2.0000      -0.495368       -13.4797
  62   2.0000      -0.468329       -12.7439
  63   2.0000      -0.465085       -12.6556
  64   2.0000      -0.449698       -12.2369
  65   2.0000      -0.444450       -12.0941
  66   2.0000      -0.433971       -11.8090
  67   2.0000      -0.433590       -11.7986
  68   2.0000      -0.429231       -11.6800
  69   2.0000      -0.410005       -11.1568
  70   2.0000      -0.407826       -11.0975
  71   2.0000      -0.403018       -10.9667
  72   2.0000      -0.398178       -10.8350
  73   2.0000      -0.383509       -10.4358
  74   2.0000      -0.380264       -10.3475
  75   2.0000      -0.364495        -9.9184
  76   2.0000      -0.352882        -9.6024
  77   2.0000      -0.351325        -9.5600
  78   2.0000      -0.350617        -9.5408
  79   2.0000      -0.343446        -9.3456
  80   2.0000      -0.341534        -9.2936
  81   2.0000      -0.337578        -9.1860
  82   2.0000      -0.336083        -9.1453
  83   2.0000      -0.335150        -9.1199
  84   2.0000      -0.327623        -8.9151
  85   2.0000      -0.320924        -8.7328
  86   2.0000      -0.310346        -8.4449
  87   2.0000      -0.295689        -8.0461
  88   2.0000      -0.295239        -8.0339
  89   2.0000      -0.290648        -7.9089
  90   2.0000      -0.274502        -7.4696
  91   2.0000      -0.272995        -7.4286
  92   2.0000      -0.267073        -7.2674
  93   2.0000      -0.257665        -7.0114
  94   2.0000      -0.253249        -6.8912
  95   2.0000      -0.231695        -6.3048
  96   2.0000      -0.218425        -5.9436
  97   2.0000      -0.207599        -5.6491
  98   2.0000      -0.192233        -5.2309
  99   2.0000      -0.183041        -4.9808
 100   2.0000      -0.177381        -4.8268
 101   0.0000      -0.038929        -1.0593
 102   0.0000      -0.028479        -0.7750
 103   0.0000      -0.006604        -0.1797
 104   0.0000       0.014056         0.3825
 105   0.0000       0.020104         0.5471

MULLIKEN ATOMIC CHARGES
-----------------------
   0 C :   -0.284921
   1 C :   -0.006242
   2 O :   -0.389717
   3 P :    0.629463
   4 S :   -0.315158
   5 O :   -0.348933
   6 C :    0.008507
   7 C :   -0.322165
   8 S :   -0.103603
   9 C :   -0.347945
  10 S :   -0.128281
  11 P :    0.599373
  12 S :   -0.291504
  13 O :   -0.344437
  14 C :    0.006357
  15 C :   -0.320870
  16 O :   -0.384439
  17 C :   -0.014857
  18 C :   -0.306002
  19 H :    0.117724
  20 H :    0.114271
  21 H :    0.111530
  22 H :    0.098543
  23 H :    0.104873
  24 H :    0.104932
  25 H :    0.101775
  26 H :    0.122336
  27 H :    0.137057
  28 H :    0.104822
  29 H :    0.179795
  30 H :    0.211304
  31 H :    0.105428
  32 H :    0.106664
  33 H :    0.118253
  34 H :    0.131019
  35 H :    0.108465
  36 H :    0.113868
  37 H :    0.107971
  38 H :    0.125876
  39 H :    0.129317
  40 H :    0.109547
Sum of atomic charges:    0.0000000

LOEWDIN ATOMIC CHARGES
----------------------
   0 C :   -0.351572
   1 C :   -0.123113
   2 O :   -0.253037
   3 P :    0.570115
   4 S :   -0.304040
   5 O :   -0.228174
   6 C :   -0.107229
   7 C :   -0.369594
   8 S :    0.076190
   9 C :   -0.478983
  10 S :    0.065765
  11 P :    0.561335
  12 S :   -0.296094
  13 O :   -0.228675
  14 C :   -0.108303
  15 C :   -0.372052
  16 O :   -0.247881
  17 C :   -0.114914
  18 C :   -0.368958
  19 H :    0.126739
  20 H :    0.125198
  21 H :    0.130643
  22 H :    0.110156
  23 H :    0.105617
  24 H :    0.120445
  25 H :    0.109057
  26 H :    0.118673
  27 H :    0.132817
  28 H :    0.126533
  29 H :    0.136447
  30 H :    0.126206
  31 H :    0.120531
  32 H :    0.112368
  33 H :    0.115312
  34 H :    0.123301
  35 H :    0.128649
  36 H :    0.106996
  37 H :    0.120425
  38 H :    0.130689
  39 H :    0.123114
  40 H :    0.129296

  Mayer bond orders larger than 0.100000
B(  0-C ,  1-C ) :   1.1591 B(  0-C , 19-H ) :   0.9514 B(  0-C , 20-H ) :   0.9509
B(  0-C , 21-H ) :   0.9423 B(  1-C ,  2-O ) :   0.9074 B(  1-C , 22-H ) :   0.9310
B(  1-C , 23-H ) :   0.9010 B(  2-O ,  3-P ) :   1.0757 B(  3-P ,  4-S ) :   1.6077
B(  3-P ,  5-O ) :   1.1480 B(  3-P ,  8-S ) :   0.9642 B(  4-S ,  8-S ) :   0.1201
B(  5-O ,  6-C ) :   0.9071 B(  6-C ,  7-C ) :   1.1671 B(  6-C , 24-H ) :   0.9325
B(  6-C , 25-H ) :   0.9312 B(  7-C , 26-H ) :   0.9346 B(  7-C , 27-H ) :   0.9407
B(  7-C , 28-H ) :   0.9357 B(  8-S ,  9-C ) :   0.9986 B(  9-C , 10-S ) :   1.0067
B(  9-C , 29-H ) :   0.9116 B(  9-C , 30-H ) :   0.8426 B( 10-S , 11-P ) :   0.9233
B( 10-S , 12-S ) :   0.1075 B( 11-P , 12-S ) :   1.6685 B( 11-P , 13-O ) :   1.1375
B( 11-P , 16-O ) :   1.0721 B( 13-O , 14-C ) :   0.9028 B( 14-C , 15-C ) :   1.1697
B( 14-C , 31-H ) :   0.9344 B( 14-C , 32-H ) :   0.9279 B( 15-C , 33-H ) :   0.9400
B( 15-C , 34-H ) :   0.9371 B( 15-C , 35-H ) :   0.9355 B( 16-O , 17-C ) :   0.9145
B( 17-C , 18-C ) :   1.1670 B( 17-C , 36-H ) :   0.9252 B( 17-C , 37-H ) :   0.9337
B( 18-C , 38-H ) :   0.9433 B( 18-C , 39-H ) :   0.9310 B( 18-C , 40-H ) :   0.9348

Dispersion correction           -0.067708579
FINAL SINGLE POINT ENERGY     -2929.509801578835

DIPOLE MOMENT
-------------

Method             : SCF
Type of density    : Electron Density
Multiplicity       :   1
Irrep              :   0
Energy             : -2929.6274384084740632 Eh
Relativity type    :
Basis              : AO
                                X                 Y                 Z
Electronic contribution:     -3.789602575      -5.134319714      -6.449263055
Nuclear contribution   :      3.579926357       4.661394212       7.865516946
                        -----------------------------------------
Total Dipole Moment    :     -0.209676218      -0.472925502       1.416253891
                        -----------------------------------------
Magnitude (a.u.)       :      1.507779072
Magnitude (Debye)      :      3.832469831

Rotational constants in cm-1:             0.013445             0.005172             0.004959
Rotational constants in MHz :           403.083907           155.066114           148.659867

                             ****ORCA TERMINATED NORMALLY****
TOTAL RUN TIME: 0 days 0 hours 0 minutes 21 seconds 254 msec
