                         Program Version 6.0.0  -   RELEASE  -
|  1> ! r2scan-3c def2/J RI DEFGRID2 scfconv6 printgap
|  2> %output
|  3>     printlevel normal
|  4> end
|  5> * xyz 0 1
|  6> C 0.6279997816 1.6891746407 -0.0249253727
|  7> C 1.4153659438 0.3879412462 -0.2515187103
|  8> H 1.6279386 0.2615148297 -1.3183236475
|  9> C 0.549115252 -0.79060194 0.2167427819
| 10> H 0.3620742822 -0.6926726183 1.3006041717
| 11> C -0.8016714242 -0.7415397475 -0.5182123172
| 12> H -0.6256084747 -0.8875091268 -1.5887729825
| 13> C -1.4667813209 0.6293384645 -0.3018115978
| 14> H -2.3442958232 0.7182431262 -0.9576865985
| 15> O -0.6240632046 1.6806642788 -0.6948165845
| 16> O -1.828167904 0.7046225666 1.0436794685
| 17> O -1.6400793787 -1.7879023661 -0.1049542788
| 18> O 1.2166981401 -2.0015558812 -0.0412764724
| 19> O 2.6694556648 0.4370616995 0.3734118652
| 20> H 1.1730733429 2.5393048587 -0.4331799702
| 21> H 0.4732793547 1.8335021462 1.0521074745
| 22> H -2.37862944 1.4859509786 1.2028475529
| 23> H -2.0030644251 -1.5647759675 0.7677431746
| 24> H 0.5641344789 -2.7192207872 -0.0204252806
| 25> H 2.5622302866 0.3834416744 1.334525761
| 26> *
| 27>
| 28>                          ****END OF INPUT****

CARTESIAN COORDINATES (ANGSTROEM)
---------------------------------
  C      0.628000    1.689175   -0.024925
  C      1.415366    0.387941   -0.251519
  H      1.627939    0.261515   -1.318324
  C      0.549115   -0.790602    0.216743
  H      0.362074   -0.692673    1.300604
  C     -0.801671   -0.741540   -0.518212
  H     -0.625608   -0.887509   -1.588773
  C     -1.466781    0.629338   -0.301812
  H     -2.344296    0.718243   -0.957687
  O     -0.624063    1.680664   -0.694817
  O     -1.828168    0.704623    1.043679
  O     -1.640079   -1.787902   -0.104954
  O      1.216698   -2.001556   -0.041276
  O      2.669456    0.437062    0.373412
  H      1.173073    2.539305   -0.433180
  H      0.473279    1.833502    1.052107
  H     -2.378629    1.485951    1.202848
  H     -2.003064   -1.564776    0.767743
  H      0.564134   -2.719221   -0.020425
  H      2.562230    0.383442    1.334526

 Total Charge           Charge          ....    0
 Multiplicity           Mult            ....    1
 Number of Electrons    NEL             ....   80
 Basis Dimension        Dim             ....  265

ORBITAL ENERGIES
----------------

  NO   OCC          E(Eh)            E(eV)
   0   2.0000     -18.985051      -516.6095
   1   2.0000     -18.974233      -516.3151
   2   2.0000     -18.967740      -516.1384
   3   2.0000     -18.956433      -515.8308
   4   2.0000     -18.949782      -515.6498
   5   2.0000     -10.146114      -276.0898
   6   2.0000     -10.096085      -274.7284
   7   2.0000     -10.088901      -274.5330
   8   2.0000     -10.088209      -274.5141
   9   2.0000     -10.084241      -274.4062
  10   2.0000      -1.059190       -28.8220
  11   2.0000      -1.012216       -27.5438
  12   2.0000      -1.002820       -27.2881
  13   2.0000      -0.988407       -26.8959
  14   2.0000      -0.980071       -26.6691
  15   2.0000      -0.748017       -20.3546
  16   2.0000      -0.727461       -19.7952
  17   2.0000      -0.623196       -16.9580
  18   2.0000      -0.615633       -16.7522
  19   2.0000      -0.579573       -15.7710
  20   2.0000      -0.522214       -14.2102
  21   2.0000      -0.509096       -13.8532
  22   2.0000      -0.493232       -13.4215
  23   2.0000      -0.472283       -12.8515
  24   2.0000      -0.452658       -12.3175
  25   2.0000      -0.449760       -12.2386
  26   2.0000      -0.420048       -11.4301
  27   2.0000      -0.399288       -10.8652
  28   2.0000      -0.387979       -10.5574
  29   2.0000      -0.376089       -10.2339
  30   2.0000      -0.361534        -9.8378
  31   2.0000      -0.339441        -9.2366
  32   2.0000      -0.329422        -8.9640
  33   2.0000      -0.306963        -8.3529
  34   2.0000      -0.296326        -8.0634
  35   2.0000      -0.289928        -7.8893
  36   2.0000      -0.278596        -7.5810
  37   2.0000      -0.252928        -6.8825
  38   2.0000      -0.239656        -6.5214
  39   2.0000      -0.224516        -6.1094
  40   0.0000       0.034897         0.9496
  41   0.0000       0.038498         1.0476
  42   0.0000       0.061611         1.6765
  43   0.0000       0.086720         2.3598
  44   0.0000       0.099557         2.7091

MULLIKEN ATOMIC CHARGES
-----------------------
   0 C :   -0.232214
   1 C :   -0.095358
   2 H :    0.162549
   3 C :    0.030177
   4 H :    0.161727
   5 C :   -0.112283
   6 H :    0.175688
   7 C :    0.061792
   8 H :    0.135538
   9 O :   -0.201536
  10 O :   -0.425749
  11 O :   -0.426146
  12 O :   -0.410360
  13 O :   -0.375154
  14 H :    0.158571
  15 H :    0.155019
  16 H :    0.308392
  17 H :    0.318237
  18 H :    0.311891
  19 H :    0.299220
Sum of atomic charges:   -0.0000000

LOEWDIN ATOMIC CHARGES
----------------------
   0 C :    0.042176
   1 C :    0.100532
   2 H :    0.197160
   3 C :    0.094189
   4 H :    0.178922
   5 C :    0.113721
   6 H :    0.202135
   7 C :    0.283229
   8 H :    0.197726
   9 O :   -0.675880
  10 O :   -0.534382
  11 O :   -0.563235
  12 O :   -0.564581
  13 O :   -0.556374
  14 H :    0.191509
  15 H :    0.174814
  16 H :    0.281283
  17 H :    0.283568
  18 H :    0.281783
  19 H :    0.271702

  Mayer bond orders larger than 0.100000
B(  0-C ,  1-C ) :   0.8819 B(  0-C ,  9-O ) :   0.9175 B(  0-C , 14-H ) :   0.9439
B(  0-C , 15-H ) :   0.9813 B(  1-C ,  2-H ) :   0.9666 B(  1-C ,  3-C ) :   0.9490
B(  1-C , 13-O ) :   1.0014 B(  3-C ,  4-H ) :   0.9440 B(  3-C ,  5-C ) :   0.8858
B(  3-C , 12-O ) :   0.9208 B(  5-C ,  6-H ) :   0.9695 B(  5-C ,  7-C ) :   0.9300
B(  5-C , 11-O ) :   0.9838 B(  7-C ,  8-H ) :   0.9511 B(  7-C ,  9-O ) :   0.9758
B(  7-C , 10-O ) :   0.9916 B( 10-O , 16-H ) :   0.8902 B( 11-O , 17-H ) :   0.8667
B( 12-O , 18-H ) :   0.8704 B( 13-O , 19-H ) :   0.8859

Dispersion correction           -0.006302300
FINAL SINGLE POINT ENERGY      -572.562491248784

DIPOLE MOMENT
-------------

Method             : SCF
Type of density    : Electron Density
Multiplicity       :   1
Irrep              :   0
Energy             :  -572.5725910217623777 Eh
Relativity type    :
Basis              : AO
                                X                 Y                 Z
Electronic contribution:     -0.522408885      -0.688358658      -0.513437122
Nuclear contribution   :     -0.555512296       1.259500553       1.265156058
                        -----------------------------------------
Total Dipole Moment    :     -1.077921182       0.571141896       0.751718936
                        -----------------------------------------
Magnitude (a.u.)       :      1.432898635
Magnitude (Debye)      :      3.642138885

Rotational constants in cm-1:             0.057008             0.044505             0.028871
Rotational constants in MHz :          1709.071306          1334.212224           865.538474

                             ****ORCA TERMINATED NORMALLY****
TOTAL RUN TIME: 0 days 0 hours 0 minutes 45 seconds 865 msec
