                         Program Version 6.0.0  -   RELEASE  -
|  1> ! r2scan-3c def2/J RI DEFGRID2 scfconv6 printgap
|  2> %output
|  3>     printlevel normal
|  4> end
|  5> %cpcm
|  6>     smd true
|  7>     smdsolvent "water"
|  8> end
|  9> * xyz 0 1
| 10> C 0.6279997816 1.6891746407 -0.0249253727
| 11> C 1.4153659438 0.3879412462 -0.2515187103
| 12> H 1.6279386 0.2615148297 -1.3183236475
| 13> C 0.549115252 -0.79060194 0.2167427819
| 14> H 0.3620742822 -0.6926726183 1.3006041717
| 15> C -0.8016714242 -0.7415397475 -0.5182123172
| 16> H -0.6256084747 -0.8875091268 -1.5887729825
| 17> C -1.4667813209 0.6293384645 -0.3018115978
| 18> H -2.3442958232 0.7182431262 -0.9576865985
| 19> O -0.6240632046 1.6806642788 -0.6948165845
| 20> O -1.828167904 0.7046225666 1.0436794685
| 21> O -1.6400793787 -1.7879023661 -0.1049542788
| 22> O 1.2166981401 -2.0015558812 -0.0412764724
| 23> O 2.6694556648 0.4370616995 0.3734118652
| 24> H 1.1730733429 2.5393048587 -0.4331799702
| 25> H 0.4732793547 1.8335021462 1.0521074745
| 26> H -2.37862944 1.4859509786 1.2028475529
| 27> H -2.0030644251 -1.5647759675 0.7677431746
| 28> H 0.5641344789 -2.7192207872 -0.0204252806
| 29> H 2.5622302866 0.3834416744 1.334525761
| 30> *
| 31>
| 32>                          ****END OF INPUT****

CARTESIAN COORDINATES (ANGSTROEM)
---------------------------------
  C      0.628000    1.689175   -0.024925
  C      1.415366    0.387941   -0.251519
  H      1.627939    0.261515   -1.318324
  C      0.549115   -0.790602    0.216743
  H      0.362074   -0.692673    1.300604
  C     -0.801671   -0.741540   -0.518212
  H     -0.625608   -0.887509   -1.588773
  C     -1.466781    0.629338   -0.301812
  H     -2.344296    0.718243   -0.957687
  O     -0.624063    1.680664   -0.694817
  O     -1.828168    0.704623    1.043679
  O     -1.640079   -1.787902   -0.104954
  O      1.216698   -2.001556   -0.041276
  O      2.669456    0.437062    0.373412
  H      1.173073    2.539305   -0.433180
  H      0.473279    1.833502    1.052107
  H     -2.378629    1.485951    1.202848
  H     -2.003064   -1.564776    0.767743
  H      0.564134   -2.719221   -0.020425
  H      2.562230    0.383442    1.334526

 Total Charge           Charge          ....    0
 Multiplicity           Mult            ....    1
 Number of Electrons    NEL             ....   80
 Basis Dimension        Dim             ....  265

ORBITAL ENERGIES
----------------

  NO   OCC          E(Eh)            E(eV)
   0   2.0000     -18.971727      -516.2469
   1   2.0000     -18.967691      -516.1371
   2   2.0000     -18.963380      -516.0198
   3   2.0000     -18.960794      -515.9494
   4   2.0000     -18.957051      -515.8476
   5   2.0000     -10.134335      -275.7693
   6   2.0000     -10.087799      -274.5030
   7   2.0000     -10.085947      -274.4526
   8   2.0000     -10.083249      -274.3792
   9   2.0000     -10.075760      -274.1754
  10   2.0000      -1.049327       -28.5536
  11   2.0000      -1.011087       -27.5131
  12   2.0000      -1.002470       -27.2786
  13   2.0000      -0.984519       -26.7901
  14   2.0000      -0.978104       -26.6156
  15   2.0000      -0.743502       -20.2317
  16   2.0000      -0.718939       -19.5633
  17   2.0000      -0.617577       -16.8051
  18   2.0000      -0.608903       -16.5691
  19   2.0000      -0.570409       -15.5216
  20   2.0000      -0.511623       -13.9220
  21   2.0000      -0.505762       -13.7625
  22   2.0000      -0.487026       -13.2527
  23   2.0000      -0.467337       -12.7169
  24   2.0000      -0.448189       -12.1958
  25   2.0000      -0.443773       -12.0757
  26   2.0000      -0.415339       -11.3020
  27   2.0000      -0.393550       -10.7090
  28   2.0000      -0.386659       -10.5215
  29   2.0000      -0.374671       -10.1953
  30   2.0000      -0.353719        -9.6252
  31   2.0000      -0.337599        -9.1865
  32   2.0000      -0.334162        -9.0930
  33   2.0000      -0.307799        -8.3756
  34   2.0000      -0.296023        -8.0552
  35   2.0000      -0.280052        -7.6206
  36   2.0000      -0.274522        -7.4701
  37   2.0000      -0.254742        -6.9319
  38   2.0000      -0.241919        -6.5830
  39   2.0000      -0.225289        -6.1304
  40   0.0000       0.044507         1.2111
  41   0.0000       0.063113         1.7174
  42   0.0000       0.079242         2.1563
  43   0.0000       0.098558         2.6819
  44   0.0000       0.108846         2.9619

MULLIKEN ATOMIC CHARGES
-----------------------
   0 C :   -0.267707
   1 C :   -0.058233
   2 H :    0.178436
   3 C :    0.023609
   4 H :    0.183794
   5 C :   -0.092909
   6 H :    0.195177
   7 C :    0.057059
   8 H :    0.162314
   9 O :   -0.254730
  10 O :   -0.466026
  11 O :   -0.478950
  12 O :   -0.490379
  13 O :   -0.466583
  14 H :    0.173600
  15 H :    0.181243
  16 H :    0.354974
  17 H :    0.356584
  18 H :    0.349168
  19 H :    0.359559
Sum of atomic charges:    0.0000000

LOEWDIN ATOMIC CHARGES
----------------------
   0 C :    0.043674
   1 C :    0.098563
   2 H :    0.200433
   3 C :    0.096711
   4 H :    0.191305
   5 C :    0.114610
   6 H :    0.208163
   7 C :    0.287292
   8 H :    0.207972
   9 O :   -0.699856
  10 O :   -0.537335
  11 O :   -0.582108
  12 O :   -0.601693
  13 O :   -0.590808
  14 H :    0.196382
  15 H :    0.185359
  16 H :    0.298934
  17 H :    0.296117
  18 H :    0.294474
  19 H :    0.291813

  Mayer bond orders larger than 0.100000
B(  0-C ,  1-C ) :   0.8748 B(  0-C ,  9-O ) :   0.9118 B(  0-C , 14-H ) :   0.9385
B(  0-C , 15-H ) :   0.9776 B(  1-C ,  2-H ) :   0.9647 B(  1-C ,  3-C ) :   0.9329
B(  1-C , 13-O ) :   0.9835 B(  3-C ,  4-H ) :   0.9432 B(  3-C ,  5-C ) :   0.8900
B(  3-C , 12-O ) :   0.9018 B(  5-C ,  6-H ) :   0.9629 B(  5-C ,  7-C ) :   0.9253
B(  5-C , 11-O ) :   0.9673 B(  7-C ,  8-H ) :   0.9485 B(  7-C ,  9-O ) :   0.9613
B(  7-C , 10-O ) :   0.9910 B( 10-O , 16-H ) :   0.8657 B( 11-O , 17-H ) :   0.8475
B( 12-O , 18-H ) :   0.8538 B( 13-O , 19-H ) :   0.8560

Dispersion correction           -0.006302300
FINAL SINGLE POINT ENERGY      -572.591807218329

DIPOLE MOMENT
-------------

Method             : SCF
Type of density    : Electron Density
Multiplicity       :   1
Irrep              :   0
Energy             :  -572.6019069913080557 Eh
Relativity type    :
Basis              : AO
                                X                 Y                 Z
Electronic contribution:     -0.950406233      -0.477472206      -0.168548316
Nuclear contribution   :     -0.555512296       1.259500553       1.265156058
                        -----------------------------------------
Total Dipole Moment    :     -1.505918529       0.782028347       1.096607742
                        -----------------------------------------
Magnitude (a.u.)       :      2.020373107
Magnitude (Debye)      :      5.135380323

Rotational constants in cm-1:             0.057008             0.044505             0.028871
Rotational constants in MHz :          1709.071306          1334.212224           865.538474

                             ****ORCA TERMINATED NORMALLY****
TOTAL RUN TIME: 0 days 0 hours 0 minutes 50 seconds 148 msec
