                         Program Version 6.0.0  -   RELEASE  -
|  1> ! r2scan-3c def2/J RI DEFGRID2 scfconv6 printgap
|  2> %output
|  3>     printlevel normal
|  4> end
|  5> * xyz 0 1
|  6> C 3.9065795448 -1.2119493168 -2.7541970816
|  7> C 4.2608226189 -1.5496464458 -1.3203698287
|  8> O 3.0950655708 -1.6457526558 -0.4834199402
|  9> P 2.2001342845 -0.3822840784 -0.1143649826
| 10> S 3.2209706642 1.2585800428 0.2386499687
| 11> O 1.354153764 -0.9586747607 1.0933136938
| 12> C 1.7862582051 -0.8634733201 2.4683349884
| 13> C 0.5598787881 -0.7240499302 3.3469285672
| 14> S 0.7184944026 -0.3165876333 -1.6074809742
| 15> C 0.1593033804 1.37895904 -1.2850389593
| 16> S -0.4953974054 1.6095705962 0.3858622548
| 17> P -2.2029948546 0.3806094649 0.1827765624
| 18> S -3.0469853405 0.2934486018 -1.5890805701
| 19> O -3.1186875826 0.8458648441 1.3976846534
| 20> C -3.5242460937 2.196924032 1.6845762113
| 21> C -4.1351289788 2.9008327298 0.4906263169
| 22> O -1.7162956796 -1.0152281549 0.7469434306
| 23> C -2.2517052785 -2.2908760705 0.3369310388
| 24> C -1.2000126727 -3.0926246576 -0.4048592246
| 25> H 4.799960956 -1.2677347021 -3.3678471846
| 26> H 3.1622244149 -1.9073958805 -3.1339367664
| 27> H 3.5027716493 -0.2018233163 -2.8100340452
| 28> H 4.92543119 -0.7888321794 -0.8986152101
| 29> H 4.723143422 -2.5342681067 -1.2394921932
| 30> H 2.3451274817 -1.7728888273 2.701314955
| 31> H 2.448725533 0.0035287575 2.5689936309
| 32> H 0.0235455826 0.1891613769 3.1002177114
| 33> H -0.1063109452 -1.5681167041 3.1929938986
| 34> H 0.8683145561 -0.6892134658 4.3867445819
| 35> H -0.620107612 1.5863199275 -2.0181331018
| 36> H 0.9969550636 2.0684382705 -1.3825598484
| 37> H -4.2493877309 2.0796168925 2.4919909041
| 38> H -2.6498097051 2.743553356 2.0489197331
| 39> H -4.9550775439 2.3146838918 0.0823201003
| 40> H -4.5066633194 3.8729869315 0.7983811346
| 41> H -3.3875753853 3.0381093173 -0.2893809979
| 42> H -2.5525485903 -2.786901894 1.2616567581
| 43> H -3.1312226334 -2.1269249611 -0.2933927343
| 44> H -0.2757340208 -3.1144175362 0.1672940497
| 45> H -1.5605143616 -4.1061460438 -0.5482592872
| 46> H -0.9978335987 -2.6451426638 -1.3753184792
| 47> *
| 48>
| 49>                          ****END OF INPUT****

CARTESIAN COORDINATES (ANGSTROEM)
---------------------------------
  C      3.906580   -1.211949   -2.754197
  C      4.260823   -1.549646   -1.320370
  O      3.095066   -1.645753   -0.483420
  P      2.200134   -0.382284   -0.114365
  S      3.220971    1.258580    0.238650
  O      1.354154   -0.958675    1.093314
  C      1.786258   -0.863473    2.468335
  C      0.559879   -0.724050    3.346929
  S      0.718494   -0.316588   -1.607481
  C      0.159303    1.378959   -1.285039
  S     -0.495397    1.609571    0.385862
  P     -2.202995    0.380609    0.182777
  S     -3.046985    0.293449   -1.589081
  O     -3.118688    0.845865    1.397685
  C     -3.524246    2.196924    1.684576
  C     -4.135129    2.900833    0.490626
  O     -1.716296   -1.015228    0.746943
  C     -2.251705   -2.290876    0.336931
  C     -1.200013   -3.092625   -0.404859
  H      4.799961   -1.267735   -3.367847
  H      3.162224   -1.907396   -3.133937
  H      3.502772   -0.201823   -2.810034
  H      4.925431   -0.788832   -0.898615
  H      4.723143   -2.534268   -1.239492
  H      2.345127   -1.772889    2.701315
  H      2.448726    0.003529    2.568994
  H      0.023546    0.189161    3.100218
  H     -0.106311   -1.568117    3.192994
  H      0.868315   -0.689213    4.386745
  H     -0.620108    1.586320   -2.018133
  H      0.996955    2.068438   -1.382560
  H     -4.249388    2.079617    2.491991
  H     -2.649810    2.743553    2.048920
  H     -4.955078    2.314684    0.082320
  H     -4.506663    3.872987    0.798381
  H     -3.387575    3.038109   -0.289381
  H     -2.552549   -2.786902    1.261657
  H     -3.131223   -2.126925   -0.293393
  H     -0.275734   -3.114418    0.167294
  H     -1.560514   -4.106146   -0.548259
  H     -0.997834   -2.645143   -1.375318

 Total Charge           Charge          ....    0
 Multiplicity           Mult            ....    1
 Number of Electrons    NEL             ....  202
 Basis Dimension        Dim             ....  539

ORBITAL ENERGIES
----------------

  NO   OCC          E(Eh)            E(eV)
   0   2.0000     -88.577946     -2410.3284
   1   2.0000     -88.576532     -2410.2900
   2   2.0000     -88.521514     -2408.7929
   3   2.0000     -88.518153     -2408.7014
   4   2.0000     -76.913621     -2092.9260
   5   2.0000     -76.913556     -2092.9243
   6   2.0000     -18.992604      -516.8150
   7   2.0000     -18.989978      -516.7436
   8   2.0000     -18.985866      -516.6317
   9   2.0000     -18.983287      -516.5615
  10   2.0000     -10.108222      -275.0587
  11   2.0000     -10.102517      -274.9035
  12   2.0000     -10.098348      -274.7900
  13   2.0000     -10.094267      -274.6790
  14   2.0000     -10.092509      -274.6311
  15   2.0000     -10.028973      -272.9022
  16   2.0000     -10.026686      -272.8400
  17   2.0000     -10.025834      -272.8168
  18   2.0000     -10.019983      -272.6576
  19   2.0000      -7.872349      -214.2175
  20   2.0000      -7.871059      -214.1824
  21   2.0000      -7.816285      -212.6919
  22   2.0000      -7.813014      -212.6029
  23   2.0000      -6.592209      -179.3831
  24   2.0000      -6.591672      -179.3685
  25   2.0000      -5.819217      -158.3489
  26   2.0000      -5.818007      -158.3160
  27   2.0000      -5.816113      -158.2645
  28   2.0000      -5.814930      -158.2323
  29   2.0000      -5.809537      -158.0855
  30   2.0000      -5.808034      -158.0446
  31   2.0000      -5.763833      -156.8419
  32   2.0000      -5.760676      -156.7560
  33   2.0000      -5.756591      -156.6448
  34   2.0000      -5.756355      -156.6384
  35   2.0000      -5.753399      -156.5579
  36   2.0000      -5.752896      -156.5443
  37   2.0000      -4.737624      -128.9173
  38   2.0000      -4.737185      -128.9054
  39   2.0000      -4.737081      -128.9025
  40   2.0000      -4.736738      -128.8932
  41   2.0000      -4.736058      -128.8747
  42   2.0000      -4.735306      -128.8542
  43   2.0000      -1.048149       -28.5216
  44   2.0000      -1.045740       -28.4560
  45   2.0000      -1.008412       -27.4403
  46   2.0000      -1.005310       -27.3559
  47   2.0000      -0.805008       -21.9054
  48   2.0000      -0.758325       -20.6351
  49   2.0000      -0.748428       -20.3658
  50   2.0000      -0.729865       -19.8606
  51   2.0000      -0.727181       -19.7876
  52   2.0000      -0.710453       -19.3324
  53   2.0000      -0.685070       -18.6417
  54   2.0000      -0.670592       -18.2477
  55   2.0000      -0.632017       -17.1981
  56   2.0000      -0.621772       -16.9193
  57   2.0000      -0.607243       -16.5239
  58   2.0000      -0.601466       -16.3667
  59   2.0000      -0.587491       -15.9864
  60   2.0000      -0.527089       -14.3428
  61   2.0000      -0.522508       -14.2182
  62   2.0000      -0.492440       -13.4000
  63   2.0000      -0.486557       -13.2399
  64   2.0000      -0.476492       -12.9660
  65   2.0000      -0.459702       -12.5091
  66   2.0000      -0.454702       -12.3731
  67   2.0000      -0.448765       -12.2115
  68   2.0000      -0.445959       -12.1352
  69   2.0000      -0.436226       -11.8703
  70   2.0000      -0.430016       -11.7013
  71   2.0000      -0.412061       -11.2128
  72   2.0000      -0.409255       -11.1364
  73   2.0000      -0.403274       -10.9736
  74   2.0000      -0.395459       -10.7610
  75   2.0000      -0.388782       -10.5793
  76   2.0000      -0.381853       -10.3907
  77   2.0000      -0.370521       -10.0824
  78   2.0000      -0.365797        -9.9538
  79   2.0000      -0.362670        -9.8687
  80   2.0000      -0.359809        -9.7909
  81   2.0000      -0.355557        -9.6752
  82   2.0000      -0.353810        -9.6277
  83   2.0000      -0.351263        -9.5583
  84   2.0000      -0.350296        -9.5321
  85   2.0000      -0.332527        -9.0485
  86   2.0000      -0.317837        -8.6488
  87   2.0000      -0.312290        -8.4979
  88   2.0000      -0.310468        -8.4483
  89   2.0000      -0.304211        -8.2780
  90   2.0000      -0.294834        -8.0228
  91   2.0000      -0.291519        -7.9326
  92   2.0000      -0.284310        -7.7365
  93   2.0000      -0.279423        -7.6035
  94   2.0000      -0.271392        -7.3850
  95   2.0000      -0.244564        -6.6549
  96   2.0000      -0.230783        -6.2799
  97   2.0000      -0.226370        -6.1598
  98   2.0000      -0.219861        -5.9827
  99   2.0000      -0.213633        -5.8133
 100   2.0000      -0.211406        -5.7526
 101   0.0000      -0.049220        -1.3393
 102   0.0000      -0.026569        -0.7230
 103   0.0000      -0.003350        -0.0912
 104   0.0000      -0.000729        -0.0198
 105   0.0000       0.008649         0.2354

MULLIKEN ATOMIC CHARGES
-----------------------
   0 C :   -0.449903
   1 C :   -0.153240
   2 O :   -0.309505
   3 P :    0.713657
   4 S :   -0.493185
   5 O :   -0.254944
   6 C :   -0.142262
   7 C :   -0.453136
   8 S :   -0.109141
   9 C :   -0.252887
  10 S :   -0.137297
  11 P :    0.660152
  12 S :   -0.471777
  13 O :   -0.284641
  14 C :   -0.158393
  15 C :   -0.425974
  16 O :   -0.236687
  17 C :   -0.134702
  18 C :   -0.470210
  19 H :    0.148375
  20 H :    0.155721
  21 H :    0.175430
  22 H :    0.173147
  23 H :    0.147707
  24 H :    0.147217
  25 H :    0.168354
  26 H :    0.160424
  27 H :    0.154726
  28 H :    0.142208
  29 H :    0.209999
  30 H :    0.212489
  31 H :    0.149294
  32 H :    0.152332
  33 H :    0.165970
  34 H :    0.146494
  35 H :    0.166634
  36 H :    0.146466
  37 H :    0.166122
  38 H :    0.164282
  39 H :    0.140192
  40 H :    0.170492
Sum of atomic charges:    0.0000000

LOEWDIN ATOMIC CHARGES
----------------------
   0 C :   -0.407009
   1 C :    0.019241
   2 O :   -0.659434
   3 P :    0.374905
   4 S :   -0.135032
   5 O :   -0.673515
   6 C :    0.024019
   7 C :   -0.388983
   8 S :    0.181877
   9 C :   -0.418956
  10 S :    0.172431
  11 P :    0.383409
  12 S :   -0.131680
  13 O :   -0.658480
  14 C :    0.022820
  15 C :   -0.407935
  16 O :   -0.660238
  17 C :    0.024058
  18 C :   -0.402583
  19 H :    0.159387
  20 H :    0.160277
  21 H :    0.165011
  22 H :    0.179794
  23 H :    0.179360
  24 H :    0.170953
  25 H :    0.182061
  26 H :    0.163259
  27 H :    0.161603
  28 H :    0.156867
  29 H :    0.191985
  30 H :    0.189554
  31 H :    0.181314
  32 H :    0.171290
  33 H :    0.165779
  34 H :    0.157774
  35 H :    0.165050
  36 H :    0.173919
  37 H :    0.180796
  38 H :    0.165204
  39 H :    0.155499
  40 H :    0.164351

  Mayer bond orders larger than 0.100000
B(  0-C ,  1-C ) :   0.9217 B(  0-C , 19-H ) :   0.9588 B(  0-C , 20-H ) :   0.9682
B(  0-C , 21-H ) :   0.9627 B(  1-C ,  2-O ) :   0.8167 B(  1-C , 22-H ) :   0.9683
B(  1-C , 23-H ) :   0.9584 B(  2-O ,  3-P ) :   1.0572 B(  3-P ,  4-S ) :   1.7300
B(  3-P ,  5-O ) :   1.1563 B(  3-P ,  8-S ) :   1.0943 B(  5-O ,  6-C ) :   0.7773
B(  6-C ,  7-C ) :   0.9682 B(  6-C , 24-H ) :   0.9480 B(  6-C , 25-H ) :   0.9574
B(  7-C , 26-H ) :   0.9683 B(  7-C , 27-H ) :   0.9675 B(  7-C , 28-H ) :   0.9640
B(  8-S ,  9-C ) :   0.8991 B(  9-C , 10-S ) :   0.9102 B(  9-C , 29-H ) :   0.9083
B(  9-C , 30-H ) :   0.9117 B( 10-S , 11-P ) :   1.0581 B( 11-P , 12-S ) :   1.7686
B( 11-P , 13-O ) :   1.0868 B( 11-P , 16-O ) :   1.1347 B( 13-O , 14-C ) :   0.8106
B( 14-C , 15-C ) :   0.9383 B( 14-C , 31-H ) :   0.9585 B( 14-C , 32-H ) :   0.9644
B( 15-C , 33-H ) :   0.9656 B( 15-C , 34-H ) :   0.9618 B( 15-C , 35-H ) :   0.9556
B( 16-O , 17-C ) :   0.7586 B( 17-C , 18-C ) :   0.9467 B( 17-C , 36-H ) :   0.9601
B( 17-C , 37-H ) :   0.9604 B( 18-C , 38-H ) :   0.9678 B( 18-C , 39-H ) :   0.9647
B( 18-C , 40-H ) :   0.9651

Dispersion correction           -0.022285600
FINAL SINGLE POINT ENERGY     -2932.460307574286

DIPOLE MOMENT
-------------

Method             : SCF
Type of density    : Electron Density
Multiplicity       :   1
Irrep              :   0
Energy             : -2932.4845031862569158 Eh
Relativity type    :
Basis              : AO
                                X                 Y                 Z
Electronic contribution:      1.253248903       6.747207302      -4.501396346
Nuclear contribution   :     -1.137254565      -7.264623575       5.161396325
                        -----------------------------------------
Total Dipole Moment    :      0.115994339      -0.517416273       0.659999979
                        -----------------------------------------
Magnitude (a.u.)       :      0.846625217
Magnitude (Debye)      :      2.151950284

Rotational constants in cm-1:             0.012603             0.005261             0.005123
Rotational constants in MHz :           377.820933           157.733179           153.596731

                             ****ORCA TERMINATED NORMALLY****
TOTAL RUN TIME: 0 days 0 hours 1 minutes 24 seconds 658 msec
