                         Program Version 6.0.0  -   RELEASE  -
|  1> ! r2scan-3c def2/J RI DEFGRID2 scfconv6 printgap
|  2> %output
|  3>     printlevel normal
|  4> end
|  5> %cpcm
|  6>     smd true
|  7>     smdsolvent "water"
|  8> end
|  9> * xyz 0 1
| 10> C 3.9065795448 -1.2119493168 -2.7541970816
| 11> C 4.2608226189 -1.5496464458 -1.3203698287
| 12> O 3.0950655708 -1.6457526558 -0.4834199402
| 13> P 2.2001342845 -0.3822840784 -0.1143649826
| 14> S 3.2209706642 1.2585800428 0.2386499687
| 15> O 1.354153764 -0.9586747607 1.0933136938
| 16> C 1.7862582051 -0.8634733201 2.4683349884
| 17> C 0.5598787881 -0.7240499302 3.3469285672
| 18> S 0.7184944026 -0.3165876333 -1.6074809742
| 19> C 0.1593033804 1.37895904 -1.2850389593
| 20> S -0.4953974054 1.6095705962 0.3858622548
| 21> P -2.2029948546 0.3806094649 0.1827765624
| 22> S -3.0469853405 0.2934486018 -1.5890805701
| 23> O -3.1186875826 0.8458648441 1.3976846534
| 24> C -3.5242460937 2.196924032 1.6845762113
| 25> C -4.1351289788 2.9008327298 0.4906263169
| 26> O -1.7162956796 -1.0152281549 0.7469434306
| 27> C -2.2517052785 -2.2908760705 0.3369310388
| 28> C -1.2000126727 -3.0926246576 -0.4048592246
| 29> H 4.799960956 -1.2677347021 -3.3678471846
| 30> H 3.1622244149 -1.9073958805 -3.1339367664
| 31> H 3.5027716493 -0.2018233163 -2.8100340452
| 32> H 4.92543119 -0.7888321794 -0.8986152101
| 33> H 4.723143422 -2.5342681067 -1.2394921932
| 34> H 2.3451274817 -1.7728888273 2.701314955
| 35> H 2.448725533 0.0035287575 2.5689936309
| 36> H 0.0235455826 0.1891613769 3.1002177114
| 37> H -0.1063109452 -1.5681167041 3.1929938986
| 38> H 0.8683145561 -0.6892134658 4.3867445819
| 39> H -0.620107612 1.5863199275 -2.0181331018
| 40> H 0.9969550636 2.0684382705 -1.3825598484
| 41> H -4.2493877309 2.0796168925 2.4919909041
| 42> H -2.6498097051 2.743553356 2.0489197331
| 43> H -4.9550775439 2.3146838918 0.0823201003
| 44> H -4.5066633194 3.8729869315 0.7983811346
| 45> H -3.3875753853 3.0381093173 -0.2893809979
| 46> H -2.5525485903 -2.786901894 1.2616567581
| 47> H -3.1312226334 -2.1269249611 -0.2933927343
| 48> H -0.2757340208 -3.1144175362 0.1672940497
| 49> H -1.5605143616 -4.1061460438 -0.5482592872
| 50> H -0.9978335987 -2.6451426638 -1.3753184792
| 51> *
| 52>
| 53>                          ****END OF INPUT****

CARTESIAN COORDINATES (ANGSTROEM)
---------------------------------
  C      3.906580   -1.211949   -2.754197
  C      4.260823   -1.549646   -1.320370
  O      3.095066   -1.645753   -0.483420
  P      2.200134   -0.382284   -0.114365
  S      3.220971    1.258580    0.238650
  O      1.354154   -0.958675    1.093314
  C      1.786258   -0.863473    2.468335
  C      0.559879   -0.724050    3.346929
  S      0.718494   -0.316588   -1.607481
  C      0.159303    1.378959   -1.285039
  S     -0.495397    1.609571    0.385862
  P     -2.202995    0.380609    0.182777
  S     -3.046985    0.293449   -1.589081
  O     -3.118688    0.845865    1.397685
  C     -3.524246    2.196924    1.684576
  C     -4.135129    2.900833    0.490626
  O     -1.716296   -1.015228    0.746943
  C     -2.251705   -2.290876    0.336931
  C     -1.200013   -3.092625   -0.404859
  H      4.799961   -1.267735   -3.367847
  H      3.162224   -1.907396   -3.133937
  H      3.502772   -0.201823   -2.810034
  H      4.925431   -0.788832   -0.898615
  H      4.723143   -2.534268   -1.239492
  H      2.345127   -1.772889    2.701315
  H      2.448726    0.003529    2.568994
  H      0.023546    0.189161    3.100218
  H     -0.106311   -1.568117    3.192994
  H      0.868315   -0.689213    4.386745
  H     -0.620108    1.586320   -2.018133
  H      0.996955    2.068438   -1.382560
  H     -4.249388    2.079617    2.491991
  H     -2.649810    2.743553    2.048920
  H     -4.955078    2.314684    0.082320
  H     -4.506663    3.872987    0.798381
  H     -3.387575    3.038109   -0.289381
  H     -2.552549   -2.786902    1.261657
  H     -3.131223   -2.126925   -0.293393
  H     -0.275734   -3.114418    0.167294
  H     -1.560514   -4.106146   -0.548259
  H     -0.997834   -2.645143   -1.375318

 Total Charge           Charge          ....    0
 Multiplicity           Mult            ....    1
 Number of Electrons    NEL             ....  202
 Basis Dimension        Dim             ....  539

ORBITAL ENERGIES
----------------

  NO   OCC          E(Eh)            E(eV)
   0   2.0000     -88.581007     -2410.4117
   1   2.0000     -88.579410     -2410.3683
   2   2.0000     -88.528243     -2408.9760
   3   2.0000     -88.525937     -2408.9132
   4   2.0000     -76.919556     -2093.0875
   5   2.0000     -76.918610     -2093.0618
   6   2.0000     -18.995041      -516.8813
   7   2.0000     -18.993298      -516.8339
   8   2.0000     -18.990119      -516.7474
   9   2.0000     -18.989480      -516.7300
  10   2.0000     -10.106629      -275.0154
  11   2.0000     -10.092045      -274.6185
  12   2.0000     -10.089146      -274.5396
  13   2.0000     -10.088072      -274.5104
  14   2.0000     -10.087908      -274.5059
  15   2.0000     -10.018480      -272.6167
  16   2.0000     -10.018027      -272.6044
  17   2.0000     -10.017889      -272.6006
  18   2.0000     -10.015211      -272.5277
  19   2.0000      -7.875396      -214.3004
  20   2.0000      -7.873952      -214.2611
  21   2.0000      -7.823292      -212.8826
  22   2.0000      -7.821083      -212.8225
  23   2.0000      -6.597735      -179.5335
  24   2.0000      -6.597232      -179.5198
  25   2.0000      -5.822276      -158.4322
  26   2.0000      -5.820898      -158.3947
  27   2.0000      -5.819154      -158.3472
  28   2.0000      -5.817813      -158.3107
  29   2.0000      -5.812587      -158.1685
  30   2.0000      -5.810947      -158.1239
  31   2.0000      -5.770786      -157.0311
  32   2.0000      -5.768690      -156.9740
  33   2.0000      -5.763586      -156.8352
  34   2.0000      -5.763375      -156.8294
  35   2.0000      -5.761456      -156.7772
  36   2.0000      -5.760978      -156.7642
  37   2.0000      -4.743210      -129.0693
  38   2.0000      -4.742818      -129.0586
  39   2.0000      -4.742615      -129.0531
  40   2.0000      -4.742113      -129.0395
  41   2.0000      -4.741410      -129.0203
  42   2.0000      -4.741128      -129.0126
  43   2.0000      -1.051207       -28.6048
  44   2.0000      -1.049943       -28.5704
  45   2.0000      -1.011007       -27.5109
  46   2.0000      -1.009121       -27.4596
  47   2.0000      -0.806473       -21.9453
  48   2.0000      -0.756858       -20.5952
  49   2.0000      -0.744221       -20.2513
  50   2.0000      -0.722544       -19.6614
  51   2.0000      -0.721282       -19.6271
  52   2.0000      -0.710417       -19.3314
  53   2.0000      -0.688938       -18.7470
  54   2.0000      -0.676062       -18.3966
  55   2.0000      -0.631881       -17.1944
  56   2.0000      -0.619516       -16.8579
  57   2.0000      -0.603061       -16.4101
  58   2.0000      -0.596990       -16.2449
  59   2.0000      -0.585555       -15.9338
  60   2.0000      -0.524412       -14.2700
  61   2.0000      -0.520392       -14.1606
  62   2.0000      -0.490237       -13.3400
  63   2.0000      -0.485310       -13.2060
  64   2.0000      -0.476248       -12.9594
  65   2.0000      -0.456844       -12.4314
  66   2.0000      -0.452091       -12.3020
  67   2.0000      -0.447441       -12.1755
  68   2.0000      -0.441308       -12.0086
  69   2.0000      -0.433263       -11.7897
  70   2.0000      -0.427174       -11.6240
  71   2.0000      -0.410638       -11.1740
  72   2.0000      -0.409536       -11.1440
  73   2.0000      -0.401854       -10.9350
  74   2.0000      -0.392766       -10.6877
  75   2.0000      -0.389919       -10.6102
  76   2.0000      -0.380482       -10.3534
  77   2.0000      -0.366487        -9.9726
  78   2.0000      -0.359856        -9.7922
  79   2.0000      -0.356452        -9.6996
  80   2.0000      -0.355217        -9.6659
  81   2.0000      -0.350994        -9.5510
  82   2.0000      -0.349475        -9.5097
  83   2.0000      -0.347984        -9.4691
  84   2.0000      -0.345410        -9.3991
  85   2.0000      -0.331115        -9.0101
  86   2.0000      -0.317186        -8.6311
  87   2.0000      -0.310102        -8.4383
  88   2.0000      -0.306574        -8.3423
  89   2.0000      -0.304526        -8.2866
  90   2.0000      -0.295598        -8.0436
  91   2.0000      -0.291904        -7.9431
  92   2.0000      -0.284845        -7.7510
  93   2.0000      -0.279888        -7.6161
  94   2.0000      -0.273031        -7.4295
  95   2.0000      -0.247692        -6.7400
  96   2.0000      -0.235433        -6.4065
  97   2.0000      -0.233731        -6.3602
  98   2.0000      -0.226562        -6.1651
  99   2.0000      -0.220831        -6.0091
 100   2.0000      -0.219178        -5.9641
 101   0.0000      -0.053218        -1.4481
 102   0.0000      -0.032201        -0.8762
 103   0.0000      -0.006814        -0.1854
 104   0.0000      -0.005167        -0.1406
 105   0.0000       0.008161         0.2221

MULLIKEN ATOMIC CHARGES
-----------------------
   0 C :   -0.486166
   1 C :   -0.152374
   2 O :   -0.337264
   3 P :    0.743643
   4 S :   -0.536582
   5 O :   -0.284151
   6 C :   -0.128969
   7 C :   -0.511626
   8 S :   -0.118476
   9 C :   -0.261817
  10 S :   -0.142479
  11 P :    0.694615
  12 S :   -0.516465
  13 O :   -0.319140
  14 C :   -0.159946
  15 C :   -0.464886
  16 O :   -0.270580
  17 C :   -0.130853
  18 C :   -0.500393
  19 H :    0.172975
  20 H :    0.169266
  21 H :    0.172445
  22 H :    0.177993
  23 H :    0.174494
  24 H :    0.171926
  25 H :    0.170002
  26 H :    0.169035
  27 H :    0.169763
  28 H :    0.168239
  29 H :    0.230700
  30 H :    0.236132
  31 H :    0.175524
  32 H :    0.172797
  33 H :    0.169838
  34 H :    0.172595
  35 H :    0.165967
  36 H :    0.173039
  37 H :    0.169641
  38 H :    0.166807
  39 H :    0.165748
  40 H :    0.168982
Sum of atomic charges:    0.0000000

LOEWDIN ATOMIC CHARGES
----------------------
   0 C :   -0.410074
   1 C :    0.024515
   2 O :   -0.671554
   3 P :    0.379520
   4 S :   -0.162338
   5 O :   -0.690501
   6 C :    0.028647
   7 C :   -0.394563
   8 S :    0.177702
   9 C :   -0.411666
  10 S :    0.171995
  11 P :    0.387559
  12 S :   -0.160164
  13 O :   -0.673225
  14 C :    0.028894
  15 C :   -0.411417
  16 O :   -0.678885
  17 C :    0.028318
  18 C :   -0.405276
  19 H :    0.168381
  20 H :    0.163583
  21 H :    0.161455
  22 H :    0.181363
  23 H :    0.190683
  24 H :    0.181362
  25 H :    0.182910
  26 H :    0.162173
  27 H :    0.163553
  28 H :    0.167211
  29 H :    0.198663
  30 H :    0.197135
  31 H :    0.192402
  32 H :    0.179207
  33 H :    0.164148
  34 H :    0.167678
  35 H :    0.161688
  36 H :    0.185207
  37 H :    0.182422
  38 H :    0.164540
  39 H :    0.165068
  40 H :    0.161681

  Mayer bond orders larger than 0.100000
B(  0-C ,  1-C ) :   0.9099 B(  0-C , 19-H ) :   0.9534 B(  0-C , 20-H ) :   0.9656
B(  0-C , 21-H ) :   0.9633 B(  1-C ,  2-O ) :   0.8049 B(  1-C , 22-H ) :   0.9662
B(  1-C , 23-H ) :   0.9487 B(  2-O ,  3-P ) :   1.0649 B(  3-P ,  4-S ) :   1.6945
B(  3-P ,  5-O ) :   1.1599 B(  3-P ,  8-S ) :   1.1048 B(  5-O ,  6-C ) :   0.7728
B(  6-C ,  7-C ) :   0.9484 B(  6-C , 24-H ) :   0.9379 B(  6-C , 25-H ) :   0.9549
B(  7-C , 26-H ) :   0.9682 B(  7-C , 27-H ) :   0.9667 B(  7-C , 28-H ) :   0.9573
B(  8-S ,  9-C ) :   0.8888 B(  9-C , 10-S ) :   0.8973 B(  9-C , 29-H ) :   0.9030
B(  9-C , 30-H ) :   0.9050 B( 10-S , 11-P ) :   1.0739 B( 11-P , 12-S ) :   1.7318
B( 11-P , 13-O ) :   1.0931 B( 11-P , 16-O ) :   1.1358 B( 13-O , 14-C ) :   0.8012
B( 14-C , 15-C ) :   0.9202 B( 14-C , 31-H ) :   0.9488 B( 14-C , 32-H ) :   0.9594
B( 15-C , 33-H ) :   0.9664 B( 15-C , 34-H ) :   0.9558 B( 15-C , 35-H ) :   0.9575
B( 16-O , 17-C ) :   0.7503 B( 17-C , 18-C ) :   0.9385 B( 17-C , 36-H ) :   0.9498
B( 17-C , 37-H ) :   0.9574 B( 18-C , 38-H ) :   0.9674 B( 18-C , 39-H ) :   0.9597
B( 18-C , 40-H ) :   0.9650

Dispersion correction           -0.022285600
FINAL SINGLE POINT ENERGY     -2932.468244364497

DIPOLE MOMENT
-------------

Method             : SCF
Type of density    : Electron Density
Multiplicity       :   1
Irrep              :   0
Energy             : -2932.4924399764677219 Eh
Relativity type    :
Basis              : AO
                                X                 Y                 Z
Electronic contribution:      1.355447707       6.683347427      -4.314726945
Nuclear contribution   :     -1.137254565      -7.264623575       5.161396325
                        -----------------------------------------
Total Dipole Moment    :      0.218193143      -0.581276149       0.846669380
                        -----------------------------------------
Magnitude (a.u.)       :      1.049923449
Magnitude (Debye)      :      2.668693322

Rotational constants in cm-1:             0.012603             0.005261             0.005123
Rotational constants in MHz :           377.820933           157.733179           153.596731

                             ****ORCA TERMINATED NORMALLY****
TOTAL RUN TIME: 0 days 0 hours 1 minutes 53 seconds 801 msec
