                         Program Version 6.0.0  -   RELEASE  -
|  1> ! r2scan-3c def2/J RI DEFGRID2 scfconv6 printgap
|  2> %output
|  3>     printlevel normal
|  4> end
|  5> * xyz 0 1
|  6> C 2.8611813742 2.2116805601 -1.6476356726
|  7> C 3.609927561 1.8682003057 -0.3753534662
|  8> O 3.485586403 0.4755547607 -0.0469128073
|  9> P 2.1476165221 -0.132169612 0.5613935376
| 10> S 1.3097954155 1.0208084372 1.9113955122
| 11> O 2.6052448069 -1.559834908 1.0694190006
| 12> C 3.05403658 -1.7793080671 2.4244288044
| 13> C 4.3979367211 -1.1314562184 2.6809888888
| 14> S 1.0793653989 -0.7324629699 -1.167620331
| 15> C -0.0776429123 -1.9080955622 -0.4111909431
| 16> S -1.2963350941 -1.1367912022 0.6838588385
| 17> P -2.258676605 0.0357418647 -0.8218898734
| 18> S -2.2792346016 -0.7324463315 -2.617963236
| 19> O -1.5561865554 1.4477827939 -0.7749576422
| 20> C -1.6759165124 2.3474056821 0.3587122004
| 21> C -0.8016744044 3.551314327 0.0830000789
| 22> O -3.6816872502 0.3611232853 -0.1910461213
| 23> C -4.8234343083 -0.4971803904 -0.3750573306
| 24> C -4.6532428185 -1.8390483646 0.3065726665
| 25> H 3.027060332 3.2550869676 -1.8961967084
| 26> H 3.2030653222 1.5851373088 -2.4674380058
| 27> H 1.7921256037 2.0443249483 -1.5131319494
| 28> H 3.2362599365 2.4589387297 0.4685523157
| 29> H 4.6838015888 2.0220946236 -0.4885663104
| 30> H 2.2963578401 -1.3847396463 3.1092328285
| 31> H 3.1048152847 -2.8654738335 2.5105396449
| 32> H 4.7480619372 -1.4086681437 3.6703590424
| 33> H 5.1194145578 -1.455923821 1.9358050264
| 34> H 4.302461708 -0.0477395418 2.6298508356
| 35> H 0.4683039039 -2.6384469121 0.1799494339
| 36> H -0.5952511037 -2.3783331778 -1.2477888003
| 37> H -2.7262208596 2.6250790246 0.4599646093
| 38> H -1.3508154075 1.819612203 1.2602937702
| 39> H 0.2444374521 3.2578873829 0.0678555727
| 40> H -1.0623482216 3.9906409331 -0.875533267
| 41> H -0.9487964796 4.281066968 0.8722992735
| 42> H -5.6463824679 0.0733961965 0.0577258521
| 43> H -4.9837231617 -0.6289116484 -1.4494288501
| 44> H -4.372619521 -1.7024963721 1.3480492141
| 45> H -5.5881192421 -2.387524224 0.2530331285
| 46> H -3.8774251239 -2.4156493834 -0.1946549067
| 47> *
| 48>
| 49>                          ****END OF INPUT****

CARTESIAN COORDINATES (ANGSTROEM)
---------------------------------
  C      2.861181    2.211681   -1.647636
  C      3.609928    1.868200   -0.375353
  O      3.485586    0.475555   -0.046913
  P      2.147617   -0.132170    0.561394
  S      1.309795    1.020808    1.911396
  O      2.605245   -1.559835    1.069419
  C      3.054037   -1.779308    2.424429
  C      4.397937   -1.131456    2.680989
  S      1.079365   -0.732463   -1.167620
  C     -0.077643   -1.908096   -0.411191
  S     -1.296335   -1.136791    0.683859
  P     -2.258677    0.035742   -0.821890
  S     -2.279235   -0.732446   -2.617963
  O     -1.556187    1.447783   -0.774958
  C     -1.675917    2.347406    0.358712
  C     -0.801674    3.551314    0.083000
  O     -3.681687    0.361123   -0.191046
  C     -4.823434   -0.497180   -0.375057
  C     -4.653243   -1.839048    0.306573
  H      3.027060    3.255087   -1.896197
  H      3.203065    1.585137   -2.467438
  H      1.792126    2.044325   -1.513132
  H      3.236260    2.458939    0.468552
  H      4.683802    2.022095   -0.488566
  H      2.296358   -1.384740    3.109233
  H      3.104815   -2.865474    2.510540
  H      4.748062   -1.408668    3.670359
  H      5.119415   -1.455924    1.935805
  H      4.302462   -0.047740    2.629851
  H      0.468304   -2.638447    0.179949
  H     -0.595251   -2.378333   -1.247789
  H     -2.726221    2.625079    0.459965
  H     -1.350815    1.819612    1.260294
  H      0.244437    3.257887    0.067856
  H     -1.062348    3.990641   -0.875533
  H     -0.948796    4.281067    0.872299
  H     -5.646382    0.073396    0.057726
  H     -4.983723   -0.628912   -1.449429
  H     -4.372620   -1.702496    1.348049
  H     -5.588119   -2.387524    0.253033
  H     -3.877425   -2.415649   -0.194655

 Total Charge           Charge          ....    0
 Multiplicity           Mult            ....    1
 Number of Electrons    NEL             ....  202
 Basis Dimension        Dim             ....  539

ORBITAL ENERGIES
----------------

  NO   OCC          E(Eh)            E(eV)
   0   2.0000     -88.572030     -2410.1675
   1   2.0000     -88.569223     -2410.0911
   2   2.0000     -88.519795     -2408.7461
   3   2.0000     -88.517569     -2408.6855
   4   2.0000     -76.914415     -2092.9476
   5   2.0000     -76.910350     -2092.8370
   6   2.0000     -18.994467      -516.8657
   7   2.0000     -18.993192      -516.8310
   8   2.0000     -18.991845      -516.7944
   9   2.0000     -18.983547      -516.5686
  10   2.0000     -10.104827      -274.9663
  11   2.0000     -10.100354      -274.8446
  12   2.0000     -10.099020      -274.8083
  13   2.0000     -10.098470      -274.7933
  14   2.0000     -10.090462      -274.5754
  15   2.0000     -10.030639      -272.9476
  16   2.0000     -10.030037      -272.9312
  17   2.0000     -10.027383      -272.8590
  18   2.0000     -10.023351      -272.7493
  19   2.0000      -7.866149      -214.0488
  20   2.0000      -7.863567      -213.9785
  21   2.0000      -7.814775      -212.6508
  22   2.0000      -7.812448      -212.5875
  23   2.0000      -6.592941      -179.4030
  24   2.0000      -6.588785      -179.2900
  25   2.0000      -5.813268      -158.1871
  26   2.0000      -5.810448      -158.1103
  27   2.0000      -5.809983      -158.0977
  28   2.0000      -5.807454      -158.0289
  29   2.0000      -5.803061      -157.9093
  30   2.0000      -5.800631      -157.8432
  31   2.0000      -5.762351      -156.8015
  32   2.0000      -5.760117      -156.7407
  33   2.0000      -5.755062      -156.6032
  34   2.0000      -5.754803      -156.5961
  35   2.0000      -5.752655      -156.5377
  36   2.0000      -5.752476      -156.5328
  37   2.0000      -4.738505      -128.9413
  38   2.0000      -4.738000      -128.9275
  39   2.0000      -4.736468      -128.8858
  40   2.0000      -4.734698      -128.8377
  41   2.0000      -4.733535      -128.8060
  42   2.0000      -4.732349      -128.7738
  43   2.0000      -1.052080       -28.6286
  44   2.0000      -1.047373       -28.5005
  45   2.0000      -1.014777       -27.6135
  46   2.0000      -1.004543       -27.3350
  47   2.0000      -0.798376       -21.7249
  48   2.0000      -0.756793       -20.5934
  49   2.0000      -0.747370       -20.3370
  50   2.0000      -0.733428       -19.9576
  51   2.0000      -0.730257       -19.8713
  52   2.0000      -0.706784       -19.2326
  53   2.0000      -0.686499       -18.6806
  54   2.0000      -0.668159       -18.1815
  55   2.0000      -0.632459       -17.2101
  56   2.0000      -0.620884       -16.8951
  57   2.0000      -0.607615       -16.5341
  58   2.0000      -0.597584       -16.2611
  59   2.0000      -0.589213       -16.0333
  60   2.0000      -0.526626       -14.3302
  61   2.0000      -0.519664       -14.1408
  62   2.0000      -0.496535       -13.5114
  63   2.0000      -0.490852       -13.3568
  64   2.0000      -0.478308       -13.0154
  65   2.0000      -0.462324       -12.5805
  66   2.0000      -0.458717       -12.4823
  67   2.0000      -0.452557       -12.3147
  68   2.0000      -0.442318       -12.0361
  69   2.0000      -0.431172       -11.7328
  70   2.0000      -0.427222       -11.6253
  71   2.0000      -0.413153       -11.2425
  72   2.0000      -0.408453       -11.1146
  73   2.0000      -0.403812       -10.9883
  74   2.0000      -0.390800       -10.6342
  75   2.0000      -0.389026       -10.5859
  76   2.0000      -0.378585       -10.3018
  77   2.0000      -0.375132       -10.2079
  78   2.0000      -0.372377       -10.1329
  79   2.0000      -0.365476        -9.9451
  80   2.0000      -0.363608        -9.8943
  81   2.0000      -0.360234        -9.8025
  82   2.0000      -0.352993        -9.6054
  83   2.0000      -0.349982        -9.5235
  84   2.0000      -0.345220        -9.3939
  85   2.0000      -0.331463        -9.0196
  86   2.0000      -0.319991        -8.7074
  87   2.0000      -0.314003        -8.5445
  88   2.0000      -0.310454        -8.4479
  89   2.0000      -0.307774        -8.3750
  90   2.0000      -0.301967        -8.2169
  91   2.0000      -0.290964        -7.9175
  92   2.0000      -0.281027        -7.6471
  93   2.0000      -0.278200        -7.5702
  94   2.0000      -0.269753        -7.3403
  95   2.0000      -0.251594        -6.8462
  96   2.0000      -0.228682        -6.2228
  97   2.0000      -0.221184        -6.0187
  98   2.0000      -0.218778        -5.9533
  99   2.0000      -0.211631        -5.7588
 100   2.0000      -0.203806        -5.5458
 101   0.0000      -0.045731        -1.2444
 102   0.0000      -0.023440        -0.6378
 103   0.0000      -0.008988        -0.2446
 104   0.0000       0.003486         0.0949
 105   0.0000       0.014664         0.3990

MULLIKEN ATOMIC CHARGES
-----------------------
   0 C :   -0.455280
   1 C :   -0.161323
   2 O :   -0.286551
   3 P :    0.705594
   4 S :   -0.468231
   5 O :   -0.326586
   6 C :   -0.150545
   7 C :   -0.441352
   8 S :   -0.106079
   9 C :   -0.235005
  10 S :   -0.152904
  11 P :    0.665936
  12 S :   -0.450242
  13 O :   -0.255754
  14 C :   -0.117892
  15 C :   -0.462091
  16 O :   -0.297643
  17 C :   -0.166408
  18 C :   -0.441903
  19 H :    0.151030
  20 H :    0.161327
  21 H :    0.172739
  22 H :    0.174415
  23 H :    0.148884
  24 H :    0.172732
  25 H :    0.147685
  26 H :    0.147108
  27 H :    0.157016
  28 H :    0.168923
  29 H :    0.197183
  30 H :    0.215326
  31 H :    0.153819
  32 H :    0.173752
  33 H :    0.163410
  34 H :    0.154873
  35 H :    0.144098
  36 H :    0.147593
  37 H :    0.174752
  38 H :    0.154590
  39 H :    0.146634
  40 H :    0.176370
Sum of atomic charges:   -0.0000000

LOEWDIN ATOMIC CHARGES
----------------------
   0 C :   -0.405033
   1 C :    0.016177
   2 O :   -0.662452
   3 P :    0.384916
   4 S :   -0.122202
   5 O :   -0.678648
   6 C :    0.020830
   7 C :   -0.398809
   8 S :    0.180123
   9 C :   -0.418664
  10 S :    0.134432
  11 P :    0.383074
  12 S :   -0.102882
  13 O :   -0.652122
  14 C :    0.018645
  15 C :   -0.392883
  16 O :   -0.673576
  17 C :    0.022067
  18 C :   -0.409068
  19 H :    0.161016
  20 H :    0.161889
  21 H :    0.166167
  22 H :    0.179501
  23 H :    0.179610
  24 H :    0.180298
  25 H :    0.178774
  26 H :    0.159784
  27 H :    0.161631
  28 H :    0.165505
  29 H :    0.185459
  30 H :    0.192800
  31 H :    0.173917
  32 H :    0.181046
  33 H :    0.162789
  34 H :    0.161081
  35 H :    0.160413
  36 H :    0.179198
  37 H :    0.180386
  38 H :    0.160584
  39 H :    0.158796
  40 H :    0.165431

  Mayer bond orders larger than 0.100000
B(  0-C ,  1-C ) :   0.9201 B(  0-C , 19-H ) :   0.9602 B(  0-C , 20-H ) :   0.9681
B(  0-C , 21-H ) :   0.9575 B(  1-C ,  2-O ) :   0.8052 B(  1-C , 22-H ) :   0.9654
B(  1-C , 23-H ) :   0.9574 B(  2-O ,  3-P ) :   1.0783 B(  3-P ,  4-S ) :   1.7329
B(  3-P ,  5-O ) :   1.1510 B(  3-P ,  8-S ) :   1.0911 B(  5-O ,  6-C ) :   0.8031
B(  6-C ,  7-C ) :   0.9345 B(  6-C , 24-H ) :   0.9633 B(  6-C , 25-H ) :   0.9595
B(  7-C , 26-H ) :   0.9619 B(  7-C , 27-H ) :   0.9708 B(  7-C , 28-H ) :   0.9585
B(  8-S ,  9-C ) :   0.8909 B(  9-C , 10-S ) :   0.9095 B(  9-C , 29-H ) :   0.9146
B(  9-C , 30-H ) :   0.9138 B( 10-S , 11-P ) :   1.0002 B( 11-P , 12-S ) :   1.8122
B( 11-P , 13-O ) :   1.1826 B( 11-P , 16-O ) :   1.0384 B( 13-O , 14-C ) :   0.7381
B( 14-C , 15-C ) :   0.9393 B( 14-C , 31-H ) :   0.9456 B( 14-C , 32-H ) :   0.9376
B( 15-C , 33-H ) :   0.9650 B( 15-C , 34-H ) :   0.9744 B( 15-C , 35-H ) :   0.9656
B( 16-O , 17-C ) :   0.8183 B( 17-C , 18-C ) :   0.9192 B( 17-C , 36-H ) :   0.9616
B( 17-C , 37-H ) :   0.9691 B( 18-C , 38-H ) :   0.9670 B( 18-C , 39-H ) :   0.9569
B( 18-C , 40-H ) :   0.9645

Dispersion correction           -0.021854702
FINAL SINGLE POINT ENERGY     -2932.461337501868

DIPOLE MOMENT
-------------

Method             : SCF
Type of density    : Electron Density
Multiplicity       :   1
Irrep              :   0
Energy             : -2932.4858560263032814 Eh
Relativity type    :
Basis              : AO
                                X                 Y                 Z
Electronic contribution:     -4.589798890      -7.704881079      -7.387843712
Nuclear contribution   :      4.906927318       7.741242884       8.421485429
                        -----------------------------------------
Total Dipole Moment    :      0.317128427       0.036361805       1.033641717
                        -----------------------------------------
Magnitude (a.u.)       :      1.081807663
Magnitude (Debye)      :      2.749736554

Rotational constants in cm-1:             0.012674             0.005103             0.004693
Rotational constants in MHz :           379.968708           152.994419           140.704495

                             ****ORCA TERMINATED NORMALLY****
TOTAL RUN TIME: 0 days 0 hours 1 minutes 23 seconds 687 msec
