                         Program Version 6.0.0  -   RELEASE  -
|  1> ! r2scan-3c def2/J RI DEFGRID2 scfconv6 printgap
|  2> %output
|  3>     printlevel normal
|  4> end
|  5> %cpcm
|  6>     smd true
|  7>     smdsolvent "water"
|  8> end
|  9> * xyz 0 1
| 10> C 2.8611813742 2.2116805601 -1.6476356726
| 11> C 3.609927561 1.8682003057 -0.3753534662
| 12> O 3.485586403 0.4755547607 -0.0469128073
| 13> P 2.1476165221 -0.132169612 0.5613935376
| 14> S 1.3097954155 1.0208084372 1.9113955122
| 15> O 2.6052448069 -1.559834908 1.0694190006
| 16> C 3.05403658 -1.7793080671 2.4244288044
| 17> C 4.3979367211 -1.1314562184 2.6809888888
| 18> S 1.0793653989 -0.7324629699 -1.167620331
| 19> C -0.0776429123 -1.9080955622 -0.4111909431
| 20> S -1.2963350941 -1.1367912022 0.6838588385
| 21> P -2.258676605 0.0357418647 -0.8218898734
| 22> S -2.2792346016 -0.7324463315 -2.617963236
| 23> O -1.5561865554 1.4477827939 -0.7749576422
| 24> C -1.6759165124 2.3474056821 0.3587122004
| 25> C -0.8016744044 3.551314327 0.0830000789
| 26> O -3.6816872502 0.3611232853 -0.1910461213
| 27> C -4.8234343083 -0.4971803904 -0.3750573306
| 28> C -4.6532428185 -1.8390483646 0.3065726665
| 29> H 3.027060332 3.2550869676 -1.8961967084
| 30> H 3.2030653222 1.5851373088 -2.4674380058
| 31> H 1.7921256037 2.0443249483 -1.5131319494
| 32> H 3.2362599365 2.4589387297 0.4685523157
| 33> H 4.6838015888 2.0220946236 -0.4885663104
| 34> H 2.2963578401 -1.3847396463 3.1092328285
| 35> H 3.1048152847 -2.8654738335 2.5105396449
| 36> H 4.7480619372 -1.4086681437 3.6703590424
| 37> H 5.1194145578 -1.455923821 1.9358050264
| 38> H 4.302461708 -0.0477395418 2.6298508356
| 39> H 0.4683039039 -2.6384469121 0.1799494339
| 40> H -0.5952511037 -2.3783331778 -1.2477888003
| 41> H -2.7262208596 2.6250790246 0.4599646093
| 42> H -1.3508154075 1.819612203 1.2602937702
| 43> H 0.2444374521 3.2578873829 0.0678555727
| 44> H -1.0623482216 3.9906409331 -0.875533267
| 45> H -0.9487964796 4.281066968 0.8722992735
| 46> H -5.6463824679 0.0733961965 0.0577258521
| 47> H -4.9837231617 -0.6289116484 -1.4494288501
| 48> H -4.372619521 -1.7024963721 1.3480492141
| 49> H -5.5881192421 -2.387524224 0.2530331285
| 50> H -3.8774251239 -2.4156493834 -0.1946549067
| 51> *
| 52>
| 53>                          ****END OF INPUT****

CARTESIAN COORDINATES (ANGSTROEM)
---------------------------------
  C      2.861181    2.211681   -1.647636
  C      3.609928    1.868200   -0.375353
  O      3.485586    0.475555   -0.046913
  P      2.147617   -0.132170    0.561394
  S      1.309795    1.020808    1.911396
  O      2.605245   -1.559835    1.069419
  C      3.054037   -1.779308    2.424429
  C      4.397937   -1.131456    2.680989
  S      1.079365   -0.732463   -1.167620
  C     -0.077643   -1.908096   -0.411191
  S     -1.296335   -1.136791    0.683859
  P     -2.258677    0.035742   -0.821890
  S     -2.279235   -0.732446   -2.617963
  O     -1.556187    1.447783   -0.774958
  C     -1.675917    2.347406    0.358712
  C     -0.801674    3.551314    0.083000
  O     -3.681687    0.361123   -0.191046
  C     -4.823434   -0.497180   -0.375057
  C     -4.653243   -1.839048    0.306573
  H      3.027060    3.255087   -1.896197
  H      3.203065    1.585137   -2.467438
  H      1.792126    2.044325   -1.513132
  H      3.236260    2.458939    0.468552
  H      4.683802    2.022095   -0.488566
  H      2.296358   -1.384740    3.109233
  H      3.104815   -2.865474    2.510540
  H      4.748062   -1.408668    3.670359
  H      5.119415   -1.455924    1.935805
  H      4.302462   -0.047740    2.629851
  H      0.468304   -2.638447    0.179949
  H     -0.595251   -2.378333   -1.247789
  H     -2.726221    2.625079    0.459965
  H     -1.350815    1.819612    1.260294
  H      0.244437    3.257887    0.067856
  H     -1.062348    3.990641   -0.875533
  H     -0.948796    4.281067    0.872299
  H     -5.646382    0.073396    0.057726
  H     -4.983723   -0.628912   -1.449429
  H     -4.372620   -1.702496    1.348049
  H     -5.588119   -2.387524    0.253033
  H     -3.877425   -2.415649   -0.194655

 Total Charge           Charge          ....    0
 Multiplicity           Mult            ....    1
 Number of Electrons    NEL             ....  202
 Basis Dimension        Dim             ....  539

ORBITAL ENERGIES
----------------

  NO   OCC          E(Eh)            E(eV)
   0   2.0000     -88.577523     -2410.3169
   1   2.0000     -88.574228     -2410.2273
   2   2.0000     -88.529710     -2409.0159
   3   2.0000     -88.523984     -2408.8601
   4   2.0000     -76.919001     -2093.0724
   5   2.0000     -76.917884     -2093.0420
   6   2.0000     -18.995532      -516.8947
   7   2.0000     -18.994917      -516.8780
   8   2.0000     -18.994620      -516.8699
   9   2.0000     -18.992403      -516.8096
  10   2.0000     -10.103967      -274.9429
  11   2.0000     -10.090451      -274.5751
  12   2.0000     -10.089392      -274.5463
  13   2.0000     -10.089161      -274.5400
  14   2.0000     -10.088484      -274.5216
  15   2.0000     -10.020018      -272.6586
  16   2.0000     -10.018605      -272.6201
  17   2.0000     -10.018154      -272.6078
  18   2.0000     -10.017807      -272.5984
  19   2.0000      -7.871747      -214.2011
  20   2.0000      -7.868515      -214.1132
  21   2.0000      -7.824919      -212.9269
  22   2.0000      -7.819151      -212.7699
  23   2.0000      -6.597507      -179.5273
  24   2.0000      -6.596439      -179.4982
  25   2.0000      -5.818778      -158.3370
  26   2.0000      -5.815504      -158.2479
  27   2.0000      -5.815408      -158.2453
  28   2.0000      -5.812427      -158.1642
  29   2.0000      -5.808830      -158.0663
  30   2.0000      -5.805563      -157.9774
  31   2.0000      -5.772486      -157.0773
  32   2.0000      -5.766712      -156.9202
  33   2.0000      -5.765086      -156.8760
  34   2.0000      -5.765025      -156.8743
  35   2.0000      -5.759393      -156.7211
  36   2.0000      -5.759203      -156.7159
  37   2.0000      -4.743370      -129.0737
  38   2.0000      -4.742228      -129.0426
  39   2.0000      -4.741933      -129.0345
  40   2.0000      -4.741505      -129.0229
  41   2.0000      -4.741169      -129.0138
  42   2.0000      -4.740045      -128.9832
  43   2.0000      -1.053119       -28.6568
  44   2.0000      -1.052739       -28.6465
  45   2.0000      -1.014708       -27.6116
  46   2.0000      -1.010402       -27.4944
  47   2.0000      -0.801083       -21.7986
  48   2.0000      -0.754948       -20.5432
  49   2.0000      -0.743534       -20.2326
  50   2.0000      -0.725155       -19.7325
  51   2.0000      -0.724087       -19.7034
  52   2.0000      -0.707146       -19.2424
  53   2.0000      -0.690238       -18.7823
  54   2.0000      -0.675045       -18.3689
  55   2.0000      -0.630337       -17.1523
  56   2.0000      -0.618287       -16.8244
  57   2.0000      -0.599859       -16.3230
  58   2.0000      -0.597287       -16.2530
  59   2.0000      -0.588483       -16.0134
  60   2.0000      -0.526372       -14.3233
  61   2.0000      -0.515311       -14.0223
  62   2.0000      -0.492265       -13.3952
  63   2.0000      -0.490567       -13.3490
  64   2.0000      -0.477961       -13.0060
  65   2.0000      -0.460394       -12.5280
  66   2.0000      -0.453473       -12.3396
  67   2.0000      -0.449141       -12.2218
  68   2.0000      -0.440656       -11.9909
  69   2.0000      -0.427248       -11.6260
  70   2.0000      -0.424155       -11.5418
  71   2.0000      -0.408748       -11.1226
  72   2.0000      -0.406429       -11.0595
  73   2.0000      -0.404638       -11.0108
  74   2.0000      -0.390110       -10.6154
  75   2.0000      -0.387840       -10.5537
  76   2.0000      -0.379662       -10.3311
  77   2.0000      -0.372288       -10.1305
  78   2.0000      -0.366688        -9.9781
  79   2.0000      -0.358598        -9.7580
  80   2.0000      -0.355596        -9.6763
  81   2.0000      -0.352105        -9.5813
  82   2.0000      -0.349578        -9.5125
  83   2.0000      -0.346455        -9.4275
  84   2.0000      -0.342034        -9.3072
  85   2.0000      -0.329509        -8.9664
  86   2.0000      -0.321214        -8.7407
  87   2.0000      -0.314672        -8.5626
  88   2.0000      -0.306323        -8.3355
  89   2.0000      -0.303894        -8.2694
  90   2.0000      -0.299082        -8.1384
  91   2.0000      -0.287783        -7.8310
  92   2.0000      -0.281816        -7.6686
  93   2.0000      -0.279204        -7.5975
  94   2.0000      -0.274192        -7.4611
  95   2.0000      -0.257533        -7.0078
  96   2.0000      -0.234140        -6.3713
  97   2.0000      -0.232433        -6.3248
  98   2.0000      -0.230804        -6.2805
  99   2.0000      -0.217746        -5.9252
 100   2.0000      -0.210088        -5.7168
 101   0.0000      -0.051480        -1.4008
 102   0.0000      -0.030574        -0.8320
 103   0.0000      -0.012518        -0.3406
 104   0.0000      -0.001539        -0.0419
 105   0.0000       0.010578         0.2879

MULLIKEN ATOMIC CHARGES
-----------------------
   0 C :   -0.484324
   1 C :   -0.154493
   2 O :   -0.313914
   3 P :    0.730042
   4 S :   -0.498607
   5 O :   -0.346826
   6 C :   -0.145391
   7 C :   -0.481417
   8 S :   -0.146678
   9 C :   -0.236186
  10 S :   -0.156398
  11 P :    0.678563
  12 S :   -0.501241
  13 O :   -0.288030
  14 C :   -0.110283
  15 C :   -0.505330
  16 O :   -0.317948
  17 C :   -0.160309
  18 C :   -0.477738
  19 H :    0.175763
  20 H :    0.173494
  21 H :    0.163407
  22 H :    0.177724
  23 H :    0.175654
  24 H :    0.176367
  25 H :    0.175505
  26 H :    0.172193
  27 H :    0.169080
  28 H :    0.168064
  29 H :    0.233520
  30 H :    0.231418
  31 H :    0.173553
  32 H :    0.177001
  33 H :    0.168959
  34 H :    0.166657
  35 H :    0.171069
  36 H :    0.175431
  37 H :    0.179299
  38 H :    0.167431
  39 H :    0.171861
  40 H :    0.173057
Sum of atomic charges:    0.0000000

LOEWDIN ATOMIC CHARGES
----------------------
   0 C :   -0.407508
   1 C :    0.022541
   2 O :   -0.676816
   3 P :    0.387520
   4 S :   -0.138689
   5 O :   -0.688175
   6 C :    0.026917
   7 C :   -0.402981
   8 S :    0.157289
   9 C :   -0.410254
  10 S :    0.138925
  11 P :    0.384708
  12 S :   -0.141533
  13 O :   -0.675606
  14 C :    0.022822
  15 C :   -0.397444
  16 O :   -0.680071
  17 C :    0.027767
  18 C :   -0.411343
  19 H :    0.170285
  20 H :    0.163924
  21 H :    0.161328
  22 H :    0.181714
  23 H :    0.190833
  24 H :    0.181882
  25 H :    0.190415
  26 H :    0.169042
  27 H :    0.164126
  28 H :    0.162568
  29 H :    0.198717
  30 H :    0.198298
  31 H :    0.182337
  32 H :    0.182830
  33 H :    0.162852
  34 H :    0.164466
  35 H :    0.170129
  36 H :    0.191111
  37 H :    0.181656
  38 H :    0.163692
  39 H :    0.168113
  40 H :    0.161613

  Mayer bond orders larger than 0.100000
B(  0-C ,  1-C ) :   0.9109 B(  0-C , 19-H ) :   0.9543 B(  0-C , 20-H ) :   0.9671
B(  0-C , 21-H ) :   0.9571 B(  1-C ,  2-O ) :   0.7968 B(  1-C , 22-H ) :   0.9623
B(  1-C , 23-H ) :   0.9492 B(  2-O ,  3-P ) :   1.0825 B(  3-P ,  4-S ) :   1.7140
B(  3-P ,  5-O ) :   1.1622 B(  3-P ,  8-S ) :   1.0936 B(  5-O ,  6-C ) :   0.7918
B(  6-C ,  7-C ) :   0.9193 B(  6-C , 24-H ) :   0.9606 B(  6-C , 25-H ) :   0.9507
B(  7-C , 26-H ) :   0.9561 B(  7-C , 27-H ) :   0.9702 B(  7-C , 28-H ) :   0.9584
B(  8-S ,  9-C ) :   0.8802 B(  9-C , 10-S ) :   0.9017 B(  9-C , 29-H ) :   0.9045
B(  9-C , 30-H ) :   0.9094 B( 10-S , 11-P ) :   1.0145 B( 11-P , 12-S ) :   1.7926
B( 11-P , 13-O ) :   1.1808 B( 11-P , 16-O ) :   1.0493 B( 13-O , 14-C ) :   0.7315
B( 14-C , 15-C ) :   0.9264 B( 14-C , 31-H ) :   0.9384 B( 14-C , 32-H ) :   0.9330
B( 15-C , 33-H ) :   0.9642 B( 15-C , 34-H ) :   0.9712 B( 15-C , 35-H ) :   0.9605
B( 16-O , 17-C ) :   0.8060 B( 17-C , 18-C ) :   0.9080 B( 17-C , 36-H ) :   0.9508
B( 17-C , 37-H ) :   0.9672 B( 18-C , 38-H ) :   0.9645 B( 18-C , 39-H ) :   0.9516
B( 18-C , 40-H ) :   0.9655

Dispersion correction           -0.021854702
FINAL SINGLE POINT ENERGY     -2932.469948362455

DIPOLE MOMENT
-------------

Method             : SCF
Type of density    : Electron Density
Multiplicity       :   1
Irrep              :   0
Energy             : -2932.4944668868911322 Eh
Relativity type    :
Basis              : AO
                                X                 Y                 Z
Electronic contribution:     -4.623033712      -7.803373129      -6.839319690
Nuclear contribution   :      4.906927318       7.741242884       8.421485429
                        -----------------------------------------
Total Dipole Moment    :      0.283893605      -0.062130245       1.582165740
                        -----------------------------------------
Magnitude (a.u.)       :      1.608634257
Magnitude (Debye)      :      4.088823338

Rotational constants in cm-1:             0.012674             0.005103             0.004693
Rotational constants in MHz :           379.968708           152.994419           140.704495

                             ****ORCA TERMINATED NORMALLY****
TOTAL RUN TIME: 0 days 0 hours 1 minutes 48 seconds 347 msec
