                         Program Version 6.0.0  -   RELEASE  -
|  1> ! r2scan-3c def2/J RI DEFGRID2 scfconv6 printgap
|  2> %output
|  3>     printlevel normal
|  4> end
|  5> * xyz 0 1
|  6> C 5.6165528987 0.571192791 -0.749656608
|  7> C 4.3151293021 1.3038340443 -1.0119179396
|  8> O 3.2453254249 0.3710494487 -1.2762753689
|  9> P 2.2507124199 -0.1287528225 -0.1408615835
| 10> S 3.0815281256 -0.8561086965 1.4822221802
| 11> O 1.3348504675 -1.1210788541 -0.9539400949
| 12> C 1.5806874668 -2.5438798399 -1.0419100968
| 13> C 0.3434274928 -3.2912759498 -0.5886599956
| 14> S 0.9797188808 1.5287366471 0.1330409959
| 15> C 0.2865151336 1.0206550878 1.7292414141
| 16> S -0.8431423298 -0.3955036058 1.6151812353
| 17> P -2.1564133835 0.2923166525 0.091165716
| 18> S -1.7658242504 -0.1333189319 -1.7862201444
| 19> O -2.2192933248 1.8244000781 0.4816255598
| 20> C -2.5945534629 2.8353520977 -0.4769829319
| 21> C -4.0675177988 2.7589983354 -0.8182751259
| 22> O -3.5840691997 -0.2261424156 0.5659327261
| 23> C -4.1003257134 -1.5131783705 0.1958830863
| 24> C -3.4441096832 -2.6223526283 0.9927991815
| 25> H 5.5357692184 -0.0298967832 0.1533368914
| 26> H 5.8518043069 -0.0813381462 -1.5857716703
| 27> H 6.4143126576 1.2957743497 -0.6225339575
| 28> H 4.3757032131 1.9142259175 -1.9148319932
| 29> H 4.0412850645 1.9357052607 -0.162236445
| 30> H 1.8090953779 -2.7454825113 -2.0898423105
| 31> H 2.4449546758 -2.7957894816 -0.4187850391
| 32> H 0.4875175635 -4.3545258977 -0.7493626424
| 33> H 0.1624093486 -3.1079083623 0.468660324
| 34> H -0.5165053237 -2.9526346542 -1.1621199269
| 35> H -0.2420464492 1.8799883257 2.1324279962
| 36> H 1.0949759671 0.7014968677 2.3893425564
| 37> H -2.3378329431 3.7732443806 0.017070608
| 38> H -1.9793274942 2.7093351964 -1.3739073998
| 39> H -4.2768532669 1.826656316 -1.3411175121
| 40> H -4.6651363365 2.7954139294 0.0886136348
| 41> H -4.331798924 3.5921687525 -1.4618099874
| 42> H -5.1688562419 -1.4440710205 0.4041757309
| 43> H -3.9389958033 -1.6564554475 -0.878379723
| 44> H -3.5717624498 -2.4480844118 2.0577216193
| 45> H -3.8890049088 -3.5751268476 0.7249210338
| 46> H -2.3772104479 -2.6534628116 0.7728413358
| 47> *
| 48>
| 49>                          ****END OF INPUT****

CARTESIAN COORDINATES (ANGSTROEM)
---------------------------------
  C      5.616553    0.571193   -0.749657
  C      4.315129    1.303834   -1.011918
  O      3.245325    0.371049   -1.276275
  P      2.250712   -0.128753   -0.140862
  S      3.081528   -0.856109    1.482222
  O      1.334850   -1.121079   -0.953940
  C      1.580687   -2.543880   -1.041910
  C      0.343427   -3.291276   -0.588660
  S      0.979719    1.528737    0.133041
  C      0.286515    1.020655    1.729241
  S     -0.843142   -0.395504    1.615181
  P     -2.156413    0.292317    0.091166
  S     -1.765824   -0.133319   -1.786220
  O     -2.219293    1.824400    0.481626
  C     -2.594553    2.835352   -0.476983
  C     -4.067518    2.758998   -0.818275
  O     -3.584069   -0.226142    0.565933
  C     -4.100326   -1.513178    0.195883
  C     -3.444110   -2.622353    0.992799
  H      5.535769   -0.029897    0.153337
  H      5.851804   -0.081338   -1.585772
  H      6.414313    1.295774   -0.622534
  H      4.375703    1.914226   -1.914832
  H      4.041285    1.935705   -0.162236
  H      1.809095   -2.745483   -2.089842
  H      2.444955   -2.795789   -0.418785
  H      0.487518   -4.354526   -0.749363
  H      0.162409   -3.107908    0.468660
  H     -0.516505   -2.952635   -1.162120
  H     -0.242046    1.879988    2.132428
  H      1.094976    0.701497    2.389343
  H     -2.337833    3.773244    0.017071
  H     -1.979327    2.709335   -1.373907
  H     -4.276853    1.826656   -1.341118
  H     -4.665136    2.795414    0.088614
  H     -4.331799    3.592169   -1.461810
  H     -5.168856   -1.444071    0.404176
  H     -3.938996   -1.656455   -0.878380
  H     -3.571762   -2.448084    2.057722
  H     -3.889005   -3.575127    0.724921
  H     -2.377210   -2.653463    0.772841

 Total Charge           Charge          ....    0
 Multiplicity           Mult            ....    1
 Number of Electrons    NEL             ....  202
 Basis Dimension        Dim             ....  539

ORBITAL ENERGIES
----------------

  NO   OCC          E(Eh)            E(eV)
   0   2.0000     -88.575723     -2410.2680
   1   2.0000     -88.571159     -2410.1438
   2   2.0000     -88.517921     -2408.6951
   3   2.0000     -88.514892     -2408.6127
   4   2.0000     -76.912728     -2092.9017
   5   2.0000     -76.911443     -2092.8668
   6   2.0000     -18.993860      -516.8492
   7   2.0000     -18.989338      -516.7262
   8   2.0000     -18.989188      -516.7221
   9   2.0000     -18.981864      -516.5228
  10   2.0000     -10.106297      -275.0063
  11   2.0000     -10.099264      -274.8149
  12   2.0000     -10.098605      -274.7970
  13   2.0000     -10.097498      -274.7669
  14   2.0000     -10.090794      -274.5845
  15   2.0000     -10.031721      -272.9770
  16   2.0000     -10.028881      -272.8997
  17   2.0000     -10.023982      -272.7664
  18   2.0000     -10.019057      -272.6324
  19   2.0000      -7.870108      -214.1565
  20   2.0000      -7.865538      -214.0322
  21   2.0000      -7.812898      -212.5998
  22   2.0000      -7.809551      -212.5087
  23   2.0000      -6.591085      -179.3525
  24   2.0000      -6.589827      -179.3183
  25   2.0000      -5.817010      -158.2889
  26   2.0000      -5.813883      -158.2038
  27   2.0000      -5.812789      -158.1740
  28   2.0000      -5.809269      -158.0783
  29   2.0000      -5.807265      -158.0237
  30   2.0000      -5.802373      -157.8906
  31   2.0000      -5.760417      -156.7489
  32   2.0000      -5.757238      -156.6624
  33   2.0000      -5.753265      -156.5543
  34   2.0000      -5.752903      -156.5444
  35   2.0000      -5.750058      -156.4670
  36   2.0000      -5.749327      -156.4471
  37   2.0000      -4.736683      -128.8917
  38   2.0000      -4.736116      -128.8763
  39   2.0000      -4.735265      -128.8531
  40   2.0000      -4.734756      -128.8393
  41   2.0000      -4.734605      -128.8352
  42   2.0000      -4.733640      -128.8089
  43   2.0000      -1.050843       -28.5949
  44   2.0000      -1.044480       -28.4217
  45   2.0000      -1.012716       -27.5574
  46   2.0000      -1.004576       -27.3359
  47   2.0000      -0.800395       -21.7799
  48   2.0000      -0.756872       -20.5955
  49   2.0000      -0.746673       -20.3180
  50   2.0000      -0.732433       -19.9305
  51   2.0000      -0.725536       -19.7428
  52   2.0000      -0.706844       -19.2342
  53   2.0000      -0.684832       -18.6352
  54   2.0000      -0.667307       -18.1584
  55   2.0000      -0.630455       -17.1556
  56   2.0000      -0.619375       -16.8541
  57   2.0000      -0.606377       -16.5004
  58   2.0000      -0.601628       -16.3711
  59   2.0000      -0.588079       -16.0025
  60   2.0000      -0.527092       -14.3429
  61   2.0000      -0.518268       -14.1028
  62   2.0000      -0.494975       -13.4690
  63   2.0000      -0.492851       -13.4111
  64   2.0000      -0.477117       -12.9830
  65   2.0000      -0.458270       -12.4702
  66   2.0000      -0.454892       -12.3782
  67   2.0000      -0.451195       -12.2777
  68   2.0000      -0.441001       -12.0002
  69   2.0000      -0.430938       -11.7264
  70   2.0000      -0.420739       -11.4489
  71   2.0000      -0.412240       -11.2176
  72   2.0000      -0.409517       -11.1435
  73   2.0000      -0.406901       -11.0723
  74   2.0000      -0.394927       -10.7465
  75   2.0000      -0.386093       -10.5061
  76   2.0000      -0.384469       -10.4619
  77   2.0000      -0.373720       -10.1694
  78   2.0000      -0.368270       -10.0211
  79   2.0000      -0.363513        -9.8917
  80   2.0000      -0.361341        -9.8326
  81   2.0000      -0.359904        -9.7935
  82   2.0000      -0.353998        -9.6328
  83   2.0000      -0.346256        -9.4221
  84   2.0000      -0.343144        -9.3374
  85   2.0000      -0.334043        -9.0898
  86   2.0000      -0.317004        -8.6261
  87   2.0000      -0.310190        -8.4407
  88   2.0000      -0.308739        -8.4012
  89   2.0000      -0.300776        -8.1845
  90   2.0000      -0.299423        -8.1477
  91   2.0000      -0.289683        -7.8827
  92   2.0000      -0.284505        -7.7418
  93   2.0000      -0.276135        -7.5140
  94   2.0000      -0.275810        -7.5052
  95   2.0000      -0.247425        -6.7328
  96   2.0000      -0.230755        -6.2792
  97   2.0000      -0.220029        -5.9873
  98   2.0000      -0.215471        -5.8633
  99   2.0000      -0.209618        -5.7040
 100   2.0000      -0.203603        -5.5403
 101   0.0000      -0.048254        -1.3131
 102   0.0000      -0.021285        -0.5792
 103   0.0000      -0.018974        -0.5163
 104   0.0000       0.005792         0.1576
 105   0.0000       0.017733         0.4825

MULLIKEN ATOMIC CHARGES
-----------------------
   0 C :   -0.451996
   1 C :   -0.130343
   2 O :   -0.300311
   3 P :    0.697848
   4 S :   -0.494985
   5 O :   -0.247906
   6 C :   -0.111830
   7 C :   -0.493068
   8 S :   -0.143927
   9 C :   -0.187680
  10 S :   -0.149593
  11 P :    0.740036
  12 S :   -0.460405
  13 O :   -0.341906
  14 C :   -0.152384
  15 C :   -0.446591
  16 O :   -0.287187
  17 C :   -0.160256
  18 C :   -0.446498
  19 H :    0.181102
  20 H :    0.151830
  21 H :    0.143812
  22 H :    0.150620
  23 H :    0.151320
  24 H :    0.149436
  25 H :    0.161369
  26 H :    0.141018
  27 H :    0.168445
  28 H :    0.176445
  29 H :    0.187989
  30 H :    0.210088
  31 H :    0.147899
  32 H :    0.178068
  33 H :    0.171819
  34 H :    0.155871
  35 H :    0.147272
  36 H :    0.148129
  37 H :    0.178052
  38 H :    0.162628
  39 H :    0.151077
  40 H :    0.154691
Sum of atomic charges:   -0.0000000

LOEWDIN ATOMIC CHARGES
----------------------
   0 C :   -0.401228
   1 C :    0.021622
   2 O :   -0.656538
   3 P :    0.375175
   4 S :   -0.140731
   5 O :   -0.660658
   6 C :    0.027836
   7 C :   -0.405287
   8 S :    0.178221
   9 C :   -0.412541
  10 S :    0.158027
  11 P :    0.387086
  12 S :   -0.106604
  13 O :   -0.685307
  14 C :    0.020026
  15 C :   -0.398825
  16 O :   -0.665437
  17 C :    0.016907
  18 C :   -0.401117
  19 H :    0.168696
  20 H :    0.158529
  21 H :    0.157608
  22 H :    0.178486
  23 H :    0.175161
  24 H :    0.174846
  25 H :    0.179542
  26 H :    0.156036
  27 H :    0.162621
  28 H :    0.166656
  29 H :    0.183191
  30 H :    0.193946
  31 H :    0.178638
  32 H :    0.182588
  33 H :    0.166711
  34 H :    0.160888
  35 H :    0.159826
  36 H :    0.179445
  37 H :    0.180572
  38 H :    0.161698
  39 H :    0.160665
  40 H :    0.163023

  Mayer bond orders larger than 0.100000
B(  0-C ,  1-C ) :   0.9566 B(  0-C , 19-H ) :   0.9570 B(  0-C , 20-H ) :   0.9747
B(  0-C , 21-H ) :   0.9650 B(  1-C ,  2-O ) :   0.7757 B(  1-C , 22-H ) :   0.9641
B(  1-C , 23-H ) :   0.9633 B(  2-O ,  3-P ) :   1.0700 B(  3-P ,  4-S ) :   1.7293
B(  3-P ,  5-O ) :   1.1960 B(  3-P ,  8-S ) :   1.0943 B(  5-O ,  6-C ) :   0.7531
B(  6-C ,  7-C ) :   0.9545 B(  6-C , 24-H ) :   0.9542 B(  6-C , 25-H ) :   0.9602
B(  7-C , 26-H ) :   0.9629 B(  7-C , 27-H ) :   0.9682 B(  7-C , 28-H ) :   0.9643
B(  8-S ,  9-C ) :   0.9085 B(  9-C , 10-S ) :   0.8980 B(  9-C , 29-H ) :   0.9189
B(  9-C , 30-H ) :   0.9059 B( 10-S , 11-P ) :   1.0486 B( 11-P , 12-S ) :   1.7559
B( 11-P , 13-O ) :   1.1606 B( 11-P , 16-O ) :   1.0720 B( 13-O , 14-C ) :   0.7972
B( 14-C , 15-C ) :   0.9316 B( 14-C , 31-H ) :   0.9595 B( 14-C , 32-H ) :   0.9601
B( 15-C , 33-H ) :   0.9592 B( 15-C , 34-H ) :   0.9713 B( 15-C , 35-H ) :   0.9623
B( 16-O , 17-C ) :   0.8091 B( 17-C , 18-C ) :   0.9247 B( 17-C , 36-H ) :   0.9566
B( 17-C , 37-H ) :   0.9651 B( 18-C , 38-H ) :   0.9690 B( 18-C , 39-H ) :   0.9619
B( 18-C , 40-H ) :   0.9604

Dispersion correction           -0.021909310
FINAL SINGLE POINT ENERGY     -2932.458942106031

DIPOLE MOMENT
-------------

Method             : SCF
Type of density    : Electron Density
Multiplicity       :   1
Irrep              :   0
Energy             : -2932.4835179880683427 Eh
Relativity type    :
Basis              : AO
                                X                 Y                 Z
Electronic contribution:      4.401135997       5.650221010       4.129786446
Nuclear contribution   :     -4.907982086      -5.223356299      -4.285088703
                        -----------------------------------------
Total Dipole Moment    :     -0.506846089       0.426864711      -0.155302257
                        -----------------------------------------
Magnitude (a.u.)       :      0.680606516
Magnitude (Debye)      :      1.729964282

Rotational constants in cm-1:             0.012956             0.005214             0.004584
Rotational constants in MHz :           388.416945           156.302208           137.418616

                             ****ORCA TERMINATED NORMALLY****
TOTAL RUN TIME: 0 days 0 hours 1 minutes 19 seconds 804 msec
