                         Program Version 6.0.0  -   RELEASE  -
|  1> ! r2scan-3c def2/J RI DEFGRID2 scfconv6 printgap
|  2> %output
|  3>     printlevel normal
|  4> end
|  5> %cpcm
|  6>     smd true
|  7>     smdsolvent "water"
|  8> end
|  9> * xyz 0 1
| 10> C 5.6165528987 0.571192791 -0.749656608
| 11> C 4.3151293021 1.3038340443 -1.0119179396
| 12> O 3.2453254249 0.3710494487 -1.2762753689
| 13> P 2.2507124199 -0.1287528225 -0.1408615835
| 14> S 3.0815281256 -0.8561086965 1.4822221802
| 15> O 1.3348504675 -1.1210788541 -0.9539400949
| 16> C 1.5806874668 -2.5438798399 -1.0419100968
| 17> C 0.3434274928 -3.2912759498 -0.5886599956
| 18> S 0.9797188808 1.5287366471 0.1330409959
| 19> C 0.2865151336 1.0206550878 1.7292414141
| 20> S -0.8431423298 -0.3955036058 1.6151812353
| 21> P -2.1564133835 0.2923166525 0.091165716
| 22> S -1.7658242504 -0.1333189319 -1.7862201444
| 23> O -2.2192933248 1.8244000781 0.4816255598
| 24> C -2.5945534629 2.8353520977 -0.4769829319
| 25> C -4.0675177988 2.7589983354 -0.8182751259
| 26> O -3.5840691997 -0.2261424156 0.5659327261
| 27> C -4.1003257134 -1.5131783705 0.1958830863
| 28> C -3.4441096832 -2.6223526283 0.9927991815
| 29> H 5.5357692184 -0.0298967832 0.1533368914
| 30> H 5.8518043069 -0.0813381462 -1.5857716703
| 31> H 6.4143126576 1.2957743497 -0.6225339575
| 32> H 4.3757032131 1.9142259175 -1.9148319932
| 33> H 4.0412850645 1.9357052607 -0.162236445
| 34> H 1.8090953779 -2.7454825113 -2.0898423105
| 35> H 2.4449546758 -2.7957894816 -0.4187850391
| 36> H 0.4875175635 -4.3545258977 -0.7493626424
| 37> H 0.1624093486 -3.1079083623 0.468660324
| 38> H -0.5165053237 -2.9526346542 -1.1621199269
| 39> H -0.2420464492 1.8799883257 2.1324279962
| 40> H 1.0949759671 0.7014968677 2.3893425564
| 41> H -2.3378329431 3.7732443806 0.017070608
| 42> H -1.9793274942 2.7093351964 -1.3739073998
| 43> H -4.2768532669 1.826656316 -1.3411175121
| 44> H -4.6651363365 2.7954139294 0.0886136348
| 45> H -4.331798924 3.5921687525 -1.4618099874
| 46> H -5.1688562419 -1.4440710205 0.4041757309
| 47> H -3.9389958033 -1.6564554475 -0.878379723
| 48> H -3.5717624498 -2.4480844118 2.0577216193
| 49> H -3.8890049088 -3.5751268476 0.7249210338
| 50> H -2.3772104479 -2.6534628116 0.7728413358
| 51> *
| 52>
| 53>                          ****END OF INPUT****

CARTESIAN COORDINATES (ANGSTROEM)
---------------------------------
  C      5.616553    0.571193   -0.749657
  C      4.315129    1.303834   -1.011918
  O      3.245325    0.371049   -1.276275
  P      2.250712   -0.128753   -0.140862
  S      3.081528   -0.856109    1.482222
  O      1.334850   -1.121079   -0.953940
  C      1.580687   -2.543880   -1.041910
  C      0.343427   -3.291276   -0.588660
  S      0.979719    1.528737    0.133041
  C      0.286515    1.020655    1.729241
  S     -0.843142   -0.395504    1.615181
  P     -2.156413    0.292317    0.091166
  S     -1.765824   -0.133319   -1.786220
  O     -2.219293    1.824400    0.481626
  C     -2.594553    2.835352   -0.476983
  C     -4.067518    2.758998   -0.818275
  O     -3.584069   -0.226142    0.565933
  C     -4.100326   -1.513178    0.195883
  C     -3.444110   -2.622353    0.992799
  H      5.535769   -0.029897    0.153337
  H      5.851804   -0.081338   -1.585772
  H      6.414313    1.295774   -0.622534
  H      4.375703    1.914226   -1.914832
  H      4.041285    1.935705   -0.162236
  H      1.809095   -2.745483   -2.089842
  H      2.444955   -2.795789   -0.418785
  H      0.487518   -4.354526   -0.749363
  H      0.162409   -3.107908    0.468660
  H     -0.516505   -2.952635   -1.162120
  H     -0.242046    1.879988    2.132428
  H      1.094976    0.701497    2.389343
  H     -2.337833    3.773244    0.017071
  H     -1.979327    2.709335   -1.373907
  H     -4.276853    1.826656   -1.341118
  H     -4.665136    2.795414    0.088614
  H     -4.331799    3.592169   -1.461810
  H     -5.168856   -1.444071    0.404176
  H     -3.938996   -1.656455   -0.878380
  H     -3.571762   -2.448084    2.057722
  H     -3.889005   -3.575127    0.724921
  H     -2.377210   -2.653463    0.772841

 Total Charge           Charge          ....    0
 Multiplicity           Mult            ....    1
 Number of Electrons    NEL             ....  202
 Basis Dimension        Dim             ....  539

ORBITAL ENERGIES
----------------

  NO   OCC          E(Eh)            E(eV)
   0   2.0000     -88.579979     -2410.3838
   1   2.0000     -88.574900     -2410.2456
   2   2.0000     -88.526428     -2408.9266
   3   2.0000     -88.521820     -2408.8012
   4   2.0000     -76.918017     -2093.0457
   5   2.0000     -76.917517     -2093.0321
   6   2.0000     -18.995091      -516.8827
   7   2.0000     -18.994217      -516.8589
   8   2.0000     -18.992539      -516.8132
   9   2.0000     -18.987974      -516.6890
  10   2.0000     -10.104541      -274.9585
  11   2.0000     -10.091055      -274.5916
  12   2.0000     -10.089765      -274.5565
  13   2.0000     -10.088585      -274.5244
  14   2.0000     -10.087573      -274.4968
  15   2.0000     -10.020261      -272.6652
  16   2.0000     -10.018526      -272.6180
  17   2.0000     -10.016531      -272.5637
  18   2.0000     -10.014438      -272.5067
  19   2.0000      -7.874332      -214.2715
  20   2.0000      -7.869290      -214.1343
  21   2.0000      -7.821662      -212.8383
  22   2.0000      -7.816784      -212.7055
  23   2.0000      -6.596484      -179.4994
  24   2.0000      -6.595923      -179.4842
  25   2.0000      -5.821226      -158.4036
  26   2.0000      -5.818092      -158.3183
  27   2.0000      -5.816508      -158.2752
  28   2.0000      -5.812974      -158.1791
  29   2.0000      -5.811529      -158.1397
  30   2.0000      -5.806210      -157.9950
  31   2.0000      -5.769130      -156.9860
  32   2.0000      -5.764414      -156.8577
  33   2.0000      -5.762010      -156.7923
  34   2.0000      -5.761690      -156.7836
  35   2.0000      -5.757235      -156.6623
  36   2.0000      -5.756617      -156.6455
  37   2.0000      -4.741911      -129.0340
  38   2.0000      -4.741468      -129.0219
  39   2.0000      -4.741400      -129.0201
  40   2.0000      -4.740945      -129.0077
  41   2.0000      -4.740336      -128.9911
  42   2.0000      -4.739539      -128.9694
  43   2.0000      -1.052685       -28.6450
  44   2.0000      -1.049853       -28.5679
  45   2.0000      -1.013961       -27.5913
  46   2.0000      -1.009415       -27.4676
  47   2.0000      -0.802114       -21.8266
  48   2.0000      -0.755015       -20.5450
  49   2.0000      -0.742545       -20.2057
  50   2.0000      -0.723812       -19.6959
  51   2.0000      -0.720971       -19.6186
  52   2.0000      -0.707081       -19.2407
  53   2.0000      -0.688750       -18.7418
  54   2.0000      -0.673602       -18.3296
  55   2.0000      -0.629287       -17.1238
  56   2.0000      -0.618227       -16.8228
  57   2.0000      -0.600065       -16.3286
  58   2.0000      -0.597908       -16.2699
  59   2.0000      -0.586863       -15.9693
  60   2.0000      -0.525964       -14.3122
  61   2.0000      -0.514511       -14.0006
  62   2.0000      -0.493657       -13.4331
  63   2.0000      -0.491421       -13.3722
  64   2.0000      -0.475754       -12.9459
  65   2.0000      -0.455250       -12.3880
  66   2.0000      -0.453341       -12.3360
  67   2.0000      -0.448867       -12.2143
  68   2.0000      -0.438290       -11.9265
  69   2.0000      -0.427643       -11.6367
  70   2.0000      -0.419768       -11.4225
  71   2.0000      -0.410878       -11.1806
  72   2.0000      -0.407202       -11.0805
  73   2.0000      -0.404177       -10.9982
  74   2.0000      -0.394091       -10.7238
  75   2.0000      -0.384773       -10.4702
  76   2.0000      -0.382828       -10.4173
  77   2.0000      -0.367700       -10.0056
  78   2.0000      -0.365152        -9.9363
  79   2.0000      -0.357379        -9.7248
  80   2.0000      -0.355069        -9.6619
  81   2.0000      -0.353702        -9.6247
  82   2.0000      -0.349681        -9.5153
  83   2.0000      -0.343601        -9.3499
  84   2.0000      -0.340450        -9.2641
  85   2.0000      -0.332187        -9.0393
  86   2.0000      -0.316260        -8.6059
  87   2.0000      -0.307083        -8.3562
  88   2.0000      -0.303706        -8.2643
  89   2.0000      -0.301642        -8.2081
  90   2.0000      -0.298800        -8.1308
  91   2.0000      -0.289183        -7.8691
  92   2.0000      -0.285315        -7.7638
  93   2.0000      -0.279605        -7.6084
  94   2.0000      -0.277725        -7.5573
  95   2.0000      -0.251627        -6.8471
  96   2.0000      -0.236157        -6.4262
  97   2.0000      -0.228612        -6.2209
  98   2.0000      -0.224387        -6.1059
  99   2.0000      -0.216204        -5.8832
 100   2.0000      -0.211207        -5.7472
 101   0.0000      -0.052442        -1.4270
 102   0.0000      -0.027003        -0.7348
 103   0.0000      -0.022325        -0.6075
 104   0.0000       0.000904         0.0246
 105   0.0000       0.014511         0.3949

MULLIKEN ATOMIC CHARGES
-----------------------
   0 C :   -0.491509
   1 C :   -0.124856
   2 O :   -0.329191
   3 P :    0.714495
   4 S :   -0.538438
   5 O :   -0.268405
   6 C :   -0.124647
   7 C :   -0.502518
   8 S :   -0.149676
   9 C :   -0.194023
  10 S :   -0.169587
  11 P :    0.780145
  12 S :   -0.515762
  13 O :   -0.361999
  14 C :   -0.145042
  15 C :   -0.488262
  16 O :   -0.319193
  17 C :   -0.154655
  18 C :   -0.482713
  19 H :    0.171485
  20 H :    0.166847
  21 H :    0.169531
  22 H :    0.176511
  23 H :    0.164023
  24 H :    0.172639
  25 H :    0.166223
  26 H :    0.165602
  27 H :    0.168113
  28 H :    0.170913
  29 H :    0.223769
  30 H :    0.223815
  31 H :    0.177332
  32 H :    0.177850
  33 H :    0.168581
  34 H :    0.169788
  35 H :    0.172696
  36 H :    0.174520
  37 H :    0.178502
  38 H :    0.174180
  39 H :    0.175946
  40 H :    0.156969
Sum of atomic charges:   -0.0000000

LOEWDIN ATOMIC CHARGES
----------------------
   0 C :   -0.405528
   1 C :    0.026926
   2 O :   -0.673033
   3 P :    0.377105
   4 S :   -0.168592
   5 O :   -0.675638
   6 C :    0.030047
   7 C :   -0.405765
   8 S :    0.176953
   9 C :   -0.404494
  10 S :    0.149976
  11 P :    0.392473
  12 S :   -0.140583
  13 O :   -0.692194
  14 C :    0.025499
  15 C :   -0.402805
  16 O :   -0.680364
  17 C :    0.022383
  18 C :   -0.403367
  19 H :    0.162709
  20 H :    0.162408
  21 H :    0.167385
  22 H :    0.189597
  23 H :    0.179986
  24 H :    0.183583
  25 H :    0.181541
  26 H :    0.164832
  27 H :    0.161938
  28 H :    0.164755
  29 H :    0.196229
  30 H :    0.198560
  31 H :    0.190749
  32 H :    0.182592
  33 H :    0.162833
  34 H :    0.164215
  35 H :    0.169171
  36 H :    0.190437
  37 H :    0.181368
  38 H :    0.164135
  39 H :    0.170020
  40 H :    0.161958

  Mayer bond orders larger than 0.100000
B(  0-C ,  1-C ) :   0.9457 B(  0-C , 19-H ) :   0.9614 B(  0-C , 20-H ) :   0.9723
B(  0-C , 21-H ) :   0.9595 B(  1-C ,  2-O ) :   0.7628 B(  1-C , 22-H ) :   0.9537
B(  1-C , 23-H ) :   0.9560 B(  2-O ,  3-P ) :   1.0716 B(  3-P ,  4-S ) :   1.6961
B(  3-P ,  5-O ) :   1.1990 B(  3-P ,  8-S ) :   1.1124 B(  5-O ,  6-C ) :   0.7418
B(  6-C ,  7-C ) :   0.9546 B(  6-C , 24-H ) :   0.9454 B(  6-C , 25-H ) :   0.9570
B(  7-C , 26-H ) :   0.9596 B(  7-C , 27-H ) :   0.9662 B(  7-C , 28-H ) :   0.9640
B(  8-S ,  9-C ) :   0.9073 B(  9-C , 10-S ) :   0.8861 B(  9-C , 29-H ) :   0.9082
B(  9-C , 30-H ) :   0.9034 B( 10-S , 11-P ) :   1.0655 B( 11-P , 12-S ) :   1.7042
B( 11-P , 13-O ) :   1.1708 B( 11-P , 16-O ) :   1.0786 B( 13-O , 14-C ) :   0.7857
B( 14-C , 15-C ) :   0.9183 B( 14-C , 31-H ) :   0.9499 B( 14-C , 32-H ) :   0.9573
B( 15-C , 33-H ) :   0.9599 B( 15-C , 34-H ) :   0.9703 B( 15-C , 35-H ) :   0.9564
B( 16-O , 17-C ) :   0.7994 B( 17-C , 18-C ) :   0.9143 B( 17-C , 36-H ) :   0.9476
B( 17-C , 37-H ) :   0.9625 B( 18-C , 38-H ) :   0.9678 B( 18-C , 39-H ) :   0.9557
B( 18-C , 40-H ) :   0.9581

Dispersion correction           -0.021909310
FINAL SINGLE POINT ENERGY     -2932.466778019471

DIPOLE MOMENT
-------------

Method             : SCF
Type of density    : Electron Density
Multiplicity       :   1
Irrep              :   0
Energy             : -2932.4913539015087736 Eh
Relativity type    :
Basis              : AO
                                X                 Y                 Z
Electronic contribution:      4.283762195       5.887828981       4.209207657
Nuclear contribution   :     -4.907982086      -5.223356299      -4.285088703
                        -----------------------------------------
Total Dipole Moment    :     -0.624219891       0.664472682      -0.075881047
                        -----------------------------------------
Magnitude (a.u.)       :      0.914840068
Magnitude (Debye)      :      2.325338655

Rotational constants in cm-1:             0.012956             0.005214             0.004584
Rotational constants in MHz :           388.416945           156.302208           137.418616

                             ****ORCA TERMINATED NORMALLY****
TOTAL RUN TIME: 0 days 0 hours 1 minutes 54 seconds 834 msec
