                         Program Version 6.0.0  -   RELEASE  -
|  1> ! pbe def2-sv(p) def2/J RI DEFGRID1 loosescf d4 GCP(DFT/SV(P)) printgap
|  2> %output
|  3>     printlevel normal
|  4> end
|  5> * xyz 0 1
|  6> C 4.3642841746 0.3700190079 -2.0139226651
|  7> C 4.7756652936 0.0988542099 -0.581081748
|  8> O 3.7728816234 -0.6281746899 0.148257021
|  9> P 2.3437881338 -0.0067413831 0.4905162187
| 10> S 2.3622099665 1.8801441951 0.9903446747
| 11> O 1.8786650014 -0.9596431514 1.6620277695
| 12> C 2.0035370752 -2.4041244268 1.5557454344
| 13> C 0.692244677 -3.0522139476 1.9465639656
| 14> S 1.1123222318 -0.5905500973 -1.1646204921
| 15> C 0.2597783859 0.9827834935 -1.4486393201
| 16> S -0.8829568097 1.4488373311 -0.1279261386
| 17> P -2.313489787 -0.1153629822 -0.3982181062
| 18> S -2.375129044 -0.9032560945 -2.1878217517
| 19> O -3.6796517728 0.507329948 0.1271331728
| 20> C -4.5770005342 1.2260935967 -0.7378608745
| 21> C -3.9824634868 2.5266410871 -1.2373165238
| 22> O -2.0062379116 -1.1977390601 0.715119849
| 23> C -2.3950791539 -1.0939389845 2.1070333067
| 24> C -1.6298557619 -0.0131123686 2.8425397751
| 25> H 3.534613347 1.0752990954 -2.0352475304
| 26> H 5.2025261393 0.8006342062 -2.5521137629
| 27> H 4.0560429124 -0.5509588059 -2.5026450296
| 28> H 4.9719844035 1.0371922201 -0.053303535
| 29> H 5.6527706343 -0.547715923 -0.5298732268
| 30> H 2.2804983765 -2.6638721856 0.5310110273
| 31> H 2.8104599419 -2.6887015372 2.2329393571
| 32> H -0.0905490315 -2.766242624 1.2477204268
| 33> H 0.8107860782 -4.1309051395 1.921583975
| 34> H 0.409239039 -2.7443629126 2.9492649882
| 35> H -0.2874829181 0.8530580611 -2.3817274167
| 36> H 0.9828420767 1.7937180769 -1.5129485
| 37> H -4.8379071568 0.5759364564 -1.5785502976
| 38> H -5.4549967634 1.3986012945 -0.1137016292
| 39> H -3.1548945306 2.3216262464 -1.9146725364
| 40> H -4.7436059382 3.0848893858 -1.7728349694
| 41> H -3.6154504557 3.1224951134 -0.4053525963
| 42> H -3.4694502256 -0.908219927 2.1510910336
| 43> H -2.1731707489 -2.0853982184 2.5045626817
| 44> H -0.5571782347 -0.1391333435 2.7055202429
| 45> H -1.9108597154 0.972172108 2.4749289002
| 46> H -1.861008806 -0.0727335676 3.9015645191
| 47> *
| 48>
| 49>                          ****END OF INPUT****

CARTESIAN COORDINATES (ANGSTROEM)
---------------------------------
  C      4.364284    0.370019   -2.013923
  C      4.775665    0.098854   -0.581082
  O      3.772882   -0.628175    0.148257
  P      2.343788   -0.006741    0.490516
  S      2.362210    1.880144    0.990345
  O      1.878665   -0.959643    1.662028
  C      2.003537   -2.404124    1.555745
  C      0.692245   -3.052214    1.946564
  S      1.112322   -0.590550   -1.164620
  C      0.259778    0.982783   -1.448639
  S     -0.882957    1.448837   -0.127926
  P     -2.313490   -0.115363   -0.398218
  S     -2.375129   -0.903256   -2.187822
  O     -3.679652    0.507330    0.127133
  C     -4.577001    1.226094   -0.737861
  C     -3.982463    2.526641   -1.237317
  O     -2.006238   -1.197739    0.715120
  C     -2.395079   -1.093939    2.107033
  C     -1.629856   -0.013112    2.842540
  H      3.534613    1.075299   -2.035248
  H      5.202526    0.800634   -2.552114
  H      4.056043   -0.550959   -2.502645
  H      4.971984    1.037192   -0.053304
  H      5.652771   -0.547716   -0.529873
  H      2.280498   -2.663872    0.531011
  H      2.810460   -2.688702    2.232939
  H     -0.090549   -2.766243    1.247720
  H      0.810786   -4.130905    1.921584
  H      0.409239   -2.744363    2.949265
  H     -0.287483    0.853058   -2.381727
  H      0.982842    1.793718   -1.512949
  H     -4.837907    0.575936   -1.578550
  H     -5.454997    1.398601   -0.113702
  H     -3.154895    2.321626   -1.914673
  H     -4.743606    3.084889   -1.772835
  H     -3.615450    3.122495   -0.405353
  H     -3.469450   -0.908220    2.151091
  H     -2.173171   -2.085398    2.504563
  H     -0.557178   -0.139133    2.705520
  H     -1.910860    0.972172    2.474929
  H     -1.861009   -0.072734    3.901565

 Total Charge           Charge          ....    0
 Multiplicity           Mult            ....    1
 Number of Electrons    NEL             ....  202
 Basis Dimension        Dim             ....  334

ORBITAL ENERGIES
----------------

  NO   OCC          E(Eh)            E(eV)
   0   2.0000     -88.039366     -2395.6730
   1   2.0000     -88.037813     -2395.6307
   2   2.0000     -87.989507     -2394.3162
   3   2.0000     -87.984787     -2394.1878
   4   2.0000     -76.426033     -2079.6581
   5   2.0000     -76.425170     -2079.6346
   6   2.0000     -18.795912      -511.4628
   7   2.0000     -18.791532      -511.3436
   8   2.0000     -18.791129      -511.3326
   9   2.0000     -18.788614      -511.2642
  10   2.0000      -9.957268      -270.9510
  11   2.0000      -9.954754      -270.8826
  12   2.0000      -9.953611      -270.8515
  13   2.0000      -9.953321      -270.8436
  14   2.0000      -9.952928      -270.8329
  15   2.0000      -9.885609      -269.0011
  16   2.0000      -9.885560      -268.9998
  17   2.0000      -9.884151      -268.9614
  18   2.0000      -9.881022      -268.8763
  19   2.0000      -7.683856      -209.0884
  20   2.0000      -7.682244      -209.0445
  21   2.0000      -7.634696      -207.7506
  22   2.0000      -7.630038      -207.6239
  23   2.0000      -6.423609      -174.7953
  24   2.0000      -6.422597      -174.7677
  25   2.0000      -5.711759      -155.4249
  26   2.0000      -5.710157      -155.3813
  27   2.0000      -5.708463      -155.3352
  28   2.0000      -5.706846      -155.2912
  29   2.0000      -5.700807      -155.1268
  30   2.0000      -5.699184      -155.0827
  31   2.0000      -5.663693      -154.1169
  32   2.0000      -5.659000      -153.9892
  33   2.0000      -5.655178      -153.8852
  34   2.0000      -5.654894      -153.8775
  35   2.0000      -5.650574      -153.7599
  36   2.0000      -5.650214      -153.7501
  37   2.0000      -4.646363      -126.4340
  38   2.0000      -4.645659      -126.4148
  39   2.0000      -4.645224      -126.4030
  40   2.0000      -4.644056      -126.3712
  41   2.0000      -4.644024      -126.3703
  42   2.0000      -4.642945      -126.3410
  43   2.0000      -0.988269       -26.8922
  44   2.0000      -0.988030       -26.8857
  45   2.0000      -0.943455       -25.6727
  46   2.0000      -0.943217       -25.6662
  47   2.0000      -0.760154       -20.6848
  48   2.0000      -0.718612       -19.5544
  49   2.0000      -0.710136       -19.3238
  50   2.0000      -0.689877       -18.7725
  51   2.0000      -0.689437       -18.7605
  52   2.0000      -0.674543       -18.3552
  53   2.0000      -0.650669       -17.7056
  54   2.0000      -0.637568       -17.3491
  55   2.0000      -0.598347       -16.2818
  56   2.0000      -0.589657       -16.0454
  57   2.0000      -0.577612       -15.7176
  58   2.0000      -0.574535       -15.6339
  59   2.0000      -0.558028       -15.1847
  60   2.0000      -0.505376       -13.7520
  61   2.0000      -0.496027       -13.4976
  62   2.0000      -0.473233       -12.8773
  63   2.0000      -0.469782       -12.7834
  64   2.0000      -0.460511       -12.5311
  65   2.0000      -0.449214       -12.2237
  66   2.0000      -0.441847       -12.0233
  67   2.0000      -0.437629       -11.9085
  68   2.0000      -0.425058       -11.5664
  69   2.0000      -0.423331       -11.5194
  70   2.0000      -0.410190       -11.1618
  71   2.0000      -0.397750       -10.8233
  72   2.0000      -0.392544       -10.6817
  73   2.0000      -0.378861       -10.3093
  74   2.0000      -0.374620       -10.1939
  75   2.0000      -0.370684       -10.0868
  76   2.0000      -0.368709       -10.0331
  77   2.0000      -0.359547        -9.7838
  78   2.0000      -0.356717        -9.7068
  79   2.0000      -0.350897        -9.5484
  80   2.0000      -0.347828        -9.4649
  81   2.0000      -0.345649        -9.4056
  82   2.0000      -0.340765        -9.2727
  83   2.0000      -0.338158        -9.2017
  84   2.0000      -0.335291        -9.1237
  85   2.0000      -0.320178        -8.7125
  86   2.0000      -0.307653        -8.3717
  87   2.0000      -0.303618        -8.2619
  88   2.0000      -0.297211        -8.0875
  89   2.0000      -0.295636        -8.0447
  90   2.0000      -0.293039        -7.9740
  91   2.0000      -0.274660        -7.4739
  92   2.0000      -0.269268        -7.3272
  93   2.0000      -0.261245        -7.1088
  94   2.0000      -0.256463        -6.9787
  95   2.0000      -0.232245        -6.3197
  96   2.0000      -0.214414        -5.8345
  97   2.0000      -0.209574        -5.7028
  98   2.0000      -0.207908        -5.6575
  99   2.0000      -0.201144        -5.4734
 100   2.0000      -0.193100        -5.2545
 101   0.0000      -0.043884        -1.1942
 102   0.0000      -0.029298        -0.7972
 103   0.0000      -0.005723        -0.1557
 104   0.0000       0.002873         0.0782
 105   0.0000       0.005095         0.1386

MULLIKEN ATOMIC CHARGES
-----------------------
   0 C :   -0.316232
   1 C :    0.000870
   2 O :   -0.383116
   3 P :    0.599959
   4 S :   -0.307620
   5 O :   -0.360371
   6 C :   -0.018206
   7 C :   -0.315821
   8 S :   -0.091954
   9 C :   -0.346421
  10 S :   -0.082260
  11 P :    0.622454
  12 S :   -0.324363
  13 O :   -0.388700
  14 C :   -0.000726
  15 C :   -0.313596
  16 O :   -0.364177
  17 C :   -0.003754
  18 C :   -0.334773
  19 H :    0.122797
  20 H :    0.113034
  21 H :    0.121037
  22 H :    0.111842
  23 H :    0.104611
  24 H :    0.110153
  25 H :    0.111089
  26 H :    0.154128
  27 H :    0.110287
  28 H :    0.118989
  29 H :    0.189439
  30 H :    0.187628
  31 H :    0.113857
  32 H :    0.104215
  33 H :    0.125147
  34 H :    0.113085
  35 H :    0.119046
  36 H :    0.111210
  37 H :    0.109072
  38 H :    0.146106
  39 H :    0.122453
  40 H :    0.109582
Sum of atomic charges:    0.0000000

LOEWDIN ATOMIC CHARGES
----------------------
   0 C :   -0.368694
   1 C :   -0.117112
   2 O :   -0.252731
   3 P :    0.571303
   4 S :   -0.302327
   5 O :   -0.241792
   6 C :   -0.110825
   7 C :   -0.361168
   8 S :    0.073504
   9 C :   -0.482546
  10 S :    0.092683
  11 P :    0.573598
  12 S :   -0.315380
  13 O :   -0.248434
  14 C :   -0.116569
  15 C :   -0.370077
  16 O :   -0.238485
  17 C :   -0.111230
  18 C :   -0.371482
  19 H :    0.119430
  20 H :    0.130853
  21 H :    0.125401
  22 H :    0.111456
  23 H :    0.118794
  24 H :    0.107909
  25 H :    0.119603
  26 H :    0.133530
  27 H :    0.130503
  28 H :    0.125509
  29 H :    0.129393
  30 H :    0.128280
  31 H :    0.112902
  32 H :    0.118276
  33 H :    0.120623
  34 H :    0.131076
  35 H :    0.124435
  36 H :    0.113710
  37 H :    0.117837
  38 H :    0.130486
  39 H :    0.117810
  40 H :    0.129948

  Mayer bond orders larger than 0.100000
B(  0-C ,  1-C ) :   1.1637 B(  0-C , 19-H ) :   0.9366 B(  0-C , 20-H ) :   0.9369
B(  0-C , 21-H ) :   0.9424 B(  1-C ,  2-O ) :   0.9142 B(  1-C , 22-H ) :   0.9182
B(  1-C , 23-H ) :   0.9343 B(  2-O ,  3-P ) :   1.0735 B(  3-P ,  4-S ) :   1.6359
B(  3-P ,  5-O ) :   1.1225 B(  3-P ,  8-S ) :   0.9391 B(  4-S ,  8-S ) :   0.1130
B(  5-O ,  6-C ) :   0.8910 B(  6-C ,  7-C ) :   1.1643 B(  6-C , 24-H ) :   0.9167
B(  6-C , 25-H ) :   0.9345 B(  7-C , 26-H ) :   0.9251 B(  7-C , 27-H ) :   0.9370
B(  7-C , 28-H ) :   0.9425 B(  8-S ,  9-C ) :   1.0064 B(  9-C , 10-S ) :   1.0125
B(  9-C , 29-H ) :   0.8786 B(  9-C , 30-H ) :   0.8851 B( 10-S , 11-P ) :   0.9447
B( 10-S , 12-S ) :   0.1120 B( 11-P , 12-S ) :   1.6265 B( 11-P , 13-O ) :   1.0738
B( 11-P , 16-O ) :   1.1201 B( 13-O , 14-C ) :   0.9062 B( 14-C , 15-C ) :   1.1666
B( 14-C , 31-H ) :   0.9179 B( 14-C , 32-H ) :   0.9342 B( 15-C , 33-H ) :   0.9352
B( 15-C , 34-H ) :   0.9366 B( 15-C , 35-H ) :   0.9435 B( 16-O , 17-C ) :   0.8917
B( 17-C , 18-C ) :   1.1724 B( 17-C , 36-H ) :   0.9242 B( 17-C , 37-H ) :   0.9290
B( 18-C , 38-H ) :   0.9289 B( 18-C , 39-H ) :   0.9374 B( 18-C , 40-H ) :   0.9359

Dispersion correction           -0.066852109
FINAL SINGLE POINT ENERGY     -2929.520681983363

DIPOLE MOMENT
-------------

Method             : SCF
Type of density    : Electron Density
Multiplicity       :   1
Irrep              :   0
Energy             : -2929.6401862720404097 Eh
Relativity type    :
Basis              : AO
                                X                 Y                 Z
Electronic contribution:      1.410015713       1.819250935      -4.591144407
Nuclear contribution   :     -1.389308606      -2.100491434       4.970448713
                        -----------------------------------------
Total Dipole Moment    :      0.020707107      -0.281240500       0.379304305
                        -----------------------------------------
Magnitude (a.u.)       :      0.472648663
Magnitude (Debye)      :      1.201377427

Rotational constants in cm-1:             0.012522             0.005235             0.004763
Rotational constants in MHz :           375.409743           156.944308           142.785458

                             ****ORCA TERMINATED NORMALLY****
TOTAL RUN TIME: 0 days 0 hours 0 minutes 21 seconds 645 msec
