                         Program Version 6.0.0  -   RELEASE  -
|  1> ! pbe def2-sv(p) def2/J RI DEFGRID1 loosescf d4 GCP(DFT/SV(P)) printgap
|  2> %output
|  3>     printlevel normal
|  4> end
|  5> * xyz 0 1
|  6> C -1.8643159984 -1.4124086392 -0.0009659845
|  7> C -0.5464581893 -0.6932556958 0.004002832
|  8> C 0.6444926132 -1.3983219866 0.0002433305
|  9> C 1.8714721116 -0.7544221434 -0.0024484974
| 10> C 1.9109217798 0.628539933 -0.0019092439
| 11> C 0.7352411778 1.3528139395 0.0077101635
| 12> C -0.504554449 0.7120238559 0.0114477681
| 13> N -1.6645874156 1.4558020776 -0.0510114283
| 14> H -1.7069717745 -2.486491344 -0.050126923
| 15> H -2.4302237886 -1.193452233 0.9053781639
| 16> H -2.4616204901 -1.1098749923 -0.8598310437
| 17> H 0.6129409996 -2.4792479222 -0.0018174061
| 18> H 2.7860000766 -1.3284889883 -0.0056625202
| 19> H 2.8594772657 1.1459695474 -0.004195734
| 20> H 0.7664149698 2.4334584207 0.0102404548
| 21> H -1.569818241 2.4252678019 0.2036035983
| 22> H -2.4983527852 1.0119501137 0.2958517008
| 23> *
| 24>
| 25>                          ****END OF INPUT****

CARTESIAN COORDINATES (ANGSTROEM)
---------------------------------
  C     -1.864316   -1.412409   -0.000966
  C     -0.546458   -0.693256    0.004003
  C      0.644493   -1.398322    0.000243
  C      1.871472   -0.754422   -0.002448
  C      1.910922    0.628540   -0.001909
  C      0.735241    1.352814    0.007710
  C     -0.504554    0.712024    0.011448
  N     -1.664587    1.455802   -0.051011
  H     -1.706972   -2.486491   -0.050127
  H     -2.430224   -1.193452    0.905378
  H     -2.461620   -1.109875   -0.859831
  H      0.612941   -2.479248   -0.001817
  H      2.786000   -1.328489   -0.005663
  H      2.859477    1.145970   -0.004196
  H      0.766415    2.433458    0.010240
  H     -1.569818    2.425268    0.203604
  H     -2.498353    1.011950    0.295852

 Total Charge           Charge          ....    0
 Multiplicity           Mult            ....    1
 Number of Electrons    NEL             ....   58
 Basis Dimension        Dim             ....  130

ORBITAL ENERGIES
----------------

  NO   OCC          E(Eh)            E(eV)
   0   2.0000     -13.991278      -380.7220
   1   2.0000      -9.920761      -269.9576
   2   2.0000      -9.887914      -269.0638
   3   2.0000      -9.883233      -268.9364
   4   2.0000      -9.878429      -268.8057
   5   2.0000      -9.878056      -268.7956
   6   2.0000      -9.874257      -268.6922
   7   2.0000      -9.870612      -268.5930
   8   2.0000      -0.834337       -22.7035
   9   2.0000      -0.750939       -20.4341
  10   2.0000      -0.687826       -18.7167
  11   2.0000      -0.644074       -17.5262
  12   2.0000      -0.607028       -16.5181
  13   2.0000      -0.540406       -14.7052
  14   2.0000      -0.519170       -14.1273
  15   2.0000      -0.462783       -12.5930
  16   2.0000      -0.462141       -12.5755
  17   2.0000      -0.412412       -11.2223
  18   2.0000      -0.387491       -10.5442
  19   2.0000      -0.379626       -10.3302
  20   2.0000      -0.371388       -10.1060
  21   2.0000      -0.354953        -9.6588
  22   2.0000      -0.340297        -9.2599
  23   2.0000      -0.323911        -8.8141
  24   2.0000      -0.298345        -8.1184
  25   2.0000      -0.287697        -7.8286
  26   2.0000      -0.268204        -7.2982
  27   2.0000      -0.210907        -5.7391
  28   2.0000      -0.168522        -4.5857
  29   0.0000      -0.018767        -0.5107
  30   0.0000      -0.005046        -0.1373
  31   0.0000       0.030144         0.8202
  32   0.0000       0.054102         1.4722
  33   0.0000       0.061823         1.6823

MULLIKEN ATOMIC CHARGES
-----------------------
   0 C :   -0.251391
   1 C :    0.016456
   2 C :   -0.160451
   3 C :   -0.044859
   4 C :   -0.055503
   5 C :   -0.140403
   6 C :    0.081758
   7 N :   -0.336494
   8 H :    0.101283
   9 H :    0.107720
  10 H :    0.114602
  11 H :    0.028626
  12 H :    0.038642
  13 H :    0.044045
  14 H :    0.013851
  15 H :    0.220783
  16 H :    0.221335
Sum of atomic charges:   -0.0000000

LOEWDIN ATOMIC CHARGES
----------------------
   0 C :   -0.328279
   1 C :   -0.081374
   2 C :   -0.121947
   3 C :   -0.158837
   4 C :   -0.123815
   5 C :   -0.163411
   6 C :   -0.006879
   7 N :   -0.314127
   8 H :    0.128197
   9 H :    0.121788
  10 H :    0.127053
  11 H :    0.118194
  12 H :    0.118616
  13 H :    0.120318
  14 H :    0.115748
  15 H :    0.225045
  16 H :    0.223709

  Mayer bond orders larger than 0.100000
B(  0-C ,  1-C ) :   1.1175 B(  0-C ,  8-H ) :   0.9340 B(  0-C ,  9-H ) :   0.9280
B(  0-C , 10-H ) :   0.9284 B(  1-C ,  2-C ) :   1.4207 B(  1-C ,  6-C ) :   1.3521
B(  2-C ,  3-C ) :   1.3455 B(  2-C , 11-H ) :   0.9571 B(  3-C ,  4-C ) :   1.3623
B(  3-C , 12-H ) :   0.9657 B(  4-C ,  5-C ) :   1.3771 B(  4-C , 13-H ) :   0.9628
B(  5-C ,  6-C ) :   1.3291 B(  5-C , 14-H ) :   0.9612 B(  6-C ,  7-N ) :   1.2577
B(  7-N , 15-H ) :   0.8802 B(  7-N , 16-H ) :   0.8685

Dispersion correction           -0.016958864
FINAL SINGLE POINT ENERGY      -326.181368566412

DIPOLE MOMENT
-------------

Method             : SCF
Type of density    : Electron Density
Multiplicity       :   1
Irrep              :   0
Energy             :  -326.2327888935838018 Eh
Relativity type    :
Basis              : AO
                                X                 Y                 Z
Electronic contribution:      2.748599582       1.827032210      -0.129907318
Nuclear contribution   :     -3.426080983      -1.475177473       0.462650457
                        -----------------------------------------
Total Dipole Moment    :     -0.677481401       0.351854737       0.332743140
                        -----------------------------------------
Magnitude (a.u.)       :      0.832766955
Magnitude (Debye)      :      2.116725381

Rotational constants in cm-1:             0.108453             0.074209             0.044466
Rotational constants in MHz :          3251.328460          2224.723731          1333.045737

                             ****ORCA TERMINATED NORMALLY****
TOTAL RUN TIME: 0 days 0 hours 0 minutes 7 seconds 951 msec
