                         Program Version 6.0.0  -   RELEASE  -
|  1> ! pbe def2-sv(p) def2/J RI DEFGRID1 loosescf d4 GCP(DFT/SV(P)) printgap
|  2> %output
|  3>     printlevel normal
|  4> end
|  5> * xyz 0 1
|  6> C 3.2654752521 -2.8947275673 1.0077784833
|  7> C 1.9000506522 -2.3335135842 0.6661699706
|  8> O 1.9015480343 -0.8992293291 0.7490938342
|  9> P 2.5004720337 0.0337497281 -0.4020230958
| 10> S 2.7894077119 -0.860959234 -2.1161499609
| 11> O 3.8424801353 0.6641128578 0.1502427229
| 12> C 3.9393353071 1.6889116913 1.1679138248
| 13> C 3.3941694986 1.2324817764 2.5045362625
| 14> S 1.1313554445 1.6489513318 -0.3888187513
| 15> C -0.0774235052 0.8720431989 -1.4931163078
| 16> S -0.8869299165 -0.578534249 -0.785043669
| 17> P -2.7504660876 0.2787683397 -0.1558702374
| 18> S -2.9733950672 2.1803607641 -0.5646976779
| 19> O -2.9397142894 -0.1345406005 1.369468552
| 20> C -2.5024622282 0.6829042711 2.4685342451
| 21> C -0.9949645978 0.8164665116 2.5255260762
| 22> O -3.8521949362 -0.5984743648 -0.867371752
| 23> C -4.2963497588 -1.9075551296 -0.4354714172
| 24> C -3.1754778623 -2.9245389271 -0.4149116777
| 25> H 3.5620679085 -2.5884759735 2.0071876851
| 26> H 3.2357569018 -3.9783224989 0.955966917
| 27> H 3.9999909871 -2.5249420262 0.292734133
| 28> H 1.1400414356 -2.6473384596 1.3826284047
| 29> H 1.5988883553 -2.630378785 -0.3432642228
| 30> H 5.0101393339 1.8936544428 1.215097402
| 31> H 3.408145361 2.575915646 0.8124065986
| 32> H 3.5540295314 2.0169794769 3.2375170935
| 33> H 2.3280547993 1.0320572715 2.4249635269
| 34> H 3.9022577279 0.3286324521 2.8298735516
| 35> H 0.4365590379 0.5437924619 -2.3961405414
| 36> H -0.8298874222 1.6323835931 -1.7114920722
| 37> H -2.9699409198 1.6678089909 2.37564582
| 38> H -2.8948316347 0.1654460564 3.345476113
| 39> H -0.643351477 1.416144652 1.6868399035
| 40> H -0.713679501 1.313746181 3.4483898561
| 41> H -0.5220754149 -0.162156706 2.4847732225
| 42> H -4.7478602773 -1.8041578654 0.5530570732
| 43> H -5.0613391367 -2.1648485876 -1.1695488495
| 44> H -3.5809291993 -3.8946456738 -0.1448593271
| 45> H -2.7028034661 -2.9928043451 -1.3914209186
| 46> H -2.4225505161 -2.6374687116 0.3171716892
| 47> *
| 48>
| 49>                          ****END OF INPUT****

CARTESIAN COORDINATES (ANGSTROEM)
---------------------------------
  C      3.265475   -2.894728    1.007778
  C      1.900051   -2.333514    0.666170
  O      1.901548   -0.899229    0.749094
  P      2.500472    0.033750   -0.402023
  S      2.789408   -0.860959   -2.116150
  O      3.842480    0.664113    0.150243
  C      3.939335    1.688912    1.167914
  C      3.394169    1.232482    2.504536
  S      1.131355    1.648951   -0.388819
  C     -0.077424    0.872043   -1.493116
  S     -0.886930   -0.578534   -0.785044
  P     -2.750466    0.278768   -0.155870
  S     -2.973395    2.180361   -0.564698
  O     -2.939714   -0.134541    1.369469
  C     -2.502462    0.682904    2.468534
  C     -0.994965    0.816467    2.525526
  O     -3.852195   -0.598474   -0.867372
  C     -4.296350   -1.907555   -0.435471
  C     -3.175478   -2.924539   -0.414912
  H      3.562068   -2.588476    2.007188
  H      3.235757   -3.978322    0.955967
  H      3.999991   -2.524942    0.292734
  H      1.140041   -2.647338    1.382628
  H      1.598888   -2.630379   -0.343264
  H      5.010139    1.893654    1.215097
  H      3.408145    2.575916    0.812407
  H      3.554030    2.016979    3.237517
  H      2.328055    1.032057    2.424964
  H      3.902258    0.328632    2.829874
  H      0.436559    0.543792   -2.396141
  H     -0.829887    1.632384   -1.711492
  H     -2.969941    1.667809    2.375646
  H     -2.894832    0.165446    3.345476
  H     -0.643351    1.416145    1.686840
  H     -0.713680    1.313746    3.448390
  H     -0.522075   -0.162157    2.484773
  H     -4.747860   -1.804158    0.553057
  H     -5.061339   -2.164849   -1.169549
  H     -3.580929   -3.894646   -0.144859
  H     -2.702803   -2.992804   -1.391421
  H     -2.422551   -2.637469    0.317172

 Total Charge           Charge          ....    0
 Multiplicity           Mult            ....    1
 Number of Electrons    NEL             ....  202
 Basis Dimension        Dim             ....  334

ORBITAL ENERGIES
----------------

  NO   OCC          E(Eh)            E(eV)
   0   2.0000     -88.043581     -2395.7876
   1   2.0000     -88.041839     -2395.7402
   2   2.0000     -87.990192     -2394.3348
   3   2.0000     -87.986598     -2394.2371
   4   2.0000     -76.429467     -2079.7515
   5   2.0000     -76.427146     -2079.6884
   6   2.0000     -18.797189      -511.4975
   7   2.0000     -18.795814      -511.4601
   8   2.0000     -18.792109      -511.3593
   9   2.0000     -18.791240      -511.3356
  10   2.0000      -9.963391      -271.1176
  11   2.0000      -9.960286      -271.0332
  12   2.0000      -9.956184      -270.9215
  13   2.0000      -9.950645      -270.7708
  14   2.0000      -9.950611      -270.7699
  15   2.0000      -9.893488      -269.2155
  16   2.0000      -9.893292      -269.2102
  17   2.0000      -9.884611      -268.9739
  18   2.0000      -9.882275      -268.9104
  19   2.0000      -7.688340      -209.2104
  20   2.0000      -7.686253      -209.1536
  21   2.0000      -7.635278      -207.7665
  22   2.0000      -7.631788      -207.6715
  23   2.0000      -6.426875      -174.8842
  24   2.0000      -6.424874      -174.8297
  25   2.0000      -5.716024      -155.5409
  26   2.0000      -5.714196      -155.4912
  27   2.0000      -5.712992      -155.4584
  28   2.0000      -5.710771      -155.3980
  29   2.0000      -5.705386      -155.2515
  30   2.0000      -5.703277      -155.1940
  31   2.0000      -5.664228      -154.1315
  32   2.0000      -5.660836      -154.0392
  33   2.0000      -5.655829      -153.9029
  34   2.0000      -5.655456      -153.8928
  35   2.0000      -5.652540      -153.8134
  36   2.0000      -5.651634      -153.7888
  37   2.0000      -4.649819      -126.5280
  38   2.0000      -4.648241      -126.4851
  39   2.0000      -4.647655      -126.4691
  40   2.0000      -4.647398      -126.4621
  41   2.0000      -4.646432      -126.4358
  42   2.0000      -4.645338      -126.4061
  43   2.0000      -0.991146       -26.9704
  44   2.0000      -0.986166       -26.8349
  45   2.0000      -0.947824       -25.7916
  46   2.0000      -0.946719       -25.7615
  47   2.0000      -0.762920       -20.7601
  48   2.0000      -0.724185       -19.7061
  49   2.0000      -0.713905       -19.4263
  50   2.0000      -0.695061       -18.9136
  51   2.0000      -0.693075       -18.8595
  52   2.0000      -0.677512       -18.4360
  53   2.0000      -0.653289       -17.7769
  54   2.0000      -0.639251       -17.3949
  55   2.0000      -0.602705       -16.4004
  56   2.0000      -0.596385       -16.2285
  57   2.0000      -0.583206       -15.8699
  58   2.0000      -0.578099       -15.7309
  59   2.0000      -0.559707       -15.2304
  60   2.0000      -0.500009       -13.6059
  61   2.0000      -0.495991       -13.4966
  62   2.0000      -0.480681       -13.0800
  63   2.0000      -0.472908       -12.8685
  64   2.0000      -0.460243       -12.5239
  65   2.0000      -0.453031       -12.3276
  66   2.0000      -0.448645       -12.2083
  67   2.0000      -0.435835       -11.8597
  68   2.0000      -0.430524       -11.7152
  69   2.0000      -0.423263       -11.5176
  70   2.0000      -0.413575       -11.2539
  71   2.0000      -0.404247       -11.0001
  72   2.0000      -0.395990       -10.7754
  73   2.0000      -0.389025       -10.5859
  74   2.0000      -0.381562       -10.3828
  75   2.0000      -0.374135       -10.1807
  76   2.0000      -0.371230       -10.1017
  77   2.0000      -0.360880        -9.8200
  78   2.0000      -0.357608        -9.7310
  79   2.0000      -0.353161        -9.6100
  80   2.0000      -0.350070        -9.5259
  81   2.0000      -0.349479        -9.5098
  82   2.0000      -0.346440        -9.4271
  83   2.0000      -0.343006        -9.3337
  84   2.0000      -0.340310        -9.2603
  85   2.0000      -0.319840        -8.7033
  86   2.0000      -0.310721        -8.4552
  87   2.0000      -0.307730        -8.3738
  88   2.0000      -0.300336        -8.1726
  89   2.0000      -0.298723        -8.1287
  90   2.0000      -0.283140        -7.7046
  91   2.0000      -0.277858        -7.5609
  92   2.0000      -0.275450        -7.4954
  93   2.0000      -0.268700        -7.3117
  94   2.0000      -0.256413        -6.9774
  95   2.0000      -0.227891        -6.2012
  96   2.0000      -0.220362        -5.9964
  97   2.0000      -0.212855        -5.7921
  98   2.0000      -0.206267        -5.6128
  99   2.0000      -0.203561        -5.5392
 100   2.0000      -0.199918        -5.4400
 101   0.0000      -0.045409        -1.2356
 102   0.0000      -0.029244        -0.7958
 103   0.0000      -0.013351        -0.3633
 104   0.0000       0.004616         0.1256
 105   0.0000       0.006422         0.1748

MULLIKEN ATOMIC CHARGES
-----------------------
   0 C :   -0.302721
   1 C :   -0.010814
   2 O :   -0.377643
   3 P :    0.613336
   4 S :   -0.311612
   5 O :   -0.367718
   6 C :   -0.023537
   7 C :   -0.326311
   8 S :   -0.107360
   9 C :   -0.340122
  10 S :   -0.106279
  11 P :    0.615437
  12 S :   -0.309501
  13 O :   -0.387740
  14 C :    0.016715
  15 C :   -0.353695
  16 O :   -0.362508
  17 C :    0.010143
  18 C :   -0.336792
  19 H :    0.111719
  20 H :    0.111095
  21 H :    0.126639
  22 H :    0.101021
  23 H :    0.113751
  24 H :    0.116716
  25 H :    0.124162
  26 H :    0.114678
  27 H :    0.146417
  28 H :    0.121236
  29 H :    0.196469
  30 H :    0.193126
  31 H :    0.112005
  32 H :    0.100789
  33 H :    0.143623
  34 H :    0.109646
  35 H :    0.124471
  36 H :    0.109123
  37 H :    0.113298
  38 H :    0.117666
  39 H :    0.133988
  40 H :    0.127082
Sum of atomic charges:    0.0000000

LOEWDIN ATOMIC CHARGES
----------------------
   0 C :   -0.363215
   1 C :   -0.125183
   2 O :   -0.247608
   3 P :    0.570029
   4 S :   -0.306373
   5 O :   -0.241599
   6 C :   -0.114406
   7 C :   -0.368125
   8 S :    0.090704
   9 C :   -0.485315
  10 S :    0.084026
  11 P :    0.574121
  12 S :   -0.301344
  13 O :   -0.248867
  14 C :   -0.114421
  15 C :   -0.377566
  16 O :   -0.240105
  17 C :   -0.107469
  18 C :   -0.372423
  19 H :    0.121687
  20 H :    0.130280
  21 H :    0.125527
  22 H :    0.114227
  23 H :    0.106835
  24 H :    0.125195
  25 H :    0.110877
  26 H :    0.132104
  27 H :    0.126560
  28 H :    0.127366
  29 H :    0.131293
  30 H :    0.127701
  31 H :    0.113108
  32 H :    0.116916
  33 H :    0.112951
  34 H :    0.129238
  35 H :    0.124235
  36 H :    0.114616
  37 H :    0.124159
  38 H :    0.133583
  39 H :    0.130057
  40 H :    0.116626

  Mayer bond orders larger than 0.100000
B(  0-C ,  1-C ) :   1.1637 B(  0-C , 19-H ) :   0.9461 B(  0-C , 20-H ) :   0.9405
B(  0-C , 21-H ) :   0.9369 B(  1-C ,  2-O ) :   0.9035 B(  1-C , 22-H ) :   0.9313
B(  1-C , 23-H ) :   0.9078 B(  2-O ,  3-P ) :   1.0727 B(  3-P ,  4-S ) :   1.6253
B(  3-P ,  5-O ) :   1.1329 B(  3-P ,  8-S ) :   0.9590 B(  5-O ,  6-C ) :   0.9060
B(  6-C ,  7-C ) :   1.1643 B(  6-C , 24-H ) :   0.9344 B(  6-C , 25-H ) :   0.9188
B(  7-C , 26-H ) :   0.9355 B(  7-C , 27-H ) :   0.9327 B(  7-C , 28-H ) :   0.9432
B(  8-S ,  9-C ) :   1.0056 B(  9-C , 10-S ) :   1.0181 B(  9-C , 29-H ) :   0.8762
B(  9-C , 30-H ) :   0.8549 B( 10-S , 11-P ) :   0.9431 B( 10-S , 12-S ) :   0.1147
B( 11-P , 12-S ) :   1.6302 B( 11-P , 13-O ) :   1.0710 B( 11-P , 16-O ) :   1.1386
B( 12-S , 30-H ) :   0.1080 B( 13-O , 14-C ) :   0.9064 B( 14-C , 15-C ) :   1.1611
B( 14-C , 31-H ) :   0.9188 B( 14-C , 32-H ) :   0.9333 B( 15-C , 33-H ) :   0.9205
B( 15-C , 34-H ) :   0.9360 B( 15-C , 35-H ) :   0.9409 B( 16-O , 17-C ) :   0.9022
B( 17-C , 18-C ) :   1.1696 B( 17-C , 36-H ) :   0.9280 B( 17-C , 37-H ) :   0.9335
B( 18-C , 38-H ) :   0.9353 B( 18-C , 39-H ) :   0.9404 B( 18-C , 40-H ) :   0.9330

Dispersion correction           -0.065621479
FINAL SINGLE POINT ENERGY     -2929.515837080990

DIPOLE MOMENT
-------------

Method             : SCF
Type of density    : Electron Density
Multiplicity       :   1
Irrep              :   0
Energy             : -2929.6366412064617180 Eh
Relativity type    :
Basis              : AO
                                X                 Y                 Z
Electronic contribution:     -5.023968854      12.035735550     -19.469710719
Nuclear contribution   :      4.978284137     -12.970823946      21.470432458
                        -----------------------------------------
Total Dipole Moment    :     -0.045684718      -0.935088396       2.000721739
                        -----------------------------------------
Magnitude (a.u.)       :      2.208928446
Magnitude (Debye)      :      5.614649907

Rotational constants in cm-1:             0.011986             0.004943             0.004604
Rotational constants in MHz :           359.316307           148.193658           138.017535

                             ****ORCA TERMINATED NORMALLY****
TOTAL RUN TIME: 0 days 0 hours 0 minutes 21 seconds 725 msec
