                         Program Version 6.0.1  -  RELEASE   -
|  1> ! pbe def2-sv(p) def2/J RI DEFGRID1 loosescf d4 GCP(DFT/SV(P)) printgap
|  2> %output
|  3>     printlevel normal
|  4> end
|  5> * xyz 0 1
|  6> C 5.7271458407 -2.8652932278 -1.0821925982
|  7> C 4.7999306037 -1.6944039883 -1.3441045279
|  8> O 3.4697236075 -2.0759880472 -0.9439591965
|  9> C 2.4600947532 -1.3540085002 -1.3770297058
| 10> O 2.5619275493 -0.4089922308 -2.130767296
| 11> C 1.1342658429 -1.8769973007 -0.8514285842
| 12> C 0.2980973922 -0.6898896245 -0.3967577099
| 13> H 0.1407528793 0.0012837708 -1.2381168161
| 14> C 1.0225509621 0.1086314335 0.6698802124
| 15> O 2.2257505236 0.0970932016 0.7961453001
| 16> O 0.1889808461 0.8093238546 1.4087612285
| 17> C 0.7305944146 1.7132369112 2.3940906586
| 18> C 1.0393668923 3.0631646361 1.7707076497
| 19> S -1.3429598617 -1.2148818884 0.1871799359
| 20> P -2.3146469278 0.6832464548 0.1381484033
| 21> S -1.54886876 2.0374774997 -1.0507030591
| 22> O -3.8155041871 0.2610629269 -0.2317739094
| 23> C -4.150988582 -0.2301537732 -1.5334506835
| 24> O -2.5304802038 1.1866695579 1.6182882868
| 25> C -3.1775474316 0.3693192912 2.6145488898
| 26> H 6.7395738933 -2.5879740361 -1.3558665672
| 27> H 5.6987188457 -3.1299050377 -0.0296730358
| 28> H 5.4191676111 -3.7251386864 -1.6695742777
| 29> H 4.7766977085 -1.4142622302 -2.4020354835
| 30> H 5.0813216812 -0.8136903107 -0.758392014
| 31> H 1.3236522676 -2.5677463961 -0.0309774452
| 32> H 0.618136895 -2.3999588332 -1.6574943532
| 33> H -0.0530663503 1.7937445038 3.1472321963
| 34> H 1.6315126148 1.2580865191 2.8144457101
| 35> H 1.3692095578 3.75030865 2.5424626153
| 36> H 1.8234748475 2.9623205756 1.0229246181
| 37> H 0.1499670385 3.4621284088 1.2879374772
| 38> H -5.2371500398 -0.230693287 -1.575612755
| 39> H -3.760552725 -1.2397433236 -1.6602736901
| 40> H -3.7410884032 0.4279685242 -2.3013093322
| 41> H -2.6496401035 -0.5787126489 2.7179208032
| 42> H -4.2130319322 0.1903571933 2.3325379867
| 43> H -3.1230266306 0.9452443953 3.5346750868
| 44> *
| 45>
| 46>                          ****END OF INPUT****

CARTESIAN COORDINATES (ANGSTROEM)
---------------------------------
  C      5.727146   -2.865293   -1.082193
  C      4.799931   -1.694404   -1.344105
  O      3.469724   -2.075988   -0.943959
  C      2.460095   -1.354009   -1.377030
  O      2.561928   -0.408992   -2.130767
  C      1.134266   -1.876997   -0.851429
  C      0.298097   -0.689890   -0.396758
  H      0.140753    0.001284   -1.238117
  C      1.022551    0.108631    0.669880
  O      2.225751    0.097093    0.796145
  O      0.188981    0.809324    1.408761
  C      0.730594    1.713237    2.394091
  C      1.039367    3.063165    1.770708
  S     -1.342960   -1.214882    0.187180
  P     -2.314647    0.683246    0.138148
  S     -1.548869    2.037477   -1.050703
  O     -3.815504    0.261063   -0.231774
  C     -4.150989   -0.230154   -1.533451
  O     -2.530480    1.186670    1.618288
  C     -3.177547    0.369319    2.614549
  H      6.739574   -2.587974   -1.355867
  H      5.698719   -3.129905   -0.029673
  H      5.419168   -3.725139   -1.669574
  H      4.776698   -1.414262   -2.402035
  H      5.081322   -0.813690   -0.758392
  H      1.323652   -2.567746   -0.030977
  H      0.618137   -2.399959   -1.657494
  H     -0.053066    1.793745    3.147232
  H      1.631513    1.258087    2.814446
  H      1.369210    3.750309    2.542463
  H      1.823475    2.962321    1.022925
  H      0.149967    3.462128    1.287937
  H     -5.237150   -0.230693   -1.575613
  H     -3.760553   -1.239743   -1.660274
  H     -3.741088    0.427969   -2.301309
  H     -2.649640   -0.578713    2.717921
  H     -4.213032    0.190357    2.332538
  H     -3.123027    0.945244    3.534675

 Total Charge           Charge          ....    0
 Multiplicity           Mult            ....    1
 Number of Electrons    NEL             ....  174
 Basis Dimension        Dim             ....  316

ORBITAL ENERGIES
----------------

  NO   OCC          E(Eh)            E(eV)
   0   2.0000     -88.043744     -2395.7921
   1   2.0000     -87.985798     -2394.2153
   2   2.0000     -76.428308     -2079.7200
   3   2.0000     -18.811583      -511.8892
   4   2.0000     -18.797977      -511.5189
   5   2.0000     -18.794608      -511.4273
   6   2.0000     -18.793243      -511.3901
   7   2.0000     -18.744468      -510.0629
   8   2.0000     -18.726890      -509.5846
   9   2.0000     -10.017763      -272.5972
  10   2.0000     -10.003202      -272.2010
  11   2.0000      -9.954597      -270.8784
  12   2.0000      -9.949128      -270.7295
  13   2.0000      -9.946480      -270.6575
  14   2.0000      -9.943973      -270.5893
  15   2.0000      -9.940319      -270.4898
  16   2.0000      -9.909699      -269.6566
  17   2.0000      -9.884582      -268.9731
  18   2.0000      -9.879245      -268.8279
  19   2.0000      -7.688375      -209.2113
  20   2.0000      -7.630835      -207.6456
  21   2.0000      -6.425331      -174.8421
  22   2.0000      -5.716071      -155.5422
  23   2.0000      -5.713022      -155.4592
  24   2.0000      -5.705500      -155.2546
  25   2.0000      -5.659984      -154.0160
  26   2.0000      -5.651355      -153.7812
  27   2.0000      -5.650837      -153.7671
  28   2.0000      -4.648117      -126.4817
  29   2.0000      -4.647193      -126.4566
  30   2.0000      -4.645605      -126.4133
  31   2.0000      -1.019335       -27.7375
  32   2.0000      -1.001448       -27.2508
  33   2.0000      -0.990888       -26.9634
  34   2.0000      -0.946023       -25.7426
  35   2.0000      -0.925354       -25.1802
  36   2.0000      -0.904396       -24.6099
  37   2.0000      -0.765993       -20.8437
  38   2.0000      -0.711908       -19.3720
  39   2.0000      -0.702792       -19.1239
  40   2.0000      -0.694102       -18.8875
  41   2.0000      -0.660320       -17.9682
  42   2.0000      -0.640364       -17.4252
  43   2.0000      -0.624039       -16.9810
  44   2.0000      -0.615724       -16.7547
  45   2.0000      -0.588819       -16.0226
  46   2.0000      -0.557215       -15.1626
  47   2.0000      -0.518820       -14.1178
  48   2.0000      -0.504446       -13.7267
  49   2.0000      -0.499584       -13.5944
  50   2.0000      -0.479818       -13.0565
  51   2.0000      -0.472663       -12.8618
  52   2.0000      -0.465651       -12.6710
  53   2.0000      -0.443343       -12.0640
  54   2.0000      -0.436969       -11.8905
  55   2.0000      -0.432413       -11.7666
  56   2.0000      -0.427906       -11.6439
  57   2.0000      -0.420921       -11.4539
  58   2.0000      -0.417255       -11.3541
  59   2.0000      -0.404994       -11.0204
  60   2.0000      -0.403888       -10.9903
  61   2.0000      -0.400187       -10.8896
  62   2.0000      -0.395496       -10.7620
  63   2.0000      -0.383379       -10.4323
  64   2.0000      -0.365899        -9.9566
  65   2.0000      -0.358841        -9.7645
  66   2.0000      -0.353771        -9.6266
  67   2.0000      -0.349869        -9.5204
  68   2.0000      -0.344738        -9.3808
  69   2.0000      -0.338992        -9.2245
  70   2.0000      -0.337315        -9.1788
  71   2.0000      -0.328236        -8.9317
  72   2.0000      -0.320156        -8.7119
  73   2.0000      -0.310600        -8.4519
  74   2.0000      -0.309093        -8.4109
  75   2.0000      -0.300524        -8.1777
  76   2.0000      -0.294752        -8.0206
  77   2.0000      -0.291416        -7.9298
  78   2.0000      -0.273744        -7.4490
  79   2.0000      -0.268774        -7.3137
  80   2.0000      -0.262259        -7.1364
  81   2.0000      -0.250169        -6.8075
  82   2.0000      -0.248356        -6.7581
  83   2.0000      -0.214859        -5.8466
  84   2.0000      -0.214279        -5.8308
  85   2.0000      -0.204879        -5.5750
  86   2.0000      -0.200469        -5.4550
  87   0.0000      -0.045734        -1.2445
  88   0.0000      -0.028169        -0.7665
  89   0.0000      -0.010864        -0.2956
  90   0.0000       0.010005         0.2722
  91   0.0000       0.015784         0.4295

MULLIKEN ATOMIC CHARGES
-----------------------
   0 C :   -0.275659
   1 C :   -0.026354
   2 O :   -0.229487
   3 C :    0.111702
   4 O :   -0.211258
   5 C :   -0.044809
   6 C :   -0.357834
   7 H :    0.179496
   8 C :    0.239643
   9 O :   -0.192012
  10 O :   -0.227231
  11 C :   -0.006237
  12 C :   -0.309069
  13 S :   -0.105881
  14 P :    0.626046
  15 S :   -0.305070
  16 O :   -0.391725
  17 C :   -0.100465
  18 O :   -0.364057
  19 C :   -0.109480
  20 H :    0.110224
  21 H :    0.115452
  22 H :    0.111806
  23 H :    0.108053
  24 H :    0.111771
  25 H :    0.103388
  26 H :    0.119444
  27 H :    0.101247
  28 H :    0.107841
  29 H :    0.108424
  30 H :    0.128050
  31 H :    0.133122
  32 H :    0.125583
  33 H :    0.114736
  34 H :    0.120724
  35 H :    0.120372
  36 H :    0.128608
  37 H :    0.130895
Sum of atomic charges:    0.0000000

LOEWDIN ATOMIC CHARGES
----------------------
   0 C :   -0.351033
   1 C :   -0.105820
   2 O :   -0.056900
   3 C :    0.029527
   4 O :   -0.172350
   5 C :   -0.244501
   6 C :   -0.279484
   7 H :    0.148269
   8 C :    0.031359
   9 O :   -0.147282
  10 O :   -0.051363
  11 C :   -0.106401
  12 C :   -0.357249
  13 S :    0.086703
  14 P :    0.578771
  15 S :   -0.299728
  16 O :   -0.261464
  17 C :   -0.216431
  18 O :   -0.237447
  19 C :   -0.210995
  20 H :    0.129851
  21 H :    0.126760
  22 H :    0.125010
  23 H :    0.117162
  24 H :    0.121020
  25 H :    0.134046
  26 H :    0.146422
  27 H :    0.116638
  28 H :    0.119206
  29 H :    0.128515
  30 H :    0.132093
  31 H :    0.129821
  32 H :    0.122645
  33 H :    0.108479
  34 H :    0.113090
  35 H :    0.110413
  36 H :    0.117859
  37 H :    0.124790

  Mayer bond orders larger than 0.100000
B(  0-C ,  1-C ) :   1.1538 B(  0-C , 20-H ) :   0.9447 B(  0-C , 21-H ) :   0.9487
B(  0-C , 22-H ) :   0.9519 B(  1-C ,  2-O ) :   0.9079 B(  1-C , 23-H ) :   0.9238
B(  1-C , 24-H ) :   0.9331 B(  2-O ,  3-C ) :   1.2410 B(  3-C ,  4-O ) :   2.0417
B(  3-C ,  5-C ) :   1.0083 B(  5-C ,  6-C ) :   1.0620 B(  5-C , 25-H ) :   0.9054
B(  5-C , 26-H ) :   0.8823 B(  6-C ,  7-H ) :   0.8165 B(  6-C ,  8-C ) :   0.8898
B(  6-C , 13-S ) :   1.0235 B(  8-C ,  9-O ) :   2.0272 B(  8-C , 10-O ) :   1.2522
B( 10-O , 11-C ) :   0.8971 B( 11-C , 12-C ) :   1.1831 B( 11-C , 27-H ) :   0.9327
B( 11-C , 28-H ) :   0.9156 B( 12-C , 29-H ) :   0.9424 B( 12-C , 30-H ) :   0.9452
B( 12-C , 31-H ) :   0.9391 B( 13-S , 14-P ) :   0.9443 B( 13-S , 15-S ) :   0.1152
B( 14-P , 15-S ) :   1.6445 B( 14-P , 16-O ) :   1.0656 B( 14-P , 18-O ) :   1.1192
B( 16-O , 17-C ) :   0.9315 B( 17-C , 32-H ) :   0.9585 B( 17-C , 33-H ) :   0.9465
B( 17-C , 34-H ) :   0.9356 B( 18-O , 19-C ) :   0.9171 B( 19-C , 35-H ) :   0.9385
B( 19-C , 36-H ) :   0.9474 B( 19-C , 37-H ) :   0.9582

Dispersion correction           -0.051112571
FINAL SINGLE POINT ENERGY     -1979.022594321347

DIPOLE MOMENT
-------------

Method             : SCF
Type of density    : Electron Density
Multiplicity       :   1
Irrep              :   0
Energy             : -1979.1539504840397967 Eh
Relativity type    :
Basis              : AO
                                X                 Y                 Z
Electronic contribution:    -14.026000702       3.241257084      -3.225571603
Nuclear contribution   :     13.435991275      -4.291709977       4.338143113
                        -----------------------------------------
Total Dipole Moment    :     -0.590009427      -1.050452894       1.112571510
                        -----------------------------------------
Magnitude (a.u.)       :      1.639932246
Magnitude (Debye)      :      4.168376503

Rotational constants in cm-1:             0.016674             0.005568             0.004975
Rotational constants in MHz :           499.888770           166.917464           149.160840

                             ****ORCA TERMINATED NORMALLY****
TOTAL RUN TIME: 0 days 0 hours 0 minutes 37 seconds 413 msec
