                         Program Version 6.0.0  -   RELEASE  -
|  1> ! pbe def2-sv(p) def2/J RI DEFGRID1 loosescf d4 GCP(DFT/SV(P)) printgap
|  2> %output
|  3>     printlevel normal
|  4> end
|  5> * xyz 0 1
|  6> C 4.2734582891 -1.8345767332 -1.6845578768
|  7> C 4.4128741641 -0.5659471158 -0.8665691531
|  8> O 3.3572205367 0.3733881794 -1.206470197
|  9> P 2.1607848702 0.746813835 -0.2528224097
| 10> S 1.1062752017 2.185451658 -1.0501978323
| 11> O 2.9178648533 1.0796191744 1.1014062832
| 12> C 2.3009158521 1.5945884622 2.2959153938
| 13> C 2.0261909047 0.4769785488 3.2821481163
| 14> S 1.2026712639 -1.1224376247 0.1428388835
| 15> C 0.4528903527 -1.3316038017 -1.4865849152
| 16> S -1.1014775146 -0.4026662137 -1.7652026738
| 17> P -1.920609149 -0.2786180888 0.211113602
| 18> S -1.1580646359 0.9587118116 1.5196565067
| 19> O -1.9563091608 -1.7488404262 0.7616331173
| 20> C -2.594347452 -2.8616098927 0.0814688871
| 21> C -3.9924778876 -3.0824570795 0.6204548523
| 22> O -3.4368854672 0.0188181253 -0.1669462475
| 23> C -3.85889676 1.306588997 -0.660988927
| 24> C -4.5228473514 2.1049390455 0.4436981652
| 25> H 4.20900872 -1.5903846959 -2.7413443628
| 26> H 5.1464122955 -2.4573188869 -1.5164670229
| 27> H 3.3842018814 -2.3858306259 -1.3897100743
| 28> H 5.3368703311 -0.0381685702 -1.106952641
| 29> H 4.37723141 -0.7731890801 0.2040703199
| 30> H 3.0268138108 2.306180853 2.6935907606
| 31> H 1.379075187 2.1216571139 2.0320058972
| 32> H 2.9376597761 -0.0779463138 3.4853450372
| 33> H 1.6490940454 0.9073710623 4.2039883272
| 34> H 1.2738220749 -0.2022571058 2.886025659
| 35> H 0.2424472257 -2.3927906926 -1.5971156324
| 36> H 1.1434433745 -0.9847798508 -2.2552035833
| 37> H -2.6147633064 -2.6587503097 -0.9926683366
| 38> H -1.9461876136 -3.713710385 0.2937945608
| 39> H -3.9576380512 -3.2309361251 1.6961296718
| 40> H -4.6184434999 -2.220392265 0.4062131975
| 41> H -4.4195620471 -3.9624263917 0.1495582308
| 42> H -2.9954908641 1.8437840375 -1.0654273968
| 43> H -4.5572973499 1.0848804379 -1.4703327419
| 44> H -5.3585786902 1.5479826335 0.8575297255
| 45> H -3.8077867953 2.3081205471 1.2383444002
| 46> H -4.8798082996 3.0464891178 0.0390811641
| 47> *
| 48>
| 49>                          ****END OF INPUT****

CARTESIAN COORDINATES (ANGSTROEM)
---------------------------------
  C      4.273458   -1.834577   -1.684558
  C      4.412874   -0.565947   -0.866569
  O      3.357221    0.373388   -1.206470
  P      2.160785    0.746814   -0.252822
  S      1.106275    2.185452   -1.050198
  O      2.917865    1.079619    1.101406
  C      2.300916    1.594588    2.295915
  C      2.026191    0.476979    3.282148
  S      1.202671   -1.122438    0.142839
  C      0.452890   -1.331604   -1.486585
  S     -1.101478   -0.402666   -1.765203
  P     -1.920609   -0.278618    0.211114
  S     -1.158065    0.958712    1.519657
  O     -1.956309   -1.748840    0.761633
  C     -2.594347   -2.861610    0.081469
  C     -3.992478   -3.082457    0.620455
  O     -3.436885    0.018818   -0.166946
  C     -3.858897    1.306589   -0.660989
  C     -4.522847    2.104939    0.443698
  H      4.209009   -1.590385   -2.741344
  H      5.146412   -2.457319   -1.516467
  H      3.384202   -2.385831   -1.389710
  H      5.336870   -0.038169   -1.106953
  H      4.377231   -0.773189    0.204070
  H      3.026814    2.306181    2.693591
  H      1.379075    2.121657    2.032006
  H      2.937660   -0.077946    3.485345
  H      1.649094    0.907371    4.203988
  H      1.273822   -0.202257    2.886026
  H      0.242447   -2.392791   -1.597116
  H      1.143443   -0.984780   -2.255204
  H     -2.614763   -2.658750   -0.992668
  H     -1.946188   -3.713710    0.293795
  H     -3.957638   -3.230936    1.696130
  H     -4.618443   -2.220392    0.406213
  H     -4.419562   -3.962426    0.149558
  H     -2.995491    1.843784   -1.065427
  H     -4.557297    1.084880   -1.470333
  H     -5.358579    1.547983    0.857530
  H     -3.807787    2.308121    1.238344
  H     -4.879808    3.046489    0.039081

 Total Charge           Charge          ....    0
 Multiplicity           Mult            ....    1
 Number of Electrons    NEL             ....  202
 Basis Dimension        Dim             ....  334

ORBITAL ENERGIES
----------------

  NO   OCC          E(Eh)            E(eV)
   0   2.0000     -88.041989     -2395.7443
   1   2.0000     -88.032845     -2395.4955
   2   2.0000     -87.976726     -2393.9684
   3   2.0000     -87.971773     -2393.8336
   4   2.0000     -76.423887     -2079.5997
   5   2.0000     -76.420066     -2079.4957
   6   2.0000     -18.795229      -511.4442
   7   2.0000     -18.792137      -511.3601
   8   2.0000     -18.791443      -511.3412
   9   2.0000     -18.788317      -511.2561
  10   2.0000      -9.959849      -271.0213
  11   2.0000      -9.957997      -270.9709
  12   2.0000      -9.954832      -270.8847
  13   2.0000      -9.952167      -270.8122
  14   2.0000      -9.945695      -270.6361
  15   2.0000      -9.889895      -269.1177
  16   2.0000      -9.888259      -269.0732
  17   2.0000      -9.878437      -268.8059
  18   2.0000      -9.877790      -268.7883
  19   2.0000      -7.686319      -209.1554
  20   2.0000      -7.677799      -208.9235
  21   2.0000      -7.621754      -207.3985
  22   2.0000      -7.617027      -207.2699
  23   2.0000      -6.420861      -174.7205
  24   2.0000      -6.417281      -174.6231
  25   2.0000      -5.714084      -155.4881
  26   2.0000      -5.710865      -155.4005
  27   2.0000      -5.705858      -155.2643
  28   2.0000      -5.703377      -155.1968
  29   2.0000      -5.702274      -155.1668
  30   2.0000      -5.694631      -154.9588
  31   2.0000      -5.650822      -153.7667
  32   2.0000      -5.646255      -153.6424
  33   2.0000      -5.642250      -153.5334
  34   2.0000      -5.641838      -153.5222
  35   2.0000      -5.637632      -153.4078
  36   2.0000      -5.636890      -153.3876
  37   2.0000      -4.644093      -126.3722
  38   2.0000      -4.642759      -126.3359
  39   2.0000      -4.640698      -126.2798
  40   2.0000      -4.640242      -126.2674
  41   2.0000      -4.639191      -126.2388
  42   2.0000      -4.637264      -126.1864
  43   2.0000      -0.988185       -26.8899
  44   2.0000      -0.984328       -26.7849
  45   2.0000      -0.946110       -25.7450
  46   2.0000      -0.940574       -25.5943
  47   2.0000      -0.759299       -20.6616
  48   2.0000      -0.717993       -19.5376
  49   2.0000      -0.711287       -19.3551
  50   2.0000      -0.689542       -18.7634
  51   2.0000      -0.686453       -18.6793
  52   2.0000      -0.668026       -18.1779
  53   2.0000      -0.647275       -17.6132
  54   2.0000      -0.631673       -17.1887
  55   2.0000      -0.585598       -15.9349
  56   2.0000      -0.583345       -15.8736
  57   2.0000      -0.574702       -15.6384
  58   2.0000      -0.572192       -15.5701
  59   2.0000      -0.564760       -15.3679
  60   2.0000      -0.506403       -13.7799
  61   2.0000      -0.498963       -13.5775
  62   2.0000      -0.481854       -13.1119
  63   2.0000      -0.474777       -12.9193
  64   2.0000      -0.457938       -12.4611
  65   2.0000      -0.446958       -12.1623
  66   2.0000      -0.439478       -11.9588
  67   2.0000      -0.429730       -11.6935
  68   2.0000      -0.427602       -11.6357
  69   2.0000      -0.414292       -11.2734
  70   2.0000      -0.403603       -10.9826
  71   2.0000      -0.394281       -10.7289
  72   2.0000      -0.391769       -10.6606
  73   2.0000      -0.385593       -10.4925
  74   2.0000      -0.374669       -10.1953
  75   2.0000      -0.369825       -10.0634
  76   2.0000      -0.361855        -9.8466
  77   2.0000      -0.358107        -9.7446
  78   2.0000      -0.355816        -9.6822
  79   2.0000      -0.353057        -9.6072
  80   2.0000      -0.346695        -9.4340
  81   2.0000      -0.345518        -9.4020
  82   2.0000      -0.341951        -9.3050
  83   2.0000      -0.333479        -9.0744
  84   2.0000      -0.326666        -8.8890
  85   2.0000      -0.318501        -8.6669
  86   2.0000      -0.313951        -8.5430
  87   2.0000      -0.298833        -8.1317
  88   2.0000      -0.296395        -8.0653
  89   2.0000      -0.294115        -8.0033
  90   2.0000      -0.285084        -7.7575
  91   2.0000      -0.275691        -7.5019
  92   2.0000      -0.267970        -7.2918
  93   2.0000      -0.257256        -7.0003
  94   2.0000      -0.254970        -6.9381
  95   2.0000      -0.241233        -6.5643
  96   2.0000      -0.220759        -6.0072
  97   2.0000      -0.202757        -5.5173
  98   2.0000      -0.188112        -5.1188
  99   2.0000      -0.179391        -4.8815
 100   2.0000      -0.175686        -4.7807
 101   0.0000      -0.049745        -1.3536
 102   0.0000      -0.025175        -0.6851
 103   0.0000      -0.015238        -0.4146
 104   0.0000       0.005942         0.1617
 105   0.0000       0.018509         0.5036

MULLIKEN ATOMIC CHARGES
-----------------------
   0 C :   -0.295015
   1 C :   -0.007001
   2 O :   -0.363923
   3 P :    0.597805
   4 S :   -0.288086
   5 O :   -0.381683
   6 C :   -0.009680
   7 C :   -0.309067
   8 S :   -0.117583
   9 C :   -0.322433
  10 S :   -0.101475
  11 P :    0.603713
  12 S :   -0.303552
  13 O :   -0.357562
  14 C :   -0.018657
  15 C :   -0.286299
  16 O :   -0.384286
  17 C :   -0.018946
  18 C :   -0.281312
  19 H :    0.119447
  20 H :    0.110452
  21 H :    0.116868
  22 H :    0.111038
  23 H :    0.106219
  24 H :    0.103200
  25 H :    0.126575
  26 H :    0.106208
  27 H :    0.110967
  28 H :    0.140655
  29 H :    0.178410
  30 H :    0.188729
  31 H :    0.101885
  32 H :    0.105358
  33 H :    0.120029
  34 H :    0.124484
  35 H :    0.108119
  36 H :    0.118136
  37 H :    0.104444
  38 H :    0.109110
  39 H :    0.128060
  40 H :    0.106649
Sum of atomic charges:   -0.0000000

LOEWDIN ATOMIC CHARGES
----------------------
   0 C :   -0.361136
   1 C :   -0.112615
   2 O :   -0.243212
   3 P :    0.560907
   4 S :   -0.299339
   5 O :   -0.245151
   6 C :   -0.114709
   7 C :   -0.365050
   8 S :    0.079197
   9 C :   -0.472153
  10 S :    0.056576
  11 P :    0.561686
  12 S :   -0.296694
  13 O :   -0.234770
  14 C :   -0.117478
  15 C :   -0.357525
  16 O :   -0.252627
  17 C :   -0.117243
  18 C :   -0.359422
  19 H :    0.127568
  20 H :    0.130207
  21 H :    0.117978
  22 H :    0.121990
  23 H :    0.109533
  24 H :    0.117759
  25 H :    0.111702
  26 H :    0.120588
  27 H :    0.131877
  28 H :    0.121130
  29 H :    0.129423
  30 H :    0.133477
  31 H :    0.104337
  32 H :    0.117739
  33 H :    0.128865
  34 H :    0.127594
  35 H :    0.129001
  36 H :    0.114389
  37 H :    0.116463
  38 H :    0.123785
  39 H :    0.126803
  40 H :    0.128549

  Mayer bond orders larger than 0.100000
B(  0-C ,  1-C ) :   1.1648 B(  0-C , 19-H ) :   0.9455 B(  0-C , 20-H ) :   0.9402
B(  0-C , 21-H ) :   0.9364 B(  1-C ,  2-O ) :   0.8952 B(  1-C , 22-H ) :   0.9349
B(  1-C , 23-H ) :   0.9173 B(  2-O ,  3-P ) :   1.1137 B(  3-P ,  4-S ) :   1.7082
B(  3-P ,  5-O ) :   1.1014 B(  3-P ,  8-S ) :   0.9107 B(  4-S ,  8-S ) :   0.1146
B(  5-O ,  6-C ) :   0.8965 B(  6-C ,  7-C ) :   1.1717 B(  6-C , 24-H ) :   0.9340
B(  6-C , 25-H ) :   0.9053 B(  7-C , 26-H ) :   0.9468 B(  7-C , 27-H ) :   0.9402
B(  7-C , 28-H ) :   0.9286 B(  8-S ,  9-C ) :   1.0135 B(  9-C , 10-S ) :   0.9803
B(  9-C , 29-H ) :   0.9091 B(  9-C , 30-H ) :   0.8957 B( 10-S , 11-P ) :   0.9680
B( 10-S , 12-S ) :   0.1163 B( 11-P , 12-S ) :   1.6470 B( 11-P , 13-O ) :   1.1272
B( 11-P , 16-O ) :   1.0708 B( 13-O , 14-C ) :   0.8959 B( 14-C , 15-C ) :   1.1686
B( 14-C , 31-H ) :   0.9044 B( 14-C , 32-H ) :   0.9344 B( 15-C , 33-H ) :   0.9474
B( 15-C , 34-H ) :   0.9413 B( 15-C , 35-H ) :   0.9394 B( 16-O , 17-C ) :   0.8959
B( 17-C , 18-C ) :   1.1700 B( 17-C , 36-H ) :   0.9132 B( 17-C , 37-H ) :   0.9356
B( 18-C , 38-H ) :   0.9485 B( 18-C , 39-H ) :   0.9332 B( 18-C , 40-H ) :   0.9394

Dispersion correction           -0.067107369
FINAL SINGLE POINT ENERGY     -2929.507105835866

DIPOLE MOMENT
-------------

Method             : SCF
Type of density    : Electron Density
Multiplicity       :   1
Irrep              :   0
Energy             : -2929.6236513356061550 Eh
Relativity type    :
Basis              : AO
                                X                 Y                 Z
Electronic contribution:      4.936803450       9.640639257      -5.873753089
Nuclear contribution   :     -4.940243749     -11.279310519       5.754258320
                        -----------------------------------------
Total Dipole Moment    :     -0.003440299      -1.638671262      -0.119494769
                        -----------------------------------------
Magnitude (a.u.)       :      1.643025971
Magnitude (Debye)      :      4.176240127

Rotational constants in cm-1:             0.011986             0.005376             0.004921
Rotational constants in MHz :           359.333197           161.170040           147.536585

                             ****ORCA TERMINATED NORMALLY****
TOTAL RUN TIME: 0 days 0 hours 0 minutes 22 seconds 774 msec
