                         Program Version 6.0.1  -  RELEASE   -
|  1> ! pbe def2-sv(p) def2/J RI DEFGRID1 loosescf d4 GCP(DFT/SV(P)) printgap
|  2> %output
|  3>     printlevel normal
|  4> end
|  5> * xyz 0 1
|  6> C 4.0300719787 -1.6259184308 1.3211619154
|  7> C 2.8263710424 -2.0795799867 0.5193808681
|  8> O 2.5795545938 -1.1017184467 -0.5094351056
|  9> C 1.4047885348 -1.0761144122 -1.0900523855
| 10> O 0.490772516 -1.8384555308 -0.8364969768
| 11> C 1.3007342359 0.0264579969 -2.1226191268
| 12> C 0.1721951075 0.991019696 -1.7629084311
| 13> H 0.0579804417 1.7364889583 -2.5562449784
| 14> C 0.3779900913 1.7337452838 -0.4539497773
| 15> O -0.551544271 2.1947832585 0.1810377152
| 16> O 1.6360286808 1.8368511156 -0.1310419429
| 17> C 1.9735385368 2.4885721066 1.1113271356
| 18> C 3.4685605609 2.7342447597 1.1118864784
| 19> S -1.4643544065 0.1805454858 -1.6864894527
| 20> P -1.7062950822 -0.2988593725 0.3751466785
| 21> S -0.2880427085 -0.4468380955 1.7182088233
| 22> O -2.8010395007 0.7030558204 0.9278391408
| 23> C -4.0250862561 1.0084395243 0.238443195
| 24> O -2.6220787243 -1.6091154085 0.2556481123
| 25> C -2.1619244258 -2.9097940477 -0.1132921626
| 26> H 4.8780623171 -1.4690546074 0.6614307515
| 27> H 3.8013776154 -0.6991927665 1.8393674596
| 28> H 4.2776866461 -2.3868949685 2.0534010617
| 29> H 1.931735908 -2.1594036448 1.1447169624
| 30> H 3.0055717993 -3.0416415666 0.0299665178
| 31> H 1.0709002207 -0.4279006563 -3.0873085234
| 32> H 2.2466659978 0.5638987974 -2.1672031699
| 33> H 1.3978470331 3.4160592202 1.1841018032
| 34> H 1.6630777344 1.8246061903 1.9252365517
| 35> H 3.7563326551 3.172822307 2.0612263807
| 36> H 3.9957644754 1.7949197099 0.9751462843
| 37> H 3.73819518 3.4109032356 0.3067340051
| 38> H -4.6325589579 0.1096423341 0.1457798975
| 39> H -3.8052888976 1.4186363056 -0.7474335654
| 40> H -4.5190626036 1.750370576 0.8603092164
| 41> H -1.8909206167 -2.9251787091 -1.1678283992
| 42> H -2.9970198164 -3.5767356777 0.0862890532
| 43> H -1.2936805366 -3.1862549762 0.4840673987
| 44> *
| 45>
| 46>                          ****END OF INPUT****

CARTESIAN COORDINATES (ANGSTROEM)
---------------------------------
  C      4.030072   -1.625918    1.321162
  C      2.826371   -2.079580    0.519381
  O      2.579555   -1.101718   -0.509435
  C      1.404789   -1.076114   -1.090052
  O      0.490773   -1.838456   -0.836497
  C      1.300734    0.026458   -2.122619
  C      0.172195    0.991020   -1.762908
  H      0.057980    1.736489   -2.556245
  C      0.377990    1.733745   -0.453950
  O     -0.551544    2.194783    0.181038
  O      1.636029    1.836851   -0.131042
  C      1.973539    2.488572    1.111327
  C      3.468561    2.734245    1.111886
  S     -1.464354    0.180545   -1.686489
  P     -1.706295   -0.298859    0.375147
  S     -0.288043   -0.446838    1.718209
  O     -2.801040    0.703056    0.927839
  C     -4.025086    1.008440    0.238443
  O     -2.622079   -1.609115    0.255648
  C     -2.161924   -2.909794   -0.113292
  H      4.878062   -1.469055    0.661431
  H      3.801378   -0.699193    1.839367
  H      4.277687   -2.386895    2.053401
  H      1.931736   -2.159404    1.144717
  H      3.005572   -3.041642    0.029967
  H      1.070900   -0.427901   -3.087309
  H      2.246666    0.563899   -2.167203
  H      1.397847    3.416059    1.184102
  H      1.663078    1.824606    1.925237
  H      3.756333    3.172822    2.061226
  H      3.995764    1.794920    0.975146
  H      3.738195    3.410903    0.306734
  H     -4.632559    0.109642    0.145780
  H     -3.805289    1.418636   -0.747434
  H     -4.519063    1.750371    0.860309
  H     -1.890921   -2.925179   -1.167828
  H     -2.997020   -3.576736    0.086289
  H     -1.293681   -3.186255    0.484067

 Total Charge           Charge          ....    0
 Multiplicity           Mult            ....    1
 Number of Electrons    NEL             ....  174
 Basis Dimension        Dim             ....  316

ORBITAL ENERGIES
----------------

  NO   OCC          E(Eh)            E(eV)
   0   2.0000     -88.031711     -2395.4646
   1   2.0000     -87.969317     -2393.7668
   2   2.0000     -76.416123     -2079.3884
   3   2.0000     -18.811678      -511.8918
   4   2.0000     -18.803035      -511.6566
   5   2.0000     -18.777772      -510.9692
   6   2.0000     -18.771625      -510.8019
   7   2.0000     -18.736682      -509.8510
   8   2.0000     -18.735063      -509.8070
   9   2.0000     -10.016670      -272.5674
  10   2.0000     -10.008912      -272.3563
  11   2.0000      -9.952808      -270.8297
  12   2.0000      -9.947099      -270.6743
  13   2.0000      -9.942398      -270.5464
  14   2.0000      -9.932561      -270.2787
  15   2.0000      -9.927245      -270.1341
  16   2.0000      -9.911415      -269.7033
  17   2.0000      -9.889901      -269.1179
  18   2.0000      -9.887597      -269.0552
  19   2.0000      -7.676640      -208.8920
  20   2.0000      -7.614532      -207.2020
  21   2.0000      -6.411845      -174.4752
  22   2.0000      -5.704884      -155.2378
  23   2.0000      -5.701315      -155.1407
  24   2.0000      -5.693046      -154.9157
  25   2.0000      -5.643853      -153.5770
  26   2.0000      -5.635085      -153.3385
  27   2.0000      -5.634194      -153.3142
  28   2.0000      -4.634567      -126.1130
  29   2.0000      -4.634005      -126.0977
  30   2.0000      -4.632225      -126.0492
  31   2.0000      -1.020173       -27.7603
  32   2.0000      -1.009736       -27.4763
  33   2.0000      -0.969060       -26.3695
  34   2.0000      -0.924170       -25.1480
  35   2.0000      -0.918324       -24.9889
  36   2.0000      -0.912961       -24.8429
  37   2.0000      -0.764048       -20.7908
  38   2.0000      -0.711160       -19.3516
  39   2.0000      -0.709001       -19.2929
  40   2.0000      -0.686678       -18.6855
  41   2.0000      -0.655010       -17.8237
  42   2.0000      -0.622360       -16.9353
  43   2.0000      -0.616574       -16.7778
  44   2.0000      -0.605646       -16.4805
  45   2.0000      -0.588353       -16.0099
  46   2.0000      -0.561266       -15.2728
  47   2.0000      -0.513859       -13.9828
  48   2.0000      -0.507646       -13.8138
  49   2.0000      -0.498522       -13.5655
  50   2.0000      -0.481164       -13.0931
  51   2.0000      -0.460806       -12.5392
  52   2.0000      -0.452508       -12.3134
  53   2.0000      -0.449295       -12.2259
  54   2.0000      -0.441663       -12.0183
  55   2.0000      -0.420954       -11.4547
  56   2.0000      -0.414951       -11.2914
  57   2.0000      -0.412789       -11.2325
  58   2.0000      -0.408074       -11.1043
  59   2.0000      -0.407367       -11.0850
  60   2.0000      -0.397561       -10.8182
  61   2.0000      -0.388553       -10.5731
  62   2.0000      -0.385369       -10.4864
  63   2.0000      -0.373766       -10.1707
  64   2.0000      -0.371793       -10.1170
  65   2.0000      -0.364341        -9.9142
  66   2.0000      -0.359150        -9.7730
  67   2.0000      -0.356412        -9.6985
  68   2.0000      -0.349433        -9.5085
  69   2.0000      -0.340496        -9.2654
  70   2.0000      -0.335986        -9.1426
  71   2.0000      -0.321974        -8.7614
  72   2.0000      -0.316340        -8.6080
  73   2.0000      -0.306353        -8.3363
  74   2.0000      -0.303166        -8.2496
  75   2.0000      -0.296098        -8.0572
  76   2.0000      -0.284469        -7.7408
  77   2.0000      -0.281885        -7.6705
  78   2.0000      -0.265009        -7.2113
  79   2.0000      -0.261667        -7.1203
  80   2.0000      -0.253278        -6.8921
  81   2.0000      -0.248416        -6.7598
  82   2.0000      -0.235145        -6.3986
  83   2.0000      -0.225131        -6.1261
  84   2.0000      -0.197283        -5.3684
  85   2.0000      -0.188050        -5.1171
  86   2.0000      -0.178870        -4.8673
  87   0.0000      -0.043103        -1.1729
  88   0.0000      -0.034155        -0.9294
  89   0.0000      -0.025769        -0.7012
  90   0.0000       0.007429         0.2022
  91   0.0000       0.027455         0.7471

MULLIKEN ATOMIC CHARGES
-----------------------
   0 C :   -0.290015
   1 C :   -0.041495
   2 O :   -0.219240
   3 C :    0.088134
   4 O :   -0.204556
   5 C :    0.008850
   6 C :   -0.313452
   7 H :    0.155319
   8 C :    0.164813
   9 O :   -0.186307
  10 O :   -0.215264
  11 C :   -0.030281
  12 C :   -0.287482
  13 S :   -0.096984
  14 P :    0.642637
  15 S :   -0.331584
  16 O :   -0.354405
  17 C :   -0.102922
  18 O :   -0.395531
  19 C :   -0.088563
  20 H :    0.112068
  21 H :    0.126795
  22 H :    0.111516
  23 H :    0.135046
  24 H :    0.097857
  25 H :    0.113988
  26 H :    0.108134
  27 H :    0.110429
  28 H :    0.125899
  29 H :    0.113574
  30 H :    0.125333
  31 H :    0.111100
  32 H :    0.114713
  33 H :    0.116766
  34 H :    0.125916
  35 H :    0.115993
  36 H :    0.112973
  37 H :    0.120225
Sum of atomic charges:    0.0000000

LOEWDIN ATOMIC CHARGES
----------------------
   0 C :   -0.351566
   1 C :   -0.112514
   2 O :   -0.046679
   3 C :    0.023021
   4 O :   -0.172675
   5 C :   -0.251446
   6 C :   -0.257541
   7 H :    0.152549
   8 C :   -0.007894
   9 O :   -0.161698
  10 O :   -0.037834
  11 C :   -0.105977
  12 C :   -0.352638
  13 S :    0.107798
  14 P :    0.593041
  15 S :   -0.302371
  16 O :   -0.234485
  17 C :   -0.213011
  18 O :   -0.258519
  19 C :   -0.210394
  20 H :    0.124336
  21 H :    0.126372
  22 H :    0.131326
  23 H :    0.118937
  24 H :    0.113738
  25 H :    0.143829
  26 H :    0.138525
  27 H :    0.119801
  28 H :    0.120202
  29 H :    0.132167
  30 H :    0.127148
  31 H :    0.124969
  32 H :    0.111036
  33 H :    0.106299
  34 H :    0.123835
  35 H :    0.110638
  36 H :    0.114872
  37 H :    0.112807

  Mayer bond orders larger than 0.100000
B(  0-C ,  1-C ) :   1.1604 B(  0-C , 20-H ) :   0.9488 B(  0-C , 21-H ) :   0.9438
B(  0-C , 22-H ) :   0.9422 B(  1-C ,  2-O ) :   0.9005 B(  1-C , 23-H ) :   0.9085
B(  1-C , 24-H ) :   0.9335 B(  2-O ,  3-C ) :   1.2557 B(  3-C ,  4-O ) :   1.9804
B(  3-C ,  5-C ) :   1.0095 B(  5-C ,  6-C ) :   1.0343 B(  5-C , 25-H ) :   0.8832
B(  5-C , 26-H ) :   0.8805 B(  6-C ,  7-H ) :   0.8705 B(  6-C ,  8-C ) :   0.8968
B(  6-C , 13-S ) :   1.0330 B(  8-C ,  9-O ) :   2.0254 B(  8-C , 10-O ) :   1.2790
B( 10-O , 11-C ) :   0.8871 B( 11-C , 12-C ) :   1.1533 B( 11-C , 27-H ) :   0.9261
B( 11-C , 28-H ) :   0.9206 B( 12-C , 29-H ) :   0.9433 B( 12-C , 30-H ) :   0.9419
B( 12-C , 31-H ) :   0.9498 B( 13-S , 14-P ) :   0.9347 B( 13-S , 15-S ) :   0.1203
B( 14-P , 15-S ) :   1.5687 B( 14-P , 16-O ) :   1.1307 B( 14-P , 18-O ) :   1.0796
B( 16-O , 17-C ) :   0.9292 B( 17-C , 32-H ) :   0.9470 B( 17-C , 33-H ) :   0.9358
B( 17-C , 34-H ) :   0.9604 B( 18-O , 19-C ) :   0.9309 B( 19-C , 35-H ) :   0.9493
B( 19-C , 36-H ) :   0.9560 B( 19-C , 37-H ) :   0.9417

Dispersion correction           -0.056082509
FINAL SINGLE POINT ENERGY     -1979.004390709502

DIPOLE MOMENT
-------------

Method             : SCF
Type of density    : Electron Density
Multiplicity       :   1
Irrep              :   0
Energy             : -1979.1322368757705590 Eh
Relativity type    :
Basis              : AO
                                X                 Y                 Z
Electronic contribution:    -16.246068097       0.438369180      -4.318196494
Nuclear contribution   :     17.207731092      -0.354755524       3.444697001
                        -----------------------------------------
Total Dipole Moment    :      0.961662995       0.083613657      -0.873499494
                        -----------------------------------------
Magnitude (a.u.)       :      1.301840361
Magnitude (Debye)      :      3.309015226

Rotational constants in cm-1:             0.013980             0.008581             0.007240
Rotational constants in MHz :           419.096631           257.254717           217.059986

                             ****ORCA TERMINATED NORMALLY****
TOTAL RUN TIME: 0 days 0 hours 0 minutes 41 seconds 785 msec
