                         Program Version 6.0.0  -   RELEASE  -
|  1> ! pbe def2-sv(p) def2/J RI DEFGRID1 loosescf d4 GCP(DFT/SV(P)) printgap
|  2> %output
|  3>     printlevel normal
|  4> end
|  5> * xyz 0 1
|  6> C 3.8884502872 1.2417052564 -1.639022518
|  7> C 2.4720042745 1.5323278469 -1.1915441144
|  8> O 1.7614112585 0.3177782947 -0.9002521617
|  9> P 2.0535322715 -0.5593407943 0.3880066359
| 10> S 2.7536988679 0.4632998064 1.9124793669
| 11> O 2.9875281372 -1.6867968973 -0.2247318014
| 12> C 3.184428592 -3.0056876067 0.3197944796
| 13> C 3.5297799194 -2.9926949351 1.7945265521
| 14> S 0.2097393072 -1.5358780181 0.6676105038
| 15> C -0.5528684637 -0.2515206162 1.6981190698
| 16> S -0.7493589612 1.3424804105 0.855723248
| 17> P -1.9401303136 0.7391326263 -0.8003761874
| 18> S -1.1571214443 -0.1264017962 -2.3687991124
| 19> O -2.5694079331 2.1166408806 -1.2594393813
| 20> C -3.0447218404 3.1931799727 -0.4170917379
| 21> C -4.1659785608 2.7629271937 0.5042315213
| 22> O -3.0954215139 -0.097341745 -0.0848701971
| 23> C -3.5741355009 -1.3859003521 -0.5182101389
| 24> C -3.3211487533 -2.4341336799 0.5470753227
| 25> H 3.8791041089 0.5750432905 -2.4973515693
| 26> H 4.3837224951 2.170677263 -1.9029801875
| 27> H 4.4346588159 0.7618094381 -0.8270892513
| 28> H 1.8805438184 2.0019961437 -1.9796501321
| 29> H 2.4659246066 2.1642802441 -0.2961285638
| 30> H 2.2744240567 -3.5850533586 0.1387250522
| 31> H 4.0027969772 -3.409128721 -0.2793768752
| 32> H 2.6923201829 -2.6063756116 2.3742669801
| 33> H 3.7488532835 -4.0044595796 2.1202805936
| 34> H 4.3956121584 -2.3603086226 1.9766891493
| 35> H 0.0883374688 -0.0475678463 2.5563593937
| 36> H -1.5243846956 -0.6284057776 2.0072126107
| 37> H -2.1975560453 3.584109564 0.1520534955
| 38> H -3.3800572274 3.9411285617 -1.1376668613
| 39> H -4.5377663607 3.6325490678 1.0372736809
| 40> H -4.9758890057 2.3209494222 -0.0701461422
| 41> H -3.8034750951 2.0331774943 1.2243147546
| 42> H -4.6435300061 -1.2542793713 -0.6943965588
| 43> H -3.0801851626 -1.6496139001 -1.4593538347
| 44> H -2.2528197866 -2.600875634 0.6738612707
| 45> H -3.7540354815 -2.1209018521 1.4931155304
| 46> H -3.7846169542 -3.3648753339 0.2364639688
| 47> *
| 48>
| 49>                          ****END OF INPUT****

CARTESIAN COORDINATES (ANGSTROEM)
---------------------------------
  C      3.888450    1.241705   -1.639023
  C      2.472004    1.532328   -1.191544
  O      1.761411    0.317778   -0.900252
  P      2.053532   -0.559341    0.388007
  S      2.753699    0.463300    1.912479
  O      2.987528   -1.686797   -0.224732
  C      3.184429   -3.005688    0.319794
  C      3.529780   -2.992695    1.794527
  S      0.209739   -1.535878    0.667611
  C     -0.552868   -0.251521    1.698119
  S     -0.749359    1.342480    0.855723
  P     -1.940130    0.739133   -0.800376
  S     -1.157121   -0.126402   -2.368799
  O     -2.569408    2.116641   -1.259439
  C     -3.044722    3.193180   -0.417092
  C     -4.165979    2.762927    0.504232
  O     -3.095422   -0.097342   -0.084870
  C     -3.574136   -1.385900   -0.518210
  C     -3.321149   -2.434134    0.547075
  H      3.879104    0.575043   -2.497352
  H      4.383722    2.170677   -1.902980
  H      4.434659    0.761809   -0.827089
  H      1.880544    2.001996   -1.979650
  H      2.465925    2.164280   -0.296129
  H      2.274424   -3.585053    0.138725
  H      4.002797   -3.409129   -0.279377
  H      2.692320   -2.606376    2.374267
  H      3.748853   -4.004460    2.120281
  H      4.395612   -2.360309    1.976689
  H      0.088337   -0.047568    2.556359
  H     -1.524385   -0.628406    2.007213
  H     -2.197556    3.584110    0.152053
  H     -3.380057    3.941129   -1.137667
  H     -4.537766    3.632549    1.037274
  H     -4.975889    2.320949   -0.070146
  H     -3.803475    2.033177    1.224315
  H     -4.643530   -1.254279   -0.694397
  H     -3.080185   -1.649614   -1.459354
  H     -2.252820   -2.600876    0.673861
  H     -3.754035   -2.120902    1.493116
  H     -3.784617   -3.364875    0.236464

 Total Charge           Charge          ....    0
 Multiplicity           Mult            ....    1
 Number of Electrons    NEL             ....  202
 Basis Dimension        Dim             ....  334

ORBITAL ENERGIES
----------------

  NO   OCC          E(Eh)            E(eV)
   0   2.0000     -88.046242     -2395.8600
   1   2.0000     -88.043055     -2395.7733
   2   2.0000     -87.984467     -2394.1791
   3   2.0000     -87.973931     -2393.8924
   4   2.0000     -76.424936     -2079.6282
   5   2.0000     -76.422426     -2079.5599
   6   2.0000     -18.793006      -511.3837
   7   2.0000     -18.791320      -511.3378
   8   2.0000     -18.788271      -511.2548
   9   2.0000     -18.778186      -510.9804
  10   2.0000      -9.961524      -271.0669
  11   2.0000      -9.958049      -270.9723
  12   2.0000      -9.956723      -270.9362
  13   2.0000      -9.951678      -270.7989
  14   2.0000      -9.938509      -270.4406
  15   2.0000      -9.890853      -269.1438
  16   2.0000      -9.887501      -269.0526
  17   2.0000      -9.883754      -268.9506
  18   2.0000      -9.874050      -268.6866
  19   2.0000      -7.691004      -209.2829
  20   2.0000      -7.687765      -209.1947
  21   2.0000      -7.629431      -207.6074
  22   2.0000      -7.619333      -207.3326
  23   2.0000      -6.422076      -174.7536
  24   2.0000      -6.419632      -174.6871
  25   2.0000      -5.718805      -155.6166
  26   2.0000      -5.715758      -155.5337
  27   2.0000      -5.715565      -155.5284
  28   2.0000      -5.712183      -155.4364
  29   2.0000      -5.708000      -155.3226
  30   2.0000      -5.704742      -155.2339
  31   2.0000      -5.658256      -153.9690
  32   2.0000      -5.650241      -153.7509
  33   2.0000      -5.649520      -153.7313
  34   2.0000      -5.648489      -153.7032
  35   2.0000      -5.639677      -153.4634
  36   2.0000      -5.639454      -153.4573
  37   2.0000      -4.644565      -126.3850
  38   2.0000      -4.643946      -126.3682
  39   2.0000      -4.642660      -126.3332
  40   2.0000      -4.642596      -126.3315
  41   2.0000      -4.641372      -126.2982
  42   2.0000      -4.639742      -126.2538
  43   2.0000      -0.981779       -26.7156
  44   2.0000      -0.981372       -26.7045
  45   2.0000      -0.944049       -25.6889
  46   2.0000      -0.939160       -25.5558
  47   2.0000      -0.766595       -20.8601
  48   2.0000      -0.720710       -19.6115
  49   2.0000      -0.708633       -19.2829
  50   2.0000      -0.694295       -18.8927
  51   2.0000      -0.683706       -18.6046
  52   2.0000      -0.671081       -18.2610
  53   2.0000      -0.648054       -17.6344
  54   2.0000      -0.638359       -17.3706
  55   2.0000      -0.595351       -16.2003
  56   2.0000      -0.590796       -16.0764
  57   2.0000      -0.577602       -15.7173
  58   2.0000      -0.572407       -15.5760
  59   2.0000      -0.562571       -15.3083
  60   2.0000      -0.499760       -13.5992
  61   2.0000      -0.490397       -13.3444
  62   2.0000      -0.478675       -13.0254
  63   2.0000      -0.464903       -12.6507
  64   2.0000      -0.459953       -12.5160
  65   2.0000      -0.444706       -12.1011
  66   2.0000      -0.440366       -11.9830
  67   2.0000      -0.433045       -11.7838
  68   2.0000      -0.426601       -11.6084
  69   2.0000      -0.416678       -11.3384
  70   2.0000      -0.404781       -11.0147
  71   2.0000      -0.398955       -10.8561
  72   2.0000      -0.392382       -10.6773
  73   2.0000      -0.386372       -10.5137
  74   2.0000      -0.382475       -10.4077
  75   2.0000      -0.378243       -10.2925
  76   2.0000      -0.369696       -10.0599
  77   2.0000      -0.358875        -9.7655
  78   2.0000      -0.352716        -9.5979
  79   2.0000      -0.347322        -9.4511
  80   2.0000      -0.346785        -9.4365
  81   2.0000      -0.342647        -9.3239
  82   2.0000      -0.340279        -9.2595
  83   2.0000      -0.338711        -9.2168
  84   2.0000      -0.332153        -9.0384
  85   2.0000      -0.319386        -8.6909
  86   2.0000      -0.310238        -8.4420
  87   2.0000      -0.301748        -8.2110
  88   2.0000      -0.295469        -8.0401
  89   2.0000      -0.282518        -7.6877
  90   2.0000      -0.280543        -7.6340
  91   2.0000      -0.271922        -7.3994
  92   2.0000      -0.267357        -7.2752
  93   2.0000      -0.262511        -7.1433
  94   2.0000      -0.259944        -7.0734
  95   2.0000      -0.235962        -6.4209
  96   2.0000      -0.219302        -5.9675
  97   2.0000      -0.205517        -5.5924
  98   2.0000      -0.198939        -5.4134
  99   2.0000      -0.190441        -5.1822
 100   2.0000      -0.185605        -5.0506
 101   0.0000      -0.050329        -1.3695
 102   0.0000      -0.024752        -0.6735
 103   0.0000      -0.009607        -0.2614
 104   0.0000      -0.000618        -0.0168
 105   0.0000       0.017593         0.4787

MULLIKEN ATOMIC CHARGES
-----------------------
   0 C :   -0.303844
   1 C :   -0.002793
   2 O :   -0.341819
   3 P :    0.631750
   4 S :   -0.339984
   5 O :   -0.370055
   6 C :   -0.010163
   7 C :   -0.310658
   8 S :   -0.105558
   9 C :   -0.351580
  10 S :   -0.104475
  11 P :    0.615132
  12 S :   -0.292890
  13 O :   -0.364429
  14 C :   -0.017822
  15 C :   -0.302905
  16 O :   -0.392572
  17 C :   -0.006520
  18 C :   -0.315543
  19 H :    0.117114
  20 H :    0.107844
  21 H :    0.118590
  22 H :    0.105973
  23 H :    0.108137
  24 H :    0.113764
  25 H :    0.111132
  26 H :    0.122226
  27 H :    0.111076
  28 H :    0.127711
  29 H :    0.193302
  30 H :    0.187279
  31 H :    0.118862
  32 H :    0.111657
  33 H :    0.112127
  34 H :    0.116282
  35 H :    0.121967
  36 H :    0.101737
  37 H :    0.116427
  38 H :    0.131466
  39 H :    0.116742
  40 H :    0.115318
Sum of atomic charges:   -0.0000000

LOEWDIN ATOMIC CHARGES
----------------------
   0 C :   -0.363546
   1 C :   -0.120408
   2 O :   -0.226507
   3 P :    0.576284
   4 S :   -0.324554
   5 O :   -0.241307
   6 C :   -0.112753
   7 C :   -0.370512
   8 S :    0.091237
   9 C :   -0.474627
  10 S :    0.083828
  11 P :    0.560728
  12 S :   -0.298466
  13 O :   -0.243165
  14 C :   -0.115945
  15 C :   -0.366264
  16 O :   -0.255424
  17 C :   -0.120011
  18 C :   -0.361617
  19 H :    0.126495
  20 H :    0.128252
  21 H :    0.120773
  22 H :    0.118917
  23 H :    0.105974
  24 H :    0.110131
  25 H :    0.122651
  26 H :    0.119325
  27 H :    0.129795
  28 H :    0.130114
  29 H :    0.132090
  30 H :    0.130918
  31 H :    0.109322
  32 H :    0.122816
  33 H :    0.130537
  34 H :    0.126760
  35 H :    0.120628
  36 H :    0.115688
  37 H :    0.109193
  38 H :    0.115389
  39 H :    0.123551
  40 H :    0.133709

  Mayer bond orders larger than 0.100000
B(  0-C ,  1-C ) :   1.1639 B(  0-C , 19-H ) :   0.9466 B(  0-C , 20-H ) :   0.9407
B(  0-C , 21-H ) :   0.9374 B(  1-C ,  2-O ) :   0.9056 B(  1-C , 22-H ) :   0.9294
B(  1-C , 23-H ) :   0.9130 B(  2-O ,  3-P ) :   1.1453 B(  3-P ,  4-S ) :   1.5887
B(  3-P ,  5-O ) :   1.1162 B(  3-P ,  8-S ) :   0.9385 B(  4-S ,  8-S ) :   0.1057
B(  5-O ,  6-C ) :   0.9147 B(  6-C ,  7-C ) :   1.1633 B(  6-C , 24-H ) :   0.9289
B(  6-C , 25-H ) :   0.9343 B(  7-C , 26-H ) :   0.9330 B(  7-C , 27-H ) :   0.9347
B(  7-C , 28-H ) :   0.9420 B(  8-S ,  9-C ) :   1.0148 B(  9-C , 10-S ) :   1.0054
B(  9-C , 29-H ) :   0.8826 B(  9-C , 30-H ) :   0.8976 B( 10-S , 11-P ) :   0.9408
B( 10-S , 12-S ) :   0.1039 B( 11-P , 12-S ) :   1.6733 B( 11-P , 13-O ) :   1.1332
B( 11-P , 16-O ) :   1.0581 B( 13-O , 14-C ) :   0.9074 B( 14-C , 15-C ) :   1.1669
B( 14-C , 31-H ) :   0.9224 B( 14-C , 32-H ) :   0.9340 B( 15-C , 33-H ) :   0.9368
B( 15-C , 34-H ) :   0.9457 B( 15-C , 35-H ) :   0.9355 B( 16-O , 17-C ) :   0.9079
B( 17-C , 18-C ) :   1.1672 B( 17-C , 36-H ) :   0.9332 B( 17-C , 37-H ) :   0.8946
B( 18-C , 38-H ) :   0.9311 B( 18-C , 39-H ) :   0.9435 B( 18-C , 40-H ) :   0.9375

Dispersion correction           -0.067278388
FINAL SINGLE POINT ENERGY     -2929.513036930662

DIPOLE MOMENT
-------------

Method             : SCF
Type of density    : Electron Density
Multiplicity       :   1
Irrep              :   0
Energy             : -2929.6305800010491112 Eh
Relativity type    :
Basis              : AO
                                X                 Y                 Z
Electronic contribution:      2.742598494       3.897744835      -4.217887308
Nuclear contribution   :     -3.605480052      -4.326397323       4.847824086
                        -----------------------------------------
Total Dipole Moment    :     -0.862881558      -0.428652488       0.629936778
                        -----------------------------------------
Magnitude (a.u.)       :      1.151141991
Magnitude (Debye)      :      2.925970410

Rotational constants in cm-1:             0.012311             0.005376             0.004827
Rotational constants in MHz :           369.062093           161.163376           144.709852

                             ****ORCA TERMINATED NORMALLY****
TOTAL RUN TIME: 0 days 0 hours 0 minutes 21 seconds 201 msec
