                         Program Version 6.0.0  -   RELEASE  -
|  1> ! pbe def2-sv(p) def2/J RI DEFGRID1 loosescf d4 GCP(DFT/SV(P)) printgap
|  2> %output
|  3>     printlevel normal
|  4> end
|  5> * xyz 0 1
|  6> C 0.5633254839 -0.8341390106 3.3804251023
|  7> C 1.7382361232 -0.2595097989 2.6165397367
|  8> O 2.0000012532 -1.1298831995 1.4844886823
|  9> P 2.6279747533 -0.6314862022 0.1311335241
| 10> S 2.7990197694 -2.145496174 -1.0972005204
| 11> O 3.9447065316 0.0983667486 0.6397842451
| 12> C 4.7194769791 1.0496830195 -0.1140349807
| 13> C 5.141174652 0.5202667926 -1.4685085308
| 14> S 1.422534959 0.9868412437 -0.5673313944
| 15> C 0.1552122699 -0.0482179104 -1.3307420908
| 16> S -1.0047642451 -0.7428410025 -0.1294130059
| 17> P -2.7462080312 0.4267047304 -0.5792009864
| 18> S -2.5813708851 1.6781911026 -2.075402513
| 19> O -3.2185283239 1.0915566984 0.7865472322
| 20> C -2.776738126 2.3901704564 1.2145632369
| 21> C -1.33161449 2.3787671478 1.6698551062
| 22> O -3.8766994067 -0.6384735326 -0.8438986267
| 23> C -4.0501212181 -1.9074174389 -0.1695424311
| 24> C -4.0898992608 -1.7703791494 1.3365086801
| 25> H 0.3563717576 -0.2083141458 4.2426462953
| 26> H -0.3128450545 -0.8765910462 2.7382141682
| 27> H 0.7939009377 -1.8418713948 3.7129352085
| 28> H 2.6435616102 -0.2352812548 3.2254094695
| 29> H 1.5241539882 0.7473139323 2.2452624901
| 30> H 4.1262511241 1.9618538483 -0.2226682296
| 31> H 5.5824514996 1.2410735264 0.5260881316
| 32> H 4.2669085861 0.3515764984 -2.0960913238
| 33> H 5.7895494152 1.2428988753 -1.9534175476
| 34> H 5.6705844289 -0.4234670329 -1.3595182115
| 35> H 0.6494870862 -0.8794309562 -1.8363802864
| 36> H -0.396931462 0.5801170137 -2.0341199082
| 37> H -2.9171122744 3.0962144883 0.3897550185
| 38> H -3.4534752642 2.6383208436 2.0335080018
| 39> H -0.6726463855 2.1997361418 0.8209830415
| 40> H -1.0845615598 3.343636192 2.1006703816
| 41> H -1.1781744378 1.6022090618 2.4145556194
| 42> H -4.9973665666 -2.27307141 -0.5687120379
| 43> H -3.2381216981 -2.5710164761 -0.4788370053
| 44> H -4.8548753168 -1.0568318799 1.6304213217
| 45> H -4.3101823086 -2.7385687155 1.7754489979
| 46> H -3.1249208258 -1.4266597456 1.7045188418
| 47> *
| 48>
| 49>                          ****END OF INPUT****

CARTESIAN COORDINATES (ANGSTROEM)
---------------------------------
  C      0.563325   -0.834139    3.380425
  C      1.738236   -0.259510    2.616540
  O      2.000001   -1.129883    1.484489
  P      2.627975   -0.631486    0.131134
  S      2.799020   -2.145496   -1.097201
  O      3.944707    0.098367    0.639784
  C      4.719477    1.049683   -0.114035
  C      5.141175    0.520267   -1.468509
  S      1.422535    0.986841   -0.567331
  C      0.155212   -0.048218   -1.330742
  S     -1.004764   -0.742841   -0.129413
  P     -2.746208    0.426705   -0.579201
  S     -2.581371    1.678191   -2.075403
  O     -3.218528    1.091557    0.786547
  C     -2.776738    2.390170    1.214563
  C     -1.331614    2.378767    1.669855
  O     -3.876699   -0.638474   -0.843899
  C     -4.050121   -1.907417   -0.169542
  C     -4.089899   -1.770379    1.336509
  H      0.356372   -0.208314    4.242646
  H     -0.312845   -0.876591    2.738214
  H      0.793901   -1.841871    3.712935
  H      2.643562   -0.235281    3.225409
  H      1.524154    0.747314    2.245262
  H      4.126251    1.961854   -0.222668
  H      5.582451    1.241074    0.526088
  H      4.266909    0.351576   -2.096091
  H      5.789549    1.242899   -1.953418
  H      5.670584   -0.423467   -1.359518
  H      0.649487   -0.879431   -1.836380
  H     -0.396931    0.580117   -2.034120
  H     -2.917112    3.096214    0.389755
  H     -3.453475    2.638321    2.033508
  H     -0.672646    2.199736    0.820983
  H     -1.084562    3.343636    2.100670
  H     -1.178174    1.602209    2.414556
  H     -4.997367   -2.273071   -0.568712
  H     -3.238122   -2.571016   -0.478837
  H     -4.854875   -1.056832    1.630421
  H     -4.310182   -2.738569    1.775449
  H     -3.124921   -1.426660    1.704519

 Total Charge           Charge          ....    0
 Multiplicity           Mult            ....    1
 Number of Electrons    NEL             ....  202
 Basis Dimension        Dim             ....  334

ORBITAL ENERGIES
----------------

  NO   OCC          E(Eh)            E(eV)
   0   2.0000     -88.048532     -2395.9224
   1   2.0000     -88.046733     -2395.8734
   2   2.0000     -87.990516     -2394.3437
   3   2.0000     -87.984533     -2394.1808
   4   2.0000     -76.430022     -2079.7666
   5   2.0000     -76.427965     -2079.7107
   6   2.0000     -18.797760      -511.5131
   7   2.0000     -18.794476      -511.4237
   8   2.0000     -18.794057      -511.4123
   9   2.0000     -18.792955      -511.3823
  10   2.0000      -9.962310      -271.0882
  11   2.0000      -9.960439      -271.0373
  12   2.0000      -9.957159      -270.9481
  13   2.0000      -9.955334      -270.8984
  14   2.0000      -9.951501      -270.7941
  15   2.0000      -9.893481      -269.2153
  16   2.0000      -9.889634      -269.1106
  17   2.0000      -9.887695      -269.0579
  18   2.0000      -9.885323      -268.9933
  19   2.0000      -7.692823      -209.3324
  20   2.0000      -7.691129      -209.2862
  21   2.0000      -7.635628      -207.7760
  22   2.0000      -7.629803      -207.6175
  23   2.0000      -6.427520      -174.9017
  24   2.0000      -6.425401      -174.8440
  25   2.0000      -5.720355      -155.6588
  26   2.0000      -5.718882      -155.6187
  27   2.0000      -5.717333      -155.5765
  28   2.0000      -5.715616      -155.5298
  29   2.0000      -5.710281      -155.3846
  30   2.0000      -5.708352      -155.3322
  31   2.0000      -5.664538      -154.1399
  32   2.0000      -5.658897      -153.9864
  33   2.0000      -5.656334      -153.9167
  34   2.0000      -5.655669      -153.8986
  35   2.0000      -5.650390      -153.7549
  36   2.0000      -5.649789      -153.7386
  37   2.0000      -4.650142      -126.5368
  38   2.0000      -4.649189      -126.5109
  39   2.0000      -4.648263      -126.4857
  40   2.0000      -4.648037      -126.4795
  41   2.0000      -4.647429      -126.4630
  42   2.0000      -4.645352      -126.4065
  43   2.0000      -0.991643       -26.9840
  44   2.0000      -0.989838       -26.9349
  45   2.0000      -0.948458       -25.8088
  46   2.0000      -0.947837       -25.7920
  47   2.0000      -0.765192       -20.8219
  48   2.0000      -0.725398       -19.7391
  49   2.0000      -0.716717       -19.5028
  50   2.0000      -0.694709       -18.9040
  51   2.0000      -0.693196       -18.8628
  52   2.0000      -0.681475       -18.5439
  53   2.0000      -0.652840       -17.7647
  54   2.0000      -0.640554       -17.4304
  55   2.0000      -0.604002       -16.4357
  56   2.0000      -0.591821       -16.1043
  57   2.0000      -0.579797       -15.7771
  58   2.0000      -0.574687       -15.6380
  59   2.0000      -0.565169       -15.3790
  60   2.0000      -0.510411       -13.8890
  61   2.0000      -0.497080       -13.5262
  62   2.0000      -0.477616       -12.9966
  63   2.0000      -0.476131       -12.9562
  64   2.0000      -0.464913       -12.6509
  65   2.0000      -0.451535       -12.2869
  66   2.0000      -0.444801       -12.1036
  67   2.0000      -0.438874       -11.9424
  68   2.0000      -0.436840       -11.8870
  69   2.0000      -0.423589       -11.5265
  70   2.0000      -0.417329       -11.3561
  71   2.0000      -0.403158       -10.9705
  72   2.0000      -0.400175       -10.8893
  73   2.0000      -0.389755       -10.6058
  74   2.0000      -0.385441       -10.4884
  75   2.0000      -0.374268       -10.1843
  76   2.0000      -0.363425        -9.8893
  77   2.0000      -0.361139        -9.8271
  78   2.0000      -0.357733        -9.7344
  79   2.0000      -0.352965        -9.6047
  80   2.0000      -0.350744        -9.5442
  81   2.0000      -0.350249        -9.5308
  82   2.0000      -0.346062        -9.4168
  83   2.0000      -0.342918        -9.3313
  84   2.0000      -0.339746        -9.2450
  85   2.0000      -0.323663        -8.8073
  86   2.0000      -0.314481        -8.5575
  87   2.0000      -0.300516        -8.1775
  88   2.0000      -0.298864        -8.1325
  89   2.0000      -0.297741        -8.1019
  90   2.0000      -0.295473        -8.0402
  91   2.0000      -0.280629        -7.6363
  92   2.0000      -0.275452        -7.4954
  93   2.0000      -0.267187        -7.2705
  94   2.0000      -0.259527        -7.0621
  95   2.0000      -0.236784        -6.4432
  96   2.0000      -0.223855        -6.0914
  97   2.0000      -0.213036        -5.7970
  98   2.0000      -0.206508        -5.6194
  99   2.0000      -0.202202        -5.5022
 100   2.0000      -0.198831        -5.4105
 101   0.0000      -0.045529        -1.2389
 102   0.0000      -0.034977        -0.9518
 103   0.0000      -0.018695        -0.5087
 104   0.0000       0.000687         0.0187
 105   0.0000       0.011737         0.3194

MULLIKEN ATOMIC CHARGES
-----------------------
   0 C :   -0.304322
   1 C :   -0.014042
   2 O :   -0.352760
   3 P :    0.591205
   4 S :   -0.301852
   5 O :   -0.382715
   6 C :   -0.011464
   7 C :   -0.310016
   8 S :   -0.114332
   9 C :   -0.351393
  10 S :   -0.111394
  11 P :    0.597568
  12 S :   -0.305872
  13 O :   -0.373115
  14 C :    0.004572
  15 C :   -0.342621
  16 O :   -0.357750
  17 C :   -0.005790
  18 C :   -0.323410
  19 H :    0.108537
  20 H :    0.145486
  21 H :    0.121228
  22 H :    0.108875
  23 H :    0.105362
  24 H :    0.113443
  25 H :    0.110062
  26 H :    0.128084
  27 H :    0.112763
  28 H :    0.128182
  29 H :    0.197317
  30 H :    0.195602
  31 H :    0.114147
  32 H :    0.103547
  33 H :    0.136256
  34 H :    0.111031
  35 H :    0.120794
  36 H :    0.114642
  37 H :    0.118913
  38 H :    0.126064
  39 H :    0.118133
  40 H :    0.131033
Sum of atomic charges:   -0.0000000

LOEWDIN ATOMIC CHARGES
----------------------
   0 C :   -0.357257
   1 C :   -0.114835
   2 O :   -0.234491
   3 P :    0.564860
   4 S :   -0.302330
   5 O :   -0.247116
   6 C :   -0.113922
   7 C :   -0.368715
   8 S :    0.077003
   9 C :   -0.490491
  10 S :    0.079431
  11 P :    0.570769
  12 S :   -0.298177
  13 O :   -0.243543
  14 C :   -0.117400
  15 C :   -0.373198
  16 O :   -0.235221
  17 C :   -0.113672
  18 C :   -0.366980
  19 H :    0.128239
  20 H :    0.121503
  21 H :    0.130359
  22 H :    0.116640
  23 H :    0.103198
  24 H :    0.108507
  25 H :    0.121746
  26 H :    0.122733
  27 H :    0.130848
  28 H :    0.131279
  29 H :    0.127805
  30 H :    0.126062
  31 H :    0.111800
  32 H :    0.118169
  33 H :    0.112722
  34 H :    0.130715
  35 H :    0.123515
  36 H :    0.124837
  37 H :    0.112883
  38 H :    0.130648
  39 H :    0.133685
  40 H :    0.117389

  Mayer bond orders larger than 0.100000
B(  0-C ,  1-C ) :   1.1698 B(  0-C , 19-H ) :   0.9385 B(  0-C , 20-H ) :   0.9314
B(  0-C , 21-H ) :   0.9454 B(  1-C ,  2-O ) :   0.8848 B(  1-C , 22-H ) :   0.9316
B(  1-C , 23-H ) :   0.9089 B(  2-O ,  3-P ) :   1.1419 B(  3-P ,  4-S ) :   1.6513
B(  3-P ,  5-O ) :   1.0891 B(  3-P ,  8-S ) :   0.9383 B(  4-S ,  8-S ) :   0.1082
B(  4-S , 29-H ) :   0.1001 B(  5-O ,  6-C ) :   0.9124 B(  6-C ,  7-C ) :   1.1668
B(  6-C , 24-H ) :   0.9271 B(  6-C , 25-H ) :   0.9333 B(  7-C , 26-H ) :   0.9324
B(  7-C , 27-H ) :   0.9349 B(  7-C , 28-H ) :   0.9431 B(  8-S ,  9-C ) :   1.0090
B(  9-C , 10-S ) :   1.0100 B(  9-C , 29-H ) :   0.8601 B(  9-C , 30-H ) :   0.8465
B( 10-S , 11-P ) :   0.9376 B( 10-S , 12-S ) :   0.1129 B( 11-P , 12-S ) :   1.6225
B( 11-P , 13-O ) :   1.0871 B( 11-P , 16-O ) :   1.1514 B( 12-S , 30-H ) :   0.1205
B( 13-O , 14-C ) :   0.9131 B( 14-C , 15-C ) :   1.1608 B( 14-C , 31-H ) :   0.9137
B( 14-C , 32-H ) :   0.9331 B( 15-C , 33-H ) :   0.9263 B( 15-C , 34-H ) :   0.9370
B( 15-C , 35-H ) :   0.9385 B( 16-O , 17-C ) :   0.9013 B( 17-C , 18-C ) :   1.1684
B( 17-C , 36-H ) :   0.9333 B( 17-C , 37-H ) :   0.9211 B( 18-C , 38-H ) :   0.9418
B( 18-C , 39-H ) :   0.9344 B( 18-C , 40-H ) :   0.9353

Dispersion correction           -0.064396045
FINAL SINGLE POINT ENERGY     -2929.516480446342

DIPOLE MOMENT
-------------

Method             : SCF
Type of density    : Electron Density
Multiplicity       :   1
Irrep              :   0
Energy             : -2929.6376557183448313 Eh
Relativity type    :
Basis              : AO
                                X                 Y                 Z
Electronic contribution:     -0.801057183      -3.686359414     -16.575756597
Nuclear contribution   :      0.878919970       4.378107243      18.378245877
                        -----------------------------------------
Total Dipole Moment    :      0.077862787       0.691747829       1.802489280
                        -----------------------------------------
Magnitude (a.u.)       :      1.932238411
Magnitude (Debye)      :      4.911359729

Rotational constants in cm-1:             0.012529             0.004491             0.004351
Rotational constants in MHz :           375.600191           134.649437           130.436062

                             ****ORCA TERMINATED NORMALLY****
TOTAL RUN TIME: 0 days 0 hours 0 minutes 21 seconds 426 msec
