                         Program Version 6.0.1  -  RELEASE   -
|  1> ! pbe def2-sv(p) def2/J RI DEFGRID1 loosescf d4 GCP(DFT/SV(P)) printgap
|  2> %output
|  3>     printlevel normal
|  4> end
|  5> * xyz 0 1
|  6> C 4.2486843784 0.3604751289 -2.3444685989
|  7> C 4.1947268574 -1.155441553 -2.2456450491
|  8> O 2.8586140838 -1.5792282072 -1.9128206544
|  9> C 2.5901130172 -1.9384210302 -0.6757139104
| 10> O 3.400876519 -2.0316546259 0.2189497687
| 11> C 1.1108300601 -2.2441774949 -0.5022376604
| 12> C 0.3232415349 -0.9286984306 -0.5297140336
| 13> H 0.3904066648 -0.4686515108 -1.5190313583
| 14> C 0.9468444809 0.0155935672 0.4826242053
| 15> O 1.9786333438 0.601603691 0.2481790801
| 16> O 0.3113022396 0.0289927316 1.6355201467
| 17> C 0.9056824176 0.7631801433 2.7262933071
| 18> C 0.6181750569 2.2519269017 2.6394193066
| 19> S -1.4232380012 -1.2877160856 -0.1562763578
| 20> P -2.0958257176 0.7092300384 0.1018952864
| 21> S -0.9923131378 2.0954482839 -0.7332316483
| 22> O -3.5998833521 0.6345118409 -0.4380031453
| 23> C -3.8813366151 0.4515344334 -1.8304259067
| 24> O -2.3602034553 0.9603313067 1.6373392125
| 25> C -3.1813470041 0.0725882733 2.4241145679
| 26> H 5.2658362265 0.67381761 -2.5541732761
| 27> H 3.5926476324 0.7102989239 -3.1364983651
| 28> H 3.9224491421 0.8032060983 -1.4052734229
| 29> H 4.8767545131 -1.5235764028 -1.4742468456
| 30> H 4.4144963368 -1.6263733895 -3.2049001852
| 31> H 0.9662450892 -2.7468147878 0.4546752678
| 32> H 0.7699888511 -2.8820236016 -1.3171308503
| 33> H 0.4570580801 0.3201363193 3.6154228399
| 34> H 1.9835462811 0.5766747209 2.7046380299
| 35> H 1.0686953678 2.6705519748 1.7414917636
| 36> H -0.4539210009 2.429663551 2.602615911
| 37> H 1.0374623392 2.7466201054 3.5090449932
| 38> H -3.3001729757 1.156593167 -2.4266779558
| 39> H -4.9447507323 0.646950799 -1.9417906732
| 40> H -3.6447935888 -0.5708877538 -2.1242259457
| 41> H -3.1070765602 0.4438606872 3.4427919249
| 42> H -2.7984013147 -0.9454617553 2.3539688704
| 43> H -4.2098408537 0.1114517945 2.0715088735
| 44> *
| 45>
| 46>                          ****END OF INPUT****

CARTESIAN COORDINATES (ANGSTROEM)
---------------------------------
  C      4.248684    0.360475   -2.344469
  C      4.194727   -1.155442   -2.245645
  O      2.858614   -1.579228   -1.912821
  C      2.590113   -1.938421   -0.675714
  O      3.400877   -2.031655    0.218950
  C      1.110830   -2.244177   -0.502238
  C      0.323242   -0.928698   -0.529714
  H      0.390407   -0.468652   -1.519031
  C      0.946844    0.015594    0.482624
  O      1.978633    0.601604    0.248179
  O      0.311302    0.028993    1.635520
  C      0.905682    0.763180    2.726293
  C      0.618175    2.251927    2.639419
  S     -1.423238   -1.287716   -0.156276
  P     -2.095826    0.709230    0.101895
  S     -0.992313    2.095448   -0.733232
  O     -3.599883    0.634512   -0.438003
  C     -3.881337    0.451534   -1.830426
  O     -2.360203    0.960331    1.637339
  C     -3.181347    0.072588    2.424115
  H      5.265836    0.673818   -2.554173
  H      3.592648    0.710299   -3.136498
  H      3.922449    0.803206   -1.405273
  H      4.876755   -1.523576   -1.474247
  H      4.414496   -1.626373   -3.204900
  H      0.966245   -2.746815    0.454675
  H      0.769989   -2.882024   -1.317131
  H      0.457058    0.320136    3.615423
  H      1.983546    0.576675    2.704638
  H      1.068695    2.670552    1.741492
  H     -0.453921    2.429664    2.602616
  H      1.037462    2.746620    3.509045
  H     -3.300173    1.156593   -2.426678
  H     -4.944751    0.646951   -1.941791
  H     -3.644794   -0.570888   -2.124226
  H     -3.107077    0.443861    3.442792
  H     -2.798401   -0.945462    2.353969
  H     -4.209841    0.111452    2.071509

 Total Charge           Charge          ....    0
 Multiplicity           Mult            ....    1
 Number of Electrons    NEL             ....  174
 Basis Dimension        Dim             ....  316

ORBITAL ENERGIES
----------------

  NO   OCC          E(Eh)            E(eV)
   0   2.0000     -88.044692     -2395.8179
   1   2.0000     -87.989186     -2394.3075
   2   2.0000     -76.431328     -2079.8022
   3   2.0000     -18.808349      -511.8012
   4   2.0000     -18.801601      -511.6176
   5   2.0000     -18.798713      -511.5390
   6   2.0000     -18.797954      -511.5183
   7   2.0000     -18.737775      -509.8808
   8   2.0000     -18.731997      -509.7235
   9   2.0000     -10.015880      -272.5460
  10   2.0000     -10.007925      -272.3295
  11   2.0000      -9.956184      -270.9215
  12   2.0000      -9.950010      -270.7535
  13   2.0000      -9.949717      -270.7456
  14   2.0000      -9.945391      -270.6278
  15   2.0000      -9.939600      -270.4703
  16   2.0000      -9.915800      -269.8226
  17   2.0000      -9.873499      -268.6716
  18   2.0000      -9.873341      -268.6673
  19   2.0000      -7.689589      -209.2444
  20   2.0000      -7.634190      -207.7369
  21   2.0000      -6.428485      -174.9280
  22   2.0000      -5.717304      -155.5758
  23   2.0000      -5.714137      -155.4896
  24   2.0000      -5.706729      -155.2880
  25   2.0000      -5.663282      -154.1057
  26   2.0000      -5.654535      -153.8677
  27   2.0000      -5.654420      -153.8646
  28   2.0000      -4.651213      -126.5659
  29   2.0000      -4.650390      -126.5436
  30   2.0000      -4.648746      -126.4988
  31   2.0000      -1.015619       -27.6364
  32   2.0000      -1.005080       -27.3496
  33   2.0000      -0.994279       -27.0557
  34   2.0000      -0.949829       -25.8462
  35   2.0000      -0.919541       -25.0220
  36   2.0000      -0.909684       -24.7538
  37   2.0000      -0.770585       -20.9687
  38   2.0000      -0.713375       -19.4119
  39   2.0000      -0.700431       -19.0597
  40   2.0000      -0.689722       -18.7683
  41   2.0000      -0.660940       -17.9851
  42   2.0000      -0.643587       -17.5129
  43   2.0000      -0.626268       -17.0416
  44   2.0000      -0.612118       -16.6566
  45   2.0000      -0.587620       -15.9900
  46   2.0000      -0.567460       -15.4414
  47   2.0000      -0.522554       -14.2194
  48   2.0000      -0.497558       -13.5392
  49   2.0000      -0.495922       -13.4947
  50   2.0000      -0.482354       -13.1255
  51   2.0000      -0.479490       -13.0476
  52   2.0000      -0.458200       -12.4683
  53   2.0000      -0.442505       -12.0412
  54   2.0000      -0.440889       -11.9972
  55   2.0000      -0.437105       -11.8942
  56   2.0000      -0.424118       -11.5408
  57   2.0000      -0.420514       -11.4428
  58   2.0000      -0.416284       -11.3277
  59   2.0000      -0.408689       -11.1210
  60   2.0000      -0.402674       -10.9573
  61   2.0000      -0.399769       -10.8783
  62   2.0000      -0.393481       -10.7072
  63   2.0000      -0.380577       -10.3560
  64   2.0000      -0.372502       -10.1363
  65   2.0000      -0.364082        -9.9072
  66   2.0000      -0.352657        -9.5963
  67   2.0000      -0.345986        -9.4148
  68   2.0000      -0.344167        -9.3653
  69   2.0000      -0.334322        -9.0974
  70   2.0000      -0.330883        -9.0038
  71   2.0000      -0.325020        -8.8442
  72   2.0000      -0.319670        -8.6987
  73   2.0000      -0.316078        -8.6009
  74   2.0000      -0.312494        -8.5034
  75   2.0000      -0.305013        -8.2998
  76   2.0000      -0.295426        -8.0390
  77   2.0000      -0.286680        -7.8010
  78   2.0000      -0.276940        -7.5359
  79   2.0000      -0.268239        -7.2992
  80   2.0000      -0.261120        -7.1054
  81   2.0000      -0.251350        -6.8396
  82   2.0000      -0.239630        -6.5207
  83   2.0000      -0.219128        -5.9628
  84   2.0000      -0.215852        -5.8736
  85   2.0000      -0.207020        -5.6333
  86   2.0000      -0.205782        -5.5996
  87   0.0000      -0.043796        -1.1918
  88   0.0000      -0.030900        -0.8408
  89   0.0000      -0.022527        -0.6130
  90   0.0000       0.009911         0.2697
  91   0.0000       0.011278         0.3069

MULLIKEN ATOMIC CHARGES
-----------------------
   0 C :   -0.305113
   1 C :   -0.021826
   2 O :   -0.235524
   3 C :    0.095655
   4 O :   -0.192556
   5 C :   -0.055169
   6 C :   -0.278452
   7 H :    0.153174
   8 C :    0.181467
   9 O :   -0.182837
  10 O :   -0.223398
  11 C :   -0.009506
  12 C :   -0.315229
  13 S :   -0.101284
  14 P :    0.608823
  15 S :   -0.294359
  16 O :   -0.388137
  17 C :   -0.100858
  18 O :   -0.357753
  19 C :   -0.109693
  20 H :    0.105459
  21 H :    0.109517
  22 H :    0.146245
  23 H :    0.112528
  24 H :    0.100284
  25 H :    0.109178
  26 H :    0.122588
  27 H :    0.095642
  28 H :    0.113765
  29 H :    0.136510
  30 H :    0.127462
  31 H :    0.105125
  32 H :    0.120434
  33 H :    0.127509
  34 H :    0.116326
  35 H :    0.131808
  36 H :    0.124355
  37 H :    0.127841
Sum of atomic charges:    0.0000000

LOEWDIN ATOMIC CHARGES
----------------------
   0 C :   -0.357790
   1 C :   -0.110562
   2 O :   -0.059035
   3 C :    0.026357
   4 O :   -0.159973
   5 C :   -0.239257
   6 C :   -0.261840
   7 H :    0.142860
   8 C :    0.005581
   9 O :   -0.143756
  10 O :   -0.056863
  11 C :   -0.105606
  12 C :   -0.363157
  13 S :    0.087198
  14 P :    0.571620
  15 S :   -0.283518
  16 O :   -0.259549
  17 C :   -0.215595
  18 O :   -0.232985
  19 C :   -0.210477
  20 H :    0.126855
  21 H :    0.123269
  22 H :    0.137266
  23 H :    0.120762
  24 H :    0.115209
  25 H :    0.137085
  26 H :    0.140855
  27 H :    0.115036
  28 H :    0.122656
  29 H :    0.132487
  30 H :    0.125257
  31 H :    0.127107
  32 H :    0.113291
  33 H :    0.123645
  34 H :    0.109604
  35 H :    0.126029
  36 H :    0.111935
  37 H :    0.117997

  Mayer bond orders larger than 0.100000
B(  0-C ,  1-C ) :   1.1774 B(  0-C , 20-H ) :   0.9429 B(  0-C , 21-H ) :   0.9505
B(  0-C , 22-H ) :   0.9328 B(  1-C ,  2-O ) :   0.9073 B(  1-C , 23-H ) :   0.9070
B(  1-C , 24-H ) :   0.9374 B(  2-O ,  3-C ) :   1.2192 B(  3-C ,  4-O ) :   2.0668
B(  3-C ,  5-C ) :   1.0119 B(  5-C ,  6-C ) :   1.0545 B(  5-C , 25-H ) :   0.8972
B(  5-C , 26-H ) :   0.8938 B(  6-C ,  7-H ) :   0.8670 B(  6-C ,  8-C ) :   0.9158
B(  6-C , 13-S ) :   1.0013 B(  8-C ,  9-O ) :   1.9807 B(  8-C , 10-O ) :   1.2500
B( 10-O , 11-C ) :   0.9042 B( 11-C , 12-C ) :   1.1749 B( 11-C , 27-H ) :   0.9370
B( 11-C , 28-H ) :   0.9202 B( 12-C , 29-H ) :   0.9400 B( 12-C , 30-H ) :   0.9382
B( 12-C , 31-H ) :   0.9403 B( 13-S , 14-P ) :   0.9621 B( 13-S , 15-S ) :   0.1131
B( 14-P , 15-S ) :   1.6441 B( 14-P , 16-O ) :   1.0729 B( 14-P , 18-O ) :   1.1188
B( 16-O , 17-C ) :   0.9293 B( 17-C , 32-H ) :   0.9363 B( 17-C , 33-H ) :   0.9584
B( 17-C , 34-H ) :   0.9466 B( 18-O , 19-C ) :   0.9150 B( 19-C , 35-H ) :   0.9586
B( 19-C , 36-H ) :   0.9372 B( 19-C , 37-H ) :   0.9477

Dispersion correction           -0.053614060
FINAL SINGLE POINT ENERGY     -1979.019433285525

DIPOLE MOMENT
-------------

Method             : SCF
Type of density    : Electron Density
Multiplicity       :   1
Irrep              :   0
Energy             : -1979.1496691075917624 Eh
Relativity type    :
Basis              : AO
                                X                 Y                 Z
Electronic contribution:     -9.131511600      -2.370576530      -1.191586774
Nuclear contribution   :      7.878844606       1.692252083       1.261410893
                        -----------------------------------------
Total Dipole Moment    :     -1.252666995      -0.678324447       0.069824119
                        -----------------------------------------
Magnitude (a.u.)       :      1.426244741
Magnitude (Debye)      :      3.625226031

Rotational constants in cm-1:             0.015595             0.006492             0.005953
Rotational constants in MHz :           467.539836           194.612661           178.462373

                             ****ORCA TERMINATED NORMALLY****
TOTAL RUN TIME: 0 days 0 hours 0 minutes 32 seconds 334 msec
