                         Program Version 6.0.0  -   RELEASE  -
|  1> ! pbe def2-sv(p) def2/J RI DEFGRID1 loosescf d4 GCP(DFT/SV(P)) printgap
|  2> %output
|  3>     printlevel normal
|  4> end
|  5> * xyz 0 1
|  6> C 4.1610677256 -0.6565212811 -1.8160338105
|  7> C 2.8311663905 0.0494263781 -1.9628410656
|  8> O 2.4002817092 0.7089286935 -0.747667391
|  9> P 2.261629236 0.0694596853 0.6874241722
| 10> S 1.2222721693 1.2236310531 1.876590224
| 11> O 3.7710078854 -0.1461258333 1.132226245
| 12> C 4.1570361542 -0.3160017579 2.5072804717
| 13> C 3.6376982659 -1.6113799659 3.0968929382
| 14> S 1.5074913308 -1.9055367509 0.4100762425
| 15> C -0.2328607451 -1.4681668833 0.2995892978
| 16> S -0.6041209441 -0.708181087 -1.3343870777
| 17> P -2.2740487184 0.4529485765 -0.8135170775
| 18> S -3.1267786888 1.3464210367 -2.3345049075
| 19> O -1.6076610341 1.3370035275 0.3186004452
| 20> C -2.3275902525 2.0048513429 1.3756847157
| 21> C -3.2208606809 3.1076007017 0.8494612379
| 22> O -3.2444702537 -0.48248587 0.0448216694
| 23> C -4.3223175339 -1.2093340209 -0.5689555292
| 24> C -3.8196297878 -2.4078363015 -1.3480151166
| 25> H 4.9145679073 0.0324076043 -1.4432944471
| 26> H 4.0724299917 -1.4917983152 -1.1245736756
| 27> H 4.4663532301 -1.0327197775 -2.7876056893
| 28> H 2.0445329631 -0.6484507182 -2.2661549503
| 29> H 2.8843380549 0.8689659419 -2.6812717152
| 30> H 5.2471996961 -0.2970302582 2.4733483885
| 31> H 3.7881863695 0.5417124975 3.0786692131
| 32> H 4.07115154 -1.7538821484 4.0816211257
| 33> H 2.5540586148 -1.5697491553 3.1920115105
| 34> H 3.9028515714 -2.4513467464 2.4600995417
| 35> H -0.4732506802 -0.7468337015 1.0817932305
| 36> H -0.7984743321 -2.3897543012 0.4021084703
| 37> H -2.9061012964 1.2581014477 1.9241697665
| 38> H -1.5296665413 2.394571718 2.0121575696
| 39> H -3.681216609 3.6256449664 1.684736634
| 40> H -2.6397174437 3.8152505285 0.2629005431
| 41> H -3.9999643012 2.6896457435 0.2130901402
| 42> H -4.955095887 -1.5057624069 0.2686264864
| 43> H -4.8680117729 -0.5265482999 -1.2281370141
| 44> H -3.1881861388 -2.0754483422 -2.1714878731
| 45> H -3.2454941755 -3.0698202605 -0.7052003138
| 46> H -4.6669935552 -2.9509933966 -1.753746994
| 47> *
| 48>
| 49>                          ****END OF INPUT****

CARTESIAN COORDINATES (ANGSTROEM)
---------------------------------
  C      4.161068   -0.656521   -1.816034
  C      2.831166    0.049426   -1.962841
  O      2.400282    0.708929   -0.747667
  P      2.261629    0.069460    0.687424
  S      1.222272    1.223631    1.876590
  O      3.771008   -0.146126    1.132226
  C      4.157036   -0.316002    2.507280
  C      3.637698   -1.611380    3.096893
  S      1.507491   -1.905537    0.410076
  C     -0.232861   -1.468167    0.299589
  S     -0.604121   -0.708181   -1.334387
  P     -2.274049    0.452949   -0.813517
  S     -3.126779    1.346421   -2.334505
  O     -1.607661    1.337004    0.318600
  C     -2.327590    2.004851    1.375685
  C     -3.220861    3.107601    0.849461
  O     -3.244470   -0.482486    0.044822
  C     -4.322318   -1.209334   -0.568956
  C     -3.819630   -2.407836   -1.348015
  H      4.914568    0.032408   -1.443294
  H      4.072430   -1.491798   -1.124574
  H      4.466353   -1.032720   -2.787606
  H      2.044533   -0.648451   -2.266155
  H      2.884338    0.868966   -2.681272
  H      5.247200   -0.297030    2.473348
  H      3.788186    0.541712    3.078669
  H      4.071152   -1.753882    4.081621
  H      2.554059   -1.569749    3.192012
  H      3.902852   -2.451347    2.460100
  H     -0.473251   -0.746834    1.081793
  H     -0.798474   -2.389754    0.402108
  H     -2.906101    1.258101    1.924170
  H     -1.529667    2.394572    2.012158
  H     -3.681217    3.625645    1.684737
  H     -2.639717    3.815251    0.262901
  H     -3.999964    2.689646    0.213090
  H     -4.955096   -1.505762    0.268626
  H     -4.868012   -0.526548   -1.228137
  H     -3.188186   -2.075448   -2.171488
  H     -3.245494   -3.069820   -0.705200
  H     -4.666994   -2.950993   -1.753747

 Total Charge           Charge          ....    0
 Multiplicity           Mult            ....    1
 Number of Electrons    NEL             ....  202
 Basis Dimension        Dim             ....  334

ORBITAL ENERGIES
----------------

  NO   OCC          E(Eh)            E(eV)
   0   2.0000     -88.052858     -2396.0401
   1   2.0000     -88.040419     -2395.7016
   2   2.0000     -87.984890     -2394.1906
   3   2.0000     -87.982360     -2394.1217
   4   2.0000     -76.428776     -2079.7327
   5   2.0000     -76.422667     -2079.5665
   6   2.0000     -18.797143      -511.4963
   7   2.0000     -18.793687      -511.4022
   8   2.0000     -18.789295      -511.2827
   9   2.0000     -18.782666      -511.1023
  10   2.0000      -9.958313      -270.9795
  11   2.0000      -9.956079      -270.9187
  12   2.0000      -9.953521      -270.8491
  13   2.0000      -9.952331      -270.8167
  14   2.0000      -9.946008      -270.6446
  15   2.0000      -9.888124      -269.0695
  16   2.0000      -9.887263      -269.0461
  17   2.0000      -9.886399      -269.0226
  18   2.0000      -9.876183      -268.7446
  19   2.0000      -7.697574      -209.4616
  20   2.0000      -7.685377      -209.1297
  21   2.0000      -7.630032      -207.6237
  22   2.0000      -7.627548      -207.5561
  23   2.0000      -6.426076      -174.8624
  24   2.0000      -6.420164      -174.7016
  25   2.0000      -5.725326      -155.7940
  26   2.0000      -5.722032      -155.7044
  27   2.0000      -5.714786      -155.5072
  28   2.0000      -5.713733      -155.4786
  29   2.0000      -5.709696      -155.3687
  30   2.0000      -5.702094      -155.1619
  31   2.0000      -5.659006      -153.9894
  32   2.0000      -5.656573      -153.9232
  33   2.0000      -5.650589      -153.7603
  34   2.0000      -5.650147      -153.7483
  35   2.0000      -5.648096      -153.6925
  36   2.0000      -5.647690      -153.6815
  37   2.0000      -4.648830      -126.5011
  38   2.0000      -4.647932      -126.4767
  39   2.0000      -4.646332      -126.4331
  40   2.0000      -4.643035      -126.3434
  41   2.0000      -4.641918      -126.3130
  42   2.0000      -4.640412      -126.2720
  43   2.0000      -0.988385       -26.8953
  44   2.0000      -0.984289       -26.7839
  45   2.0000      -0.946431       -25.7537
  46   2.0000      -0.940295       -25.5867
  47   2.0000      -0.765694       -20.8356
  48   2.0000      -0.721688       -19.6381
  49   2.0000      -0.709895       -19.3172
  50   2.0000      -0.692506       -18.8440
  51   2.0000      -0.687262       -18.7014
  52   2.0000      -0.674286       -18.3482
  53   2.0000      -0.652891       -17.7661
  54   2.0000      -0.637090       -17.3361
  55   2.0000      -0.600100       -16.3295
  56   2.0000      -0.589320       -16.0362
  57   2.0000      -0.578024       -15.7288
  58   2.0000      -0.573635       -15.6094
  59   2.0000      -0.563426       -15.3316
  60   2.0000      -0.496434       -13.5087
  61   2.0000      -0.493809       -13.4372
  62   2.0000      -0.473036       -12.8720
  63   2.0000      -0.467944       -12.7334
  64   2.0000      -0.453620       -12.3436
  65   2.0000      -0.450755       -12.2657
  66   2.0000      -0.445491       -12.1224
  67   2.0000      -0.434949       -11.8356
  68   2.0000      -0.428840       -11.6693
  69   2.0000      -0.420716       -11.4483
  70   2.0000      -0.411370       -11.1939
  71   2.0000      -0.403081       -10.9684
  72   2.0000      -0.397744       -10.8232
  73   2.0000      -0.392813       -10.6890
  74   2.0000      -0.383105       -10.4248
  75   2.0000      -0.369943       -10.0667
  76   2.0000      -0.368133       -10.0174
  77   2.0000      -0.360120        -9.7994
  78   2.0000      -0.353505        -9.6194
  79   2.0000      -0.350748        -9.5443
  80   2.0000      -0.348212        -9.4753
  81   2.0000      -0.342231        -9.3126
  82   2.0000      -0.339093        -9.2272
  83   2.0000      -0.334520        -9.1028
  84   2.0000      -0.331526        -9.0213
  85   2.0000      -0.321186        -8.7399
  86   2.0000      -0.314364        -8.5543
  87   2.0000      -0.295990        -8.0543
  88   2.0000      -0.293463        -7.9855
  89   2.0000      -0.292282        -7.9534
  90   2.0000      -0.283971        -7.7272
  91   2.0000      -0.276117        -7.5135
  92   2.0000      -0.268390        -7.3033
  93   2.0000      -0.264900        -7.2083
  94   2.0000      -0.259205        -7.0533
  95   2.0000      -0.239066        -6.5053
  96   2.0000      -0.221079        -6.0159
  97   2.0000      -0.204918        -5.5761
  98   2.0000      -0.203549        -5.5389
  99   2.0000      -0.199493        -5.4285
 100   2.0000      -0.195562        -5.3215
 101   0.0000      -0.044406        -1.2084
 102   0.0000      -0.024275        -0.6606
 103   0.0000      -0.018667        -0.5080
 104   0.0000       0.005404         0.1470
 105   0.0000       0.013708         0.3730

MULLIKEN ATOMIC CHARGES
-----------------------
   0 C :   -0.306276
   1 C :   -0.005348
   2 O :   -0.350011
   3 P :    0.610472
   4 S :   -0.310544
   5 O :   -0.374152
   6 C :   -0.001082
   7 C :   -0.319576
   8 S :   -0.110753
   9 C :   -0.354560
  10 S :   -0.084589
  11 P :    0.620633
  12 S :   -0.318228
  13 O :   -0.359253
  14 C :   -0.006070
  15 C :   -0.307705
  16 O :   -0.393132
  17 C :   -0.007955
  18 C :   -0.316521
  19 H :    0.122367
  20 H :    0.115205
  21 H :    0.114366
  22 H :    0.117384
  23 H :    0.113738
  24 H :    0.106060
  25 H :    0.114455
  26 H :    0.115524
  27 H :    0.127568
  28 H :    0.116452
  29 H :    0.203356
  30 H :    0.184657
  31 H :    0.100958
  32 H :    0.114656
  33 H :    0.106916
  34 H :    0.125877
  35 H :    0.122541
  36 H :    0.102580
  37 H :    0.112767
  38 H :    0.130510
  39 H :    0.112953
  40 H :    0.113761
Sum of atomic charges:    0.0000000

LOEWDIN ATOMIC CHARGES
----------------------
   0 C :   -0.366760
   1 C :   -0.114629
   2 O :   -0.229643
   3 P :    0.577080
   4 S :   -0.301356
   5 O :   -0.240644
   6 C :   -0.117554
   7 C :   -0.371453
   8 S :    0.083213
   9 C :   -0.475370
  10 S :    0.087380
  11 P :    0.563233
  12 S :   -0.318522
  13 O :   -0.232164
  14 C :   -0.113125
  15 C :   -0.365860
  16 O :   -0.252518
  17 C :   -0.123136
  18 C :   -0.366558
  19 H :    0.128569
  20 H :    0.116170
  21 H :    0.131867
  22 H :    0.102527
  23 H :    0.125286
  24 H :    0.119357
  25 H :    0.113255
  26 H :    0.132386
  27 H :    0.121222
  28 H :    0.122809
  29 H :    0.126101
  30 H :    0.131057
  31 H :    0.108630
  32 H :    0.117251
  33 H :    0.127879
  34 H :    0.131317
  35 H :    0.119718
  36 H :    0.116679
  37 H :    0.109784
  38 H :    0.123738
  39 H :    0.120971
  40 H :    0.131811

  Mayer bond orders larger than 0.100000
B(  0-C ,  1-C ) :   1.1689 B(  0-C , 19-H ) :   0.9429 B(  0-C , 20-H ) :   0.9386
B(  0-C , 21-H ) :   0.9359 B(  1-C ,  2-O ) :   0.8982 B(  1-C , 22-H ) :   0.9116
B(  1-C , 23-H ) :   0.9341 B(  2-O ,  3-P ) :   1.1574 B(  3-P ,  4-S ) :   1.6350
B(  3-P ,  5-O ) :   1.0942 B(  3-P ,  8-S ) :   0.9235 B(  4-S ,  8-S ) :   0.1081
B(  5-O ,  6-C ) :   0.9044 B(  6-C ,  7-C ) :   1.1655 B(  6-C , 24-H ) :   0.9336
B(  6-C , 25-H ) :   0.9157 B(  7-C , 26-H ) :   0.9375 B(  7-C , 27-H ) :   0.9345
B(  7-C , 28-H ) :   0.9446 B(  8-S ,  9-C ) :   1.0205 B(  9-C , 10-S ) :   0.9596
B(  9-C , 29-H ) :   0.8596 B(  9-C , 30-H ) :   0.9043 B( 10-S , 11-P ) :   0.9805
B( 11-P , 12-S ) :   1.6506 B( 11-P , 13-O ) :   1.1297 B( 11-P , 16-O ) :   1.0441
B( 13-O , 14-C ) :   0.9046 B( 14-C , 15-C ) :   1.1689 B( 14-C , 31-H ) :   0.9288
B( 14-C , 32-H ) :   0.9245 B( 15-C , 33-H ) :   0.9376 B( 15-C , 34-H ) :   0.9458
B( 15-C , 35-H ) :   0.9366 B( 16-O , 17-C ) :   0.9144 B( 17-C , 18-C ) :   1.1636
B( 17-C , 36-H ) :   0.9329 B( 17-C , 37-H ) :   0.9093 B( 18-C , 38-H ) :   0.9349
B( 18-C , 39-H ) :   0.9445 B( 18-C , 40-H ) :   0.9388

Dispersion correction           -0.065097475
FINAL SINGLE POINT ENERGY     -2929.515457405426

DIPOLE MOMENT
-------------

Method             : SCF
Type of density    : Electron Density
Multiplicity       :   1
Irrep              :   0
Energy             : -2929.6365881790529784 Eh
Relativity type    :
Basis              : AO
                                X                 Y                 Z
Electronic contribution:     -0.500040124       5.914582864      -5.871498362
Nuclear contribution   :      0.991685045      -7.278010558       6.706432706
                        -----------------------------------------
Total Dipole Moment    :      0.491644920      -1.363427695       0.834934344
                        -----------------------------------------
Magnitude (a.u.)       :      1.672652135
Magnitude (Debye)      :      4.251543852

Rotational constants in cm-1:             0.012853             0.004663             0.004383
Rotational constants in MHz :           385.317131           139.799549           131.397281

                             ****ORCA TERMINATED NORMALLY****
TOTAL RUN TIME: 0 days 0 hours 0 minutes 20 seconds 930 msec
