                         Program Version 6.0.0  -   RELEASE  -
|  1> ! pbe def2-sv(p) def2/J RI DEFGRID1 loosescf d4 GCP(DFT/SV(P)) printgap
|  2> %output
|  3>     printlevel normal
|  4> end
|  5> * xyz 0 1
|  6> C 4.7009829212 -1.673771812 -0.2066424622
|  7> C 4.6282881682 -0.6978995819 -1.3618539144
|  8> O 3.2675636625 -0.3997867813 -1.7617469787
|  9> P 2.1672541056 0.297706152 -0.8709023204
| 10> S 0.8178375301 1.1021319563 -2.0460604834
| 11> O 3.0505255882 1.2716054482 0.0108435414
| 12> C 2.5609335766 2.2160821565 0.9811921808
| 13> C 2.6369588716 1.6365093164 2.3791790478
| 14> S 1.4146521111 -1.1966189857 0.4484472402
| 15> C 0.0356654309 -1.7919276991 -0.5787705834
| 16> S -1.5173761934 -1.9479489245 0.3302816515
| 17> P -2.0878739352 0.1083225186 0.4173703169
| 18> S -0.8778273809 1.387210189 1.2638152789
| 19> O -3.5536315325 0.0056181872 1.0212697776
| 20> C -3.9125017641 -0.7348240268 2.204330376
| 21> C -3.028289987 -0.4171438808 3.3910076586
| 22> O -2.3540506187 0.5531757796 -1.0697918588
| 23> C -3.2629987857 -0.117274796 -1.9750258059
| 24> C -4.5997106343 0.5945200418 -2.0122836954
| 25> H 4.161807027 -2.5871290064 -0.4436449835
| 26> H 5.7422454552 -1.9133149096 -0.0145045579
| 27> H 4.2671705062 -1.2347083144 0.6896216015
| 28> H 5.0643481085 -1.1163695595 -2.270359
| 29> H 5.1219234018 0.2425858943 -1.1115487418
| 30> H 3.2173560833 3.0816462865 0.8728238515
| 31> H 1.5360067129 2.5031506055 0.731178523
| 32> H 3.6477639974 1.3003878724 2.5921941005
| 33> H 2.3513905192 2.4036005853 3.0911831363
| 34> H 1.9490481596 0.800284005 2.4792919187
| 35> H 0.2704461327 -2.7930007425 -0.9305024991
| 36> H -0.0917790141 -1.0922527853 -1.4100401513
| 37> H -4.9470875764 -0.4392247248 2.3876067125
| 38> H -3.8662018253 -1.8000186508 1.9618487814
| 39> H -2.0045892823 -0.7315759843 3.1913649567
| 40> H -3.025670946 0.652468849 3.5877007248
| 41> H -3.3961325557 -0.9441406844 4.2654154645
| 42> H -2.7608496577 -0.0736873268 -2.9440607177
| 43> H -3.3774388 -1.1589300923 -1.6609834103
| 44> H -5.0728215161 0.5584927368 -1.0345422777
| 45> H -4.4573283156 1.6343816203 -2.2937480146
| 46> H -5.2400611947 0.1088485927 -2.7419239711
| 47> *
| 48>
| 49>                          ****END OF INPUT****

CARTESIAN COORDINATES (ANGSTROEM)
---------------------------------
  C      4.700983   -1.673772   -0.206642
  C      4.628288   -0.697900   -1.361854
  O      3.267564   -0.399787   -1.761747
  P      2.167254    0.297706   -0.870902
  S      0.817838    1.102132   -2.046060
  O      3.050526    1.271605    0.010844
  C      2.560934    2.216082    0.981192
  C      2.636959    1.636509    2.379179
  S      1.414652   -1.196619    0.448447
  C      0.035665   -1.791928   -0.578771
  S     -1.517376   -1.947949    0.330282
  P     -2.087874    0.108323    0.417370
  S     -0.877827    1.387210    1.263815
  O     -3.553632    0.005618    1.021270
  C     -3.912502   -0.734824    2.204330
  C     -3.028290   -0.417144    3.391008
  O     -2.354051    0.553176   -1.069792
  C     -3.262999   -0.117275   -1.975026
  C     -4.599711    0.594520   -2.012284
  H      4.161807   -2.587129   -0.443645
  H      5.742245   -1.913315   -0.014505
  H      4.267171   -1.234708    0.689622
  H      5.064348   -1.116370   -2.270359
  H      5.121923    0.242586   -1.111549
  H      3.217356    3.081646    0.872824
  H      1.536007    2.503151    0.731179
  H      3.647764    1.300388    2.592194
  H      2.351391    2.403601    3.091183
  H      1.949048    0.800284    2.479292
  H      0.270446   -2.793001   -0.930502
  H     -0.091779   -1.092253   -1.410040
  H     -4.947088   -0.439225    2.387607
  H     -3.866202   -1.800019    1.961849
  H     -2.004589   -0.731576    3.191365
  H     -3.025671    0.652469    3.587701
  H     -3.396133   -0.944141    4.265415
  H     -2.760850   -0.073687   -2.944061
  H     -3.377439   -1.158930   -1.660983
  H     -5.072822    0.558493   -1.034542
  H     -4.457328    1.634382   -2.293748
  H     -5.240061    0.108849   -2.741924

 Total Charge           Charge          ....    0
 Multiplicity           Mult            ....    1
 Number of Electrons    NEL             ....  202
 Basis Dimension        Dim             ....  334

ORBITAL ENERGIES
----------------

  NO   OCC          E(Eh)            E(eV)
   0   2.0000     -88.044792     -2395.8206
   1   2.0000     -88.035102     -2395.5569
   2   2.0000     -87.974776     -2393.9154
   3   2.0000     -87.972511     -2393.8537
   4   2.0000     -76.422723     -2079.5680
   5   2.0000     -76.418942     -2079.4651
   6   2.0000     -18.792451      -511.3686
   7   2.0000     -18.791891      -511.3533
   8   2.0000     -18.785324      -511.1747
   9   2.0000     -18.779798      -511.0243
  10   2.0000      -9.959905      -271.0228
  11   2.0000      -9.953323      -270.8437
  12   2.0000      -9.951786      -270.8019
  13   2.0000      -9.950221      -270.7593
  14   2.0000      -9.947086      -270.6740
  15   2.0000      -9.886082      -269.0140
  16   2.0000      -9.883002      -268.9301
  17   2.0000      -9.882233      -268.9092
  18   2.0000      -9.878428      -268.8057
  19   2.0000      -7.689618      -209.2451
  20   2.0000      -7.679890      -208.9804
  21   2.0000      -7.619988      -207.3504
  22   2.0000      -7.617758      -207.2897
  23   2.0000      -6.419828      -174.6924
  24   2.0000      -6.416327      -174.5971
  25   2.0000      -5.717253      -155.5744
  26   2.0000      -5.714009      -155.4861
  27   2.0000      -5.707771      -155.3163
  28   2.0000      -5.707000      -155.2954
  29   2.0000      -5.704511      -155.2276
  30   2.0000      -5.696778      -155.0172
  31   2.0000      -5.649036      -153.7181
  32   2.0000      -5.646848      -153.6585
  33   2.0000      -5.640370      -153.4823
  34   2.0000      -5.640176      -153.4770
  35   2.0000      -5.638683      -153.4364
  36   2.0000      -5.637396      -153.4013
  37   2.0000      -4.642805      -126.3372
  38   2.0000      -4.642009      -126.3155
  39   2.0000      -4.639602      -126.2500
  40   2.0000      -4.639389      -126.2442
  41   2.0000      -4.637949      -126.2050
  42   2.0000      -4.636466      -126.1647
  43   2.0000      -0.985644       -26.8207
  44   2.0000      -0.982900       -26.7461
  45   2.0000      -0.942618       -25.6499
  46   2.0000      -0.937138       -25.5008
  47   2.0000      -0.759091       -20.6559
  48   2.0000      -0.717715       -19.5300
  49   2.0000      -0.709261       -19.3000
  50   2.0000      -0.689845       -18.7716
  51   2.0000      -0.687079       -18.6964
  52   2.0000      -0.674336       -18.3496
  53   2.0000      -0.647208       -17.6114
  54   2.0000      -0.628318       -17.0974
  55   2.0000      -0.591039       -16.0830
  56   2.0000      -0.585380       -15.9290
  57   2.0000      -0.573145       -15.5961
  58   2.0000      -0.571983       -15.5645
  59   2.0000      -0.561592       -15.2817
  60   2.0000      -0.501311       -13.6414
  61   2.0000      -0.493635       -13.4325
  62   2.0000      -0.471924       -12.8417
  63   2.0000      -0.469221       -12.7681
  64   2.0000      -0.453369       -12.3368
  65   2.0000      -0.448535       -12.2053
  66   2.0000      -0.437501       -11.9050
  67   2.0000      -0.434206       -11.8153
  68   2.0000      -0.429805       -11.6956
  69   2.0000      -0.420292       -11.4367
  70   2.0000      -0.411203       -11.1894
  71   2.0000      -0.396214       -10.7815
  72   2.0000      -0.389632       -10.6024
  73   2.0000      -0.384211       -10.4549
  74   2.0000      -0.383785       -10.4433
  75   2.0000      -0.365906        -9.9568
  76   2.0000      -0.355101        -9.6628
  77   2.0000      -0.353810        -9.6277
  78   2.0000      -0.352474        -9.5913
  79   2.0000      -0.346930        -9.4404
  80   2.0000      -0.345542        -9.4027
  81   2.0000      -0.342335        -9.3154
  82   2.0000      -0.338729        -9.2173
  83   2.0000      -0.337712        -9.1896
  84   2.0000      -0.328776        -8.9465
  85   2.0000      -0.318363        -8.6631
  86   2.0000      -0.313312        -8.5256
  87   2.0000      -0.295981        -8.0540
  88   2.0000      -0.289684        -7.8827
  89   2.0000      -0.287240        -7.8162
  90   2.0000      -0.283396        -7.7116
  91   2.0000      -0.274418        -7.4673
  92   2.0000      -0.270705        -7.3663
  93   2.0000      -0.260302        -7.0832
  94   2.0000      -0.252426        -6.8689
  95   2.0000      -0.240315        -6.5393
  96   2.0000      -0.219065        -5.9611
  97   2.0000      -0.198065        -5.3896
  98   2.0000      -0.193670        -5.2700
  99   2.0000      -0.184272        -5.0143
 100   2.0000      -0.175765        -4.7828
 101   0.0000      -0.037848        -1.0299
 102   0.0000      -0.028107        -0.7648
 103   0.0000      -0.016389        -0.4460
 104   0.0000       0.002687         0.0731
 105   0.0000       0.020741         0.5644

MULLIKEN ATOMIC CHARGES
-----------------------
   0 C :   -0.318344
   1 C :    0.007385
   2 O :   -0.366133
   3 P :    0.614531
   4 S :   -0.299110
   5 O :   -0.385754
   6 C :   -0.013235
   7 C :   -0.312512
   8 S :   -0.106059
   9 C :   -0.334950
  10 S :   -0.127809
  11 P :    0.605078
  12 S :   -0.307666
  13 O :   -0.380383
  14 C :   -0.013301
  15 C :   -0.311857
  16 O :   -0.342100
  17 C :   -0.014250
  18 C :   -0.286039
  19 H :    0.119493
  20 H :    0.111594
  21 H :    0.125194
  22 H :    0.107388
  23 H :    0.108310
  24 H :    0.103826
  25 H :    0.134319
  26 H :    0.109521
  27 H :    0.112307
  28 H :    0.140404
  29 H :    0.180593
  30 H :    0.191706
  31 H :    0.110507
  32 H :    0.114084
  33 H :    0.128867
  34 H :    0.129119
  35 H :    0.110617
  36 H :    0.112789
  37 H :    0.093806
  38 H :    0.118353
  39 H :    0.122641
  40 H :    0.107072
Sum of atomic charges:   -0.0000000

LOEWDIN ATOMIC CHARGES
----------------------
   0 C :   -0.368875
   1 C :   -0.109265
   2 O :   -0.246114
   3 P :    0.568884
   4 S :   -0.300641
   5 O :   -0.239848
   6 C :   -0.114391
   7 C :   -0.365811
   8 S :    0.071419
   9 C :   -0.482191
  10 S :    0.061132
  11 P :    0.569157
  12 S :   -0.298975
  13 O :   -0.246546
  14 C :   -0.114802
  15 C :   -0.371502
  16 O :   -0.224247
  17 C :   -0.117405
  18 C :   -0.358494
  19 H :    0.125299
  20 H :    0.130007
  21 H :    0.116961
  22 H :    0.120943
  23 H :    0.113920
  24 H :    0.118250
  25 H :    0.112319
  26 H :    0.121037
  27 H :    0.132334
  28 H :    0.122719
  29 H :    0.135407
  30 H :    0.121400
  31 H :    0.121737
  32 H :    0.108168
  33 H :    0.122078
  34 H :    0.130974
  35 H :    0.129754
  36 H :    0.121763
  37 H :    0.100158
  38 H :    0.125082
  39 H :    0.130022
  40 H :    0.128185

  Mayer bond orders larger than 0.100000
B(  0-C ,  1-C ) :   1.1688 B(  0-C , 19-H ) :   0.9431 B(  0-C , 20-H ) :   0.9360
B(  0-C , 21-H ) :   0.9384 B(  1-C ,  2-O ) :   0.9079 B(  1-C , 22-H ) :   0.9353
B(  1-C , 23-H ) :   0.9277 B(  2-O ,  3-P ) :   1.1194 B(  3-P ,  4-S ) :   1.6514
B(  3-P ,  5-O ) :   1.0981 B(  3-P ,  8-S ) :   0.9383 B(  4-S ,  8-S ) :   0.1182
B(  4-S , 30-H ) :   0.1238 B(  5-O ,  6-C ) :   0.8932 B(  6-C ,  7-C ) :   1.1725
B(  6-C , 24-H ) :   0.9337 B(  6-C , 25-H ) :   0.9028 B(  7-C , 26-H ) :   0.9455
B(  7-C , 27-H ) :   0.9399 B(  7-C , 28-H ) :   0.9311 B(  8-S ,  9-C ) :   0.9975
B(  9-C , 10-S ) :   0.9998 B(  9-C , 29-H ) :   0.9112 B(  9-C , 30-H ) :   0.8445
B( 10-S , 11-P ) :   0.9373 B( 10-S , 12-S ) :   0.1141 B( 11-P , 12-S ) :   1.6727
B( 11-P , 13-O ) :   1.0756 B( 11-P , 16-O ) :   1.1383 B( 13-O , 14-C ) :   0.9133
B( 14-C , 15-C ) :   1.1683 B( 14-C , 31-H ) :   0.9332 B( 14-C , 32-H ) :   0.9267
B( 15-C , 33-H ) :   0.9312 B( 15-C , 34-H ) :   0.9410 B( 15-C , 35-H ) :   0.9335
B( 16-O , 17-C ) :   0.8966 B( 17-C , 18-C ) :   1.1667 B( 17-C , 36-H ) :   0.9323
B( 17-C , 37-H ) :   0.9100 B( 18-C , 38-H ) :   0.9432 B( 18-C , 39-H ) :   0.9473
B( 18-C , 40-H ) :   0.9403

Dispersion correction           -0.066561976
FINAL SINGLE POINT ENERGY     -2929.506852166073

DIPOLE MOMENT
-------------

Method             : SCF
Type of density    : Electron Density
Multiplicity       :   1
Irrep              :   0
Energy             : -2929.6255286248306220 Eh
Relativity type    :
Basis              : AO
                                X                 Y                 Z
Electronic contribution:      0.822209031       1.623654501      -8.255602054
Nuclear contribution   :     -0.914301083      -2.760478943       8.816950942
                        -----------------------------------------
Total Dipole Moment    :     -0.092092052      -1.136824442       0.561348889
                        -----------------------------------------
Magnitude (a.u.)       :      1.271205464
Magnitude (Debye)      :      3.231147507

Rotational constants in cm-1:             0.012832             0.005051             0.004720
Rotational constants in MHz :           384.702004           151.435444           141.490972

                             ****ORCA TERMINATED NORMALLY****
TOTAL RUN TIME: 0 days 0 hours 0 minutes 21 seconds 246 msec
