                         Program Version 6.0.1  -  RELEASE   -
|  1> ! pbe def2-sv(p) def2/J RI DEFGRID1 loosescf d4 GCP(DFT/SV(P)) printgap
|  2> %output
|  3>     printlevel normal
|  4> end
|  5> * xyz 0 1
|  6> C 4.1926561449 -1.7864829626 1.2446037979
|  7> C 2.794067443 -2.0100611932 0.7062389294
|  8> O 2.5847853592 -1.0912700358 -0.3842601675
|  9> C 1.4109384569 -1.0664649924 -0.960923027
| 10> O 0.4767491183 -1.7859270964 -0.6482232344
| 11> C 1.3222246222 -0.0389045992 -2.0656831154
| 12> C 0.1725714381 0.9289639734 -1.7962419943
| 13> H 0.0579437311 1.6120103138 -2.6441623563
| 14> C 0.3408368854 1.7749938355 -0.5424378026
| 15> O -0.5968869663 2.3243903796 -0.0014467281
| 16> O 1.5883821296 1.8622903369 -0.1678458824
| 17> C 1.8930213694 2.6180417029 1.0224231706
| 18> C 3.3909953726 2.8427290877 1.056953818
| 19> S -1.4618215817 0.114188348 -1.7069981551
| 20> P -1.6430040079 -0.5176962845 0.3224478601
| 21> S -0.3546589118 -0.1981627182 1.7633976542
| 22> O -3.0910774564 0.0959691398 0.6800422223
| 23> C -3.3344001444 1.4733046027 0.9582711117
| 24> O -2.0557203811 -2.040888775 0.2803219911
| 25> C -2.9861521038 -2.5838402012 -0.6729979024
| 26> H 4.9221080338 -1.9226778332 0.4520142073
| 27> H 4.2820895023 -0.7798782572 1.6414109864
| 28> H 4.3859901269 -2.4987688819 2.0395137579
| 29> H 2.0273530593 -1.8233248018 1.4654034203
| 30> H 2.6605611459 -3.027371979 0.3251453191
| 31> H 1.1234286415 -0.5597925392 -3.003589536
| 32> H 2.263136495 0.5060748853 -2.1235779264
| 33> H 1.3314860668 3.5563864685 0.9898653317
| 34> H 1.5437657622 2.0328722395 1.8798778226
| 35> H 3.702146008 3.4386964512 0.2043278364
| 36> H 3.6516764716 3.3620049847 1.9727637216
| 37> H 3.9063081594 1.8874818927 1.0265629443
| 38> H -3.2454318983 2.0625873494 0.0458870354
| 39> H -2.6181845188 1.8435610762 1.6929571337
| 40> H -4.3465763697 1.5157269106 1.3524779071
| 41> H -3.1185726846 -3.6206045368 -0.3747655524
| 42> H -2.5623187126 -2.5236082429 -1.6751716621
| 43> H -3.9298684773 -2.0424369037 -0.6276733448
| 44> *
| 45>
| 46>                          ****END OF INPUT****

CARTESIAN COORDINATES (ANGSTROEM)
---------------------------------
  C      4.192656   -1.786483    1.244604
  C      2.794067   -2.010061    0.706239
  O      2.584785   -1.091270   -0.384260
  C      1.410938   -1.066465   -0.960923
  O      0.476749   -1.785927   -0.648223
  C      1.322225   -0.038905   -2.065683
  C      0.172571    0.928964   -1.796242
  H      0.057944    1.612010   -2.644162
  C      0.340837    1.774994   -0.542438
  O     -0.596887    2.324390   -0.001447
  O      1.588382    1.862290   -0.167846
  C      1.893021    2.618042    1.022423
  C      3.390995    2.842729    1.056954
  S     -1.461822    0.114188   -1.706998
  P     -1.643004   -0.517696    0.322448
  S     -0.354659   -0.198163    1.763398
  O     -3.091077    0.095969    0.680042
  C     -3.334400    1.473305    0.958271
  O     -2.055720   -2.040889    0.280322
  C     -2.986152   -2.583840   -0.672998
  H      4.922108   -1.922678    0.452014
  H      4.282090   -0.779878    1.641411
  H      4.385990   -2.498769    2.039514
  H      2.027353   -1.823325    1.465403
  H      2.660561   -3.027372    0.325145
  H      1.123429   -0.559793   -3.003590
  H      2.263136    0.506075   -2.123578
  H      1.331486    3.556386    0.989865
  H      1.543766    2.032872    1.879878
  H      3.702146    3.438696    0.204328
  H      3.651676    3.362005    1.972764
  H      3.906308    1.887482    1.026563
  H     -3.245432    2.062587    0.045887
  H     -2.618185    1.843561    1.692957
  H     -4.346576    1.515727    1.352478
  H     -3.118573   -3.620605   -0.374766
  H     -2.562319   -2.523608   -1.675172
  H     -3.929868   -2.042437   -0.627673

 Total Charge           Charge          ....    0
 Multiplicity           Mult            ....    1
 Number of Electrons    NEL             ....  174
 Basis Dimension        Dim             ....  316

ORBITAL ENERGIES
----------------

  NO   OCC          E(Eh)            E(eV)
   0   2.0000     -88.031802     -2395.4671
   1   2.0000     -87.970537     -2393.8000
   2   2.0000     -76.416516     -2079.3991
   3   2.0000     -18.811989      -511.9002
   4   2.0000     -18.803937      -511.6811
   5   2.0000     -18.775388      -510.9043
   6   2.0000     -18.770125      -510.7611
   7   2.0000     -18.737787      -509.8811
   8   2.0000     -18.734939      -509.8036
   9   2.0000     -10.017626      -272.5935
  10   2.0000     -10.008897      -272.3559
  11   2.0000      -9.953521      -270.8491
  12   2.0000      -9.948111      -270.7019
  13   2.0000      -9.941360      -270.5182
  14   2.0000      -9.937010      -270.3998
  15   2.0000      -9.921268      -269.9714
  16   2.0000      -9.911511      -269.7059
  17   2.0000      -9.891026      -269.1485
  18   2.0000      -9.887410      -269.0501
  19   2.0000      -7.676649      -208.8923
  20   2.0000      -7.615675      -207.2331
  21   2.0000      -6.412005      -174.4795
  22   2.0000      -5.704972      -155.2402
  23   2.0000      -5.701361      -155.1419
  24   2.0000      -5.692965      -154.9134
  25   2.0000      -5.644962      -153.6072
  26   2.0000      -5.636266      -153.3706
  27   2.0000      -5.635331      -153.3451
  28   2.0000      -4.634706      -126.1168
  29   2.0000      -4.634165      -126.1020
  30   2.0000      -4.632437      -126.0550
  31   2.0000      -1.020046       -27.7569
  32   2.0000      -1.010970       -27.5099
  33   2.0000      -0.968324       -26.3494
  34   2.0000      -0.921918       -25.0867
  35   2.0000      -0.919199       -25.0127
  36   2.0000      -0.912445       -24.8289
  37   2.0000      -0.763944       -20.7880
  38   2.0000      -0.711319       -19.3560
  39   2.0000      -0.709051       -19.2943
  40   2.0000      -0.686366       -18.6770
  41   2.0000      -0.655210       -17.8292
  42   2.0000      -0.620915       -16.8959
  43   2.0000      -0.614272       -16.7152
  44   2.0000      -0.608228       -16.5507
  45   2.0000      -0.587900       -15.9976
  46   2.0000      -0.561982       -15.2923
  47   2.0000      -0.514475       -13.9996
  48   2.0000      -0.507705       -13.8154
  49   2.0000      -0.497875       -13.5479
  50   2.0000      -0.481011       -13.0890
  51   2.0000      -0.459264       -12.4972
  52   2.0000      -0.451440       -12.2843
  53   2.0000      -0.450270       -12.2525
  54   2.0000      -0.442960       -12.0535
  55   2.0000      -0.420901       -11.4533
  56   2.0000      -0.416781       -11.3412
  57   2.0000      -0.413364       -11.2482
  58   2.0000      -0.409391       -11.1401
  59   2.0000      -0.405893       -11.0449
  60   2.0000      -0.394534       -10.7358
  61   2.0000      -0.387900       -10.5553
  62   2.0000      -0.384276       -10.4567
  63   2.0000      -0.376576       -10.2472
  64   2.0000      -0.369615       -10.0577
  65   2.0000      -0.364447        -9.9171
  66   2.0000      -0.358619        -9.7585
  67   2.0000      -0.356198        -9.6926
  68   2.0000      -0.351928        -9.5765
  69   2.0000      -0.341247        -9.2858
  70   2.0000      -0.337354        -9.1799
  71   2.0000      -0.320328        -8.7166
  72   2.0000      -0.314451        -8.5567
  73   2.0000      -0.308178        -8.3859
  74   2.0000      -0.303722        -8.2647
  75   2.0000      -0.297962        -8.1079
  76   2.0000      -0.283310        -7.7093
  77   2.0000      -0.281122        -7.6497
  78   2.0000      -0.267212        -7.2712
  79   2.0000      -0.259893        -7.0720
  80   2.0000      -0.252615        -6.8740
  81   2.0000      -0.247116        -6.7244
  82   2.0000      -0.231606        -6.3023
  83   2.0000      -0.225499        -6.1361
  84   2.0000      -0.196788        -5.3549
  85   2.0000      -0.190768        -5.1911
  86   2.0000      -0.179721        -4.8905
  87   0.0000      -0.044829        -1.2198
  88   0.0000      -0.034373        -0.9353
  89   0.0000      -0.027769        -0.7556
  90   0.0000       0.005852         0.1593
  91   0.0000       0.026045         0.7087

MULLIKEN ATOMIC CHARGES
-----------------------
   0 C :   -0.285839
   1 C :   -0.041376
   2 O :   -0.215094
   3 C :    0.092141
   4 O :   -0.212053
   5 C :    0.022695
   6 C :   -0.331651
   7 H :    0.154864
   8 C :    0.177792
   9 O :   -0.184746
  10 O :   -0.217823
  11 C :   -0.028702
  12 C :   -0.289690
  13 S :   -0.094015
  14 P :    0.632335
  15 S :   -0.329122
  16 O :   -0.392737
  17 C :   -0.091185
  18 O :   -0.354427
  19 C :   -0.107057
  20 H :    0.111436
  21 H :    0.123824
  22 H :    0.112446
  23 H :    0.131503
  24 H :    0.101873
  25 H :    0.113374
  26 H :    0.106250
  27 H :    0.108363
  28 H :    0.123430
  29 H :    0.111575
  30 H :    0.113479
  31 H :    0.127971
  32 H :    0.112985
  33 H :    0.116546
  34 H :    0.110614
  35 H :    0.127911
  36 H :    0.123812
  37 H :    0.118298
Sum of atomic charges:   -0.0000000

LOEWDIN ATOMIC CHARGES
----------------------
   0 C :   -0.351448
   1 C :   -0.111350
   2 O :   -0.043769
   3 C :    0.024439
   4 O :   -0.175573
   5 C :   -0.252025
   6 C :   -0.258139
   7 H :    0.153378
   8 C :   -0.006116
   9 O :   -0.162008
  10 O :   -0.039386
  11 C :   -0.106547
  12 C :   -0.352202
  13 S :    0.105319
  14 P :    0.595656
  15 S :   -0.298046
  16 O :   -0.265457
  17 C :   -0.215460
  18 O :   -0.231325
  19 C :   -0.211515
  20 H :    0.124650
  21 H :    0.124711
  22 H :    0.131837
  23 H :    0.119368
  24 H :    0.116158
  25 H :    0.144655
  26 H :    0.138179
  27 H :    0.118539
  28 H :    0.119358
  29 H :    0.125066
  30 H :    0.132039
  31 H :    0.127114
  32 H :    0.108013
  33 H :    0.110302
  34 H :    0.113909
  35 H :    0.125032
  36 H :    0.110687
  37 H :    0.111959

  Mayer bond orders larger than 0.100000
B(  0-C ,  1-C ) :   1.1521 B(  0-C , 20-H ) :   0.9494 B(  0-C , 21-H ) :   0.9454
B(  0-C , 22-H ) :   0.9429 B(  1-C ,  2-O ) :   0.8945 B(  1-C , 23-H ) :   0.9149
B(  1-C , 24-H ) :   0.9310 B(  2-O ,  3-C ) :   1.2675 B(  3-C ,  4-O ) :   1.9547
B(  3-C ,  5-C ) :   1.0115 B(  5-C ,  6-C ) :   1.0290 B(  5-C , 25-H ) :   0.8788
B(  5-C , 26-H ) :   0.8805 B(  6-C ,  7-H ) :   0.8703 B(  6-C ,  8-C ) :   0.8921
B(  6-C , 13-S ) :   1.0450 B(  8-C ,  9-O ) :   2.0358 B(  8-C , 10-O ) :   1.2733
B( 10-O , 11-C ) :   0.8898 B( 11-C , 12-C ) :   1.1537 B( 11-C , 27-H ) :   0.9254
B( 11-C , 28-H ) :   0.9211 B( 12-C , 29-H ) :   0.9500 B( 12-C , 30-H ) :   0.9430
B( 12-C , 31-H ) :   0.9415 B( 13-S , 14-P ) :   0.9235 B( 13-S , 15-S ) :   0.1201
B( 14-P , 15-S ) :   1.5681 B( 14-P , 16-O ) :   1.0692 B( 14-P , 18-O ) :   1.1360
B( 16-O , 17-C ) :   0.9378 B( 17-C , 32-H ) :   0.9462 B( 17-C , 33-H ) :   0.9393
B( 17-C , 34-H ) :   0.9563 B( 18-O , 19-C ) :   0.9266 B( 19-C , 35-H ) :   0.9602
B( 19-C , 36-H ) :   0.9398 B( 19-C , 37-H ) :   0.9446

Dispersion correction           -0.055931143
FINAL SINGLE POINT ENERGY     -1979.005071565479

DIPOLE MOMENT
-------------

Method             : SCF
Type of density    : Electron Density
Multiplicity       :   1
Irrep              :   0
Energy             : -1979.1329768395594328 Eh
Relativity type    :
Basis              : AO
                                X                 Y                 Z
Electronic contribution:    -15.582367902      -2.961725084      -4.870636596
Nuclear contribution   :     16.549912358       3.287866614       4.059109961
                        -----------------------------------------
Total Dipole Moment    :      0.967544456       0.326141530      -0.811526635
                        -----------------------------------------
Magnitude (a.u.)       :      1.304256896
Magnitude (Debye)      :      3.315157569

Rotational constants in cm-1:             0.013631             0.008647             0.007204
Rotational constants in MHz :           408.655296           259.219945           215.965088

                             ****ORCA TERMINATED NORMALLY****
TOTAL RUN TIME: 0 days 0 hours 0 minutes 41 seconds 64 msec
