                         Program Version 6.0.0  -   RELEASE  -
|  1> ! r2scan-3c def2/J RI DEFGRID2 scfconv6 printgap
|  2> %output
|  3>     printlevel normal
|  4> end
|  5> * xyz 0 1
|  6> C 2.3211630243 -2.8874891826 1.8952652548
|  7> C 1.3855548722 -2.1187658775 0.9836653603
|  8> O 1.7447626618 -0.7259542549 0.9986308202
|  9> P 2.3331535274 0.0807215043 -0.2465661406
| 10> S 3.02786145 -0.998985603 -1.7146358441
| 11> O 3.4315728758 0.9965392384 0.4131350602
| 12> C 3.1610368651 1.8757978754 1.5365540958
| 13> C 4.4149884917 2.6844341214 1.7927235096
| 14> S 0.8140438435 1.5014866217 -0.7475714063
| 15> C 0.0409110127 0.54682993 -2.0737833484
| 16> S -0.7030833044 -0.9986377447 -1.4884542485
| 17> P -2.0692670659 -0.1098115467 -0.1288211849
| 18> S -2.8809323819 1.5759960721 -0.7233515497
| 19> O -1.223993023 -0.0494564273 1.2068259099
| 20> C -1.3954121638 0.9993385763 2.1802329063
| 21> C -2.6797634835 0.8113416759 2.9591240459
| 22> O -3.0377792329 -1.3193089668 0.2133500141
| 23> C -3.9724528769 -1.8725291708 -0.7350401663
| 24> C -5.3136046949 -1.1687141802 -0.657816769
| 25> H 2.2847955616 -2.4820177281 2.9023282231
| 26> H 2.0197480488 -3.9297480074 1.9153933082
| 27> H 3.3403054425 -2.8183210183 1.5210125074
| 28> H 0.3498584453 -2.1685469467 1.3281217148
| 29> H 1.4469496062 -2.4963202285 -0.0423171286
| 30> H 2.3153501822 2.5177694731 1.2738866815
| 31> H 2.8954509186 1.2573480304 2.396156763
| 32> H 5.2458850992 2.0217712706 2.0168936568
| 33> H 4.6649464186 3.2726305092 0.9145091156
| 34> H 4.2449553981 3.348260537 2.634166457
| 35> H 0.7908028395 0.267974654 -2.8133965138
| 36> H -0.7298873981 1.1861415923 -2.5032334478
| 37> H -0.5130421407 0.917459019 2.8164990951
| 38> H -1.3898924702 1.9638593917 1.6617608318
| 39> H -2.6986461596 -0.1708527009 3.423490404
| 40> H -2.7555715448 1.5777261786 3.7238704132
| 41> H -3.5302765185 0.8973335557 2.2836466115
| 42> H -3.5480760299 -1.8044215722 -1.7409724311
| 43> H -4.0578944091 -2.9223544969 -0.4483371917
| 44> H -6.006853461 -1.64538171 -1.3433015331
| 45> H -5.7093789053 -1.2282205723 0.3521922841
| 46> H -5.2083925928 -0.1214035221 -0.9321012272
| 47> *
| 48>
| 49>                          ****END OF INPUT****

CARTESIAN COORDINATES (ANGSTROEM)
---------------------------------
  C      2.321163   -2.887489    1.895265
  C      1.385555   -2.118766    0.983665
  O      1.744763   -0.725954    0.998631
  P      2.333154    0.080722   -0.246566
  S      3.027861   -0.998986   -1.714636
  O      3.431573    0.996539    0.413135
  C      3.161037    1.875798    1.536554
  C      4.414988    2.684434    1.792724
  S      0.814044    1.501487   -0.747571
  C      0.040911    0.546830   -2.073783
  S     -0.703083   -0.998638   -1.488454
  P     -2.069267   -0.109812   -0.128821
  S     -2.880932    1.575996   -0.723352
  O     -1.223993   -0.049456    1.206826
  C     -1.395412    0.999339    2.180233
  C     -2.679763    0.811342    2.959124
  O     -3.037779   -1.319309    0.213350
  C     -3.972453   -1.872529   -0.735040
  C     -5.313605   -1.168714   -0.657817
  H      2.284796   -2.482018    2.902328
  H      2.019748   -3.929748    1.915393
  H      3.340305   -2.818321    1.521013
  H      0.349858   -2.168547    1.328122
  H      1.446950   -2.496320   -0.042317
  H      2.315350    2.517769    1.273887
  H      2.895451    1.257348    2.396157
  H      5.245885    2.021771    2.016894
  H      4.664946    3.272631    0.914509
  H      4.244955    3.348261    2.634166
  H      0.790803    0.267975   -2.813397
  H     -0.729887    1.186142   -2.503233
  H     -0.513042    0.917459    2.816499
  H     -1.389892    1.963859    1.661761
  H     -2.698646   -0.170853    3.423490
  H     -2.755572    1.577726    3.723870
  H     -3.530277    0.897334    2.283647
  H     -3.548076   -1.804422   -1.740972
  H     -4.057894   -2.922354   -0.448337
  H     -6.006853   -1.645382   -1.343302
  H     -5.709379   -1.228221    0.352192
  H     -5.208393   -0.121404   -0.932101

 Total Charge           Charge          ....    0
 Multiplicity           Mult            ....    1
 Number of Electrons    NEL             ....  202
 Basis Dimension        Dim             ....  539

ORBITAL ENERGIES
----------------

  NO   OCC          E(Eh)            E(eV)
   0   2.0000     -88.576440     -2410.2875
   1   2.0000     -88.571312     -2410.1479
   2   2.0000     -88.524128     -2408.8640
   3   2.0000     -88.519466     -2408.7371
   4   2.0000     -76.917168     -2093.0225
   5   2.0000     -76.912539     -2092.8966
   6   2.0000     -18.996544      -516.9222
   7   2.0000     -18.992001      -516.7986
   8   2.0000     -18.991426      -516.7830
   9   2.0000     -18.985908      -516.6328
  10   2.0000     -10.107471      -275.0383
  11   2.0000     -10.105040      -274.9721
  12   2.0000     -10.104587      -274.9598
  13   2.0000     -10.099119      -274.8110
  14   2.0000     -10.089695      -274.5545
  15   2.0000     -10.037226      -273.1268
  16   2.0000     -10.030393      -272.9409
  17   2.0000     -10.028799      -272.8975
  18   2.0000     -10.026054      -272.8228
  19   2.0000      -7.870757      -214.1742
  20   2.0000      -7.865656      -214.0354
  21   2.0000      -7.818964      -212.7648
  22   2.0000      -7.814332      -212.6388
  23   2.0000      -6.595581      -179.4749
  24   2.0000      -6.590772      -179.3440
  25   2.0000      -5.817581      -158.3044
  26   2.0000      -5.814599      -158.2233
  27   2.0000      -5.812536      -158.1672
  28   2.0000      -5.809546      -158.0858
  29   2.0000      -5.807954      -158.0425
  30   2.0000      -5.802730      -157.9003
  31   2.0000      -5.766589      -156.9169
  32   2.0000      -5.762067      -156.7938
  33   2.0000      -5.759198      -156.7158
  34   2.0000      -5.759031      -156.7112
  35   2.0000      -5.754606      -156.5908
  36   2.0000      -5.754226      -156.5805
  37   2.0000      -4.740973      -129.0084
  38   2.0000      -4.740565      -128.9973
  39   2.0000      -4.739372      -128.9649
  40   2.0000      -4.736564      -128.8885
  41   2.0000      -4.735480      -128.8590
  42   2.0000      -4.734492      -128.8321
  43   2.0000      -1.053746       -28.6739
  44   2.0000      -1.047773       -28.5114
  45   2.0000      -1.013985       -27.5919
  46   2.0000      -1.006222       -27.3807
  47   2.0000      -0.802011       -21.8238
  48   2.0000      -0.761568       -20.7233
  49   2.0000      -0.752924       -20.4881
  50   2.0000      -0.733260       -19.9530
  51   2.0000      -0.732364       -19.9287
  52   2.0000      -0.708714       -19.2851
  53   2.0000      -0.686606       -18.6835
  54   2.0000      -0.671245       -18.2655
  55   2.0000      -0.631363       -17.1803
  56   2.0000      -0.616320       -16.7709
  57   2.0000      -0.608587       -16.5605
  58   2.0000      -0.605472       -16.4757
  59   2.0000      -0.595429       -16.2025
  60   2.0000      -0.534481       -14.5440
  61   2.0000      -0.523451       -14.2438
  62   2.0000      -0.500939       -13.6312
  63   2.0000      -0.498097       -13.5539
  64   2.0000      -0.475274       -12.9329
  65   2.0000      -0.463404       -12.6099
  66   2.0000      -0.461210       -12.5502
  67   2.0000      -0.455558       -12.3964
  68   2.0000      -0.445578       -12.1248
  69   2.0000      -0.425589       -11.5809
  70   2.0000      -0.419787       -11.4230
  71   2.0000      -0.416889       -11.3441
  72   2.0000      -0.409146       -11.1334
  73   2.0000      -0.406745       -11.0681
  74   2.0000      -0.398003       -10.8302
  75   2.0000      -0.392142       -10.6707
  76   2.0000      -0.384249       -10.4559
  77   2.0000      -0.372722       -10.1423
  78   2.0000      -0.371901       -10.1199
  79   2.0000      -0.368097       -10.0164
  80   2.0000      -0.363971        -9.9042
  81   2.0000      -0.360037        -9.7971
  82   2.0000      -0.354106        -9.6357
  83   2.0000      -0.353388        -9.6162
  84   2.0000      -0.349570        -9.5123
  85   2.0000      -0.335461        -9.1284
  86   2.0000      -0.329122        -8.9559
  87   2.0000      -0.321443        -8.7469
  88   2.0000      -0.314766        -8.5652
  89   2.0000      -0.304228        -8.2785
  90   2.0000      -0.301952        -8.2165
  91   2.0000      -0.293787        -7.9944
  92   2.0000      -0.285104        -7.7581
  93   2.0000      -0.282563        -7.6889
  94   2.0000      -0.268972        -7.3191
  95   2.0000      -0.247167        -6.7257
  96   2.0000      -0.229190        -6.2366
  97   2.0000      -0.227120        -6.1803
  98   2.0000      -0.222064        -6.0427
  99   2.0000      -0.214401        -5.8342
 100   2.0000      -0.210495        -5.7279
 101   0.0000      -0.048793        -1.3277
 102   0.0000      -0.026634        -0.7247
 103   0.0000      -0.003424        -0.0932
 104   0.0000       0.005229         0.1423
 105   0.0000       0.008458         0.2301

MULLIKEN ATOMIC CHARGES
-----------------------
   0 C :   -0.484503
   1 C :   -0.118000
   2 O :   -0.258037
   3 P :    0.676717
   4 S :   -0.452556
   5 O :   -0.281933
   6 C :   -0.133159
   7 C :   -0.442991
   8 S :   -0.175198
   9 C :   -0.222219
  10 S :   -0.150119
  11 P :    0.681227
  12 S :   -0.475809
  13 O :   -0.245860
  14 C :   -0.156003
  15 C :   -0.447326
  16 O :   -0.302805
  17 C :   -0.136879
  18 C :   -0.451743
  19 H :    0.148588
  20 H :    0.145839
  21 H :    0.164210
  22 H :    0.165174
  23 H :    0.177204
  24 H :    0.145467
  25 H :    0.160073
  26 H :    0.158292
  27 H :    0.160665
  28 H :    0.144927
  29 H :    0.210384
  30 H :    0.209901
  31 H :    0.153435
  32 H :    0.177945
  33 H :    0.154408
  34 H :    0.146907
  35 H :    0.168631
  36 H :    0.154635
  37 H :    0.151005
  38 H :    0.146104
  39 H :    0.152032
  40 H :    0.181368
Sum of atomic charges:   -0.0000000

LOEWDIN ATOMIC CHARGES
----------------------
   0 C :   -0.392796
   1 C :    0.003796
   2 O :   -0.670332
   3 P :    0.387039
   4 S :   -0.097841
   5 O :   -0.655388
   6 C :    0.024310
   7 C :   -0.382266
   8 S :    0.141573
   9 C :   -0.420940
  10 S :    0.158732
  11 P :    0.380495
  12 S :   -0.125492
  13 O :   -0.674301
  14 C :    0.013404
  15 C :   -0.398462
  16 O :   -0.658389
  17 C :    0.022974
  18 C :   -0.401664
  19 H :    0.155973
  20 H :    0.159061
  21 H :    0.162716
  22 H :    0.180579
  23 H :    0.183485
  24 H :    0.173772
  25 H :    0.174853
  26 H :    0.163063
  27 H :    0.163715
  28 H :    0.159577
  29 H :    0.190916
  30 H :    0.189806
  31 H :    0.179667
  32 H :    0.182336
  33 H :    0.159377
  34 H :    0.159546
  35 H :    0.165717
  36 H :    0.175805
  37 H :    0.179518
  38 H :    0.158411
  39 H :    0.158463
  40 H :    0.169195

  Mayer bond orders larger than 0.100000
B(  0-C ,  1-C ) :   0.9390 B(  0-C , 19-H ) :   0.9799 B(  0-C , 20-H ) :   0.9671
B(  0-C , 21-H ) :   0.9723 B(  1-C ,  2-O ) :   0.7229 B(  1-C , 22-H ) :   0.9549
B(  1-C , 23-H ) :   0.9497 B(  2-O ,  3-P ) :   1.0362 B(  3-P ,  4-S ) :   1.8384
B(  3-P ,  5-O ) :   1.1908 B(  3-P ,  8-S ) :   0.9848 B(  5-O ,  6-C ) :   0.7492
B(  6-C ,  7-C ) :   0.9646 B(  6-C , 24-H ) :   0.9392 B(  6-C , 25-H ) :   0.9481
B(  7-C , 26-H ) :   0.9718 B(  7-C , 27-H ) :   0.9697 B(  7-C , 28-H ) :   0.9620
B(  8-S ,  9-C ) :   0.9008 B(  9-C , 10-S ) :   0.8886 B(  9-C , 29-H ) :   0.9097
B(  9-C , 30-H ) :   0.9117 B( 10-S , 11-P ) :   1.0739 B( 11-P , 12-S ) :   1.7501
B( 11-P , 13-O ) :   1.1392 B( 11-P , 16-O ) :   1.0770 B( 13-O , 14-C ) :   0.7763
B( 14-C , 15-C ) :   0.9274 B( 14-C , 31-H ) :   0.9622 B( 14-C , 32-H ) :   0.9596
B( 15-C , 33-H ) :   0.9739 B( 15-C , 34-H ) :   0.9641 B( 15-C , 35-H ) :   0.9592
B( 16-O , 17-C ) :   0.7835 B( 17-C , 18-C ) :   0.9551 B( 17-C , 36-H ) :   0.9624
B( 17-C , 37-H ) :   0.9630 B( 18-C , 38-H ) :   0.9645 B( 18-C , 39-H ) :   0.9744
B( 18-C , 40-H ) :   0.9558

Dispersion correction           -0.021624761
FINAL SINGLE POINT ENERGY     -2932.462552153671

DIPOLE MOMENT
-------------

Method             : SCF
Type of density    : Electron Density
Multiplicity       :   1
Irrep              :   0
Energy             : -2932.4873270781085921 Eh
Relativity type    :
Basis              : AO
                                X                 Y                 Z
Electronic contribution:      5.684742824       2.209617732     -18.970800044
Nuclear contribution   :     -6.373663540      -2.422607609      20.533490104
                        -----------------------------------------
Total Dipole Moment    :     -0.688920716      -0.212989877       1.562690060
                        -----------------------------------------
Magnitude (a.u.)       :      1.721039414
Magnitude (Debye)      :      4.374534541

Rotational constants in cm-1:             0.012087             0.005134             0.004861
Rotational constants in MHz :           362.349674           153.907947           145.725264

                             ****ORCA TERMINATED NORMALLY****
TOTAL RUN TIME: 0 days 0 hours 1 minutes 21 seconds 949 msec
