                         Program Version 6.0.0  -   RELEASE  -
|  1> ! r2scan-3c def2/J RI DEFGRID2 scfconv6 printgap
|  2> %output
|  3>     printlevel normal
|  4> end
|  5> %cpcm
|  6>     smd true
|  7>     smdsolvent "water"
|  8> end
|  9> * xyz 0 1
| 10> C 2.3211630243 -2.8874891826 1.8952652548
| 11> C 1.3855548722 -2.1187658775 0.9836653603
| 12> O 1.7447626618 -0.7259542549 0.9986308202
| 13> P 2.3331535274 0.0807215043 -0.2465661406
| 14> S 3.02786145 -0.998985603 -1.7146358441
| 15> O 3.4315728758 0.9965392384 0.4131350602
| 16> C 3.1610368651 1.8757978754 1.5365540958
| 17> C 4.4149884917 2.6844341214 1.7927235096
| 18> S 0.8140438435 1.5014866217 -0.7475714063
| 19> C 0.0409110127 0.54682993 -2.0737833484
| 20> S -0.7030833044 -0.9986377447 -1.4884542485
| 21> P -2.0692670659 -0.1098115467 -0.1288211849
| 22> S -2.8809323819 1.5759960721 -0.7233515497
| 23> O -1.223993023 -0.0494564273 1.2068259099
| 24> C -1.3954121638 0.9993385763 2.1802329063
| 25> C -2.6797634835 0.8113416759 2.9591240459
| 26> O -3.0377792329 -1.3193089668 0.2133500141
| 27> C -3.9724528769 -1.8725291708 -0.7350401663
| 28> C -5.3136046949 -1.1687141802 -0.657816769
| 29> H 2.2847955616 -2.4820177281 2.9023282231
| 30> H 2.0197480488 -3.9297480074 1.9153933082
| 31> H 3.3403054425 -2.8183210183 1.5210125074
| 32> H 0.3498584453 -2.1685469467 1.3281217148
| 33> H 1.4469496062 -2.4963202285 -0.0423171286
| 34> H 2.3153501822 2.5177694731 1.2738866815
| 35> H 2.8954509186 1.2573480304 2.396156763
| 36> H 5.2458850992 2.0217712706 2.0168936568
| 37> H 4.6649464186 3.2726305092 0.9145091156
| 38> H 4.2449553981 3.348260537 2.634166457
| 39> H 0.7908028395 0.267974654 -2.8133965138
| 40> H -0.7298873981 1.1861415923 -2.5032334478
| 41> H -0.5130421407 0.917459019 2.8164990951
| 42> H -1.3898924702 1.9638593917 1.6617608318
| 43> H -2.6986461596 -0.1708527009 3.423490404
| 44> H -2.7555715448 1.5777261786 3.7238704132
| 45> H -3.5302765185 0.8973335557 2.2836466115
| 46> H -3.5480760299 -1.8044215722 -1.7409724311
| 47> H -4.0578944091 -2.9223544969 -0.4483371917
| 48> H -6.006853461 -1.64538171 -1.3433015331
| 49> H -5.7093789053 -1.2282205723 0.3521922841
| 50> H -5.2083925928 -0.1214035221 -0.9321012272
| 51> *
| 52>
| 53>                          ****END OF INPUT****

CARTESIAN COORDINATES (ANGSTROEM)
---------------------------------
  C      2.321163   -2.887489    1.895265
  C      1.385555   -2.118766    0.983665
  O      1.744763   -0.725954    0.998631
  P      2.333154    0.080722   -0.246566
  S      3.027861   -0.998986   -1.714636
  O      3.431573    0.996539    0.413135
  C      3.161037    1.875798    1.536554
  C      4.414988    2.684434    1.792724
  S      0.814044    1.501487   -0.747571
  C      0.040911    0.546830   -2.073783
  S     -0.703083   -0.998638   -1.488454
  P     -2.069267   -0.109812   -0.128821
  S     -2.880932    1.575996   -0.723352
  O     -1.223993   -0.049456    1.206826
  C     -1.395412    0.999339    2.180233
  C     -2.679763    0.811342    2.959124
  O     -3.037779   -1.319309    0.213350
  C     -3.972453   -1.872529   -0.735040
  C     -5.313605   -1.168714   -0.657817
  H      2.284796   -2.482018    2.902328
  H      2.019748   -3.929748    1.915393
  H      3.340305   -2.818321    1.521013
  H      0.349858   -2.168547    1.328122
  H      1.446950   -2.496320   -0.042317
  H      2.315350    2.517769    1.273887
  H      2.895451    1.257348    2.396157
  H      5.245885    2.021771    2.016894
  H      4.664946    3.272631    0.914509
  H      4.244955    3.348261    2.634166
  H      0.790803    0.267975   -2.813397
  H     -0.729887    1.186142   -2.503233
  H     -0.513042    0.917459    2.816499
  H     -1.389892    1.963859    1.661761
  H     -2.698646   -0.170853    3.423490
  H     -2.755572    1.577726    3.723870
  H     -3.530277    0.897334    2.283647
  H     -3.548076   -1.804422   -1.740972
  H     -4.057894   -2.922354   -0.448337
  H     -6.006853   -1.645382   -1.343302
  H     -5.709379   -1.228221    0.352192
  H     -5.208393   -0.121404   -0.932101

 Total Charge           Charge          ....    0
 Multiplicity           Mult            ....    1
 Number of Electrons    NEL             ....  202
 Basis Dimension        Dim             ....  539

ORBITAL ENERGIES
----------------

  NO   OCC          E(Eh)            E(eV)
   0   2.0000     -88.578859     -2410.3533
   1   2.0000     -88.576496     -2410.2890
   2   2.0000     -88.531489     -2409.0643
   3   2.0000     -88.528813     -2408.9915
   4   2.0000     -76.920670     -2093.1178
   5   2.0000     -76.919974     -2093.0989
   6   2.0000     -18.996453      -516.9198
   7   2.0000     -18.996182      -516.9124
   8   2.0000     -18.992319      -516.8073
   9   2.0000     -18.991191      -516.7766
  10   2.0000     -10.104629      -274.9609
  11   2.0000     -10.095308      -274.7073
  12   2.0000     -10.092081      -274.6195
  13   2.0000     -10.089007      -274.5359
  14   2.0000     -10.086330      -274.4630
  15   2.0000     -10.021322      -272.6940
  16   2.0000     -10.018263      -272.6108
  17   2.0000     -10.017000      -272.5764
  18   2.0000     -10.016843      -272.5721
  19   2.0000      -7.873219      -214.2412
  20   2.0000      -7.870803      -214.1754
  21   2.0000      -7.826701      -212.9754
  22   2.0000      -7.823911      -212.8994
  23   2.0000      -6.598950      -179.5666
  24   2.0000      -6.598421      -179.5522
  25   2.0000      -5.820027      -158.3710
  26   2.0000      -5.817664      -158.3067
  27   2.0000      -5.817067      -158.2904
  28   2.0000      -5.814665      -158.2251
  29   2.0000      -5.810424      -158.1097
  30   2.0000      -5.807937      -158.0420
  31   2.0000      -5.774326      -157.1274
  32   2.0000      -5.771486      -157.0501
  33   2.0000      -5.766966      -156.9271
  34   2.0000      -5.766648      -156.9185
  35   2.0000      -5.764144      -156.8503
  36   2.0000      -5.763980      -156.8459
  37   2.0000      -4.744707      -129.1100
  38   2.0000      -4.743769      -129.0845
  39   2.0000      -4.743637      -129.0809
  40   2.0000      -4.743407      -129.0747
  41   2.0000      -4.742761      -129.0571
  42   2.0000      -4.742282      -129.0440
  43   2.0000      -1.053941       -28.6792
  44   2.0000      -1.051994       -28.6262
  45   2.0000      -1.013471       -27.5779
  46   2.0000      -1.010216       -27.4894
  47   2.0000      -0.804192       -21.8832
  48   2.0000      -0.757712       -20.6184
  49   2.0000      -0.745774       -20.2935
  50   2.0000      -0.725904       -19.7528
  51   2.0000      -0.722493       -19.6600
  52   2.0000      -0.708166       -19.2702
  53   2.0000      -0.690203       -18.7814
  54   2.0000      -0.677016       -18.4226
  55   2.0000      -0.627483       -17.0747
  56   2.0000      -0.614908       -16.7325
  57   2.0000      -0.600547       -16.3417
  58   2.0000      -0.598086       -16.2747
  59   2.0000      -0.592600       -16.1255
  60   2.0000      -0.531928       -14.4745
  61   2.0000      -0.518336       -14.1046
  62   2.0000      -0.499724       -13.5982
  63   2.0000      -0.492967       -13.4143
  64   2.0000      -0.474173       -12.9029
  65   2.0000      -0.459096       -12.4926
  66   2.0000      -0.454305       -12.3623
  67   2.0000      -0.450242       -12.2517
  68   2.0000      -0.442710       -12.0468
  69   2.0000      -0.421044       -11.4572
  70   2.0000      -0.419195       -11.4069
  71   2.0000      -0.414504       -11.2792
  72   2.0000      -0.405027       -11.0214
  73   2.0000      -0.403210       -10.9719
  74   2.0000      -0.394269       -10.7286
  75   2.0000      -0.388684       -10.5766
  76   2.0000      -0.381125       -10.3710
  77   2.0000      -0.368648       -10.0314
  78   2.0000      -0.361451        -9.8356
  79   2.0000      -0.358256        -9.7486
  80   2.0000      -0.354354        -9.6425
  81   2.0000      -0.352940        -9.6040
  82   2.0000      -0.346282        -9.4228
  83   2.0000      -0.346006        -9.4153
  84   2.0000      -0.345547        -9.4028
  85   2.0000      -0.333731        -9.0813
  86   2.0000      -0.325823        -8.8661
  87   2.0000      -0.318207        -8.6588
  88   2.0000      -0.306883        -8.3507
  89   2.0000      -0.302982        -8.2446
  90   2.0000      -0.299448        -8.1484
  91   2.0000      -0.291453        -7.9308
  92   2.0000      -0.283987        -7.7277
  93   2.0000      -0.282718        -7.6932
  94   2.0000      -0.271673        -7.3926
  95   2.0000      -0.250229        -6.8091
  96   2.0000      -0.238549        -6.4913
  97   2.0000      -0.236181        -6.4268
  98   2.0000      -0.228584        -6.2201
  99   2.0000      -0.222382        -6.0513
 100   2.0000      -0.218194        -5.9373
 101   0.0000      -0.053439        -1.4541
 102   0.0000      -0.032834        -0.8935
 103   0.0000      -0.006334        -0.1724
 104   0.0000      -0.000149        -0.0041
 105   0.0000       0.008625         0.2347

MULLIKEN ATOMIC CHARGES
-----------------------
   0 C :   -0.522969
   1 C :   -0.094931
   2 O :   -0.282332
   3 P :    0.683819
   4 S :   -0.503352
   5 O :   -0.318232
   6 C :   -0.115056
   7 C :   -0.489394
   8 S :   -0.185516
   9 C :   -0.232921
  10 S :   -0.159008
  11 P :    0.714177
  12 S :   -0.516620
  13 O :   -0.276398
  14 C :   -0.141556
  15 C :   -0.489863
  16 O :   -0.332010
  17 C :   -0.128591
  18 C :   -0.490523
  19 H :    0.167004
  20 H :    0.168994
  21 H :    0.165527
  22 H :    0.177037
  23 H :    0.174925
  24 H :    0.161305
  25 H :    0.180845
  26 H :    0.168662
  27 H :    0.167946
  28 H :    0.171071
  29 H :    0.229230
  30 H :    0.232435
  31 H :    0.179963
  32 H :    0.178003
  33 H :    0.169645
  34 H :    0.172244
  35 H :    0.166060
  36 H :    0.164371
  37 H :    0.177323
  38 H :    0.170084
  39 H :    0.167838
  40 H :    0.170763
Sum of atomic charges:    0.0000000

LOEWDIN ATOMIC CHARGES
----------------------
   0 C :   -0.395865
   1 C :    0.008624
   2 O :   -0.678157
   3 P :    0.386120
   4 S :   -0.137027
   5 O :   -0.677478
   6 C :    0.033327
   7 C :   -0.386188
   8 S :    0.139288
   9 C :   -0.416257
  10 S :    0.155744
  11 P :    0.385603
  12 S :   -0.151040
  13 O :   -0.687327
  14 C :    0.018983
  15 C :   -0.401975
  16 O :   -0.670249
  17 C :    0.028971
  18 C :   -0.405847
  19 H :    0.162335
  20 H :    0.167645
  21 H :    0.161846
  22 H :    0.185720
  23 H :    0.182812
  24 H :    0.180982
  25 H :    0.184633
  26 H :    0.165005
  27 H :    0.164233
  28 H :    0.170384
  29 H :    0.196287
  30 H :    0.196812
  31 H :    0.190529
  32 H :    0.182792
  33 H :    0.163625
  34 H :    0.168869
  35 H :    0.162406
  36 H :    0.180062
  37 H :    0.190860
  38 H :    0.167442
  39 H :    0.162539
  40 H :    0.162932

  Mayer bond orders larger than 0.100000
B(  0-C ,  1-C ) :   0.9379 B(  0-C , 19-H ) :   0.9747 B(  0-C , 20-H ) :   0.9613
B(  0-C , 21-H ) :   0.9712 B(  1-C ,  2-O ) :   0.7122 B(  1-C , 22-H ) :   0.9459
B(  1-C , 23-H ) :   0.9479 B(  2-O ,  3-P ) :   1.0398 B(  3-P ,  4-S ) :   1.8196
B(  3-P ,  5-O ) :   1.1961 B(  3-P ,  8-S ) :   1.0036 B(  5-O ,  6-C ) :   0.7435
B(  6-C ,  7-C ) :   0.9538 B(  6-C , 24-H ) :   0.9298 B(  6-C , 25-H ) :   0.9376
B(  7-C , 26-H ) :   0.9699 B(  7-C , 27-H ) :   0.9687 B(  7-C , 28-H ) :   0.9554
B(  8-S ,  9-C ) :   0.8864 B(  9-C , 10-S ) :   0.8814 B(  9-C , 29-H ) :   0.9048
B(  9-C , 30-H ) :   0.9050 B( 10-S , 11-P ) :   1.0815 B( 11-P , 12-S ) :   1.7187
B( 11-P , 13-O ) :   1.1453 B( 11-P , 16-O ) :   1.0827 B( 13-O , 14-C ) :   0.7650
B( 14-C , 15-C ) :   0.9186 B( 14-C , 31-H ) :   0.9516 B( 14-C , 32-H ) :   0.9552
B( 15-C , 33-H ) :   0.9720 B( 15-C , 34-H ) :   0.9583 B( 15-C , 35-H ) :   0.9597
B( 16-O , 17-C ) :   0.7728 B( 17-C , 18-C ) :   0.9438 B( 17-C , 36-H ) :   0.9558
B( 17-C , 37-H ) :   0.9531 B( 18-C , 38-H ) :   0.9593 B( 18-C , 39-H ) :   0.9720
B( 18-C , 40-H ) :   0.9604

Dispersion correction           -0.021624761
FINAL SINGLE POINT ENERGY     -2932.471645292224

DIPOLE MOMENT
-------------

Method             : SCF
Type of density    : Electron Density
Multiplicity       :   1
Irrep              :   0
Energy             : -2932.4964202166615905 Eh
Relativity type    :
Basis              : AO
                                X                 Y                 Z
Electronic contribution:      5.335433669       2.120528605     -18.469891100
Nuclear contribution   :     -6.373663540      -2.422607609      20.533490104
                        -----------------------------------------
Total Dipole Moment    :     -1.038229871      -0.302079004       2.063599004
                        -----------------------------------------
Magnitude (a.u.)       :      2.329723984
Magnitude (Debye)      :      5.921687763

Rotational constants in cm-1:             0.012087             0.005134             0.004861
Rotational constants in MHz :           362.349674           153.907947           145.725264

                             ****ORCA TERMINATED NORMALLY****
TOTAL RUN TIME: 0 days 0 hours 1 minutes 49 seconds 951 msec
