                         Program Version 6.0.1  -  RELEASE   -
|  1> ! pbe def2-sv(p) def2/J RI DEFGRID1 loosescf d4 GCP(DFT/SV(P)) printgap
|  2> %output
|  3>     printlevel normal
|  4> end
|  5> * xyz 0 1
|  6> C 3.9972896874 -2.606147932 0.6814526079
|  7> C 2.4992553456 -2.6357641038 0.4266759945
|  8> O 2.1617846413 -1.8691797968 -0.7451484102
|  9> C 1.9912624816 -0.5720954127 -0.6270674493
| 10> O 2.0671096396 0.0548194862 0.4098496332
| 11> C 1.6731975846 0.0882463544 -1.9551878409
| 12> C 0.3827541386 0.9030629792 -1.8339483081
| 13> H 0.2845514826 1.5709118973 -2.6925977823
| 14> C 0.3617845922 1.7261509323 -0.5606596816
| 15> O -0.4768942386 1.540181277 0.3096639172
| 16> O 1.2523549 2.6645205024 -0.5605838314
| 17> C 1.4088708725 3.5151059528 0.6002121652
| 18> C 2.7204911839 3.1894025649 1.2923235873
| 19> S -1.1075595914 -0.1566337326 -1.8641994565
| 20> P -1.7093631788 -0.4529909543 0.1437052228
| 21> S -0.6547527598 -1.0801506533 1.6856606958
| 22> O -2.9244535725 0.5244419191 0.5204239046
| 23> C -2.9177508431 1.503772228 1.5564754702
| 24> O -2.5939082483 -1.6788560708 -0.4324327965
| 25> C -3.4099602362 -2.4860116175 0.4146025913
| 26> H 4.2264485903 -3.2483310857 1.5251948051
| 27> H 4.5320680516 -2.9586015958 -0.1962257592
| 28> H 4.3171321788 -1.5929384277 0.9132646997
| 29> H 1.9441590786 -2.2334890508 1.2801398166
| 30> H 2.1509316536 -3.6431866326 0.1987760119
| 31> H 1.5682057337 -0.6675473361 -2.7310091279
| 32> H 2.4954760681 0.7649846205 -2.195912348
| 33> H 1.4052048101 4.5331228219 0.2071337196
| 34> H 0.5598198596 3.3593143488 1.269352156
| 35> H 2.7268750821 2.1435490723 1.5910265778
| 36> H 3.5545769852 3.3683876834 0.6208222776
| 37> H 2.8254719864 3.8133930614 2.1734453271
| 38> H -3.9133107615 1.4852879956 1.9953725689
| 39> H -2.7023376368 2.4814501607 1.1294839481
| 40> H -2.1655514336 1.2532142034 2.3065620815
| 41> H -3.6343002238 -3.3831151688 -0.1572407525
| 42> H -4.3259672767 -1.952978708 0.6683852691
| 43> H -2.8652061329 -2.7415093099 1.326798284
| 44> *
| 45>
| 46>                          ****END OF INPUT****

CARTESIAN COORDINATES (ANGSTROEM)
---------------------------------
  C      3.997290   -2.606148    0.681453
  C      2.499255   -2.635764    0.426676
  O      2.161785   -1.869180   -0.745148
  C      1.991262   -0.572095   -0.627067
  O      2.067110    0.054819    0.409850
  C      1.673198    0.088246   -1.955188
  C      0.382754    0.903063   -1.833948
  H      0.284551    1.570912   -2.692598
  C      0.361785    1.726151   -0.560660
  O     -0.476894    1.540181    0.309664
  O      1.252355    2.664521   -0.560584
  C      1.408871    3.515106    0.600212
  C      2.720491    3.189403    1.292324
  S     -1.107560   -0.156634   -1.864199
  P     -1.709363   -0.452991    0.143705
  S     -0.654753   -1.080151    1.685661
  O     -2.924454    0.524442    0.520424
  C     -2.917751    1.503772    1.556475
  O     -2.593908   -1.678856   -0.432433
  C     -3.409960   -2.486012    0.414603
  H      4.226449   -3.248331    1.525195
  H      4.532068   -2.958602   -0.196226
  H      4.317132   -1.592938    0.913265
  H      1.944159   -2.233489    1.280140
  H      2.150932   -3.643187    0.198776
  H      1.568206   -0.667547   -2.731009
  H      2.495476    0.764985   -2.195912
  H      1.405205    4.533123    0.207134
  H      0.559820    3.359314    1.269352
  H      2.726875    2.143549    1.591027
  H      3.554577    3.368388    0.620822
  H      2.825472    3.813393    2.173445
  H     -3.913311    1.485288    1.995373
  H     -2.702338    2.481450    1.129484
  H     -2.165551    1.253214    2.306562
  H     -3.634300   -3.383115   -0.157241
  H     -4.325967   -1.952979    0.668385
  H     -2.865206   -2.741509    1.326798

 Total Charge           Charge          ....    0
 Multiplicity           Mult            ....    1
 Number of Electrons    NEL             ....  174
 Basis Dimension        Dim             ....  316

ORBITAL ENERGIES
----------------

  NO   OCC          E(Eh)            E(eV)
   0   2.0000     -88.029641     -2395.4083
   1   2.0000     -87.958091     -2393.4613
   2   2.0000     -76.411703     -2079.2681
   3   2.0000     -18.823613      -512.2165
   4   2.0000     -18.805567      -511.7255
   5   2.0000     -18.770468      -510.7704
   6   2.0000     -18.766866      -510.6724
   7   2.0000     -18.759013      -510.4587
   8   2.0000     -18.741716      -509.9880
   9   2.0000     -10.036044      -273.0946
  10   2.0000     -10.014266      -272.5020
  11   2.0000      -9.957961      -270.9699
  12   2.0000      -9.953983      -270.8617
  13   2.0000      -9.939651      -270.4716
  14   2.0000      -9.925850      -270.0961
  15   2.0000      -9.921178      -269.9690
  16   2.0000      -9.917132      -269.8589
  17   2.0000      -9.887018      -269.0394
  18   2.0000      -9.884116      -268.9605
  19   2.0000      -7.674735      -208.8401
  20   2.0000      -7.603230      -206.8944
  21   2.0000      -6.406345      -174.3255
  22   2.0000      -5.703258      -155.1935
  23   2.0000      -5.699012      -155.0780
  24   2.0000      -5.691247      -154.8667
  25   2.0000      -5.632373      -153.2647
  26   2.0000      -5.624027      -153.0376
  27   2.0000      -5.622901      -153.0069
  28   2.0000      -4.629258      -125.9685
  29   2.0000      -4.628398      -125.9451
  30   2.0000      -4.626888      -125.9040
  31   2.0000      -1.035956       -28.1898
  32   2.0000      -1.012045       -27.5391
  33   2.0000      -0.959257       -26.1027
  34   2.0000      -0.941538       -25.6205
  35   2.0000      -0.920111       -25.0375
  36   2.0000      -0.913502       -24.8577
  37   2.0000      -0.767453       -20.8835
  38   2.0000      -0.715868       -19.4797
  39   2.0000      -0.706204       -19.2168
  40   2.0000      -0.684086       -18.6149
  41   2.0000      -0.648440       -17.6450
  42   2.0000      -0.623500       -16.9663
  43   2.0000      -0.610384       -16.6094
  44   2.0000      -0.606772       -16.5111
  45   2.0000      -0.594580       -16.1794
  46   2.0000      -0.563209       -15.3257
  47   2.0000      -0.514745       -14.0069
  48   2.0000      -0.502245       -13.6668
  49   2.0000      -0.498242       -13.5579
  50   2.0000      -0.486864       -13.2482
  51   2.0000      -0.465323       -12.6621
  52   2.0000      -0.459821       -12.5124
  53   2.0000      -0.448203       -12.1962
  54   2.0000      -0.437706       -11.9106
  55   2.0000      -0.431623       -11.7451
  56   2.0000      -0.424728       -11.5574
  57   2.0000      -0.412709       -11.2304
  58   2.0000      -0.406435       -11.0596
  59   2.0000      -0.398209       -10.8358
  60   2.0000      -0.395217       -10.7544
  61   2.0000      -0.391183       -10.6446
  62   2.0000      -0.385972       -10.5028
  63   2.0000      -0.380851       -10.3635
  64   2.0000      -0.376998       -10.2586
  65   2.0000      -0.365327        -9.9411
  66   2.0000      -0.360565        -9.8115
  67   2.0000      -0.355181        -9.6650
  68   2.0000      -0.345668        -9.4061
  69   2.0000      -0.338350        -9.2070
  70   2.0000      -0.335318        -9.1245
  71   2.0000      -0.330778        -9.0009
  72   2.0000      -0.320611        -8.7243
  73   2.0000      -0.308532        -8.3956
  74   2.0000      -0.294404        -8.0111
  75   2.0000      -0.290798        -7.9130
  76   2.0000      -0.285762        -7.7760
  77   2.0000      -0.281721        -7.6660
  78   2.0000      -0.266765        -7.2591
  79   2.0000      -0.260245        -7.0816
  80   2.0000      -0.255948        -6.9647
  81   2.0000      -0.249531        -6.7901
  82   2.0000      -0.239300        -6.5117
  83   2.0000      -0.229028        -6.2322
  84   2.0000      -0.208716        -5.6794
  85   2.0000      -0.178241        -4.8502
  86   2.0000      -0.171073        -4.6551
  87   0.0000      -0.045660        -1.2425
  88   0.0000      -0.034391        -0.9358
  89   0.0000      -0.028288        -0.7698
  90   0.0000       0.010824         0.2945
  91   0.0000       0.037354         1.0164

MULLIKEN ATOMIC CHARGES
-----------------------
   0 C :   -0.306163
   1 C :   -0.024649
   2 O :   -0.214087
   3 C :    0.106259
   4 O :   -0.196871
   5 C :   -0.025196
   6 C :   -0.312858
   7 H :    0.148023
   8 C :    0.240750
   9 O :   -0.215382
  10 O :   -0.214362
  11 C :   -0.027096
  12 C :   -0.303963
  13 S :   -0.077487
  14 P :    0.665067
  15 S :   -0.348346
  16 O :   -0.395010
  17 C :   -0.085728
  18 O :   -0.409620
  19 C :   -0.091276
  20 H :    0.114985
  21 H :    0.109936
  22 H :    0.121301
  23 H :    0.136349
  24 H :    0.105204
  25 H :    0.118152
  26 H :    0.121874
  27 H :    0.108511
  28 H :    0.124675
  29 H :    0.152230
  30 H :    0.109466
  31 H :    0.111887
  32 H :    0.111614
  33 H :    0.103245
  34 H :    0.115757
  35 H :    0.113870
  36 H :    0.102534
  37 H :    0.106404
Sum of atomic charges:    0.0000000

LOEWDIN ATOMIC CHARGES
----------------------
   0 C :   -0.356951
   1 C :   -0.112806
   2 O :   -0.039922
   3 C :    0.032607
   4 O :   -0.154194
   5 C :   -0.246149
   6 C :   -0.262894
   7 H :    0.147811
   8 C :    0.036063
   9 O :   -0.147853
  10 O :   -0.029145
  11 C :   -0.102643
  12 C :   -0.356418
  13 S :    0.118738
  14 P :    0.584273
  15 S :   -0.337918
  16 O :   -0.258567
  17 C :   -0.215136
  18 O :   -0.282105
  19 C :   -0.217903
  20 H :    0.131901
  21 H :    0.122438
  22 H :    0.127415
  23 H :    0.122232
  24 H :    0.120509
  25 H :    0.137723
  26 H :    0.145630
  27 H :    0.119440
  28 H :    0.125366
  29 H :    0.139799
  30 H :    0.123753
  31 H :    0.130398
  32 H :    0.113484
  33 H :    0.106619
  34 H :    0.107922
  35 H :    0.116523
  36 H :    0.106622
  37 H :    0.103338

  Mayer bond orders larger than 0.100000
B(  0-C ,  1-C ) :   1.1646 B(  0-C , 20-H ) :   0.9450 B(  0-C , 21-H ) :   0.9478
B(  0-C , 22-H ) :   0.9469 B(  1-C ,  2-O ) :   0.9044 B(  1-C , 23-H ) :   0.9047
B(  1-C , 24-H ) :   0.9386 B(  2-O ,  3-C ) :   1.2741 B(  2-O ,  4-O ) :   0.1000
B(  3-C ,  4-O ) :   1.9332 B(  3-C ,  5-C ) :   0.9974 B(  4-O ,  8-C ) :   0.1098
B(  5-C ,  6-C ) :   1.0188 B(  5-C , 25-H ) :   0.9036 B(  5-C , 26-H ) :   0.8773
B(  6-C ,  7-H ) :   0.8774 B(  6-C ,  8-C ) :   0.9079 B(  6-C , 13-S ) :   1.0438
B(  8-C ,  9-O ) :   1.8433 B(  8-C , 10-O ) :   1.2887 B(  9-O , 14-P ) :   0.1803
B( 10-O , 11-C ) :   0.8888 B( 11-C , 12-C ) :   1.1802 B( 11-C , 27-H ) :   0.9365
B( 11-C , 28-H ) :   0.9097 B( 12-C , 29-H ) :   0.9307 B( 12-C , 30-H ) :   0.9501
B( 12-C , 31-H ) :   0.9415 B( 13-S , 14-P ) :   0.9288 B( 13-S , 15-S ) :   0.1083
B( 14-P , 15-S ) :   1.5676 B( 14-P , 16-O ) :   1.0740 B( 14-P , 18-O ) :   1.0344
B( 16-O , 17-C ) :   0.9389 B( 17-C , 32-H ) :   0.9547 B( 17-C , 33-H ) :   0.9549
B( 17-C , 34-H ) :   0.9309 B( 18-O , 19-C ) :   0.9485 B( 19-C , 35-H ) :   0.9610
B( 19-C , 36-H ) :   0.9520 B( 19-C , 37-H ) :   0.9281

Dispersion correction           -0.053852671
FINAL SINGLE POINT ENERGY     -1979.006663246135

DIPOLE MOMENT
-------------

Method             : SCF
Type of density    : Electron Density
Multiplicity       :   1
Irrep              :   0
Energy             : -1979.1373496439177870 Eh
Relativity type    :
Basis              : AO
                                X                 Y                 Z
Electronic contribution:    -12.827246884      -1.672577936      -8.859338703
Nuclear contribution   :     13.752180528       2.665360537       8.531309719
                        -----------------------------------------
Total Dipole Moment    :      0.924933644       0.992782601      -0.328028984
                        -----------------------------------------
Magnitude (a.u.)       :      1.395966530
Magnitude (Debye)      :      3.548264934

Rotational constants in cm-1:             0.011705             0.008914             0.006824
Rotational constants in MHz :           350.921434           267.221042           204.564782

                             ****ORCA TERMINATED NORMALLY****
TOTAL RUN TIME: 0 days 0 hours 0 minutes 37 seconds 737 msec
