                         Program Version 6.0.0  -   RELEASE  -
|  1> ! pbe def2-sv(p) def2/J RI DEFGRID1 loosescf d4 GCP(DFT/SV(P)) printgap
|  2> %output
|  3>     printlevel normal
|  4> end
|  5> * xyz 0 1
|  6> C 4.7059964446 -1.515298788 0.0137394587
|  7> C 4.4761089339 -0.2719181032 -0.8235673214
|  8> O 3.5194613657 0.607916615 -0.2028993687
|  9> P 1.9854981321 0.6472712408 -0.6308474976
| 10> S 1.7004949462 0.7033811537 -2.5678750542
| 11> O 1.5036391767 1.9464267053 0.1188882063
| 12> C 2.0064192632 2.4222087001 1.3913503703
| 13> C 1.692316709 1.4688813014 2.5244157555
| 14> S 1.1565149983 -1.0639026264 0.3260573188
| 15> C 0.0246081991 -1.6850447466 -0.9559243349
| 16> S -1.6510649598 -1.9605209396 -0.3383837088
| 17> P -2.0815971721 0.0309539465 0.2656696116
| 18> S -1.4393348755 1.4616978883 -0.910294774
| 19> O -1.536490646 0.1795139408 1.7391497627
| 20> C -1.9710150694 -0.677824965 2.8345455991
| 21> C -0.8776796856 -1.6526237113 3.2223193092
| 22> O -3.6537245747 0.0023518478 0.5102573399
| 23> C -4.6137161677 0.2689941125 -0.526798292
| 24> C -4.5982733362 -0.7843955387 -1.6154188579
| 25> H 5.0207608558 -1.2358122124 1.015162204
| 26> H 3.7971314769 -2.1070124188 0.0838150754
| 27> H 5.4839646896 -2.1116637504 -0.4518589715
| 28> H 4.1245967917 -0.5207048824 -1.8303424604
| 29> H 5.3873163567 0.3248164282 -0.8997352508
| 30> H 3.081705949 2.5842550715 1.2947625469
| 31> H 1.493384335 3.3776262659 1.5146024923
| 32> H 2.2321784527 0.5326484875 2.3894175081
| 33> H 1.9921872061 1.9222851332 3.4640611193
| 34> H 0.6245315802 1.2621872652 2.5473402087
| 35> H 0.3805589808 -2.6541925783 -1.2961791786
| 36> H 0.0113859879 -0.9619414568 -1.7763490925
| 37> H -2.1954000791 0.0134842545 3.6482566608
| 38> H -2.8818130249 -1.1985516893 2.5348058878
| 39> H 0.0343525714 -1.1200058309 3.4748045894
| 40> H -1.2106138205 -2.2219621094 4.0842823293
| 41> H -0.6627816175 -2.3369818617 2.4056218813
| 42> H -5.566750626 0.2865045155 0.0039318071
| 43> H -4.4018191549 1.2575977778 -0.9455052251
| 44> H -4.6845846243 -1.7784407781 -1.183943014
| 45> H -5.4287461439 -0.6103269319 -2.2921154244
| 46> H -3.6686657235 -0.7237954513 -2.1795637099
| 47> *
| 48>
| 49>                          ****END OF INPUT****

CARTESIAN COORDINATES (ANGSTROEM)
---------------------------------
  C      4.705996   -1.515299    0.013739
  C      4.476109   -0.271918   -0.823567
  O      3.519461    0.607917   -0.202899
  P      1.985498    0.647271   -0.630847
  S      1.700495    0.703381   -2.567875
  O      1.503639    1.946427    0.118888
  C      2.006419    2.422209    1.391350
  C      1.692317    1.468881    2.524416
  S      1.156515   -1.063903    0.326057
  C      0.024608   -1.685045   -0.955924
  S     -1.651065   -1.960521   -0.338384
  P     -2.081597    0.030954    0.265670
  S     -1.439335    1.461698   -0.910295
  O     -1.536491    0.179514    1.739150
  C     -1.971015   -0.677825    2.834546
  C     -0.877680   -1.652624    3.222319
  O     -3.653725    0.002352    0.510257
  C     -4.613716    0.268994   -0.526798
  C     -4.598273   -0.784396   -1.615419
  H      5.020761   -1.235812    1.015162
  H      3.797131   -2.107012    0.083815
  H      5.483965   -2.111664   -0.451859
  H      4.124597   -0.520705   -1.830342
  H      5.387316    0.324816   -0.899735
  H      3.081706    2.584255    1.294763
  H      1.493384    3.377626    1.514602
  H      2.232178    0.532648    2.389418
  H      1.992187    1.922285    3.464061
  H      0.624532    1.262187    2.547340
  H      0.380559   -2.654193   -1.296179
  H      0.011386   -0.961941   -1.776349
  H     -2.195400    0.013484    3.648257
  H     -2.881813   -1.198552    2.534806
  H      0.034353   -1.120006    3.474805
  H     -1.210614   -2.221962    4.084282
  H     -0.662782   -2.336982    2.405622
  H     -5.566751    0.286505    0.003932
  H     -4.401819    1.257598   -0.945505
  H     -4.684585   -1.778441   -1.183943
  H     -5.428746   -0.610327   -2.292115
  H     -3.668666   -0.723795   -2.179564

 Total Charge           Charge          ....    0
 Multiplicity           Mult            ....    1
 Number of Electrons    NEL             ....  202
 Basis Dimension        Dim             ....  334

ORBITAL ENERGIES
----------------

  NO   OCC          E(Eh)            E(eV)
   0   2.0000     -88.043072     -2395.7738
   1   2.0000     -88.039596     -2395.6792
   2   2.0000     -87.979123     -2394.0337
   3   2.0000     -87.976761     -2393.9694
   4   2.0000     -76.422891     -2079.5726
   5   2.0000     -76.421154     -2079.5253
   6   2.0000     -18.791271      -511.3365
   7   2.0000     -18.789022      -511.2753
   8   2.0000     -18.789014      -511.2751
   9   2.0000     -18.782484      -511.0974
  10   2.0000      -9.956668      -270.9347
  11   2.0000      -9.952166      -270.8122
  12   2.0000      -9.951084      -270.7828
  13   2.0000      -9.950101      -270.7560
  14   2.0000      -9.949505      -270.7398
  15   2.0000      -9.885516      -268.9986
  16   2.0000      -9.883119      -268.9333
  17   2.0000      -9.883114      -268.9332
  18   2.0000      -9.882760      -268.9236
  19   2.0000      -7.688012      -209.2015
  20   2.0000      -7.683666      -209.0832
  21   2.0000      -7.623934      -207.4578
  22   2.0000      -7.621991      -207.4049
  23   2.0000      -6.420192      -174.7023
  24   2.0000      -6.418280      -174.6503
  25   2.0000      -5.715818      -155.5353
  26   2.0000      -5.712430      -155.4431
  27   2.0000      -5.711507      -155.4180
  28   2.0000      -5.708141      -155.3264
  29   2.0000      -5.705165      -155.2454
  30   2.0000      -5.700777      -155.1260
  31   2.0000      -5.653050      -153.8273
  32   2.0000      -5.651064      -153.7733
  33   2.0000      -5.644403      -153.5920
  34   2.0000      -5.644085      -153.5834
  35   2.0000      -5.642383      -153.5370
  36   2.0000      -5.642162      -153.5310
  37   2.0000      -4.643071      -126.3444
  38   2.0000      -4.641951      -126.3139
  39   2.0000      -4.641246      -126.2947
  40   2.0000      -4.640397      -126.2716
  41   2.0000      -4.639827      -126.2561
  42   2.0000      -4.638651      -126.2241
  43   2.0000      -0.986208       -26.8361
  44   2.0000      -0.982606       -26.7381
  45   2.0000      -0.942250       -25.6399
  46   2.0000      -0.936907       -25.4945
  47   2.0000      -0.759926       -20.6786
  48   2.0000      -0.716991       -19.5103
  49   2.0000      -0.708958       -19.2917
  50   2.0000      -0.688571       -18.7370
  51   2.0000      -0.687246       -18.7009
  52   2.0000      -0.676258       -18.4019
  53   2.0000      -0.647140       -17.6096
  54   2.0000      -0.628554       -17.1038
  55   2.0000      -0.595712       -16.2102
  56   2.0000      -0.587540       -15.9878
  57   2.0000      -0.575505       -15.6603
  58   2.0000      -0.572735       -15.5849
  59   2.0000      -0.557696       -15.1757
  60   2.0000      -0.501322       -13.6417
  61   2.0000      -0.494872       -13.4661
  62   2.0000      -0.471038       -12.8176
  63   2.0000      -0.468704       -12.7541
  64   2.0000      -0.448856       -12.2140
  65   2.0000      -0.444469       -12.0946
  66   2.0000      -0.443283       -12.0623
  67   2.0000      -0.437346       -11.9008
  68   2.0000      -0.429666       -11.6918
  69   2.0000      -0.422072       -11.4851
  70   2.0000      -0.409531       -11.1439
  71   2.0000      -0.394618       -10.7381
  72   2.0000      -0.389778       -10.6064
  73   2.0000      -0.383836       -10.4447
  74   2.0000      -0.374483       -10.1902
  75   2.0000      -0.367991       -10.0135
  76   2.0000      -0.364911        -9.9297
  77   2.0000      -0.358965        -9.7679
  78   2.0000      -0.353551        -9.6206
  79   2.0000      -0.349982        -9.5235
  80   2.0000      -0.348088        -9.4720
  81   2.0000      -0.345132        -9.3915
  82   2.0000      -0.338498        -9.2110
  83   2.0000      -0.335530        -9.1302
  84   2.0000      -0.330936        -9.0052
  85   2.0000      -0.315844        -8.5946
  86   2.0000      -0.310391        -8.4462
  87   2.0000      -0.301552        -8.2056
  88   2.0000      -0.292217        -7.9516
  89   2.0000      -0.290513        -7.9053
  90   2.0000      -0.287464        -7.8223
  91   2.0000      -0.272503        -7.4152
  92   2.0000      -0.266774        -7.2593
  93   2.0000      -0.260282        -7.0826
  94   2.0000      -0.253557        -6.8996
  95   2.0000      -0.230353        -6.2682
  96   2.0000      -0.220742        -6.0067
  97   2.0000      -0.207950        -5.6586
  98   2.0000      -0.196131        -5.3370
  99   2.0000      -0.188947        -5.1415
 100   2.0000      -0.182034        -4.9534
 101   0.0000      -0.041082        -1.1179
 102   0.0000      -0.033506        -0.9117
 103   0.0000      -0.005845        -0.1590
 104   0.0000       0.009398         0.2557
 105   0.0000       0.016780         0.4566

MULLIKEN ATOMIC CHARGES
-----------------------
   0 C :   -0.298984
   1 C :   -0.003170
   2 O :   -0.388425
   3 P :    0.631392
   4 S :   -0.298220
   5 O :   -0.349096
   6 C :    0.015384
   7 C :   -0.361577
   8 S :   -0.136883
   9 C :   -0.331860
  10 S :   -0.116485
  11 P :    0.589213
  12 S :   -0.277623
  13 O :   -0.355299
  14 C :   -0.015647
  15 C :   -0.289262
  16 O :   -0.383215
  17 C :    0.003215
  18 C :   -0.320624
  19 H :    0.110518
  20 H :    0.121749
  21 H :    0.108957
  22 H :    0.101682
  23 H :    0.105372
  24 H :    0.107286
  25 H :    0.111122
  26 H :    0.121921
  27 H :    0.109822
  28 H :    0.154816
  29 H :    0.175072
  30 H :    0.208728
  31 H :    0.110033
  32 H :    0.109452
  33 H :    0.123785
  34 H :    0.107419
  35 H :    0.121277
  36 H :    0.103083
  37 H :    0.112604
  38 H :    0.115433
  39 H :    0.114026
  40 H :    0.133008
Sum of atomic charges:   -0.0000000

LOEWDIN ATOMIC CHARGES
----------------------
   0 C :   -0.365838
   1 C :   -0.118983
   2 O :   -0.251568
   3 P :    0.574204
   4 S :   -0.297245
   5 O :   -0.226708
   6 C :   -0.105727
   7 C :   -0.376179
   8 S :    0.074844
   9 C :   -0.481287
  10 S :    0.072431
  11 P :    0.559623
  12 S :   -0.284598
  13 O :   -0.236935
  14 C :   -0.111634
  15 C :   -0.362872
  16 O :   -0.251179
  17 C :   -0.116002
  18 C :   -0.371715
  19 H :    0.123338
  20 H :    0.117269
  21 H :    0.129319
  22 H :    0.106359
  23 H :    0.118656
  24 H :    0.112538
  25 H :    0.123963
  26 H :    0.114098
  27 H :    0.129576
  28 H :    0.131617
  29 H :    0.134354
  30 H :    0.125329
  31 H :    0.121002
  32 H :    0.110531
  33 H :    0.126860
  34 H :    0.128577
  35 H :    0.115731
  36 H :    0.117743
  37 H :    0.113359
  38 H :    0.122008
  39 H :    0.131580
  40 H :    0.123557

  Mayer bond orders larger than 0.100000
B(  0-C ,  1-C ) :   1.1660 B(  0-C , 19-H ) :   0.9483 B(  0-C , 20-H ) :   0.9335
B(  0-C , 21-H ) :   0.9400 B(  1-C ,  2-O ) :   0.9083 B(  1-C , 22-H ) :   0.9027
B(  1-C , 23-H ) :   0.9358 B(  2-O ,  3-P ) :   1.0649 B(  3-P ,  4-S ) :   1.6384
B(  3-P ,  5-O ) :   1.1408 B(  3-P ,  8-S ) :   0.9344 B(  4-S ,  8-S ) :   0.1174
B(  4-S , 30-H ) :   0.1040 B(  5-O ,  6-C ) :   0.9030 B(  6-C ,  7-C ) :   1.1695
B(  6-C , 24-H ) :   0.9263 B(  6-C , 25-H ) :   0.9315 B(  7-C , 26-H ) :   0.9347
B(  7-C , 27-H ) :   0.9350 B(  7-C , 28-H ) :   0.9237 B(  8-S ,  9-C ) :   1.0009
B(  9-C , 10-S ) :   1.0011 B(  9-C , 29-H ) :   0.9106 B(  9-C , 30-H ) :   0.8439
B( 10-S , 11-P ) :   0.9338 B( 10-S , 12-S ) :   0.1076 B( 11-P , 12-S ) :   1.6696
B( 11-P , 13-O ) :   1.1175 B( 11-P , 16-O ) :   1.0813 B( 13-O , 14-C ) :   0.8821
B( 14-C , 15-C ) :   1.1674 B( 14-C , 31-H ) :   0.9355 B( 14-C , 32-H ) :   0.9178
B( 15-C , 33-H ) :   0.9441 B( 15-C , 34-H ) :   0.9377 B( 15-C , 35-H ) :   0.9304
B( 16-O , 17-C ) :   0.9065 B( 17-C , 18-C ) :   1.1666 B( 17-C , 36-H ) :   0.9346
B( 17-C , 37-H ) :   0.9173 B( 18-C , 38-H ) :   0.9436 B( 18-C , 39-H ) :   0.9370
B( 18-C , 40-H ) :   0.9343

Dispersion correction           -0.068325234
FINAL SINGLE POINT ENERGY     -2929.513805738838

DIPOLE MOMENT
-------------

Method             : SCF
Type of density    : Electron Density
Multiplicity       :   1
Irrep              :   0
Energy             : -2929.6318168960838193 Eh
Relativity type    :
Basis              : AO
                                X                 Y                 Z
Electronic contribution:     -2.938295927       7.118599569     -13.508777654
Nuclear contribution   :      2.869836766      -8.064723705      15.099824662
                        -----------------------------------------
Total Dipole Moment    :     -0.068459161      -0.946124136       1.591047008
                        -----------------------------------------
Magnitude (a.u.)       :      1.852368246
Magnitude (Debye)      :      4.708345902

Rotational constants in cm-1:             0.012469             0.005528             0.005141
Rotational constants in MHz :           373.800542           165.710867           154.109322

                             ****ORCA TERMINATED NORMALLY****
TOTAL RUN TIME: 0 days 0 hours 0 minutes 22 seconds 601 msec
