                         Program Version 6.0.1  -  RELEASE   -
|  1> ! pbe def2-sv(p) def2/J RI DEFGRID1 loosescf d4 GCP(DFT/SV(P)) printgap
|  2> %output
|  3>     printlevel normal
|  4> end
|  5> * xyz 0 1
|  6> C 2.5292467795 -3.9057920143 -0.1445625439
|  7> C 1.5455798705 -2.8704083588 0.3736465049
|  8> O 1.322297716 -1.8579884089 -0.6235967472
|  9> C 2.0676622675 -0.7634164005 -0.6004129634
| 10> O 2.872236212 -0.4898865357 0.2613728912
| 11> C 1.8030492864 0.1092846138 -1.814310614
| 12> C 0.4922895325 0.8908224516 -1.700942842
| 13> H 0.3698421028 1.5038389058 -2.5998459273
| 14> C 0.4413001836 1.8074845636 -0.4951199148
| 15> O -0.538492271 1.866416481 0.225743483
| 16> O 1.5356123998 2.4943927465 -0.3428207789
| 17> C 1.6350671704 3.3904236709 0.7849237966
| 18> C 1.0017506535 4.7346192332 0.4675240027
| 19> S -0.9804194301 -0.1743373559 -1.6700114817
| 20> P -1.3807040791 -0.4893164355 0.4113928959
| 21> S -0.1537728881 -0.3815457996 1.9435547432
| 22> O -2.8173227498 0.1826816837 0.6350108553
| 23> C -3.0907544952 1.4287228523 1.27134846
| 24> O -1.8290748636 -2.018460642 0.339408188
| 25> C -2.8330970618 -2.5164952822 -0.560921742
| 26> H 3.5009470978 -3.4462105004 -0.3096384963
| 27> H 2.632468606 -4.6958232049 0.5916581583
| 28> H 2.1688632719 -4.3275466281 -1.0785978484
| 29> H 1.9127125997 -2.3893083218 1.2850164336
| 30> H 0.5625660342 -3.3044745992 0.5630482289
| 31> H 1.7451009217 -0.5323671116 -2.6933773147
| 32> H 2.6271718499 0.8175566624 -1.9052180148
| 33> H 1.1559911188 2.9166638909 1.6466030079
| 34> H 2.707627935 3.4796637752 0.9558971367
| 35> H 1.1543186674 5.404420587 1.3070571863
| 36> H 1.4584956 5.1625806648 -0.4203777603
| 37> H -0.0664513056 4.6183801805 0.3004750031
| 38> H -2.3726285168 1.6093088213 2.0716224237
| 39> H -4.0970299278 1.336751064 1.6741696535
| 40> H -3.0358083288 2.2345961003 0.5416882892
| 41> H -3.7638829156 -1.9695227434 -0.4231477706
| 42> H -2.9588004257 -3.5629217227 -0.2943951297
| 43> H -2.4894959737 -2.4199242967 -1.5908787524
| 44> *
| 45>
| 46>                          ****END OF INPUT****

CARTESIAN COORDINATES (ANGSTROEM)
---------------------------------
  C      2.529247   -3.905792   -0.144563
  C      1.545580   -2.870408    0.373647
  O      1.322298   -1.857988   -0.623597
  C      2.067662   -0.763416   -0.600413
  O      2.872236   -0.489887    0.261373
  C      1.803049    0.109285   -1.814311
  C      0.492290    0.890822   -1.700943
  H      0.369842    1.503839   -2.599846
  C      0.441300    1.807485   -0.495120
  O     -0.538492    1.866416    0.225743
  O      1.535612    2.494393   -0.342821
  C      1.635067    3.390424    0.784924
  C      1.001751    4.734619    0.467524
  S     -0.980419   -0.174337   -1.670011
  P     -1.380704   -0.489316    0.411393
  S     -0.153773   -0.381546    1.943555
  O     -2.817323    0.182682    0.635011
  C     -3.090754    1.428723    1.271348
  O     -1.829075   -2.018461    0.339408
  C     -2.833097   -2.516495   -0.560922
  H      3.500947   -3.446211   -0.309638
  H      2.632469   -4.695823    0.591658
  H      2.168863   -4.327547   -1.078598
  H      1.912713   -2.389308    1.285016
  H      0.562566   -3.304475    0.563048
  H      1.745101   -0.532367   -2.693377
  H      2.627172    0.817557   -1.905218
  H      1.155991    2.916664    1.646603
  H      2.707628    3.479664    0.955897
  H      1.154319    5.404421    1.307057
  H      1.458496    5.162581   -0.420378
  H     -0.066451    4.618380    0.300475
  H     -2.372629    1.609309    2.071622
  H     -4.097030    1.336751    1.674170
  H     -3.035808    2.234596    0.541688
  H     -3.763883   -1.969523   -0.423148
  H     -2.958800   -3.562922   -0.294395
  H     -2.489496   -2.419924   -1.590879

 Total Charge           Charge          ....    0
 Multiplicity           Mult            ....    1
 Number of Electrons    NEL             ....  174
 Basis Dimension        Dim             ....  316

ORBITAL ENERGIES
----------------

  NO   OCC          E(Eh)            E(eV)
   0   2.0000     -88.031581     -2395.4611
   1   2.0000     -87.967357     -2393.7135
   2   2.0000     -76.419211     -2079.4724
   3   2.0000     -18.823896      -512.2242
   4   2.0000     -18.791362      -511.3390
   5   2.0000     -18.778093      -510.9779
   6   2.0000     -18.776359      -510.9307
   7   2.0000     -18.762202      -510.5455
   8   2.0000     -18.724677      -509.5244
   9   2.0000     -10.031095      -272.9600
  10   2.0000     -10.001237      -272.1475
  11   2.0000      -9.958475      -270.9839
  12   2.0000      -9.956174      -270.9213
  13   2.0000      -9.939204      -270.4595
  14   2.0000      -9.932174      -270.2682
  15   2.0000      -9.926150      -270.1043
  16   2.0000      -9.910967      -269.6911
  17   2.0000      -9.895364      -269.2666
  18   2.0000      -9.875693      -268.7313
  19   2.0000      -7.676893      -208.8989
  20   2.0000      -7.612434      -207.1449
  21   2.0000      -6.414304      -174.5421
  22   2.0000      -5.705137      -155.2447
  23   2.0000      -5.701557      -155.1473
  24   2.0000      -5.693227      -154.9206
  25   2.0000      -5.642033      -153.5275
  26   2.0000      -5.633063      -153.2834
  27   2.0000      -5.631832      -153.2500
  28   2.0000      -4.637283      -126.1869
  29   2.0000      -4.636287      -126.1598
  30   2.0000      -4.634724      -126.1172
  31   2.0000      -1.034334       -28.1457
  32   2.0000      -0.996130       -27.1061
  33   2.0000      -0.970804       -26.4169
  34   2.0000      -0.940728       -25.5985
  35   2.0000      -0.925811       -25.1926
  36   2.0000      -0.903200       -24.5773
  37   2.0000      -0.768839       -20.9212
  38   2.0000      -0.714421       -19.4404
  39   2.0000      -0.697924       -18.9915
  40   2.0000      -0.684917       -18.6375
  41   2.0000      -0.653160       -17.7734
  42   2.0000      -0.628883       -17.1128
  43   2.0000      -0.626475       -17.0472
  44   2.0000      -0.606152       -16.4942
  45   2.0000      -0.590258       -16.0617
  46   2.0000      -0.565455       -15.3868
  47   2.0000      -0.514200       -13.9921
  48   2.0000      -0.504105       -13.7174
  49   2.0000      -0.493362       -13.4251
  50   2.0000      -0.480655       -13.0793
  51   2.0000      -0.468798       -12.7566
  52   2.0000      -0.450829       -12.2677
  53   2.0000      -0.449684       -12.2365
  54   2.0000      -0.433780       -11.8037
  55   2.0000      -0.430381       -11.7113
  56   2.0000      -0.421236       -11.4624
  57   2.0000      -0.415608       -11.3093
  58   2.0000      -0.409248       -11.1362
  59   2.0000      -0.404426       -11.0050
  60   2.0000      -0.400574       -10.9002
  61   2.0000      -0.396234       -10.7821
  62   2.0000      -0.386819       -10.5259
  63   2.0000      -0.382210       -10.4005
  64   2.0000      -0.371825       -10.1179
  65   2.0000      -0.367576       -10.0023
  66   2.0000      -0.364036        -9.9059
  67   2.0000      -0.354569        -9.6483
  68   2.0000      -0.344326        -9.3696
  69   2.0000      -0.339970        -9.2511
  70   2.0000      -0.332462        -9.0467
  71   2.0000      -0.322841        -8.7850
  72   2.0000      -0.317431        -8.6377
  73   2.0000      -0.307653        -8.3717
  74   2.0000      -0.305655        -8.3173
  75   2.0000      -0.293592        -7.9890
  76   2.0000      -0.285992        -7.7822
  77   2.0000      -0.281248        -7.6531
  78   2.0000      -0.279080        -7.5941
  79   2.0000      -0.260350        -7.0845
  80   2.0000      -0.250621        -6.8197
  81   2.0000      -0.247110        -6.7242
  82   2.0000      -0.245323        -6.6756
  83   2.0000      -0.211575        -5.7573
  84   2.0000      -0.205528        -5.5927
  85   2.0000      -0.186748        -5.0817
  86   2.0000      -0.177628        -4.8335
  87   0.0000      -0.048728        -1.3260
  88   0.0000      -0.043205        -1.1757
  89   0.0000      -0.020161        -0.5486
  90   0.0000      -0.002458        -0.0669
  91   0.0000       0.035082         0.9546

MULLIKEN ATOMIC CHARGES
-----------------------
   0 C :   -0.287705
   1 C :   -0.030794
   2 O :   -0.232866
   3 C :    0.079164
   4 O :   -0.190844
   5 C :   -0.003188
   6 C :   -0.313360
   7 H :    0.156009
   8 C :    0.218356
   9 O :   -0.198107
  10 O :   -0.209803
  11 C :   -0.010852
  12 C :   -0.311140
  13 S :   -0.114733
  14 P :    0.636628
  15 S :   -0.318971
  16 O :   -0.397928
  17 C :   -0.079443
  18 O :   -0.373618
  19 C :   -0.117680
  20 H :    0.114123
  21 H :    0.110009
  22 H :    0.105977
  23 H :    0.121194
  24 H :    0.109075
  25 H :    0.111149
  26 H :    0.114206
  27 H :    0.128391
  28 H :    0.115672
  29 H :    0.120398
  30 H :    0.115391
  31 H :    0.125805
  32 H :    0.115578
  33 H :    0.114199
  34 H :    0.108244
  35 H :    0.120966
  36 H :    0.126245
  37 H :    0.124252
Sum of atomic charges:   -0.0000000

LOEWDIN ATOMIC CHARGES
----------------------
   0 C :   -0.355219
   1 C :   -0.123801
   2 O :   -0.060052
   3 C :    0.016192
   4 O :   -0.157507
   5 C :   -0.246167
   6 C :   -0.260112
   7 H :    0.152729
   8 C :    0.022582
   9 O :   -0.154815
  10 O :   -0.026504
  11 C :   -0.103381
  12 C :   -0.356639
  13 S :    0.092280
  14 P :    0.586628
  15 S :   -0.301240
  16 O :   -0.259256
  17 C :   -0.207489
  18 O :   -0.252316
  19 C :   -0.217681
  20 H :    0.125161
  21 H :    0.129202
  22 H :    0.120739
  23 H :    0.119010
  24 H :    0.116468
  25 H :    0.138771
  26 H :    0.141884
  27 H :    0.128889
  28 H :    0.125220
  29 H :    0.134742
  30 H :    0.125530
  31 H :    0.129118
  32 H :    0.110282
  33 H :    0.115132
  34 H :    0.109187
  35 H :    0.113204
  36 H :    0.123150
  37 H :    0.106076

  Mayer bond orders larger than 0.100000
B(  0-C ,  1-C ) :   1.1621 B(  0-C , 20-H ) :   0.9479 B(  0-C , 21-H ) :   0.9464
B(  0-C , 22-H ) :   0.9487 B(  1-C ,  2-O ) :   0.9010 B(  1-C , 23-H ) :   0.9064
B(  1-C , 24-H ) :   0.9289 B(  2-O ,  3-C ) :   1.2105 B(  3-C ,  4-O ) :   2.0653
B(  3-C ,  5-C ) :   1.0050 B(  5-C ,  6-C ) :   1.0353 B(  5-C , 25-H ) :   0.8916
B(  5-C , 26-H ) :   0.8817 B(  6-C ,  7-H ) :   0.8694 B(  6-C ,  8-C ) :   0.9030
B(  6-C , 13-S ) :   1.0612 B(  8-C ,  9-O ) :   1.9116 B(  8-C , 10-O ) :   1.2933
B(  9-O , 14-P ) :   0.1148 B( 10-O , 11-C ) :   0.8939 B( 11-C , 12-C ) :   1.1699
B( 11-C , 27-H ) :   0.9150 B( 11-C , 28-H ) :   0.9362 B( 12-C , 29-H ) :   0.9438
B( 12-C , 30-H ) :   0.9475 B( 12-C , 31-H ) :   0.9455 B( 13-S , 14-P ) :   0.9062
B( 13-S , 15-S ) :   0.1161 B( 14-P , 15-S ) :   1.5673 B( 14-P , 16-O ) :   1.0785
B( 14-P , 18-O ) :   1.0832 B( 16-O , 17-C ) :   0.9346 B( 17-C , 32-H ) :   0.9384
B( 17-C , 33-H ) :   0.9552 B( 17-C , 34-H ) :   0.9529 B( 18-O , 19-C ) :   0.9325
B( 19-C , 35-H ) :   0.9444 B( 19-C , 36-H ) :   0.9604 B( 19-C , 37-H ) :   0.9363

Dispersion correction           -0.055872493
FINAL SINGLE POINT ENERGY     -1979.001726122127

DIPOLE MOMENT
-------------

Method             : SCF
Type of density    : Electron Density
Multiplicity       :   1
Irrep              :   0
Energy             : -1979.1302867044050799 Eh
Relativity type    :
Basis              : AO
                                X                 Y                 Z
Electronic contribution:     -4.689739508      -1.894652338      -0.390871682
Nuclear contribution   :      4.287990867       2.740991002      -0.723023662
                        -----------------------------------------
Total Dipole Moment    :     -0.401748641       0.846338664      -1.113895344
                        -----------------------------------------
Magnitude (a.u.)       :      1.455490963
Magnitude (Debye)      :      3.699564018

Rotational constants in cm-1:             0.011859             0.009820             0.007003
Rotational constants in MHz :           355.532675           294.405658           209.955984

                             ****ORCA TERMINATED NORMALLY****
TOTAL RUN TIME: 0 days 0 hours 0 minutes 38 seconds 514 msec
