                         Program Version 6.0.1  -  RELEASE   -
|  1> ! pbe def2-sv(p) def2/J RI DEFGRID1 loosescf d4 GCP(DFT/SV(P)) printgap
|  2> %output
|  3>     printlevel normal
|  4> end
|  5> * xyz 0 1
|  6> C 3.8355802868 -1.065744809 1.8443406178
|  7> C 2.7999827796 -1.9624769409 1.1854613402
|  8> O 2.436282719 -1.4590913391 -0.1137627603
|  9> C 1.5112182123 -0.5391952286 -0.1944911613
| 10> O 0.9386130584 -0.0323756732 0.7576046408
| 11> C 1.2437609376 -0.108240695 -1.6187473683
| 12> C 0.2037562695 1.0018370125 -1.6221569423
| 13> H 0.2224590834 1.5411514504 -2.5732875994
| 14> C 0.4456037066 2.0039095352 -0.4996673126
| 15> O -0.4314454742 2.4823088537 0.1831926491
| 16> O 1.7135231144 2.3537673353 -0.4421930225
| 17> C 2.0907083838 3.2984457702 0.5800908462
| 18> C 3.5654452917 3.6056776181 0.414757552
| 19> S -1.5215850546 0.4187126489 -1.5327768164
| 20> P -1.7050761862 -0.9455292894 0.0856005336
| 21> S -0.6657614462 -2.6066904731 0.0486408284
| 22> O -1.6980481861 -0.2304012804 1.4918991311
| 23> C -2.5674534523 0.8651163815 1.8395241507
| 24> O -3.2751446694 -1.2315842689 -0.0715227485
| 25> C -3.7895385112 -2.0105700771 -1.1567997002
| 26> H 4.138736441 -1.5042039259 2.7891824619
| 27> H 4.7038213202 -0.96367608 1.1993411823
| 28> H 3.4112190093 -0.0818350475 2.0328548823
| 29> H 1.8940151701 -2.0360092322 1.7947703934
| 30> H 3.1957746623 -2.9579769396 0.9858568288
| 31> H 0.912556617 -0.9708074887 -2.1997437992
| 32> H 2.1821751294 0.2513415927 -2.044088638
| 33> H 1.4699659337 4.1926393914 0.4671205342
| 34> H 1.869596126 2.8464152501 1.5527333693
| 35> H 3.8671456944 4.3208058424 1.1726082522
| 36> H 4.1519110243 2.6983545672 0.5257771044
| 37> H 3.7494571978 4.0255560261 -0.5694052376
| 38> H -2.5296870842 0.918227819 2.924399698
| 39> H -3.5800790696 0.6664164598 1.4947322489
| 40> H -2.1811607847 1.7834872742 1.3978376422
| 41> H -3.1744580256 -2.900249057 -1.3015288203
| 42> H -3.8023291098 -1.4125844566 -2.0670198987
| 43> H -4.7983967366 -2.2900183085 -0.8638286811
| 44> *
| 45>
| 46>                          ****END OF INPUT****

CARTESIAN COORDINATES (ANGSTROEM)
---------------------------------
  C      3.835580   -1.065745    1.844341
  C      2.799983   -1.962477    1.185461
  O      2.436283   -1.459091   -0.113763
  C      1.511218   -0.539195   -0.194491
  O      0.938613   -0.032376    0.757605
  C      1.243761   -0.108241   -1.618747
  C      0.203756    1.001837   -1.622157
  H      0.222459    1.541151   -2.573288
  C      0.445604    2.003910   -0.499667
  O     -0.431445    2.482309    0.183193
  O      1.713523    2.353767   -0.442193
  C      2.090708    3.298446    0.580091
  C      3.565445    3.605678    0.414758
  S     -1.521585    0.418713   -1.532777
  P     -1.705076   -0.945529    0.085601
  S     -0.665761   -2.606690    0.048641
  O     -1.698048   -0.230401    1.491899
  C     -2.567453    0.865116    1.839524
  O     -3.275145   -1.231584   -0.071523
  C     -3.789539   -2.010570   -1.156800
  H      4.138736   -1.504204    2.789182
  H      4.703821   -0.963676    1.199341
  H      3.411219   -0.081835    2.032855
  H      1.894015   -2.036009    1.794770
  H      3.195775   -2.957977    0.985857
  H      0.912557   -0.970807   -2.199744
  H      2.182175    0.251342   -2.044089
  H      1.469966    4.192639    0.467121
  H      1.869596    2.846415    1.552733
  H      3.867146    4.320806    1.172608
  H      4.151911    2.698355    0.525777
  H      3.749457    4.025556   -0.569405
  H     -2.529687    0.918228    2.924400
  H     -3.580079    0.666416    1.494732
  H     -2.181161    1.783487    1.397838
  H     -3.174458   -2.900249   -1.301529
  H     -3.802329   -1.412584   -2.067020
  H     -4.798397   -2.290018   -0.863829

 Total Charge           Charge          ....    0
 Multiplicity           Mult            ....    1
 Number of Electrons    NEL             ....  174
 Basis Dimension        Dim             ....  316

ORBITAL ENERGIES
----------------

  NO   OCC          E(Eh)            E(eV)
   0   2.0000     -88.032275     -2395.4800
   1   2.0000     -87.971249     -2393.8194
   2   2.0000     -76.418052     -2079.4409
   3   2.0000     -18.804418      -511.6942
   4   2.0000     -18.803937      -511.6812
   5   2.0000     -18.784238      -511.1451
   6   2.0000     -18.778876      -510.9992
   7   2.0000     -18.740127      -509.9448
   8   2.0000     -18.734823      -509.8005
   9   2.0000     -10.014278      -272.5024
  10   2.0000     -10.013263      -272.4747
  11   2.0000      -9.949959      -270.7522
  12   2.0000      -9.948636      -270.7162
  13   2.0000      -9.943597      -270.5790
  14   2.0000      -9.937683      -270.4181
  15   2.0000      -9.926801      -270.1220
  16   2.0000      -9.911423      -269.7035
  17   2.0000      -9.892493      -269.1884
  18   2.0000      -9.886807      -269.0337
  19   2.0000      -7.677113      -208.9049
  20   2.0000      -7.616638      -207.2593
  21   2.0000      -6.414671      -174.5521
  22   2.0000      -5.705251      -155.2478
  23   2.0000      -5.701537      -155.1467
  24   2.0000      -5.693898      -154.9388
  25   2.0000      -5.645734      -153.6282
  26   2.0000      -5.636931      -153.3887
  27   2.0000      -5.636810      -153.3854
  28   2.0000      -4.637714      -126.1986
  29   2.0000      -4.636612      -126.1686
  30   2.0000      -4.634763      -126.1183
  31   2.0000      -1.015958       -27.6456
  32   2.0000      -1.009832       -27.4789
  33   2.0000      -0.975481       -26.5442
  34   2.0000      -0.930761       -25.3273
  35   2.0000      -0.918582       -24.9959
  36   2.0000      -0.914273       -24.8786
  37   2.0000      -0.761938       -20.7334
  38   2.0000      -0.710276       -19.3276
  39   2.0000      -0.707723       -19.2581
  40   2.0000      -0.686972       -18.6935
  41   2.0000      -0.654435       -17.8081
  42   2.0000      -0.627662       -17.0795
  43   2.0000      -0.620413       -16.8823
  44   2.0000      -0.606629       -16.5072
  45   2.0000      -0.592675       -16.1275
  46   2.0000      -0.562058       -15.2944
  47   2.0000      -0.515561       -14.0291
  48   2.0000      -0.501630       -13.6501
  49   2.0000      -0.494105       -13.4453
  50   2.0000      -0.483107       -13.1460
  51   2.0000      -0.463732       -12.6188
  52   2.0000      -0.450480       -12.2582
  53   2.0000      -0.446103       -12.1391
  54   2.0000      -0.434422       -11.8212
  55   2.0000      -0.432307       -11.7637
  56   2.0000      -0.421340       -11.4653
  57   2.0000      -0.419041       -11.4027
  58   2.0000      -0.410257       -11.1637
  59   2.0000      -0.404362       -11.0032
  60   2.0000      -0.397995       -10.8300
  61   2.0000      -0.391841       -10.6625
  62   2.0000      -0.387166       -10.5353
  63   2.0000      -0.384311       -10.4576
  64   2.0000      -0.374573       -10.1927
  65   2.0000      -0.362746        -9.8708
  66   2.0000      -0.358211        -9.7474
  67   2.0000      -0.355794        -9.6816
  68   2.0000      -0.349491        -9.5101
  69   2.0000      -0.337890        -9.1945
  70   2.0000      -0.330973        -9.0062
  71   2.0000      -0.321027        -8.7356
  72   2.0000      -0.317236        -8.6324
  73   2.0000      -0.308257        -8.3881
  74   2.0000      -0.306930        -8.3520
  75   2.0000      -0.295352        -8.0369
  76   2.0000      -0.291465        -7.9312
  77   2.0000      -0.284745        -7.7483
  78   2.0000      -0.263819        -7.1789
  79   2.0000      -0.259882        -7.0717
  80   2.0000      -0.252702        -6.8764
  81   2.0000      -0.248865        -6.7720
  82   2.0000      -0.229949        -6.2572
  83   2.0000      -0.227251        -6.1838
  84   2.0000      -0.216903        -5.9022
  85   2.0000      -0.190954        -5.1961
  86   2.0000      -0.184562        -5.0222
  87   0.0000      -0.035215        -0.9583
  88   0.0000      -0.021251        -0.5783
  89   0.0000      -0.018196        -0.4951
  90   0.0000      -0.003568        -0.0971
  91   0.0000       0.024670         0.6713

MULLIKEN ATOMIC CHARGES
-----------------------
   0 C :   -0.313002
   1 C :   -0.009138
   2 O :   -0.211228
   3 C :    0.124890
   4 O :   -0.215374
   5 C :   -0.073376
   6 C :   -0.293523
   7 H :    0.143999
   8 C :    0.212836
   9 O :   -0.184673
  10 O :   -0.247771
  11 C :   -0.026233
  12 C :   -0.277250
  13 S :   -0.099641
  14 P :    0.631339
  15 S :   -0.342486
  16 O :   -0.350193
  17 C :   -0.124608
  18 O :   -0.393058
  19 C :   -0.103114
  20 H :    0.114602
  21 H :    0.111197
  22 H :    0.127155
  23 H :    0.123737
  24 H :    0.104335
  25 H :    0.139494
  26 H :    0.121980
  27 H :    0.106599
  28 H :    0.115268
  29 H :    0.112861
  30 H :    0.116724
  31 H :    0.113765
  32 H :    0.119210
  33 H :    0.114515
  34 H :    0.152472
  35 H :    0.117587
  36 H :    0.117365
  37 H :    0.122740
Sum of atomic charges:   -0.0000000

LOEWDIN ATOMIC CHARGES
----------------------
   0 C :   -0.358062
   1 C :   -0.108822
   2 O :   -0.037706
   3 C :    0.022145
   4 O :   -0.163195
   5 C :   -0.257295
   6 C :   -0.262555
   7 H :    0.150935
   8 C :    0.013390
   9 O :   -0.158642
  10 O :   -0.065570
  11 C :   -0.104341
  12 C :   -0.351118
  13 S :    0.102505
  14 P :    0.578215
  15 S :   -0.319089
  16 O :   -0.225314
  17 C :   -0.214919
  18 O :   -0.260950
  19 C :   -0.217697
  20 H :    0.131688
  21 H :    0.122897
  22 H :    0.127565
  23 H :    0.124084
  24 H :    0.119539
  25 H :    0.148423
  26 H :    0.147667
  27 H :    0.116974
  28 H :    0.120726
  29 H :    0.131733
  30 H :    0.125933
  31 H :    0.126201
  32 H :    0.121464
  33 H :    0.110137
  34 H :    0.123316
  35 H :    0.109811
  36 H :    0.108741
  37 H :    0.121184

  Mayer bond orders larger than 0.100000
B(  0-C ,  1-C ) :   1.1685 B(  0-C , 20-H ) :   0.9438 B(  0-C , 21-H ) :   0.9479
B(  0-C , 22-H ) :   0.9435 B(  1-C ,  2-O ) :   0.9077 B(  1-C , 23-H ) :   0.9109
B(  1-C , 24-H ) :   0.9387 B(  2-O ,  3-C ) :   1.2755 B(  3-C ,  4-O ) :   1.8982
B(  3-C ,  5-C ) :   1.0076 B(  5-C ,  6-C ) :   1.0360 B(  5-C , 25-H ) :   0.8842
B(  5-C , 26-H ) :   0.8740 B(  6-C ,  7-H ) :   0.8659 B(  6-C ,  8-C ) :   0.8747
B(  6-C , 13-S ) :   1.0573 B(  8-C ,  9-O ) :   2.0478 B(  8-C , 10-O ) :   1.2196
B( 10-O , 11-C ) :   0.9036 B( 11-C , 12-C ) :   1.1529 B( 11-C , 27-H ) :   0.9312
B( 11-C , 28-H ) :   0.9281 B( 12-C , 29-H ) :   0.9435 B( 12-C , 30-H ) :   0.9488
B( 12-C , 31-H ) :   0.9497 B( 13-S , 14-P ) :   0.9707 B( 13-S , 15-S ) :   0.1140
B( 14-P , 15-S ) :   1.5990 B( 14-P , 16-O ) :   1.1533 B( 14-P , 18-O ) :   1.0497
B( 16-O , 17-C ) :   0.9099 B( 17-C , 32-H ) :   0.9590 B( 17-C , 33-H ) :   0.9427
B( 17-C , 34-H ) :   0.9239 B( 18-O , 19-C ) :   0.9347 B( 19-C , 35-H ) :   0.9303
B( 19-C , 36-H ) :   0.9493 B( 19-C , 37-H ) :   0.9586

Dispersion correction           -0.054424002
FINAL SINGLE POINT ENERGY     -1979.013128152359

DIPOLE MOMENT
-------------

Method             : SCF
Type of density    : Electron Density
Multiplicity       :   1
Irrep              :   0
Energy             : -1979.1433359624020341 Eh
Relativity type    :
Basis              : AO
                                X                 Y                 Z
Electronic contribution:    -15.470222109      -7.756685425      -6.613935657
Nuclear contribution   :     16.313978407       8.560608930       6.296142328
                        -----------------------------------------
Total Dipole Moment    :      0.843756298       0.803923505      -0.317793329
                        -----------------------------------------
Magnitude (a.u.)       :      1.207977770
Magnitude (Debye)      :      3.070435479

Rotational constants in cm-1:             0.013928             0.008052             0.006393
Rotational constants in MHz :           417.560251           241.383550           191.664331

                             ****ORCA TERMINATED NORMALLY****
TOTAL RUN TIME: 0 days 0 hours 0 minutes 46 seconds 124 msec
