                         Program Version 6.0.0  -   RELEASE  -
|  1> ! pbe def2-sv(p) def2/J RI DEFGRID1 loosescf d4 GCP(DFT/SV(P)) printgap
|  2> %output
|  3>     printlevel normal
|  4> end
|  5> * xyz 0 1
|  6> C 3.9103548932 1.0754504517 -1.7806587821
|  7> C 2.5329651914 0.4546518662 -1.8829803906
|  8> O 2.3046629176 -0.4856379291 -0.8241222386
|  9> P 1.9648956021 -0.0190814581 0.6687703317
| 10> S 0.981975373 1.6692640001 0.781287289
| 11> O 3.3128258371 0.1200316351 1.490465477
| 12> C 4.1328754731 -0.9663284137 1.9818841769
| 13> C 4.7579868839 -1.7755527711 0.8652007966
| 14> S 1.1302982206 -1.7985003315 1.4118427415
| 15> C -0.4013199127 -1.8729032664 0.448377798
| 16> S -1.6879693903 -0.7318735836 1.0362877222
| 17> P -2.0377758674 0.4186561122 -0.7287387966
| 18> S -0.8867305343 -0.0330447074 -2.2471922389
| 19> O -1.9372461353 1.9589394416 -0.437947467
| 20> C -2.8315473044 2.7418179401 0.3869806031
| 21> C -2.7816795552 2.3315994652 1.8433257763
| 22> O -3.6115061703 0.2696038758 -0.942715328
| 23> C -4.3434544439 -0.9681967511 -0.9473821532
| 24> C -3.9301359985 -1.8880811237 -2.0778570758
| 25> H 3.997215964 1.618323017 -0.8394601845
| 26> H 4.6748289515 0.3043756805 -1.8210184349
| 27> H 4.0533586581 1.7681509466 -2.6039677293
| 28> H 2.4065365245 -0.1297171556 -2.7957600533
| 29> H 1.7553192599 1.2254905831 -1.8442795556
| 30> H 4.8885683028 -0.456285647 2.5817186727
| 31> H 3.5161344806 -1.5988267057 2.6251064357
| 32> H 5.3873611885 -2.5465160289 1.2986003144
| 33> H 3.985086751 -2.2467609875 0.2618620848
| 34> H 5.3641827596 -1.1360264104 0.2289652411
| 35> H -0.7690043174 -2.887615894 0.5777383534
| 36> H -0.1894969286 -1.6508732631 -0.6023157301
| 37> H -2.4625987412 3.7592918802 0.2484362548
| 38> H -3.8407970553 2.6485822451 -0.0191723418
| 39> H -3.2052096605 1.3373778848 1.9778668116
| 40> H -1.7500272453 2.3244825183 2.1896848206
| 41> H -3.3517375894 3.0421625083 2.4334123483
| 42> H -4.2036456825 -1.4554522471 0.0219911877
| 43> H -5.3818417404 -0.6494164265 -1.0546791013
| 44> H -2.8963734094 -2.2046819041 -1.9506853257
| 45> H -4.5724315329 -2.7627136838 -2.0821383737
| 46> H -4.013254262 -1.3746403779 -3.0326315675
| 47> *
| 48>
| 49>                          ****END OF INPUT****

CARTESIAN COORDINATES (ANGSTROEM)
---------------------------------
  C      3.910355    1.075450   -1.780659
  C      2.532965    0.454652   -1.882980
  O      2.304663   -0.485638   -0.824122
  P      1.964896   -0.019081    0.668770
  S      0.981975    1.669264    0.781287
  O      3.312826    0.120032    1.490465
  C      4.132875   -0.966328    1.981884
  C      4.757987   -1.775553    0.865201
  S      1.130298   -1.798500    1.411843
  C     -0.401320   -1.872903    0.448378
  S     -1.687969   -0.731874    1.036288
  P     -2.037776    0.418656   -0.728739
  S     -0.886731   -0.033045   -2.247192
  O     -1.937246    1.958939   -0.437947
  C     -2.831547    2.741818    0.386981
  C     -2.781680    2.331599    1.843326
  O     -3.611506    0.269604   -0.942715
  C     -4.343454   -0.968197   -0.947382
  C     -3.930136   -1.888081   -2.077857
  H      3.997216    1.618323   -0.839460
  H      4.674829    0.304376   -1.821018
  H      4.053359    1.768151   -2.603968
  H      2.406537   -0.129717   -2.795760
  H      1.755319    1.225491   -1.844280
  H      4.888568   -0.456286    2.581719
  H      3.516134   -1.598827    2.625106
  H      5.387361   -2.546516    1.298600
  H      3.985087   -2.246761    0.261862
  H      5.364183   -1.136026    0.228965
  H     -0.769004   -2.887616    0.577738
  H     -0.189497   -1.650873   -0.602316
  H     -2.462599    3.759292    0.248436
  H     -3.840797    2.648582   -0.019172
  H     -3.205210    1.337378    1.977867
  H     -1.750027    2.324483    2.189685
  H     -3.351738    3.042163    2.433412
  H     -4.203646   -1.455452    0.021991
  H     -5.381842   -0.649416   -1.054679
  H     -2.896373   -2.204682   -1.950685
  H     -4.572432   -2.762714   -2.082138
  H     -4.013254   -1.374640   -3.032632

 Total Charge           Charge          ....    0
 Multiplicity           Mult            ....    1
 Number of Electrons    NEL             ....  202
 Basis Dimension        Dim             ....  334

ORBITAL ENERGIES
----------------

  NO   OCC          E(Eh)            E(eV)
   0   2.0000     -88.042669     -2395.7628
   1   2.0000     -88.041879     -2395.7413
   2   2.0000     -87.980868     -2394.0811
   3   2.0000     -87.972407     -2393.8509
   4   2.0000     -76.424171     -2079.6074
   5   2.0000     -76.417638     -2079.4296
   6   2.0000     -18.789628      -511.2918
   7   2.0000     -18.787675      -511.2386
   8   2.0000     -18.784725      -511.1584
   9   2.0000     -18.780645      -511.0473
  10   2.0000      -9.957450      -270.9560
  11   2.0000      -9.955322      -270.8981
  12   2.0000      -9.954708      -270.8814
  13   2.0000      -9.951394      -270.7912
  14   2.0000      -9.935072      -270.3470
  15   2.0000      -9.887418      -269.0503
  16   2.0000      -9.883005      -268.9302
  17   2.0000      -9.882999      -268.9301
  18   2.0000      -9.875837      -268.7352
  19   2.0000      -7.688221      -209.2071
  20   2.0000      -7.686276      -209.1542
  21   2.0000      -7.625915      -207.5117
  22   2.0000      -7.617381      -207.2795
  23   2.0000      -6.421072      -174.7263
  24   2.0000      -6.415439      -174.5730
  25   2.0000      -5.716045      -155.5415
  26   2.0000      -5.714193      -155.4911
  27   2.0000      -5.712598      -155.4477
  28   2.0000      -5.710748      -155.3974
  29   2.0000      -5.705263      -155.2481
  30   2.0000      -5.703372      -155.1966
  31   2.0000      -5.654879      -153.8771
  32   2.0000      -5.646544      -153.6503
  33   2.0000      -5.646417      -153.6468
  34   2.0000      -5.645919      -153.6333
  35   2.0000      -5.638141      -153.4216
  36   2.0000      -5.637228      -153.3968
  37   2.0000      -4.643845      -126.3654
  38   2.0000      -4.642927      -126.3405
  39   2.0000      -4.641373      -126.2982
  40   2.0000      -4.638332      -126.2154
  41   2.0000      -4.637152      -126.1833
  42   2.0000      -4.635643      -126.1423
  43   2.0000      -0.984380       -26.7864
  44   2.0000      -0.976451       -26.5706
  45   2.0000      -0.939115       -25.5546
  46   2.0000      -0.938377       -25.5345
  47   2.0000      -0.760956       -20.7067
  48   2.0000      -0.718321       -19.5465
  49   2.0000      -0.708627       -19.2827
  50   2.0000      -0.688186       -18.7265
  51   2.0000      -0.687498       -18.7078
  52   2.0000      -0.672095       -18.2886
  53   2.0000      -0.647264       -17.6130
  54   2.0000      -0.632909       -17.2223
  55   2.0000      -0.591695       -16.1009
  56   2.0000      -0.585429       -15.9303
  57   2.0000      -0.579017       -15.7558
  58   2.0000      -0.572012       -15.5652
  59   2.0000      -0.560152       -15.2425
  60   2.0000      -0.497114       -13.5272
  61   2.0000      -0.489751       -13.3268
  62   2.0000      -0.469948       -12.7879
  63   2.0000      -0.468298       -12.7430
  64   2.0000      -0.450735       -12.2651
  65   2.0000      -0.446264       -12.1435
  66   2.0000      -0.439516       -11.9598
  67   2.0000      -0.432132       -11.7589
  68   2.0000      -0.425177       -11.5696
  69   2.0000      -0.417093       -11.3497
  70   2.0000      -0.407047       -11.0763
  71   2.0000      -0.405076       -11.0227
  72   2.0000      -0.393089       -10.6965
  73   2.0000      -0.389115       -10.5884
  74   2.0000      -0.380289       -10.3482
  75   2.0000      -0.362872        -9.8742
  76   2.0000      -0.354994        -9.6599
  77   2.0000      -0.352156        -9.5826
  78   2.0000      -0.351124        -9.5546
  79   2.0000      -0.349629        -9.5139
  80   2.0000      -0.345364        -9.3978
  81   2.0000      -0.343375        -9.3437
  82   2.0000      -0.337761        -9.1910
  83   2.0000      -0.335836        -9.1386
  84   2.0000      -0.332970        -9.0606
  85   2.0000      -0.313768        -8.5381
  86   2.0000      -0.308809        -8.4031
  87   2.0000      -0.301041        -8.1917
  88   2.0000      -0.295121        -8.0307
  89   2.0000      -0.285994        -7.7823
  90   2.0000      -0.276452        -7.5226
  91   2.0000      -0.271241        -7.3809
  92   2.0000      -0.264886        -7.2079
  93   2.0000      -0.257643        -7.0108
  94   2.0000      -0.255790        -6.9604
  95   2.0000      -0.237683        -6.4677
  96   2.0000      -0.220189        -5.9916
  97   2.0000      -0.200615        -5.4590
  98   2.0000      -0.197321        -5.3694
  99   2.0000      -0.188223        -5.1218
 100   2.0000      -0.181705        -4.9444
 101   0.0000      -0.037736        -1.0269
 102   0.0000      -0.030910        -0.8411
 103   0.0000      -0.010520        -0.2863
 104   0.0000       0.007429         0.2021
 105   0.0000       0.015616         0.4249

MULLIKEN ATOMIC CHARGES
-----------------------
   0 C :   -0.306759
   1 C :   -0.020572
   2 O :   -0.383376
   3 P :    0.618604
   4 S :   -0.306106
   5 O :   -0.371021
   6 C :   -0.027841
   7 C :   -0.314081
   8 S :   -0.114975
   9 C :   -0.334186
  10 S :   -0.113068
  11 P :    0.626620
  12 S :   -0.309755
  13 O :   -0.343340
  14 C :    0.002519
  15 C :   -0.333002
  16 O :   -0.383221
  17 C :   -0.005413
  18 C :   -0.305154
  19 H :    0.124107
  20 H :    0.112829
  21 H :    0.110374
  22 H :    0.101348
  23 H :    0.130905
  24 H :    0.113855
  25 H :    0.123345
  26 H :    0.111750
  27 H :    0.129556
  28 H :    0.125585
  29 H :    0.178440
  30 H :    0.201349
  31 H :    0.111736
  32 H :    0.107705
  33 H :    0.120825
  34 H :    0.146798
  35 H :    0.113224
  36 H :    0.103934
  37 H :    0.104289
  38 H :    0.119745
  39 H :    0.108323
  40 H :    0.124105
Sum of atomic charges:    0.0000000

LOEWDIN ATOMIC CHARGES
----------------------
   0 C :   -0.364596
   1 C :   -0.129318
   2 O :   -0.248813
   3 P :    0.563092
   4 S :   -0.305940
   5 O :   -0.243758
   6 C :   -0.116972
   7 C :   -0.367751
   8 S :    0.079818
   9 C :   -0.481937
  10 S :    0.079928
  11 P :    0.574093
  12 S :   -0.287781
  13 O :   -0.220441
  14 C :   -0.108810
  15 C :   -0.370418
  16 O :   -0.249017
  17 C :   -0.120333
  18 C :   -0.367265
  19 H :    0.124401
  20 H :    0.119536
  21 H :    0.130201
  22 H :    0.115698
  23 H :    0.109757
  24 H :    0.123764
  25 H :    0.108725
  26 H :    0.130889
  27 H :    0.124172
  28 H :    0.127224
  29 H :    0.135372
  30 H :    0.123322
  31 H :    0.124128
  32 H :    0.112327
  33 H :    0.113778
  34 H :    0.133784
  35 H :    0.131442
  36 H :    0.101765
  37 H :    0.118519
  38 H :    0.118651
  39 H :    0.128409
  40 H :    0.130355

  Mayer bond orders larger than 0.100000
B(  0-C ,  1-C ) :   1.1555 B(  0-C , 19-H ) :   0.9383 B(  0-C , 20-H ) :   0.9407
B(  0-C , 21-H ) :   0.9400 B(  1-C ,  2-O ) :   0.9017 B(  1-C , 22-H ) :   0.9349
B(  1-C , 23-H ) :   0.9020 B(  2-O ,  3-P ) :   1.0741 B(  3-P ,  4-S ) :   1.6616
B(  3-P ,  5-O ) :   1.1089 B(  3-P ,  8-S ) :   0.9597 B(  4-S ,  8-S ) :   0.1073
B(  5-O ,  6-C ) :   0.9082 B(  6-C ,  7-C ) :   1.1632 B(  6-C , 24-H ) :   0.9344
B(  6-C , 25-H ) :   0.9199 B(  7-C , 26-H ) :   0.9359 B(  7-C , 27-H ) :   0.9352
B(  7-C , 28-H ) :   0.9402 B(  8-S ,  9-C ) :   1.0026 B(  9-C , 10-S ) :   1.0017
B(  9-C , 29-H ) :   0.9116 B(  9-C , 30-H ) :   0.8381 B( 10-S , 11-P ) :   0.9335
B( 10-S , 12-S ) :   0.1178 B( 11-P , 12-S ) :   1.6200 B( 11-P , 13-O ) :   1.1538
B( 11-P , 16-O ) :   1.0670 B( 12-S , 30-H ) :   0.1245 B( 13-O , 14-C ) :   0.8988
B( 14-C , 15-C ) :   1.1686 B( 14-C , 31-H ) :   0.9327 B( 14-C , 32-H ) :   0.9272
B( 15-C , 33-H ) :   0.9354 B( 15-C , 34-H ) :   0.9357 B( 15-C , 35-H ) :   0.9360
B( 16-O , 17-C ) :   0.9206 B( 17-C , 18-C ) :   1.1650 B( 17-C , 36-H ) :   0.9162
B( 17-C , 37-H ) :   0.9333 B( 18-C , 38-H ) :   0.9345 B( 18-C , 39-H ) :   0.9364
B( 18-C , 40-H ) :   0.9452

Dispersion correction           -0.067951093
FINAL SINGLE POINT ENERGY     -2929.511427434844

DIPOLE MOMENT
-------------

Method             : SCF
Type of density    : Electron Density
Multiplicity       :   1
Irrep              :   0
Energy             : -2929.6295964744426783 Eh
Relativity type    :
Basis              : AO
                                X                 Y                 Z
Electronic contribution:     -3.597505669       2.291176427       4.287209945
Nuclear contribution   :      3.261965431      -3.184945438      -3.926432209
                        -----------------------------------------
Total Dipole Moment    :     -0.335540238      -0.893769010       0.360777736
                        -----------------------------------------
Magnitude (a.u.)       :      1.020573795
Magnitude (Debye)      :      2.594092430

Rotational constants in cm-1:             0.013125             0.005060             0.004984
Rotational constants in MHz :           393.489265           151.682304           149.402408

                             ****ORCA TERMINATED NORMALLY****
TOTAL RUN TIME: 0 days 0 hours 0 minutes 21 seconds 361 msec
