                         Program Version 6.0.0  -   RELEASE  -
|  1> ! pbe def2-sv(p) def2/J RI DEFGRID1 loosescf d4 GCP(DFT/SV(P)) printgap
|  2> %output
|  3>     printlevel normal
|  4> end
|  5> * xyz 0 1
|  6> C 0.610093352 1.7018503895 -0.0355919552
|  7> C 1.3939301808 0.4040262603 -0.2508532197
|  8> H 1.6094991743 0.2756797846 -1.3174404042
|  9> C 0.5464229597 -0.7925158984 0.2191586319
| 10> H 0.357144158 -0.7041954411 1.303070957
| 11> C -0.8037172151 -0.7666741515 -0.5130186682
| 12> H -0.6260483076 -0.9185759261 -1.5817419054
| 13> C -1.4676752346 0.6109182109 -0.2974201081
| 14> H -2.3541020388 0.6838237211 -0.9416550446
| 15> O -0.6392543289 1.6685212174 -0.7094732302
| 16> O -1.8067464316 0.7031987208 1.0523091253
| 17> O -1.6689638679 -1.7926333073 -0.1188928332
| 18> O 1.198975278 -2.0096183648 -0.0500059795
| 19> O 2.6458712684 0.4169613544 0.3888391346
| 20> H 1.1441814728 2.5547454479 -0.4536844246
| 21> H 0.4472167913 1.854738898 1.0396229028
| 22> H -2.3969637787 1.4570345672 1.2022570707
| 23> H -1.8985488524 -1.6656331913 0.8154233607
| 24> H 2.1443513136 -1.8929094317 0.1371799665
| 25> H 2.5356761933 0.6496923504 1.3231873863
| 26> *
| 27>
| 28>                          ****END OF INPUT****

CARTESIAN COORDINATES (ANGSTROEM)
---------------------------------
  C      0.610093    1.701850   -0.035592
  C      1.393930    0.404026   -0.250853
  H      1.609499    0.275680   -1.317440
  C      0.546423   -0.792516    0.219159
  H      0.357144   -0.704195    1.303071
  C     -0.803717   -0.766674   -0.513019
  H     -0.626048   -0.918576   -1.581742
  C     -1.467675    0.610918   -0.297420
  H     -2.354102    0.683824   -0.941655
  O     -0.639254    1.668521   -0.709473
  O     -1.806746    0.703199    1.052309
  O     -1.668964   -1.792633   -0.118893
  O      1.198975   -2.009618   -0.050006
  O      2.645871    0.416961    0.388839
  H      1.144181    2.554745   -0.453684
  H      0.447217    1.854739    1.039623
  H     -2.396964    1.457035    1.202257
  H     -1.898549   -1.665633    0.815423
  H      2.144351   -1.892909    0.137180
  H      2.535676    0.649692    1.323187

 Total Charge           Charge          ....    0
 Multiplicity           Mult            ....    1
 Number of Electrons    NEL             ....   80
 Basis Dimension        Dim             ....  160

ORBITAL ENERGIES
----------------

  NO   OCC          E(Eh)            E(eV)
   0   2.0000     -18.779322      -511.0113
   1   2.0000     -18.772610      -510.8287
   2   2.0000     -18.768163      -510.7077
   3   2.0000     -18.741499      -509.9821
   4   2.0000     -18.740505      -509.9551
   5   2.0000      -9.987663      -271.7781
   6   2.0000      -9.945763      -270.6380
   7   2.0000      -9.940259      -270.4882
   8   2.0000      -9.938810      -270.4488
   9   2.0000      -9.936927      -270.3975
  10   2.0000      -0.989014       -26.9124
  11   2.0000      -0.949309       -25.8320
  12   2.0000      -0.928771       -25.2731
  13   2.0000      -0.919219       -25.0132
  14   2.0000      -0.907681       -24.6993
  15   2.0000      -0.699474       -19.0337
  16   2.0000      -0.681515       -18.5450
  17   2.0000      -0.585194       -15.9239
  18   2.0000      -0.581304       -15.8181
  19   2.0000      -0.548051       -14.9132
  20   2.0000      -0.500935       -13.6311
  21   2.0000      -0.486523       -13.2390
  22   2.0000      -0.463158       -12.6032
  23   2.0000      -0.450647       -12.2627
  24   2.0000      -0.439463       -11.9584
  25   2.0000      -0.418333       -11.3834
  26   2.0000      -0.396147       -10.7797
  27   2.0000      -0.375583       -10.2201
  28   2.0000      -0.367997       -10.0137
  29   2.0000      -0.354041        -9.6339
  30   2.0000      -0.336703        -9.1622
  31   2.0000      -0.312672        -8.5082
  32   2.0000      -0.296246        -8.0613
  33   2.0000      -0.282759        -7.6943
  34   2.0000      -0.273931        -7.4540
  35   2.0000      -0.265883        -7.2351
  36   2.0000      -0.254489        -6.9250
  37   2.0000      -0.229236        -6.2378
  38   2.0000      -0.214647        -5.8408
  39   2.0000      -0.200123        -5.4456
  40   0.0000       0.009893         0.2692
  41   0.0000       0.013748         0.3741
  42   0.0000       0.049470         1.3461
  43   0.0000       0.051973         1.4143
  44   0.0000       0.072153         1.9634

MULLIKEN ATOMIC CHARGES
-----------------------
   0 C :    0.085427
   1 C :   -0.031831
   2 H :    0.079086
   3 C :    0.048894
   4 H :    0.035062
   5 C :    0.100412
   6 H :    0.077272
   7 C :    0.127617
   8 H :    0.075258
   9 O :   -0.309976
  10 O :   -0.410860
  11 O :   -0.414156
  12 O :   -0.405161
  13 O :   -0.417170
  14 H :    0.103183
  15 H :    0.048073
  16 H :    0.312543
  17 H :    0.298051
  18 H :    0.298173
  19 H :    0.300103
Sum of atomic charges:    0.0000000

LOEWDIN ATOMIC CHARGES
----------------------
   0 C :   -0.129706
   1 C :   -0.092262
   2 H :    0.120613
   3 C :   -0.083973
   4 H :    0.092468
   5 C :   -0.075954
   6 H :    0.124554
   7 C :   -0.012831
   8 H :    0.102894
   9 O :   -0.155579
  10 O :   -0.310401
  11 O :   -0.305558
  12 O :   -0.319774
  13 O :   -0.310278
  14 H :    0.120485
  15 H :    0.095028
  16 H :    0.294478
  17 H :    0.280559
  18 H :    0.279899
  19 H :    0.285340

  Mayer bond orders larger than 0.100000
B(  0-C ,  1-C ) :   1.0504 B(  0-C ,  9-O ) :   1.0029 B(  0-C , 14-H ) :   0.9238
B(  0-C , 15-H ) :   0.8864 B(  1-C ,  2-H ) :   0.8694 B(  1-C ,  3-C ) :   1.0118
B(  1-C , 13-O ) :   1.0181 B(  3-C ,  4-H ) :   0.8714 B(  3-C ,  5-C ) :   0.9803
B(  3-C , 12-O ) :   1.1166 B(  5-C ,  6-H ) :   0.8781 B(  5-C ,  7-C ) :   0.9820
B(  5-C , 11-O ) :   1.0615 B(  7-C ,  8-H ) :   0.9059 B(  7-C ,  9-O ) :   1.0559
B(  7-C , 10-O ) :   1.0773 B( 10-O , 16-H ) :   0.8389 B( 11-O , 17-H ) :   0.8413
B( 12-O , 18-H ) :   0.8330 B( 13-O , 19-H ) :   0.8465

Dispersion correction           -0.019174773
FINAL SINGLE POINT ENERGY      -571.417975663304

DIPOLE MOMENT
-------------

Method             : SCF
Type of density    : Electron Density
Multiplicity       :   1
Irrep              :   0
Energy             :  -571.5264154598984305 Eh
Relativity type    :
Basis              : AO
                                X                 Y                 Z
Electronic contribution:     -1.019582387      -1.018560469      -0.479170109
Nuclear contribution   :      0.898899007       2.137522720       1.440191114
                        -----------------------------------------
Total Dipole Moment    :     -0.120683381       1.118962252       0.961021006
                        -----------------------------------------
Magnitude (a.u.)       :      1.479933232
Magnitude (Debye)      :      3.761691330

Rotational constants in cm-1:             0.057323             0.044333             0.028955
Rotational constants in MHz :          1718.499212          1329.063478           868.061003

                             ****ORCA TERMINATED NORMALLY****
TOTAL RUN TIME: 0 days 0 hours 0 minutes 11 seconds 529 msec
