                         Program Version 6.0.1  -  RELEASE   -
|  1> ! r2scan-3c def2/J RI DEFGRID2 scfconv6 printgap
|  2> %output
|  3>     printlevel normal
|  4> end
|  5> * xyz 0 1
|  6> C 5.1828910741 -2.3870209723 -1.6797583968
|  7> C 4.5626563684 -1.0857886103 -1.1958102009
|  8> O 3.1282718969 -1.1141186201 -1.3161463392
|  9> C 2.4345135948 -1.679409961 -0.3404292441
| 10> O 2.9235378806 -2.2133454222 0.6277969782
| 11> C 0.9419143317 -1.6341041169 -0.616275982
| 12> C 0.5220488593 -0.2447570949 -1.0804406427
| 13> H 1.0303008051 -0.0095219392 -2.022979172
| 14> C 0.9485633555 0.8259693245 -0.0927431308
| 15> O 1.9603468292 0.7277707107 0.5629363553
| 16> O 0.1672046218 1.8876359849 -0.1249888193
| 17> C 0.570273612 3.053246212 0.6263619778
| 18> C 0.1679759319 2.9675127648 2.0877854816
| 19> S -1.2456242391 -0.1480012584 -1.4974812218
| 20> P -2.1155162696 0.1817510008 0.4125960551
| 21> S -1.1103400603 -0.4054666018 1.9911225377
| 22> O -2.5696722913 1.6909958691 0.5003716816
| 23> C -3.3665694835 2.3114520061 -0.5294431103
| 24> O -3.5383419198 -0.5305570298 0.2349315107
| 25> C -3.6546077074 -1.9551956733 0.1576157274
| 26> H 4.8674942811 -3.2089799912 -1.0414330317
| 27> H 4.8753468365 -2.5906387598 -2.7016861416
| 28> H 6.2638846399 -2.3042984464 -1.639321289
| 29> H 4.8691019601 -0.2429053056 -1.8157315128
| 30> H 4.8155770941 -0.8972320979 -0.1484958043
| 31> H 0.427631882 -1.9161303098 0.3045112802
| 32> H 0.7137245633 -2.3617680271 -1.3966647785
| 33> H 1.6557999405 3.1504054834 0.5348510804
| 34> H 0.0644471094 3.8764992276 0.1217809285
| 35> H 0.6721749869 2.1317404569 2.5695697482
| 36> H 0.4506226467 3.8871076523 2.5891856691
| 37> H -0.9055840431 2.820750998 2.1787680874
| 38> H -4.339081904 1.8271644521 -0.5872974434
| 39> H -2.8535256971 2.2392382783 -1.488242103
| 40> H -3.4690141941 3.3489972411 -0.222835871
| 41> H -4.7142404357 -2.1693662905 0.2711388586
| 42> H -3.0847782026 -2.4235155962 0.9617330223
| 43> H -3.2933759901 -2.3039947099 -0.8095223755
| 44> *
| 45>
| 46>                          ****END OF INPUT****

CARTESIAN COORDINATES (ANGSTROEM)
---------------------------------
  C      5.182891   -2.387021   -1.679758
  C      4.562656   -1.085789   -1.195810
  O      3.128272   -1.114119   -1.316146
  C      2.434514   -1.679410   -0.340429
  O      2.923538   -2.213345    0.627797
  C      0.941914   -1.634104   -0.616276
  C      0.522049   -0.244757   -1.080441
  H      1.030301   -0.009522   -2.022979
  C      0.948563    0.825969   -0.092743
  O      1.960347    0.727771    0.562936
  O      0.167205    1.887636   -0.124989
  C      0.570274    3.053246    0.626362
  C      0.167976    2.967513    2.087785
  S     -1.245624   -0.148001   -1.497481
  P     -2.115516    0.181751    0.412596
  S     -1.110340   -0.405467    1.991123
  O     -2.569672    1.690996    0.500372
  C     -3.366569    2.311452   -0.529443
  O     -3.538342   -0.530557    0.234932
  C     -3.654608   -1.955196    0.157616
  H      4.867494   -3.208980   -1.041433
  H      4.875347   -2.590639   -2.701686
  H      6.263885   -2.304298   -1.639321
  H      4.869102   -0.242905   -1.815732
  H      4.815577   -0.897232   -0.148496
  H      0.427632   -1.916130    0.304511
  H      0.713725   -2.361768   -1.396665
  H      1.655800    3.150405    0.534851
  H      0.064447    3.876499    0.121781
  H      0.672175    2.131740    2.569570
  H      0.450623    3.887108    2.589186
  H     -0.905584    2.820751    2.178768
  H     -4.339082    1.827164   -0.587297
  H     -2.853526    2.239238   -1.488242
  H     -3.469014    3.348997   -0.222836
  H     -4.714240   -2.169366    0.271139
  H     -3.084778   -2.423516    0.961733
  H     -3.293376   -2.303995   -0.809522

 Total Charge           Charge          ....    0
 Multiplicity           Mult            ....    1
 Number of Electrons    NEL             ....  174
 Basis Dimension        Dim             ....  510

ORBITAL ENERGIES
----------------

  NO   OCC          E(Eh)            E(eV)
   0   2.0000     -88.579986     -2410.3840
   1   2.0000     -88.522824     -2408.8285
   2   2.0000     -76.919012     -2093.0727
   3   2.0000     -19.004765      -517.1460
   4   2.0000     -18.999611      -517.0057
   5   2.0000     -18.996529      -516.9218
   6   2.0000     -18.989782      -516.7382
   7   2.0000     -18.939007      -515.3566
   8   2.0000     -18.917765      -514.7786
   9   2.0000     -10.166964      -276.6572
  10   2.0000     -10.147620      -276.1308
  11   2.0000     -10.102583      -274.9053
  12   2.0000     -10.101082      -274.8644
  13   2.0000     -10.095764      -274.7197
  14   2.0000     -10.094057      -274.6733
  15   2.0000     -10.085287      -274.4346
  16   2.0000     -10.048704      -273.4391
  17   2.0000     -10.022943      -272.7381
  18   2.0000     -10.018094      -272.6062
  19   2.0000      -7.874415      -214.2737
  20   2.0000      -7.817389      -212.7220
  21   2.0000      -6.597184      -179.5185
  22   2.0000      -5.821371      -158.4076
  23   2.0000      -5.818121      -158.3191
  24   2.0000      -5.811571      -158.1409
  25   2.0000      -5.765349      -156.8831
  26   2.0000      -5.757482      -156.6690
  27   2.0000      -5.757314      -156.6645
  28   2.0000      -4.742926      -129.0616
  29   2.0000      -4.742246      -129.0431
  30   2.0000      -4.740642      -128.9994
  31   2.0000      -1.083467       -29.4826
  32   2.0000      -1.065210       -28.9858
  33   2.0000      -1.056383       -28.7456
  34   2.0000      -1.014295       -27.6004
  35   2.0000      -0.988935       -26.9103
  36   2.0000      -0.968227       -26.3468
  37   2.0000      -0.812528       -22.1100
  38   2.0000      -0.749114       -20.3844
  39   2.0000      -0.741005       -20.1638
  40   2.0000      -0.729774       -19.8582
  41   2.0000      -0.696540       -18.9538
  42   2.0000      -0.681318       -18.5396
  43   2.0000      -0.662798       -18.0357
  44   2.0000      -0.649494       -17.6736
  45   2.0000      -0.622179       -16.9303
  46   2.0000      -0.600918       -16.3518
  47   2.0000      -0.547541       -14.8994
  48   2.0000      -0.524258       -14.2658
  49   2.0000      -0.520005       -14.1501
  50   2.0000      -0.505317       -13.7504
  51   2.0000      -0.499100       -13.5812
  52   2.0000      -0.476744       -12.9729
  53   2.0000      -0.460461       -12.5298
  54   2.0000      -0.458923       -12.4879
  55   2.0000      -0.453521       -12.3409
  56   2.0000      -0.442760       -12.0481
  57   2.0000      -0.438564       -11.9339
  58   2.0000      -0.435830       -11.8595
  59   2.0000      -0.429874       -11.6975
  60   2.0000      -0.424029       -11.5384
  61   2.0000      -0.415481       -11.3058
  62   2.0000      -0.408542       -11.1170
  63   2.0000      -0.401097       -10.9144
  64   2.0000      -0.389128       -10.5887
  65   2.0000      -0.376328       -10.2404
  66   2.0000      -0.374804       -10.1989
  67   2.0000      -0.361881        -9.8473
  68   2.0000      -0.357935        -9.7399
  69   2.0000      -0.351903        -9.5758
  70   2.0000      -0.344722        -9.3804
  71   2.0000      -0.336727        -9.1628
  72   2.0000      -0.333039        -9.0625
  73   2.0000      -0.330675        -8.9981
  74   2.0000      -0.327334        -8.9072
  75   2.0000      -0.319874        -8.7042
  76   2.0000      -0.311271        -8.4701
  77   2.0000      -0.303201        -8.2505
  78   2.0000      -0.292019        -7.9463
  79   2.0000      -0.284148        -7.7320
  80   2.0000      -0.278697        -7.5837
  81   2.0000      -0.263651        -7.1743
  82   2.0000      -0.257778        -7.0145
  83   2.0000      -0.237215        -6.4549
  84   2.0000      -0.225205        -6.1281
  85   2.0000      -0.220221        -5.9925
  86   2.0000      -0.215993        -5.8775
  87   0.0000      -0.044324        -1.2061
  88   0.0000      -0.032363        -0.8807
  89   0.0000      -0.002138        -0.0582
  90   0.0000       0.003879         0.1056
  91   0.0000       0.007542         0.2052

MULLIKEN ATOMIC CHARGES
-----------------------
   0 C :   -0.472514
   1 C :   -0.137425
   2 O :   -0.148775
   3 C :    0.365457
   4 O :   -0.385440
   5 C :   -0.501623
   6 C :    0.061845
   7 H :    0.203791
   8 C :    0.233032
   9 O :   -0.371635
  10 O :   -0.136909
  11 C :   -0.113412
  12 C :   -0.497835
  13 S :   -0.186318
  14 P :    0.735305
  15 S :   -0.400930
  16 O :   -0.304282
  17 C :   -0.295426
  18 O :   -0.345182
  19 C :   -0.297227
  20 H :    0.179103
  21 H :    0.147910
  22 H :    0.146355
  23 H :    0.145502
  24 H :    0.175968
  25 H :    0.220470
  26 H :    0.184724
  27 H :    0.159827
  28 H :    0.144545
  29 H :    0.189983
  30 H :    0.143489
  31 H :    0.172321
  32 H :    0.169775
  33 H :    0.171251
  34 H :    0.156603
  35 H :    0.153147
  36 H :    0.176072
  37 H :    0.158458
Sum of atomic charges:   -0.0000000

LOEWDIN ATOMIC CHARGES
----------------------
   0 C :   -0.392041
   1 C :    0.030638
   2 O :   -0.603380
   3 C :    0.356367
   4 O :   -0.410223
   5 C :   -0.212547
   6 C :   -0.198778
   7 H :    0.214002
   8 C :    0.348489
   9 O :   -0.399864
  10 O :   -0.616430
  11 C :    0.035702
  12 C :   -0.396854
  13 S :    0.195352
  14 P :    0.396642
  15 S :   -0.049096
  16 O :   -0.657268
  17 C :   -0.051502
  18 O :   -0.683747
  19 C :   -0.058951
  20 H :    0.167687
  21 H :    0.155278
  22 H :    0.158538
  23 H :    0.176770
  24 H :    0.191674
  25 H :    0.201023
  26 H :    0.184338
  27 H :    0.188125
  28 H :    0.178676
  29 H :    0.173086
  30 H :    0.156065
  31 H :    0.168441
  32 H :    0.175035
  33 H :    0.174631
  34 H :    0.179755
  35 H :    0.177970
  36 H :    0.177322
  37 H :    0.169075

  Mayer bond orders larger than 0.100000
B(  0-C ,  1-C ) :   0.9270 B(  0-C , 20-H ) :   0.9720 B(  0-C , 21-H ) :   0.9736
B(  0-C , 22-H ) :   0.9659 B(  1-C ,  2-O ) :   0.8151 B(  1-C , 23-H ) :   0.9637
B(  1-C , 24-H ) :   0.9730 B(  2-O ,  3-C ) :   1.0678 B(  2-O ,  6-C ) :   0.1193
B(  3-C ,  4-O ) :   1.9125 B(  3-C ,  5-C ) :   0.8612 B(  5-C ,  6-C ) :   0.8559
B(  5-C , 25-H ) :   0.9950 B(  5-C , 26-H ) :   0.9517 B(  6-C ,  7-H ) :   0.8844
B(  6-C ,  8-C ) :   0.9816 B(  6-C , 13-S ) :   0.8304 B(  8-C ,  9-O ) :   1.7972
B(  8-C , 10-O ) :   1.1103 B( 10-O , 11-C ) :   0.7841 B( 11-C , 12-C ) :   0.9245
B( 11-C , 27-H ) :   0.9648 B( 11-C , 28-H ) :   0.9630 B( 12-C , 29-H ) :   0.9663
B( 12-C , 30-H ) :   0.9643 B( 12-C , 31-H ) :   0.9615 B( 13-S , 14-P ) :   1.0194
B( 14-P , 15-S ) :   1.7996 B( 14-P , 16-O ) :   1.1305 B( 14-P , 18-O ) :   1.0284
B( 16-O , 17-C ) :   0.7968 B( 17-C , 32-H ) :   0.9601 B( 17-C , 33-H ) :   0.9553
B( 17-C , 34-H ) :   0.9655 B( 18-O , 19-C ) :   0.8326 B( 19-C , 35-H ) :   0.9667
B( 19-C , 36-H ) :   0.9588 B( 19-C , 37-H ) :   0.9566

Dispersion correction           -0.018087109
FINAL SINGLE POINT ENERGY     -1981.452917295437

DIPOLE MOMENT
-------------

Method             : SCF
Type of density    : Electron Density
Multiplicity       :   1
Irrep              :   0
Energy             : -1981.4722192943836490 Eh
Relativity type    :
Basis              : AO
                                X                 Y                 Z
Electronic contribution:    -10.518387445      -1.581319192       2.656497153
Nuclear contribution   :      9.538107713       2.537388135      -4.449935443
                        -----------------------------------------
Total Dipole Moment    :     -0.980279732       0.956068943      -1.793438290
                        -----------------------------------------
Magnitude (a.u.)       :      2.256421298
Magnitude (Debye)      :      5.735367143

Rotational constants in cm-1:             0.016216             0.006415             0.005622
Rotational constants in MHz :           486.134931           192.319899           168.543426

                             ****ORCA TERMINATED NORMALLY****
TOTAL RUN TIME: 0 days 0 hours 1 minutes 38 seconds 651 msec
