                         Program Version 6.0.1  -  RELEASE   -
|  1> ! r2scan-3c def2/J RI DEFGRID2 scfconv6 printgap
|  2> %output
|  3>     printlevel normal
|  4> end
|  5> %cpcm
|  6>     smd true
|  7>     smdsolvent "water"
|  8> end
|  9> * xyz 0 1
| 10> C 5.1828910741 -2.3870209723 -1.6797583968
| 11> C 4.5626563684 -1.0857886103 -1.1958102009
| 12> O 3.1282718969 -1.1141186201 -1.3161463392
| 13> C 2.4345135948 -1.679409961 -0.3404292441
| 14> O 2.9235378806 -2.2133454222 0.6277969782
| 15> C 0.9419143317 -1.6341041169 -0.616275982
| 16> C 0.5220488593 -0.2447570949 -1.0804406427
| 17> H 1.0303008051 -0.0095219392 -2.022979172
| 18> C 0.9485633555 0.8259693245 -0.0927431308
| 19> O 1.9603468292 0.7277707107 0.5629363553
| 20> O 0.1672046218 1.8876359849 -0.1249888193
| 21> C 0.570273612 3.053246212 0.6263619778
| 22> C 0.1679759319 2.9675127648 2.0877854816
| 23> S -1.2456242391 -0.1480012584 -1.4974812218
| 24> P -2.1155162696 0.1817510008 0.4125960551
| 25> S -1.1103400603 -0.4054666018 1.9911225377
| 26> O -2.5696722913 1.6909958691 0.5003716816
| 27> C -3.3665694835 2.3114520061 -0.5294431103
| 28> O -3.5383419198 -0.5305570298 0.2349315107
| 29> C -3.6546077074 -1.9551956733 0.1576157274
| 30> H 4.8674942811 -3.2089799912 -1.0414330317
| 31> H 4.8753468365 -2.5906387598 -2.7016861416
| 32> H 6.2638846399 -2.3042984464 -1.639321289
| 33> H 4.8691019601 -0.2429053056 -1.8157315128
| 34> H 4.8155770941 -0.8972320979 -0.1484958043
| 35> H 0.427631882 -1.9161303098 0.3045112802
| 36> H 0.7137245633 -2.3617680271 -1.3966647785
| 37> H 1.6557999405 3.1504054834 0.5348510804
| 38> H 0.0644471094 3.8764992276 0.1217809285
| 39> H 0.6721749869 2.1317404569 2.5695697482
| 40> H 0.4506226467 3.8871076523 2.5891856691
| 41> H -0.9055840431 2.820750998 2.1787680874
| 42> H -4.339081904 1.8271644521 -0.5872974434
| 43> H -2.8535256971 2.2392382783 -1.488242103
| 44> H -3.4690141941 3.3489972411 -0.222835871
| 45> H -4.7142404357 -2.1693662905 0.2711388586
| 46> H -3.0847782026 -2.4235155962 0.9617330223
| 47> H -3.2933759901 -2.3039947099 -0.8095223755
| 48> *
| 49>
| 50>                          ****END OF INPUT****

CARTESIAN COORDINATES (ANGSTROEM)
---------------------------------
  C      5.182891   -2.387021   -1.679758
  C      4.562656   -1.085789   -1.195810
  O      3.128272   -1.114119   -1.316146
  C      2.434514   -1.679410   -0.340429
  O      2.923538   -2.213345    0.627797
  C      0.941914   -1.634104   -0.616276
  C      0.522049   -0.244757   -1.080441
  H      1.030301   -0.009522   -2.022979
  C      0.948563    0.825969   -0.092743
  O      1.960347    0.727771    0.562936
  O      0.167205    1.887636   -0.124989
  C      0.570274    3.053246    0.626362
  C      0.167976    2.967513    2.087785
  S     -1.245624   -0.148001   -1.497481
  P     -2.115516    0.181751    0.412596
  S     -1.110340   -0.405467    1.991123
  O     -2.569672    1.690996    0.500372
  C     -3.366569    2.311452   -0.529443
  O     -3.538342   -0.530557    0.234932
  C     -3.654608   -1.955196    0.157616
  H      4.867494   -3.208980   -1.041433
  H      4.875347   -2.590639   -2.701686
  H      6.263885   -2.304298   -1.639321
  H      4.869102   -0.242905   -1.815732
  H      4.815577   -0.897232   -0.148496
  H      0.427632   -1.916130    0.304511
  H      0.713725   -2.361768   -1.396665
  H      1.655800    3.150405    0.534851
  H      0.064447    3.876499    0.121781
  H      0.672175    2.131740    2.569570
  H      0.450623    3.887108    2.589186
  H     -0.905584    2.820751    2.178768
  H     -4.339082    1.827164   -0.587297
  H     -2.853526    2.239238   -1.488242
  H     -3.469014    3.348997   -0.222836
  H     -4.714240   -2.169366    0.271139
  H     -3.084778   -2.423516    0.961733
  H     -3.293376   -2.303995   -0.809522

 Total Charge           Charge          ....    0
 Multiplicity           Mult            ....    1
 Number of Electrons    NEL             ....  174
 Basis Dimension        Dim             ....  510

ORBITAL ENERGIES
----------------

  NO   OCC          E(Eh)            E(eV)
   0   2.0000     -88.581436     -2410.4234
   1   2.0000     -88.531546     -2409.0658
   2   2.0000     -76.922756     -2093.1746
   3   2.0000     -19.010832      -517.3111
   4   2.0000     -19.002870      -517.0944
   5   2.0000     -18.998428      -516.9735
   6   2.0000     -18.995959      -516.9063
   7   2.0000     -18.954719      -515.7841
   8   2.0000     -18.944679      -515.5109
   9   2.0000     -10.179077      -276.9868
  10   2.0000     -10.168546      -276.7002
  11   2.0000     -10.101490      -274.8755
  12   2.0000     -10.087615      -274.4980
  13   2.0000     -10.085137      -274.4305
  14   2.0000     -10.084579      -274.4153
  15   2.0000     -10.082338      -274.3544
  16   2.0000     -10.052297      -273.5369
  17   2.0000     -10.018231      -272.6099
  18   2.0000     -10.016413      -272.5605
  19   2.0000      -7.875742      -214.3098
  20   2.0000      -7.826535      -212.9708
  21   2.0000      -6.600984      -179.6219
  22   2.0000      -5.822780      -158.4459
  23   2.0000      -5.819508      -158.3569
  24   2.0000      -5.812769      -158.1735
  25   2.0000      -5.774349      -157.1280
  26   2.0000      -5.766742      -156.9210
  27   2.0000      -5.766409      -156.9120
  28   2.0000      -4.746652      -129.1630
  29   2.0000      -4.746005      -129.1454
  30   2.0000      -4.744603      -129.1072
  31   2.0000      -1.091763       -29.7084
  32   2.0000      -1.081196       -29.4208
  33   2.0000      -1.055267       -28.7153
  34   2.0000      -1.012461       -27.5505
  35   2.0000      -1.002517       -27.2799
  36   2.0000      -0.992476       -27.0067
  37   2.0000      -0.814970       -22.1765
  38   2.0000      -0.751167       -20.4403
  39   2.0000      -0.739570       -20.1247
  40   2.0000      -0.728203       -19.8154
  41   2.0000      -0.696501       -18.9527
  42   2.0000      -0.671726       -18.2786
  43   2.0000      -0.662052       -18.0154
  44   2.0000      -0.651621       -17.7315
  45   2.0000      -0.624068       -16.9817
  46   2.0000      -0.602023       -16.3819
  47   2.0000      -0.544367       -14.8130
  48   2.0000      -0.524968       -14.2851
  49   2.0000      -0.523237       -14.2380
  50   2.0000      -0.507419       -13.8076
  51   2.0000      -0.492904       -13.4126
  52   2.0000      -0.483861       -13.1665
  53   2.0000      -0.466983       -12.7073
  54   2.0000      -0.460346       -12.5266
  55   2.0000      -0.455147       -12.3852
  56   2.0000      -0.451124       -12.2757
  57   2.0000      -0.445454       -12.1214
  58   2.0000      -0.438985       -11.9454
  59   2.0000      -0.428636       -11.6638
  60   2.0000      -0.417949       -11.3730
  61   2.0000      -0.412489       -11.2244
  62   2.0000      -0.409460       -11.1420
  63   2.0000      -0.405052       -11.0220
  64   2.0000      -0.389824       -10.6077
  65   2.0000      -0.378513       -10.2999
  66   2.0000      -0.377892       -10.2830
  67   2.0000      -0.365130        -9.9357
  68   2.0000      -0.357596        -9.7307
  69   2.0000      -0.351650        -9.5689
  70   2.0000      -0.347987        -9.4692
  71   2.0000      -0.342025        -9.3070
  72   2.0000      -0.334837        -9.1114
  73   2.0000      -0.333927        -9.0866
  74   2.0000      -0.325789        -8.8652
  75   2.0000      -0.317931        -8.6514
  76   2.0000      -0.309408        -8.4194
  77   2.0000      -0.306374        -8.3369
  78   2.0000      -0.291287        -7.9263
  79   2.0000      -0.285569        -7.7707
  80   2.0000      -0.283868        -7.7244
  81   2.0000      -0.278272        -7.5722
  82   2.0000      -0.267514        -7.2794
  83   2.0000      -0.255592        -6.9550
  84   2.0000      -0.240055        -6.5322
  85   2.0000      -0.230492        -6.2720
  86   2.0000      -0.225035        -6.1235
  87   0.0000      -0.049138        -1.3371
  88   0.0000      -0.040591        -1.1045
  89   0.0000      -0.018418        -0.5012
  90   0.0000       0.002268         0.0617
  91   0.0000       0.005015         0.1365

MULLIKEN ATOMIC CHARGES
-----------------------
   0 C :   -0.495664
   1 C :   -0.135313
   2 O :   -0.166013
   3 C :    0.384401
   4 O :   -0.474067
   5 C :   -0.516744
   6 C :    0.078651
   7 H :    0.247127
   8 C :    0.247737
   9 O :   -0.441857
  10 O :   -0.144263
  11 C :   -0.124582
  12 C :   -0.519083
  13 S :   -0.177230
  14 P :    0.766889
  15 S :   -0.470034
  16 O :   -0.338421
  17 C :   -0.299967
  18 O :   -0.370948
  19 C :   -0.307909
  20 H :    0.170798
  21 H :    0.166499
  22 H :    0.171179
  23 H :    0.175681
  24 H :    0.173276
  25 H :    0.217257
  26 H :    0.225066
  27 H :    0.174929
  28 H :    0.179712
  29 H :    0.176360
  30 H :    0.171233
  31 H :    0.171124
  32 H :    0.185522
  33 H :    0.180589
  34 H :    0.184385
  35 H :    0.180418
  36 H :    0.176985
  37 H :    0.176277
Sum of atomic charges:   -0.0000000

LOEWDIN ATOMIC CHARGES
----------------------
   0 C :   -0.392751
   1 C :    0.034886
   2 O :   -0.598843
   3 C :    0.361532
   4 O :   -0.477644
   5 C :   -0.209230
   6 C :   -0.194170
   7 H :    0.230875
   8 C :    0.355472
   9 O :   -0.451809
  10 O :   -0.612610
  11 C :    0.042080
  12 C :   -0.400193
  13 S :    0.215588
  14 P :    0.401305
  15 S :   -0.098404
  16 O :   -0.672972
  17 C :   -0.042526
  18 O :   -0.692114
  19 C :   -0.054070
  20 H :    0.163413
  21 H :    0.162396
  22 H :    0.167978
  23 H :    0.189852
  24 H :    0.190234
  25 H :    0.197602
  26 H :    0.202930
  27 H :    0.193116
  28 H :    0.193117
  29 H :    0.164670
  30 H :    0.166307
  31 H :    0.166271
  32 H :    0.182218
  33 H :    0.179963
  34 H :    0.191702
  35 H :    0.189392
  36 H :    0.177791
  37 H :    0.176644

  Mayer bond orders larger than 0.100000
B(  0-C ,  1-C ) :   0.9317 B(  0-C , 20-H ) :   0.9693 B(  0-C , 21-H ) :   0.9696
B(  0-C , 22-H ) :   0.9602 B(  1-C ,  2-O ) :   0.7945 B(  1-C , 23-H ) :   0.9522
B(  1-C , 24-H ) :   0.9638 B(  2-O ,  3-C ) :   1.0894 B(  2-O ,  6-C ) :   0.1023
B(  3-C ,  4-O ) :   1.8431 B(  3-C ,  5-C ) :   0.8783 B(  5-C ,  6-C ) :   0.8263
B(  5-C , 25-H ) :   1.0015 B(  5-C , 26-H ) :   0.9232 B(  6-C ,  7-H ) :   0.8761
B(  6-C ,  8-C ) :   0.9824 B(  6-C , 13-S ) :   0.8167 B(  8-C ,  9-O ) :   1.7466
B(  8-C , 10-O ) :   1.1317 B( 10-O , 11-C ) :   0.7694 B( 11-C , 12-C ) :   0.9109
B( 11-C , 27-H ) :   0.9628 B( 11-C , 28-H ) :   0.9525 B( 12-C , 29-H ) :   0.9705
B( 12-C , 30-H ) :   0.9589 B( 12-C , 31-H ) :   0.9614 B( 13-S , 14-P ) :   1.0354
B( 14-P , 15-S ) :   1.7557 B( 14-P , 16-O ) :   1.1409 B( 14-P , 18-O ) :   1.0392
B( 16-O , 17-C ) :   0.7881 B( 17-C , 32-H ) :   0.9518 B( 17-C , 33-H ) :   0.9472
B( 17-C , 34-H ) :   0.9545 B( 18-O , 19-C ) :   0.8247 B( 19-C , 35-H ) :   0.9570
B( 19-C , 36-H ) :   0.9549 B( 19-C , 37-H ) :   0.9501

Dispersion correction           -0.018087109
FINAL SINGLE POINT ENERGY     -1981.469184523771

DIPOLE MOMENT
-------------

Method             : SCF
Type of density    : Electron Density
Multiplicity       :   1
Irrep              :   0
Energy             : -1981.4884865227174942 Eh
Relativity type    :
Basis              : AO
                                X                 Y                 Z
Electronic contribution:    -10.944261527      -1.195177260       1.459765566
Nuclear contribution   :      9.538107713       2.537388135      -4.449935443
                        -----------------------------------------
Total Dipole Moment    :     -1.406153815       1.342210874      -2.990169876
                        -----------------------------------------
Magnitude (a.u.)       :      3.566498909
Magnitude (Debye)      :      9.065319795

Rotational constants in cm-1:             0.016216             0.006415             0.005622
Rotational constants in MHz :           486.134931           192.319899           168.543426

                             ****ORCA TERMINATED NORMALLY****
TOTAL RUN TIME: 0 days 0 hours 2 minutes 3 seconds 236 msec
