                         Program Version 6.0.1  -  RELEASE   -
|  1> ! pbe def2-sv(p) def2/J RI DEFGRID1 loosescf d4 GCP(DFT/SV(P)) printgap
|  2> %output
|  3>     printlevel normal
|  4> end
|  5> * xyz 0 1
|  6> C 3.1227924996 -4.5214374532 -1.1391722939
|  7> C 3.897528911 -3.2809976433 -1.5549407605
|  8> O 3.5720867414 -2.1672412995 -0.7010069067
|  9> C 2.5302999657 -1.4216359834 -1.0120786428
| 10> O 1.8359538158 -1.578002301 -1.9911421612
| 11> C 2.3284954281 -0.317299071 0.00960382
| 12> C 0.8973227748 0.191151517 -0.0437715189
| 13> H 0.617446358 0.3793800458 -1.0889770954
| 14> C 0.6530874962 1.4695706183 0.7286172455
| 15> O -0.3654285571 1.6445355253 1.3700993831
| 16> O 1.6194397787 2.3327706509 0.6005061539
| 17> C 1.4445982572 3.6487363533 1.173819636
| 18> C 0.707139987 4.5541677211 0.2015699689
| 19> S -0.2645794491 -1.0692694265 0.601417185
| 20> P -2.0679049935 0.0055549186 0.3090504636
| 21> S -2.1212915978 1.4078867173 -1.0704371363
| 22> O -3.0442483581 -1.2160477691 -0.0519321596
| 23> C -2.9093536782 -1.9198903389 -1.2877054289
| 24> O -2.7620362978 0.2825626824 1.705307598
| 25> C -3.0070217477 1.5715226476 2.2732674468
| 26> H 2.0551744586 -4.3520818724 -1.2607738048
| 27> H 3.4209498811 -5.3580585754 -1.7622898306
| 28> H 3.3250513598 -4.7580380914 -0.0983384312
| 29> H 3.6667041257 -3.0084588771 -2.5886271242
| 30> H 4.9710634544 -3.419929446 -1.4272379365
| 31> H 3.00860647 0.5024697038 -0.2324840992
| 32> H 2.5784954243 -0.7018621001 0.9977991854
| 33> H 0.8938437113 3.5510618022 2.1125354761
| 34> H 2.45977437 3.9993709227 1.3574224838
| 35> H 0.5933241682 5.5391350125 0.6415247041
| 36> H 1.2607642272 4.6378329644 -0.7293215554
| 37> H -0.2793208025 4.148824497 -0.0175516247
| 38> H -1.9602477742 -2.4574482462 -1.3200206161
| 39> H -2.9630611268 -1.2210104523 -2.1250217588
| 40> H -3.7430133086 -2.6163385237 -1.3201040518
| 41> H -3.9959879865 1.5181863418 2.7233260212
| 42> H -2.9818223276 2.3405745155 1.4995934465
| 43> H -2.247056403 1.7802489813 3.0235236541
| 44> *
| 45>
| 46>                          ****END OF INPUT****

CARTESIAN COORDINATES (ANGSTROEM)
---------------------------------
  C      3.122792   -4.521437   -1.139172
  C      3.897529   -3.280998   -1.554941
  O      3.572087   -2.167241   -0.701007
  C      2.530300   -1.421636   -1.012079
  O      1.835954   -1.578002   -1.991142
  C      2.328495   -0.317299    0.009604
  C      0.897323    0.191152   -0.043772
  H      0.617446    0.379380   -1.088977
  C      0.653087    1.469571    0.728617
  O     -0.365429    1.644536    1.370099
  O      1.619440    2.332771    0.600506
  C      1.444598    3.648736    1.173820
  C      0.707140    4.554168    0.201570
  S     -0.264579   -1.069269    0.601417
  P     -2.067905    0.005555    0.309050
  S     -2.121292    1.407887   -1.070437
  O     -3.044248   -1.216048   -0.051932
  C     -2.909354   -1.919890   -1.287705
  O     -2.762036    0.282563    1.705308
  C     -3.007022    1.571523    2.273267
  H      2.055174   -4.352082   -1.260774
  H      3.420950   -5.358059   -1.762290
  H      3.325051   -4.758038   -0.098338
  H      3.666704   -3.008459   -2.588627
  H      4.971063   -3.419929   -1.427238
  H      3.008606    0.502470   -0.232484
  H      2.578495   -0.701862    0.997799
  H      0.893844    3.551062    2.112535
  H      2.459774    3.999371    1.357422
  H      0.593324    5.539135    0.641525
  H      1.260764    4.637833   -0.729322
  H     -0.279321    4.148824   -0.017552
  H     -1.960248   -2.457448   -1.320021
  H     -2.963061   -1.221010   -2.125022
  H     -3.743013   -2.616339   -1.320104
  H     -3.995988    1.518186    2.723326
  H     -2.981822    2.340575    1.499593
  H     -2.247056    1.780249    3.023524

 Total Charge           Charge          ....    0
 Multiplicity           Mult            ....    1
 Number of Electrons    NEL             ....  174
 Basis Dimension        Dim             ....  316

ORBITAL ENERGIES
----------------

  NO   OCC          E(Eh)            E(eV)
   0   2.0000     -88.031626     -2395.4623
   1   2.0000     -87.971681     -2393.8311
   2   2.0000     -76.415934     -2079.3833
   3   2.0000     -18.825336      -512.2634
   4   2.0000     -18.808758      -511.8123
   5   2.0000     -18.776952      -510.9468
   6   2.0000     -18.769616      -510.7472
   7   2.0000     -18.755651      -510.3672
   8   2.0000     -18.746587      -510.1206
   9   2.0000     -10.027793      -272.8701
  10   2.0000     -10.017307      -272.5848
  11   2.0000      -9.961014      -271.0530
  12   2.0000      -9.953060      -270.8365
  13   2.0000      -9.945146      -270.6212
  14   2.0000      -9.930546      -270.2239
  15   2.0000      -9.926089      -270.1026
  16   2.0000      -9.919864      -269.9332
  17   2.0000      -9.891957      -269.1738
  18   2.0000      -9.890696      -269.1395
  19   2.0000      -7.676682      -208.8931
  20   2.0000      -7.616767      -207.2628
  21   2.0000      -6.411698      -174.4712
  22   2.0000      -5.704572      -155.2293
  23   2.0000      -5.701486      -155.1453
  24   2.0000      -5.693380      -154.9247
  25   2.0000      -5.645842      -153.6312
  26   2.0000      -5.637621      -153.4075
  27   2.0000      -5.636508      -153.3772
  28   2.0000      -4.633998      -126.0975
  29   2.0000      -4.633882      -126.0943
  30   2.0000      -4.632335      -126.0523
  31   2.0000      -1.033841       -28.1322
  32   2.0000      -1.017236       -27.6804
  33   2.0000      -0.969396       -26.3786
  34   2.0000      -0.936507       -25.4836
  35   2.0000      -0.923569       -25.1316
  36   2.0000      -0.923405       -25.1271
  37   2.0000      -0.765974       -20.8432
  38   2.0000      -0.717557       -19.5257
  39   2.0000      -0.712299       -19.3826
  40   2.0000      -0.687495       -18.7077
  41   2.0000      -0.654562       -17.8115
  42   2.0000      -0.628438       -17.1007
  43   2.0000      -0.619260       -16.8509
  44   2.0000      -0.607085       -16.5196
  45   2.0000      -0.600428       -16.3385
  46   2.0000      -0.566831       -15.4243
  47   2.0000      -0.512191       -13.9374
  48   2.0000      -0.504218       -13.7205
  49   2.0000      -0.501019       -13.6334
  50   2.0000      -0.482668       -13.1341
  51   2.0000      -0.466185       -12.6855
  52   2.0000      -0.458208       -12.4685
  53   2.0000      -0.451636       -12.2896
  54   2.0000      -0.442838       -12.0502
  55   2.0000      -0.434277       -11.8173
  56   2.0000      -0.425352       -11.5744
  57   2.0000      -0.418225       -11.3805
  58   2.0000      -0.411181       -11.1888
  59   2.0000      -0.405598       -11.0369
  60   2.0000      -0.398923       -10.8552
  61   2.0000      -0.397128       -10.8064
  62   2.0000      -0.389876       -10.6091
  63   2.0000      -0.380482       -10.3534
  64   2.0000      -0.376395       -10.2422
  65   2.0000      -0.373091       -10.1523
  66   2.0000      -0.363665        -9.8958
  67   2.0000      -0.359066        -9.7707
  68   2.0000      -0.349584        -9.5127
  69   2.0000      -0.341991        -9.3060
  70   2.0000      -0.338269        -9.2048
  71   2.0000      -0.334522        -9.1028
  72   2.0000      -0.328984        -8.9521
  73   2.0000      -0.309804        -8.4302
  74   2.0000      -0.304757        -8.2928
  75   2.0000      -0.299126        -8.1396
  76   2.0000      -0.291359        -7.9283
  77   2.0000      -0.281924        -7.6715
  78   2.0000      -0.275303        -7.4914
  79   2.0000      -0.267092        -7.2680
  80   2.0000      -0.257664        -7.0114
  81   2.0000      -0.244216        -6.6454
  82   2.0000      -0.239641        -6.5210
  83   2.0000      -0.232662        -6.3311
  84   2.0000      -0.212371        -5.7789
  85   2.0000      -0.193612        -5.2685
  86   2.0000      -0.185382        -5.0445
  87   0.0000      -0.045982        -1.2512
  88   0.0000      -0.035371        -0.9625
  89   0.0000      -0.023079        -0.6280
  90   0.0000       0.012385         0.3370
  91   0.0000       0.033217         0.9039

MULLIKEN ATOMIC CHARGES
-----------------------
   0 C :   -0.305029
   1 C :   -0.013961
   2 O :   -0.229561
   3 C :    0.135356
   4 O :   -0.194882
   5 C :   -0.125356
   6 C :   -0.310893
   7 H :    0.167399
   8 C :    0.243621
   9 O :   -0.193838
  10 O :   -0.221501
  11 C :   -0.014062
  12 C :   -0.310858
  13 S :   -0.098536
  14 P :    0.629135
  15 S :   -0.355465
  16 O :   -0.373255
  17 C :   -0.101049
  18 O :   -0.366763
  19 C :   -0.084604
  20 H :    0.130536
  21 H :    0.115072
  22 H :    0.116076
  23 H :    0.110884
  24 H :    0.104873
  25 H :    0.139436
  26 H :    0.117075
  27 H :    0.112968
  28 H :    0.107896
  29 H :    0.115493
  30 H :    0.118113
  31 H :    0.141725
  32 H :    0.113152
  33 H :    0.113238
  34 H :    0.118854
  35 H :    0.117722
  36 H :    0.115090
  37 H :    0.115897
Sum of atomic charges:   -0.0000000

LOEWDIN ATOMIC CHARGES
----------------------
   0 C :   -0.355191
   1 C :   -0.110568
   2 O :   -0.059418
   3 C :    0.030983
   4 O :   -0.157864
   5 C :   -0.254562
   6 C :   -0.268141
   7 H :    0.151645
   8 C :    0.026415
   9 O :   -0.157710
  10 O :   -0.036421
  11 C :   -0.105991
  12 C :   -0.357021
  13 S :    0.100411
  14 P :    0.590362
  15 S :   -0.343057
  16 O :   -0.258460
  17 C :   -0.222127
  18 O :   -0.237250
  19 C :   -0.207136
  20 H :    0.132286
  21 H :    0.131683
  22 H :    0.125873
  23 H :    0.120955
  24 H :    0.118697
  25 H :    0.155307
  26 H :    0.139622
  27 H :    0.121997
  28 H :    0.120221
  29 H :    0.132381
  30 H :    0.127547
  31 H :    0.134739
  32 H :    0.104981
  33 H :    0.108382
  34 H :    0.118947
  35 H :    0.116530
  36 H :    0.108274
  37 H :    0.112679

  Mayer bond orders larger than 0.100000
B(  0-C ,  1-C ) :   1.1750 B(  0-C , 20-H ) :   0.9457 B(  0-C , 21-H ) :   0.9439
B(  0-C , 22-H ) :   0.9488 B(  1-C ,  2-O ) :   0.9111 B(  1-C , 23-H ) :   0.9135
B(  1-C , 24-H ) :   0.9371 B(  2-O ,  3-C ) :   1.2444 B(  3-C ,  4-O ) :   2.0410
B(  3-C ,  5-C ) :   0.9954 B(  5-C ,  6-C ) :   1.0914 B(  5-C , 25-H ) :   0.8683
B(  5-C , 26-H ) :   0.9032 B(  6-C ,  7-H ) :   0.8272 B(  6-C ,  8-C ) :   0.9080
B(  6-C , 13-S ) :   1.0238 B(  8-C ,  9-O ) :   1.9482 B(  8-C , 10-O ) :   1.2793
B(  9-O , 14-P ) :   0.1018 B( 10-O , 11-C ) :   0.8958 B( 11-C , 12-C ) :   1.1784
B( 11-C , 27-H ) :   0.9141 B( 11-C , 28-H ) :   0.9361 B( 12-C , 29-H ) :   0.9419
B( 12-C , 30-H ) :   0.9480 B( 12-C , 31-H ) :   0.9357 B( 13-S , 14-P ) :   0.9347
B( 13-S , 15-S ) :   0.1157 B( 14-P , 15-S ) :   1.5641 B( 14-P , 16-O ) :   1.0888
B( 14-P , 18-O ) :   1.1415 B( 16-O , 17-C ) :   0.9449 B( 17-C , 32-H ) :   0.9404
B( 17-C , 33-H ) :   0.9369 B( 17-C , 34-H ) :   0.9593 B( 18-O , 19-C ) :   0.9274
B( 19-C , 35-H ) :   0.9544 B( 19-C , 36-H ) :   0.9348 B( 19-C , 37-H ) :   0.9539

Dispersion correction           -0.050190823
FINAL SINGLE POINT ENERGY     -1979.017920027219

DIPOLE MOMENT
-------------

Method             : SCF
Type of density    : Electron Density
Multiplicity       :   1
Irrep              :   0
Energy             : -1979.1496423422281623 Eh
Relativity type    :
Basis              : AO
                                X                 Y                 Z
Electronic contribution:    -10.227646338      -0.239137364       2.314950553
Nuclear contribution   :     11.949743885       0.447551642      -1.763928596
                        -----------------------------------------
Total Dipole Moment    :      1.722097547       0.208414278       0.551021956
                        -----------------------------------------
Magnitude (a.u.)       :      1.820077380
Magnitude (Debye)      :      4.626269044

Rotational constants in cm-1:             0.012003             0.006843             0.005025
Rotational constants in MHz :           359.839599           205.137616           150.633857

                             ****ORCA TERMINATED NORMALLY****
TOTAL RUN TIME: 0 days 0 hours 0 minutes 38 seconds 655 msec
