                         Program Version 6.0.0  -   RELEASE  -
|  1> ! pbe def2-sv(p) def2/J RI DEFGRID1 loosescf d4 GCP(DFT/SV(P)) printgap
|  2> %output
|  3>     printlevel normal
|  4> end
|  5> * xyz 0 1
|  6> C 3.024077304 2.408220319 -0.8761382534
|  7> C 2.2508269339 1.1766108405 -1.2952605373
|  8> O 1.3079114718 0.7912815404 -0.2550033171
|  9> P 1.6365690029 -0.3383587458 0.796631574
| 10> S 0.4926199095 -0.3361354861 2.3825113049
| 11> O 3.1674037525 -0.079814114 1.1269604779
| 12> C 3.8606343831 -0.8771607945 2.1084561326
| 13> C 5.141233247 -0.1545339228 2.4736187582
| 14> S 1.7685616318 -2.1459483404 -0.3417851827
| 15> C 0.2328107994 -2.044485063 -1.3037118175
| 16> S -1.2675258341 -1.8054286271 -0.3068934877
| 17> P -1.7911495909 0.15478969 -0.9016978916
| 18> S -1.0465209735 0.8374669333 -2.5684794227
| 19> O -1.4821268839 0.9932075476 0.4192313506
| 20> C -1.2970566483 2.4199052236 0.3920592308
| 21> C -2.6084270294 3.1489546883 0.1848905108
| 22> O -3.3744979223 0.0662580285 -1.0056569774
| 23> C -4.1890325034 -0.4147972708 0.0914378444
| 24> C -5.5681954966 0.195902345 -0.0481074322
| 25> H 2.3405864086 3.2240217678 -0.6567394816
| 26> H 3.6169461077 2.1968631027 0.0096917429
| 27> H 3.6812663004 2.7017927276 -1.6886494151
| 28> H 2.9202482629 0.3366174653 -1.4950064653
| 29> H 1.6278298735 1.3721963873 -2.1715396187
| 30> H 3.2067949191 -1.0047126507 2.9774679659
| 31> H 4.0639463557 -1.8566016385 1.6670169381
| 32> H 5.7550580274 -0.0148012434 1.5885521068
| 33> H 4.9128874316 0.8163711519 2.9042846536
| 34> H 5.6876303864 -0.747350526 3.199598681
| 35> H 0.1440453991 -3.0084388404 -1.7992536874
| 36> H 0.2970754591 -1.2335745948 -2.0344986787
| 37> H -0.8490575719 2.6428035097 1.3622153364
| 38> H -0.5872228407 2.659913153 -0.4056160568
| 39> H -2.4305366255 4.2194638598 0.2107605425
| 40> H -3.0290019437 2.881942797 -0.7846658607
| 41> H -3.3154565574 2.8831740631 0.9668056146
| 42> H -4.225159154 -1.5048832506 0.0203757997
| 43> H -3.7145491467 -0.1349389387 1.0367675929
| 44> H -5.513911076 1.2781065093 0.032133134
| 45> H -5.9883931942 -0.0620991995 -1.0158818487
| 46> H -6.2081708437 -0.1911810045 0.7381601575
| 47> *
| 48>
| 49>                          ****END OF INPUT****

CARTESIAN COORDINATES (ANGSTROEM)
---------------------------------
  C      3.024077    2.408220   -0.876138
  C      2.250827    1.176611   -1.295261
  O      1.307911    0.791282   -0.255003
  P      1.636569   -0.338359    0.796632
  S      0.492620   -0.336135    2.382511
  O      3.167404   -0.079814    1.126960
  C      3.860634   -0.877161    2.108456
  C      5.141233   -0.154534    2.473619
  S      1.768562   -2.145948   -0.341785
  C      0.232811   -2.044485   -1.303712
  S     -1.267526   -1.805429   -0.306893
  P     -1.791150    0.154790   -0.901698
  S     -1.046521    0.837467   -2.568479
  O     -1.482127    0.993208    0.419231
  C     -1.297057    2.419905    0.392059
  C     -2.608427    3.148955    0.184891
  O     -3.374498    0.066258   -1.005657
  C     -4.189033   -0.414797    0.091438
  C     -5.568195    0.195902   -0.048107
  H      2.340586    3.224022   -0.656739
  H      3.616946    2.196863    0.009692
  H      3.681266    2.701793   -1.688649
  H      2.920248    0.336617   -1.495006
  H      1.627830    1.372196   -2.171540
  H      3.206795   -1.004713    2.977468
  H      4.063946   -1.856602    1.667017
  H      5.755058   -0.014801    1.588552
  H      4.912887    0.816371    2.904285
  H      5.687630   -0.747351    3.199599
  H      0.144045   -3.008439   -1.799254
  H      0.297075   -1.233575   -2.034499
  H     -0.849058    2.642804    1.362215
  H     -0.587223    2.659913   -0.405616
  H     -2.430537    4.219464    0.210761
  H     -3.029002    2.881943   -0.784666
  H     -3.315457    2.883174    0.966806
  H     -4.225159   -1.504883    0.020376
  H     -3.714549   -0.134939    1.036768
  H     -5.513911    1.278107    0.032133
  H     -5.988393   -0.062099   -1.015882
  H     -6.208171   -0.191181    0.738160

 Total Charge           Charge          ....    0
 Multiplicity           Mult            ....    1
 Number of Electrons    NEL             ....  202
 Basis Dimension        Dim             ....  334

ORBITAL ENERGIES
----------------

  NO   OCC          E(Eh)            E(eV)
   0   2.0000     -88.039862     -2395.6864
   1   2.0000     -88.036340     -2395.5906
   2   2.0000     -87.987507     -2394.2618
   3   2.0000     -87.976951     -2393.9746
   4   2.0000     -76.422494     -2079.5618
   5   2.0000     -76.422185     -2079.5534
   6   2.0000     -18.792710      -511.3756
   7   2.0000     -18.791565      -511.3445
   8   2.0000     -18.788793      -511.2691
   9   2.0000     -18.782863      -511.1077
  10   2.0000      -9.955231      -270.8956
  11   2.0000      -9.954897      -270.8865
  12   2.0000      -9.954091      -270.8646
  13   2.0000      -9.948809      -270.7208
  14   2.0000      -9.943327      -270.5717
  15   2.0000      -9.890164      -269.1250
  16   2.0000      -9.889817      -269.1156
  17   2.0000      -9.884122      -268.9606
  18   2.0000      -9.882402      -268.9138
  19   2.0000      -7.684997      -209.1194
  20   2.0000      -7.681696      -209.0296
  21   2.0000      -7.632741      -207.6974
  22   2.0000      -7.622187      -207.4102
  23   2.0000      -6.420253      -174.7040
  24   2.0000      -6.419935      -174.6953
  25   2.0000      -5.712854      -155.4547
  26   2.0000      -5.709735      -155.3698
  27   2.0000      -5.709556      -155.3649
  28   2.0000      -5.706157      -155.2724
  29   2.0000      -5.701694      -155.1510
  30   2.0000      -5.698735      -155.0705
  31   2.0000      -5.661591      -154.0597
  32   2.0000      -5.653691      -153.8447
  33   2.0000      -5.652496      -153.8122
  34   2.0000      -5.651329      -153.7805
  35   2.0000      -5.642657      -153.5445
  36   2.0000      -5.642248      -153.5334
  37   2.0000      -4.643098      -126.3451
  38   2.0000      -4.643011      -126.3428
  39   2.0000      -4.641843      -126.3110
  40   2.0000      -4.641507      -126.3018
  41   2.0000      -4.641025      -126.2887
  42   2.0000      -4.639702      -126.2527
  43   2.0000      -0.988697       -26.9038
  44   2.0000      -0.980545       -26.6820
  45   2.0000      -0.945100       -25.7175
  46   2.0000      -0.938107       -25.5272
  47   2.0000      -0.758802       -20.6480
  48   2.0000      -0.719955       -19.5910
  49   2.0000      -0.709796       -19.3145
  50   2.0000      -0.691978       -18.8297
  51   2.0000      -0.688096       -18.7240
  52   2.0000      -0.670207       -18.2373
  53   2.0000      -0.646767       -17.5994
  54   2.0000      -0.637882       -17.3577
  55   2.0000      -0.590671       -16.0730
  56   2.0000      -0.583774       -15.8853
  57   2.0000      -0.571708       -15.5570
  58   2.0000      -0.568575       -15.4717
  59   2.0000      -0.561854       -15.2888
  60   2.0000      -0.510080       -13.8800
  61   2.0000      -0.500538       -13.6203
  62   2.0000      -0.480628       -13.0786
  63   2.0000      -0.474760       -12.9189
  64   2.0000      -0.447743       -12.1837
  65   2.0000      -0.443190       -12.0598
  66   2.0000      -0.442244       -12.0341
  67   2.0000      -0.438591       -11.9347
  68   2.0000      -0.428638       -11.6638
  69   2.0000      -0.411513       -11.1978
  70   2.0000      -0.402211       -10.9447
  71   2.0000      -0.393822       -10.7164
  72   2.0000      -0.391376       -10.6499
  73   2.0000      -0.388851       -10.5812
  74   2.0000      -0.379449       -10.3253
  75   2.0000      -0.366492        -9.9728
  76   2.0000      -0.361408        -9.8344
  77   2.0000      -0.357920        -9.7395
  78   2.0000      -0.354451        -9.6451
  79   2.0000      -0.353281        -9.6133
  80   2.0000      -0.347962        -9.4685
  81   2.0000      -0.342096        -9.3089
  82   2.0000      -0.340737        -9.2719
  83   2.0000      -0.338816        -9.2197
  84   2.0000      -0.332494        -9.0476
  85   2.0000      -0.318407        -8.6643
  86   2.0000      -0.314380        -8.5547
  87   2.0000      -0.308162        -8.3855
  88   2.0000      -0.300565        -8.1788
  89   2.0000      -0.294220        -8.0061
  90   2.0000      -0.275987        -7.5100
  91   2.0000      -0.270963        -7.3733
  92   2.0000      -0.266796        -7.2599
  93   2.0000      -0.261664        -7.1202
  94   2.0000      -0.256126        -6.9695
  95   2.0000      -0.236359        -6.4317
  96   2.0000      -0.219216        -5.9652
  97   2.0000      -0.206721        -5.6252
  98   2.0000      -0.202446        -5.5088
  99   2.0000      -0.191412        -5.2086
 100   2.0000      -0.184730        -5.0267
 101   0.0000      -0.045669        -1.2427
 102   0.0000      -0.029030        -0.7899
 103   0.0000      -0.008759        -0.2383
 104   0.0000       0.004796         0.1305
 105   0.0000       0.022387         0.6092

MULLIKEN ATOMIC CHARGES
-----------------------
   0 C :   -0.290631
   1 C :   -0.020623
   2 O :   -0.361942
   3 P :    0.594922
   4 S :   -0.288364
   5 O :   -0.384221
   6 C :   -0.014380
   7 C :   -0.283349
   8 S :   -0.121408
   9 C :   -0.341039
  10 S :   -0.089538
  11 P :    0.627484
  12 S :   -0.320555
  13 O :   -0.361952
  14 C :   -0.011384
  15 C :   -0.316173
  16 O :   -0.373331
  17 C :   -0.038259
  18 C :   -0.279023
  19 H :    0.117114
  20 H :    0.120623
  21 H :    0.109401
  22 H :    0.100355
  23 H :    0.121652
  24 H :    0.106342
  25 H :    0.105246
  26 H :    0.115936
  27 H :    0.122535
  28 H :    0.113568
  29 H :    0.182901
  30 H :    0.195536
  31 H :    0.105561
  32 H :    0.116351
  33 H :    0.110837
  34 H :    0.129030
  35 H :    0.115377
  36 H :    0.113619
  37 H :    0.117172
  38 H :    0.119536
  39 H :    0.123068
  40 H :    0.112006
Sum of atomic charges:   -0.0000000

LOEWDIN ATOMIC CHARGES
----------------------
   0 C :   -0.357572
   1 C :   -0.123400
   2 O :   -0.231620
   3 P :    0.562035
   4 S :   -0.298558
   5 O :   -0.250159
   6 C :   -0.121772
   7 C :   -0.350845
   8 S :    0.043963
   9 C :   -0.477428
  10 S :    0.091080
  11 P :    0.573064
  12 S :   -0.293624
  13 O :   -0.235815
  14 C :   -0.120723
  15 C :   -0.366107
  16 O :   -0.248894
  17 C :   -0.123582
  18 C :   -0.349258
  19 H :    0.125819
  20 H :    0.124680
  21 H :    0.130288
  22 H :    0.105917
  23 H :    0.112067
  24 H :    0.109122
  25 H :    0.109483
  26 H :    0.125823
  27 H :    0.129199
  28 H :    0.131708
  29 H :    0.138933
  30 H :    0.120628
  31 H :    0.117870
  32 H :    0.107319
  33 H :    0.130280
  34 H :    0.124261
  35 H :    0.122191
  36 H :    0.113060
  37 H :    0.111699
  38 H :    0.126859
  39 H :    0.130956
  40 H :    0.131052

  Mayer bond orders larger than 0.100000
B(  0-C ,  1-C ) :   1.1699 B(  0-C , 19-H ) :   0.9483 B(  0-C , 20-H ) :   0.9411
B(  0-C , 21-H ) :   0.9397 B(  1-C ,  2-O ) :   0.8778 B(  1-C , 22-H ) :   0.9113
B(  1-C , 23-H ) :   0.9089 B(  2-O ,  3-P ) :   1.1152 B(  3-P ,  4-S ) :   1.6913
B(  3-P ,  5-O ) :   1.0612 B(  3-P ,  8-S ) :   0.9516 B(  4-S ,  8-S ) :   0.1116
B(  5-O ,  6-C ) :   0.9094 B(  6-C ,  7-C ) :   1.1606 B(  6-C , 24-H ) :   0.9060
B(  6-C , 25-H ) :   0.9281 B(  7-C , 26-H ) :   0.9508 B(  7-C , 27-H ) :   0.9508
B(  7-C , 28-H ) :   0.9417 B(  8-S ,  9-C ) :   0.9894 B(  9-C , 10-S ) :   1.0198
B(  9-C , 29-H ) :   0.9133 B(  9-C , 30-H ) :   0.8555 B( 10-S , 11-P ) :   0.9737
B( 10-S , 12-S ) :   0.1088 B( 11-P , 12-S ) :   1.6024 B( 11-P , 13-O ) :   1.1066
B( 11-P , 16-O ) :   1.1087 B( 12-S , 30-H ) :   0.1076 B( 13-O , 14-C ) :   0.9031
B( 14-C , 15-C ) :   1.1571 B( 14-C , 31-H ) :   0.9293 B( 14-C , 32-H ) :   0.9127
B( 15-C , 33-H ) :   0.9395 B( 15-C , 34-H ) :   0.9359 B( 15-C , 35-H ) :   0.9432
B( 16-O , 17-C ) :   0.9009 B( 17-C , 18-C ) :   1.1678 B( 17-C , 36-H ) :   0.9245
B( 17-C , 37-H ) :   0.9134 B( 18-C , 38-H ) :   0.9493 B( 18-C , 39-H ) :   0.9485
B( 18-C , 40-H ) :   0.9404

Dispersion correction           -0.067508469
FINAL SINGLE POINT ENERGY     -2929.512720721204

DIPOLE MOMENT
-------------

Method             : SCF
Type of density    : Electron Density
Multiplicity       :   1
Irrep              :   0
Energy             : -2929.6327883155354357 Eh
Relativity type    :
Basis              : AO
                                X                 Y                 Z
Electronic contribution:     -1.965208779     -16.374573253      -4.280550403
Nuclear contribution   :      2.378911619      16.665609861       4.496004249
                        -----------------------------------------
Total Dipole Moment    :      0.413702841       0.291036608       0.215453846
                        -----------------------------------------
Magnitude (a.u.)       :      0.549793332
Magnitude (Debye)      :      1.397463591

Rotational constants in cm-1:             0.012969             0.005269             0.005036
Rotational constants in MHz :           388.810117           157.951608           150.989140

                             ****ORCA TERMINATED NORMALLY****
TOTAL RUN TIME: 0 days 0 hours 0 minutes 21 seconds 925 msec
