                         Program Version 6.0.0  -   RELEASE  -
|  1> ! pbe def2-sv(p) def2/J RI DEFGRID1 loosescf d4 GCP(DFT/SV(P)) printgap
|  2> %output
|  3>     printlevel normal
|  4> end
|  5> * xyz 0 1
|  6> C 1.5848756811 2.6861956536 -1.3047202377
|  7> C 2.0405448915 2.4459292317 0.1227905024
|  8> O 3.0162719282 1.3847314434 0.1529851587
|  9> P 2.7032288385 -0.025523342 0.8003510968
| 10> S 2.3647135422 -0.0338506721 2.7364173486
| 11> O 4.0503391611 -0.7045109771 0.3319362927
| 12> C 4.5688321608 -1.8829360232 0.9731591208
| 13> C 3.7066920484 -3.1019836435 0.7110741853
| 14> S 1.1641458126 -0.883612697 -0.4106803074
| 15> C -0.092186693 -1.1906689627 0.8617478665
| 16> S -1.2978477984 0.1484813446 1.0000797448
| 17> P -2.2257278429 -0.0976118664 -0.9141564766
| 18> S -1.9743058448 -1.8703945414 -1.7096236525
| 19> O -1.7059345355 1.0627233986 -1.8428511607
| 20> C -2.2053622549 2.4258717542 -1.8465247709
| 21> C -2.111161053 3.0956657515 -0.4920891167
| 22> O -3.7385287276 0.3160520314 -0.6614387413
| 23> C -4.637357539 -0.560216483 0.0482252878
| 24> C -6.0530599246 -0.0991881213 -0.2329987016
| 25> H 0.9882892969 3.592090727 -1.3448003156
| 26> H 2.4540955171 2.8035714361 -1.9457392233
| 27> H 0.9958900073 1.8468137701 -1.6698345147
| 28> H 1.2017648486 2.1930056179 0.7818837055
| 29> H 2.5541629646 3.3222183692 0.5242035348
| 30> H 5.5655600351 -1.9959019675 0.5445173539
| 31> H 4.6464879227 -1.6899792779 2.0481463971
| 32> H 2.7443797845 -2.9928149633 1.2102028753
| 33> H 3.5369115877 -3.222678649 -0.3561368784
| 34> H 4.2044492114 -3.9851075135 1.0986606863
| 35> H 0.3887493242 -1.271472353 1.8384385075
| 36> H -0.6048465346 -2.1088724579 0.5802479354
| 37> H -1.5721793989 2.9179297517 -2.586385723
| 38> H -3.2384959937 2.402990906 -2.1970128573
| 39> H -2.4375703685 4.1266599222 -0.5872155344
| 40> H -2.7500055009 2.5878310415 0.2275255862
| 41> H -1.0900394052 3.0771672812 -0.1217832431
| 42> H -4.4722232783 -1.5852715355 -0.2997700108
| 43> H -4.4009440777 -0.5004430701 1.1140733328
| 44> H -6.2598059824 -0.1570150415 -1.2979387297
| 45> H -6.7476224162 -0.7394916403 0.3006566653
| 46> H -6.18424346 0.9269777063 0.0974763762
| 47> *
| 48>
| 49>                          ****END OF INPUT****

CARTESIAN COORDINATES (ANGSTROEM)
---------------------------------
  C      1.584876    2.686196   -1.304720
  C      2.040545    2.445929    0.122791
  O      3.016272    1.384731    0.152985
  P      2.703229   -0.025523    0.800351
  S      2.364714   -0.033851    2.736417
  O      4.050339   -0.704511    0.331936
  C      4.568832   -1.882936    0.973159
  C      3.706692   -3.101984    0.711074
  S      1.164146   -0.883613   -0.410680
  C     -0.092187   -1.190669    0.861748
  S     -1.297848    0.148481    1.000080
  P     -2.225728   -0.097612   -0.914156
  S     -1.974306   -1.870395   -1.709624
  O     -1.705935    1.062723   -1.842851
  C     -2.205362    2.425872   -1.846525
  C     -2.111161    3.095666   -0.492089
  O     -3.738529    0.316052   -0.661439
  C     -4.637358   -0.560216    0.048225
  C     -6.053060   -0.099188   -0.232999
  H      0.988289    3.592091   -1.344800
  H      2.454096    2.803571   -1.945739
  H      0.995890    1.846814   -1.669835
  H      1.201765    2.193006    0.781884
  H      2.554163    3.322218    0.524204
  H      5.565560   -1.995902    0.544517
  H      4.646488   -1.689979    2.048146
  H      2.744380   -2.992815    1.210203
  H      3.536912   -3.222679   -0.356137
  H      4.204449   -3.985108    1.098661
  H      0.388749   -1.271472    1.838439
  H     -0.604847   -2.108872    0.580248
  H     -1.572179    2.917930   -2.586386
  H     -3.238496    2.402991   -2.197013
  H     -2.437570    4.126660   -0.587216
  H     -2.750006    2.587831    0.227526
  H     -1.090039    3.077167   -0.121783
  H     -4.472223   -1.585272   -0.299770
  H     -4.400944   -0.500443    1.114073
  H     -6.259806   -0.157015   -1.297939
  H     -6.747622   -0.739492    0.300657
  H     -6.184243    0.926978    0.097476

 Total Charge           Charge          ....    0
 Multiplicity           Mult            ....    1
 Number of Electrons    NEL             ....  202
 Basis Dimension        Dim             ....  334

ORBITAL ENERGIES
----------------

  NO   OCC          E(Eh)            E(eV)
   0   2.0000     -88.043526     -2395.7861
   1   2.0000     -88.041113     -2395.7205
   2   2.0000     -87.989483     -2394.3156
   3   2.0000     -87.988287     -2394.2830
   4   2.0000     -76.431093     -2079.7958
   5   2.0000     -76.424056     -2079.6043
   6   2.0000     -18.802443      -511.6405
   7   2.0000     -18.798094      -511.5221
   8   2.0000     -18.788291      -511.2554
   9   2.0000     -18.786543      -511.2078
  10   2.0000      -9.964538      -271.1489
  11   2.0000      -9.959130      -271.0017
  12   2.0000      -9.952608      -270.8242
  13   2.0000      -9.950511      -270.7672
  14   2.0000      -9.949312      -270.7346
  15   2.0000      -9.896265      -269.2911
  16   2.0000      -9.894424      -269.2410
  17   2.0000      -9.883241      -268.9367
  18   2.0000      -9.882136      -268.9066
  19   2.0000      -7.688241      -209.2077
  20   2.0000      -7.685337      -209.1286
  21   2.0000      -7.634649      -207.7493
  22   2.0000      -7.633283      -207.7122
  23   2.0000      -6.428646      -174.9323
  24   2.0000      -6.421666      -174.7424
  25   2.0000      -5.715976      -155.5396
  26   2.0000      -5.713224      -155.4647
  27   2.0000      -5.712783      -155.4527
  28   2.0000      -5.709794      -155.3714
  29   2.0000      -5.705446      -155.2531
  30   2.0000      -5.702502      -155.1730
  31   2.0000      -5.663656      -154.1159
  32   2.0000      -5.661983      -154.0704
  33   2.0000      -5.655209      -153.8861
  34   2.0000      -5.654757      -153.8738
  35   2.0000      -5.653939      -153.8515
  36   2.0000      -5.653644      -153.8435
  37   2.0000      -4.651700      -126.5792
  38   2.0000      -4.650224      -126.5390
  39   2.0000      -4.648816      -126.5007
  40   2.0000      -4.643908      -126.3672
  41   2.0000      -4.643618      -126.3593
  42   2.0000      -4.642167      -126.3198
  43   2.0000      -0.996190       -27.1077
  44   2.0000      -0.987126       -26.8611
  45   2.0000      -0.951832       -25.9007
  46   2.0000      -0.942631       -25.6503
  47   2.0000      -0.761265       -20.7151
  48   2.0000      -0.723956       -19.6999
  49   2.0000      -0.713512       -19.4156
  50   2.0000      -0.700710       -19.0673
  51   2.0000      -0.682244       -18.5648
  52   2.0000      -0.677888       -18.4463
  53   2.0000      -0.651159       -17.7189
  54   2.0000      -0.637058       -17.3352
  55   2.0000      -0.602610       -16.3979
  56   2.0000      -0.597239       -16.2517
  57   2.0000      -0.579934       -15.7808
  58   2.0000      -0.564156       -15.3515
  59   2.0000      -0.561435       -15.2774
  60   2.0000      -0.512242       -13.9388
  61   2.0000      -0.498930       -13.5766
  62   2.0000      -0.481810       -13.1107
  63   2.0000      -0.469134       -12.7658
  64   2.0000      -0.461772       -12.5655
  65   2.0000      -0.452734       -12.3195
  66   2.0000      -0.445343       -12.1184
  67   2.0000      -0.435597       -11.8532
  68   2.0000      -0.426945       -11.6178
  69   2.0000      -0.421978       -11.4826
  70   2.0000      -0.413756       -11.2589
  71   2.0000      -0.403068       -10.9681
  72   2.0000      -0.392274       -10.6743
  73   2.0000      -0.384312       -10.4577
  74   2.0000      -0.381399       -10.3784
  75   2.0000      -0.375683       -10.2229
  76   2.0000      -0.371337       -10.1046
  77   2.0000      -0.361556        -9.8384
  78   2.0000      -0.360736        -9.8161
  79   2.0000      -0.354379        -9.6432
  80   2.0000      -0.353572        -9.6212
  81   2.0000      -0.348054        -9.4710
  82   2.0000      -0.343536        -9.3481
  83   2.0000      -0.337891        -9.1945
  84   2.0000      -0.335466        -9.1285
  85   2.0000      -0.326888        -8.8951
  86   2.0000      -0.309221        -8.4143
  87   2.0000      -0.307005        -8.3540
  88   2.0000      -0.301841        -8.2135
  89   2.0000      -0.296630        -8.0717
  90   2.0000      -0.289766        -7.8849
  91   2.0000      -0.281400        -7.6573
  92   2.0000      -0.268884        -7.3167
  93   2.0000      -0.264001        -7.1838
  94   2.0000      -0.257380        -7.0037
  95   2.0000      -0.235768        -6.4156
  96   2.0000      -0.216912        -5.9025
  97   2.0000      -0.214479        -5.8363
  98   2.0000      -0.204784        -5.5725
  99   2.0000      -0.203623        -5.5409
 100   2.0000      -0.200766        -5.4631
 101   0.0000      -0.046842        -1.2746
 102   0.0000      -0.029713        -0.8085
 103   0.0000      -0.006009        -0.1635
 104   0.0000      -0.002593        -0.0706
 105   0.0000       0.010485         0.2853

MULLIKEN ATOMIC CHARGES
-----------------------
   0 C :   -0.314029
   1 C :   -0.019819
   2 O :   -0.355391
   3 P :    0.583965
   4 S :   -0.334442
   5 O :   -0.355789
   6 C :    0.000033
   7 C :   -0.314987
   8 S :   -0.075829
   9 C :   -0.358107
  10 S :   -0.107016
  11 P :    0.609939
  12 S :   -0.306588
  13 O :   -0.361652
  14 C :    0.010950
  15 C :   -0.349597
  16 O :   -0.389295
  17 C :   -0.008553
  18 C :   -0.282101
  19 H :    0.107212
  20 H :    0.117660
  21 H :    0.140477
  22 H :    0.112886
  23 H :    0.108918
  24 H :    0.107696
  25 H :    0.112439
  26 H :    0.121227
  27 H :    0.123237
  28 H :    0.112272
  29 H :    0.191279
  30 H :    0.192383
  31 H :    0.114588
  32 H :    0.113679
  33 H :    0.117260
  34 H :    0.127066
  35 H :    0.143671
  36 H :    0.108127
  37 H :    0.104305
  38 H :    0.121529
  39 H :    0.115560
  40 H :    0.114839
Sum of atomic charges:   -0.0000000

LOEWDIN ATOMIC CHARGES
----------------------
   0 C :   -0.366073
   1 C :   -0.117083
   2 O :   -0.237657
   3 P :    0.567206
   4 S :   -0.320426
   5 O :   -0.233293
   6 C :   -0.116896
   7 C :   -0.367922
   8 S :    0.089912
   9 C :   -0.491106
  10 S :    0.068559
  11 P :    0.569761
  12 S :   -0.301505
  13 O :   -0.235149
  14 C :   -0.105367
  15 C :   -0.371957
  16 O :   -0.249300
  17 C :   -0.120729
  18 C :   -0.350337
  19 H :    0.123337
  20 H :    0.128798
  21 H :    0.124103
  22 H :    0.103152
  23 H :    0.120266
  24 H :    0.120177
  25 H :    0.110975
  26 H :    0.119346
  27 H :    0.127206
  28 H :    0.130382
  29 H :    0.124459
  30 H :    0.128227
  31 H :    0.123008
  32 H :    0.117528
  33 H :    0.134174
  34 H :    0.119774
  35 H :    0.126620
  36 H :    0.110102
  37 H :    0.109888
  38 H :    0.129340
  39 H :    0.132859
  40 H :    0.125643

  Mayer bond orders larger than 0.100000
B(  0-C ,  1-C ) :   1.1614 B(  0-C , 19-H ) :   0.9331 B(  0-C , 20-H ) :   0.9424
B(  0-C , 21-H ) :   0.9304 B(  1-C ,  2-O ) :   0.9067 B(  1-C , 22-H ) :   0.8999
B(  1-C , 23-H ) :   0.9343 B(  2-O ,  3-P ) :   1.1308 B(  3-P ,  4-S ) :   1.5944
B(  3-P ,  5-O ) :   1.1322 B(  3-P ,  8-S ) :   0.9357 B(  4-S ,  8-S ) :   0.1242
B(  4-S , 29-H ) :   0.1058 B(  5-O ,  6-C ) :   0.9131 B(  6-C ,  7-C ) :   1.1624
B(  6-C , 24-H ) :   0.9343 B(  6-C , 25-H ) :   0.9170 B(  7-C , 26-H ) :   0.9394
B(  7-C , 27-H ) :   0.9435 B(  7-C , 28-H ) :   0.9381 B(  8-S ,  9-C ) :   1.0089
B(  9-C , 10-S ) :   1.0071 B(  9-C , 29-H ) :   0.8539 B(  9-C , 30-H ) :   0.8765
B( 10-S , 11-P ) :   0.9403 B( 10-S , 12-S ) :   0.1159 B( 11-P , 12-S ) :   1.6465
B( 11-P , 13-O ) :   1.1338 B( 11-P , 16-O ) :   1.0719 B( 13-O , 14-C ) :   0.8890
B( 14-C , 15-C ) :   1.1710 B( 14-C , 31-H ) :   0.9317 B( 14-C , 32-H ) :   0.9293
B( 15-C , 33-H ) :   0.9342 B( 15-C , 34-H ) :   0.9336 B( 15-C , 35-H ) :   0.9314
B( 16-O , 17-C ) :   0.8974 B( 17-C , 18-C ) :   1.1604 B( 17-C , 36-H ) :   0.9095
B( 17-C , 37-H ) :   0.9270 B( 18-C , 38-H ) :   0.9506 B( 18-C , 39-H ) :   0.9414
B( 18-C , 40-H ) :   0.9517

Dispersion correction           -0.064431553
FINAL SINGLE POINT ENERGY     -2929.522294997292

DIPOLE MOMENT
-------------

Method             : SCF
Type of density    : Electron Density
Multiplicity       :   1
Irrep              :   0
Energy             : -2929.6425673413891673 Eh
Relativity type    :
Basis              : AO
                                X                 Y                 Z
Electronic contribution:      9.241749836      -8.335906415       1.827747866
Nuclear contribution   :    -10.239503522       9.174778314      -1.889424268
                        -----------------------------------------
Total Dipole Moment    :     -0.997753686       0.838871899      -0.061676402
                        -----------------------------------------
Magnitude (a.u.)       :      1.304999027
Magnitude (Debye)      :      3.317043916

Rotational constants in cm-1:             0.013294             0.004569             0.004102
Rotational constants in MHz :           398.556577           136.967955           122.982218

                             ****ORCA TERMINATED NORMALLY****
TOTAL RUN TIME: 0 days 0 hours 0 minutes 21 seconds 149 msec
