                         Program Version 6.0.0  -   RELEASE  -
|  1> ! pbe def2-sv(p) def2/J RI DEFGRID1 loosescf d4 GCP(DFT/SV(P)) printgap
|  2> %output
|  3>     printlevel normal
|  4> end
|  5> * xyz 0 1
|  6> C 3.3705369132 -1.1796413519 -3.0224326198
|  7> C 4.1545845671 -1.0109129043 -1.7385463565
|  8> O 3.6143004824 0.0138022927 -0.8813095084
|  9> P 2.0945865401 0.1325628999 -0.4324261017
| 10> S 0.8635307345 0.9525953504 -1.7153829793
| 11> O 2.2040281169 1.0449862704 0.8444408968
| 12> C 3.0727445709 0.7569598385 1.9708311455
| 13> C 2.5862286616 1.5789421321 3.1460693348
| 14> S 1.6800554757 -1.8410649474 0.2434016873
| 15> C 0.039150573 -1.5900193651 0.967103737
| 16> S -1.2989583589 -1.4327838098 -0.255314663
| 17> P -2.0393477017 0.499171786 0.2506910951
| 18> S -1.01971836 1.4935792594 1.5935227954
| 19> O -3.5561400001 0.2551036681 0.6877553807
| 20> C -3.9571348147 -0.0420165637 2.0332251385
| 21> C -3.4969368232 -1.4133651939 2.4867722554
| 22> O -2.2488823264 1.2942192634 -1.0879348153
| 23> C -2.5633246499 0.745021623 -2.3885250764
| 24> C -3.7883348383 -0.1422598432 -2.36832102
| 25> H 3.8653845734 -1.9104668046 -3.6537592192
| 26> H 2.3608268242 -1.5248629138 -2.8030008925
| 27> H 3.299980692 -0.2322115566 -3.5519630083
| 28> H 5.1727794921 -0.6696934226 -1.9335532698
| 29> H 4.1765010968 -1.9461627484 -1.1725641841
| 30> H 3.0270980355 -0.3153535736 2.1834965543
| 31> H 4.0906643458 1.0253173237 1.6821297566
| 32> H 3.1831067884 1.3428978828 4.0207620091
| 33> H 2.6720182992 2.6383142959 2.9221422218
| 34> H 1.5398942281 1.3613335883 3.3481737456
| 35> H 0.0445771105 -0.6866842856 1.5855220887
| 36> H -0.1488570395 -2.4831539664 1.5575288455
| 37> H -3.5583595495 0.7355151516 2.6930272277
| 38> H -5.0454979866 0.0250697393 1.9987085994
| 39> H -2.4153007859 -1.4199110258 2.608901306
| 40> H -3.9584597675 -1.6461663989 3.4410012151
| 41> H -3.7778936401 -2.1675929024 1.7563046565
| 42> H -2.7143460272 1.6357557222 -3.0000730104
| 43> H -1.6810046054 0.2079779606 -2.7481569993
| 44> H -4.6348718841 0.3966101587 -1.9505844073
| 45> H -4.0182403266 -0.4478255148 -3.3842603003
| 46> H -3.6014481983 -1.0299426207 -1.7658469468
| 47> *
| 48>
| 49>                          ****END OF INPUT****

CARTESIAN COORDINATES (ANGSTROEM)
---------------------------------
  C      3.370537   -1.179641   -3.022433
  C      4.154585   -1.010913   -1.738546
  O      3.614300    0.013802   -0.881310
  P      2.094587    0.132563   -0.432426
  S      0.863531    0.952595   -1.715383
  O      2.204028    1.044986    0.844441
  C      3.072745    0.756960    1.970831
  C      2.586229    1.578942    3.146069
  S      1.680055   -1.841065    0.243402
  C      0.039151   -1.590019    0.967104
  S     -1.298958   -1.432784   -0.255315
  P     -2.039348    0.499172    0.250691
  S     -1.019718    1.493579    1.593523
  O     -3.556140    0.255104    0.687755
  C     -3.957135   -0.042017    2.033225
  C     -3.496937   -1.413365    2.486772
  O     -2.248882    1.294219   -1.087935
  C     -2.563325    0.745022   -2.388525
  C     -3.788335   -0.142260   -2.368321
  H      3.865385   -1.910467   -3.653759
  H      2.360827   -1.524863   -2.803001
  H      3.299981   -0.232212   -3.551963
  H      5.172779   -0.669693   -1.933553
  H      4.176501   -1.946163   -1.172564
  H      3.027098   -0.315354    2.183497
  H      4.090664    1.025317    1.682130
  H      3.183107    1.342898    4.020762
  H      2.672018    2.638314    2.922142
  H      1.539894    1.361334    3.348174
  H      0.044577   -0.686684    1.585522
  H     -0.148857   -2.483154    1.557529
  H     -3.558360    0.735515    2.693027
  H     -5.045498    0.025070    1.998709
  H     -2.415301   -1.419911    2.608901
  H     -3.958460   -1.646166    3.441001
  H     -3.777894   -2.167593    1.756305
  H     -2.714346    1.635756   -3.000073
  H     -1.681005    0.207978   -2.748157
  H     -4.634872    0.396610   -1.950584
  H     -4.018240   -0.447826   -3.384260
  H     -3.601448   -1.029943   -1.765847

 Total Charge           Charge          ....    0
 Multiplicity           Mult            ....    1
 Number of Electrons    NEL             ....  202
 Basis Dimension        Dim             ....  334

ORBITAL ENERGIES
----------------

  NO   OCC          E(Eh)            E(eV)
   0   2.0000     -88.044949     -2395.8249
   1   2.0000     -88.039921     -2395.6880
   2   2.0000     -87.979561     -2394.0456
   3   2.0000     -87.973994     -2393.8941
   4   2.0000     -76.420776     -2079.5150
   5   2.0000     -76.420404     -2079.5049
   6   2.0000     -18.788921      -511.2725
   7   2.0000     -18.783637      -511.1287
   8   2.0000     -18.783332      -511.1204
   9   2.0000     -18.779633      -511.0198
  10   2.0000      -9.958290      -270.9788
  11   2.0000      -9.958263      -270.9781
  12   2.0000      -9.949481      -270.7391
  13   2.0000      -9.948935      -270.7243
  14   2.0000      -9.947128      -270.6751
  15   2.0000      -9.884590      -268.9734
  16   2.0000      -9.884132      -268.9609
  17   2.0000      -9.882093      -268.9054
  18   2.0000      -9.881096      -268.8783
  19   2.0000      -7.689935      -209.2538
  20   2.0000      -7.684602      -209.1087
  21   2.0000      -7.624708      -207.4788
  22   2.0000      -7.618964      -207.3226
  23   2.0000      -6.417856      -174.6387
  24   2.0000      -6.417657      -174.6333
  25   2.0000      -5.717537      -155.5821
  26   2.0000      -5.714284      -155.4936
  27   2.0000      -5.712528      -155.4458
  28   2.0000      -5.709176      -155.3546
  29   2.0000      -5.707346      -155.3048
  30   2.0000      -5.701512      -155.1460
  31   2.0000      -5.653562      -153.8412
  32   2.0000      -5.648068      -153.6917
  33   2.0000      -5.645636      -153.6256
  34   2.0000      -5.644519      -153.5952
  35   2.0000      -5.639414      -153.4563
  36   2.0000      -5.639115      -153.4481
  37   2.0000      -4.640573      -126.2764
  38   2.0000      -4.640467      -126.2735
  39   2.0000      -4.639848      -126.2567
  40   2.0000      -4.639610      -126.2502
  41   2.0000      -4.638366      -126.2164
  42   2.0000      -4.637445      -126.1913
  43   2.0000      -0.983343       -26.7581
  44   2.0000      -0.978429       -26.6244
  45   2.0000      -0.939776       -25.5726
  46   2.0000      -0.935688       -25.4614
  47   2.0000      -0.760988       -20.7075
  48   2.0000      -0.716870       -19.5070
  49   2.0000      -0.709142       -19.2967
  50   2.0000      -0.687651       -18.7119
  51   2.0000      -0.685738       -18.6599
  52   2.0000      -0.677327       -18.4310
  53   2.0000      -0.646854       -17.6018
  54   2.0000      -0.632246       -17.2043
  55   2.0000      -0.596123       -16.2213
  56   2.0000      -0.583829       -15.8868
  57   2.0000      -0.570879       -15.5344
  58   2.0000      -0.567000       -15.4288
  59   2.0000      -0.564764       -15.3680
  60   2.0000      -0.504547       -13.7294
  61   2.0000      -0.487801       -13.2737
  62   2.0000      -0.470943       -12.8150
  63   2.0000      -0.464764       -12.6469
  64   2.0000      -0.457248       -12.4424
  65   2.0000      -0.448585       -12.2066
  66   2.0000      -0.435680       -11.8555
  67   2.0000      -0.433965       -11.8088
  68   2.0000      -0.428340       -11.6557
  69   2.0000      -0.418402       -11.3853
  70   2.0000      -0.413311       -11.2468
  71   2.0000      -0.397275       -10.8104
  72   2.0000      -0.393523       -10.7083
  73   2.0000      -0.386146       -10.5076
  74   2.0000      -0.380468       -10.3531
  75   2.0000      -0.365995        -9.9592
  76   2.0000      -0.355739        -9.6802
  77   2.0000      -0.353438        -9.6175
  78   2.0000      -0.350326        -9.5328
  79   2.0000      -0.347955        -9.4683
  80   2.0000      -0.343793        -9.3551
  81   2.0000      -0.343179        -9.3384
  82   2.0000      -0.341792        -9.3006
  83   2.0000      -0.334162        -9.0930
  84   2.0000      -0.333607        -9.0779
  85   2.0000      -0.316653        -8.6166
  86   2.0000      -0.305571        -8.3150
  87   2.0000      -0.294061        -8.0018
  88   2.0000      -0.289912        -7.8889
  89   2.0000      -0.288078        -7.8390
  90   2.0000      -0.284606        -7.7445
  91   2.0000      -0.270287        -7.3549
  92   2.0000      -0.267418        -7.2768
  93   2.0000      -0.259043        -7.0489
  94   2.0000      -0.254889        -6.9359
  95   2.0000      -0.241421        -6.5694
  96   2.0000      -0.216138        -5.8814
  97   2.0000      -0.201427        -5.4811
  98   2.0000      -0.198416        -5.3992
  99   2.0000      -0.184889        -5.0311
 100   2.0000      -0.182208        -4.9581
 101   0.0000      -0.039638        -1.0786
 102   0.0000      -0.029912        -0.8140
 103   0.0000      -0.014690        -0.3997
 104   0.0000       0.001358         0.0370
 105   0.0000       0.021894         0.5958

MULLIKEN ATOMIC CHARGES
-----------------------
   0 C :   -0.311043
   1 C :   -0.012819
   2 O :   -0.383566
   3 P :    0.597638
   4 S :   -0.296395
   5 O :   -0.345032
   6 C :   -0.013741
   7 C :   -0.285096
   8 S :   -0.122503
   9 C :   -0.349991
  10 S :   -0.104514
  11 P :    0.605952
  12 S :   -0.300444
  13 O :   -0.375629
  14 C :    0.004162
  15 C :   -0.318324
  16 O :   -0.351046
  17 C :   -0.008368
  18 C :   -0.315480
  19 H :    0.109921
  20 H :    0.126948
  21 H :    0.129057
  22 H :    0.110250
  23 H :    0.112661
  24 H :    0.094306
  25 H :    0.105402
  26 H :    0.105565
  27 H :    0.122267
  28 H :    0.131660
  29 H :    0.196600
  30 H :    0.184407
  31 H :    0.108656
  32 H :    0.101766
  33 H :    0.118231
  34 H :    0.110403
  35 H :    0.117827
  36 H :    0.110995
  37 H :    0.126746
  38 H :    0.123640
  39 H :    0.114186
  40 H :    0.124744
Sum of atomic charges:    0.0000000

LOEWDIN ATOMIC CHARGES
----------------------
   0 C :   -0.371249
   1 C :   -0.114376
   2 O :   -0.248857
   3 P :    0.561787
   4 S :   -0.295621
   5 O :   -0.226793
   6 C :   -0.117101
   7 C :   -0.352365
   8 S :    0.062486
   9 C :   -0.484051
  10 S :    0.071666
  11 P :    0.576299
  12 S :   -0.291502
  13 O :   -0.250989
  14 C :   -0.119003
  15 C :   -0.369335
  16 O :   -0.223202
  17 C :   -0.115371
  18 C :   -0.367276
  19 H :    0.129312
  20 H :    0.121440
  21 H :    0.131113
  22 H :    0.121871
  23 H :    0.107553
  24 H :    0.099311
  25 H :    0.113999
  26 H :    0.127284
  27 H :    0.130714
  28 H :    0.127690
  29 H :    0.119789
  30 H :    0.135707
  31 H :    0.109193
  32 H :    0.117419
  33 H :    0.117769
  34 H :    0.129318
  35 H :    0.124057
  36 H :    0.124169
  37 H :    0.110028
  38 H :    0.129434
  39 H :    0.132029
  40 H :    0.115655

  Mayer bond orders larger than 0.100000
B(  0-C ,  1-C ) :   1.1671 B(  0-C , 19-H ) :   0.9339 B(  0-C , 20-H ) :   0.9316
B(  0-C , 21-H ) :   0.9413 B(  1-C ,  2-O ) :   0.9170 B(  1-C , 22-H ) :   0.9336
B(  1-C , 23-H ) :   0.9270 B(  2-O ,  3-P ) :   1.0793 B(  3-P ,  4-S ) :   1.6742
B(  3-P ,  5-O ) :   1.1386 B(  3-P ,  8-S ) :   0.9387 B(  4-S ,  8-S ) :   0.1132
B(  5-O ,  6-C ) :   0.8928 B(  6-C ,  7-C ) :   1.1626 B(  6-C , 24-H ) :   0.9119
B(  6-C , 25-H ) :   0.9302 B(  7-C , 26-H ) :   0.9408 B(  7-C , 27-H ) :   0.9493
B(  7-C , 28-H ) :   0.9452 B(  8-S ,  9-C ) :   0.9947 B(  9-C , 10-S ) :   1.0095
B(  9-C , 29-H ) :   0.8388 B(  9-C , 30-H ) :   0.9069 B( 10-S , 11-P ) :   0.9380
B( 10-S , 12-S ) :   0.1132 B( 11-P , 12-S ) :   1.6061 B( 11-P , 13-O ) :   1.0701
B( 11-P , 16-O ) :   1.1593 B( 12-S , 29-H ) :   0.1259 B( 13-O , 14-C ) :   0.9253
B( 14-C , 15-C ) :   1.1622 B( 14-C , 31-H ) :   0.9138 B( 14-C , 32-H ) :   0.9344
B( 15-C , 33-H ) :   0.9379 B( 15-C , 34-H ) :   0.9378 B( 15-C , 35-H ) :   0.9431
B( 16-O , 17-C ) :   0.8973 B( 17-C , 18-C ) :   1.1664 B( 17-C , 36-H ) :   0.9343
B( 17-C , 37-H ) :   0.9128 B( 18-C , 38-H ) :   0.9417 B( 18-C , 39-H ) :   0.9354
B( 18-C , 40-H ) :   0.9369

Dispersion correction           -0.067961813
FINAL SINGLE POINT ENERGY     -2929.508413007498

DIPOLE MOMENT
-------------

Method             : SCF
Type of density    : Electron Density
Multiplicity       :   1
Irrep              :   0
Energy             : -2929.6259351893004350 Eh
Relativity type    :
Basis              : AO
                                X                 Y                 Z
Electronic contribution:      2.285011156       5.723218410      -3.438263175
Nuclear contribution   :     -2.045952539      -7.173433830       3.756671280
                        -----------------------------------------
Total Dipole Moment    :      0.239058617      -1.450215420       0.318408105
                        -----------------------------------------
Magnitude (a.u.)       :      1.503880816
Magnitude (Debye)      :      3.822561250

Rotational constants in cm-1:             0.011697             0.005748             0.004937
Rotational constants in MHz :           350.658602           172.330234           148.021323

                             ****ORCA TERMINATED NORMALLY****
TOTAL RUN TIME: 0 days 0 hours 0 minutes 21 seconds 625 msec
