                         Program Version 6.0.0  -   RELEASE  -
|  1> ! pbe def2-sv(p) def2/J RI DEFGRID1 loosescf d4 GCP(DFT/SV(P)) printgap
|  2> %output
|  3>     printlevel normal
|  4> end
|  5> * xyz 0 1
|  6> C 2.8608130128 -1.3536141796 3.2893605314
|  7> C 1.7277578861 -0.989309194 2.3519544002
|  8> O 2.0460550718 -1.3819997531 0.9938476577
|  9> P 2.5827275737 -0.3858674714 -0.1021802555
| 10> S 2.9782176674 -1.3869062101 -1.7368270989
| 11> O 3.768970321 0.3466193656 0.6568476585
| 12> C 4.3585982234 1.5997406344 0.2612791086
| 13> C 4.8439608963 1.5926664157 -1.1727750673
| 14> S 1.119170903 1.1607198871 -0.3007076044
| 15> C 0.0610722111 0.2661919239 -1.455826209
| 16> S -0.9815709716 -0.9655263055 -0.639658083
| 17> P -2.7622137248 0.2201325482 -0.4112888673
| 18> S -2.8591880519 1.8379443063 -1.5045354238
| 19> O -2.9297381586 0.3669312008 1.1661481656
| 20> C -1.9312996765 0.9025158709 2.0512680453
| 21> C -1.6981931134 2.3850524054 1.8435974055
| 22> O -3.9425892586 -0.751008659 -0.7763687935
| 23> C -4.1436000021 -2.0451455207 -0.1534022004
| 24> C -5.174042425 -1.9520626852 0.9532311379
| 25> H 3.0669375379 -2.4184426216 3.2263957287
| 26> H 3.7612973621 -0.8078698673 3.0206448976
| 27> H 2.576671116 -1.1017947402 4.3062551534
| 28> H 1.5274014809 0.0858452454 2.3747336423
| 29> H 0.8197177067 -1.5461358136 2.592127202
| 30> H 3.617319412 2.3888370254 0.4146251749
| 31> H 5.1869222161 1.7260359342 0.960577034
| 32> H 5.3548113753 2.526064952 -1.386245313
| 33> H 5.5258072416 0.7619579332 -1.3393711564
| 34> H 4.0019191168 1.4858800098 -1.8554776694
| 35> H 0.6932840379 -0.2648156772 -2.1695242077
| 36> H -0.5777048125 1.0012895701 -1.9510140786
| 37> H -2.3329328903 0.699613119 3.0456449271
| 38> H -1.0031991778 0.3407888973 1.9069727073
| 39> H -1.2416381564 2.5690932596 0.8724202926
| 40> H -2.6411634111 2.9235624879 1.8891130254
| 41> H -1.0344381867 2.7555056231 2.6179910942
| 42> H -4.4888230449 -2.6874679378 -0.9655264284
| 43> H -3.184143186 -2.4125967663 0.2206587881
| 44> H -6.1060119343 -1.5571843907 0.5583572916
| 45> H -5.3482418371 -2.9431989934 1.3602646042
| 46> H -4.8230073476 -1.2937681662 1.7429843703
| 47> *
| 48>
| 49>                          ****END OF INPUT****

CARTESIAN COORDINATES (ANGSTROEM)
---------------------------------
  C      2.860813   -1.353614    3.289361
  C      1.727758   -0.989309    2.351954
  O      2.046055   -1.382000    0.993848
  P      2.582728   -0.385867   -0.102180
  S      2.978218   -1.386906   -1.736827
  O      3.768970    0.346619    0.656848
  C      4.358598    1.599741    0.261279
  C      4.843961    1.592666   -1.172775
  S      1.119171    1.160720   -0.300708
  C      0.061072    0.266192   -1.455826
  S     -0.981571   -0.965526   -0.639658
  P     -2.762214    0.220133   -0.411289
  S     -2.859188    1.837944   -1.504535
  O     -2.929738    0.366931    1.166148
  C     -1.931300    0.902516    2.051268
  C     -1.698193    2.385052    1.843597
  O     -3.942589   -0.751009   -0.776369
  C     -4.143600   -2.045146   -0.153402
  C     -5.174042   -1.952063    0.953231
  H      3.066938   -2.418443    3.226396
  H      3.761297   -0.807870    3.020645
  H      2.576671   -1.101795    4.306255
  H      1.527401    0.085845    2.374734
  H      0.819718   -1.546136    2.592127
  H      3.617319    2.388837    0.414625
  H      5.186922    1.726036    0.960577
  H      5.354811    2.526065   -1.386245
  H      5.525807    0.761958   -1.339371
  H      4.001919    1.485880   -1.855478
  H      0.693284   -0.264816   -2.169524
  H     -0.577705    1.001290   -1.951014
  H     -2.332933    0.699613    3.045645
  H     -1.003199    0.340789    1.906973
  H     -1.241638    2.569093    0.872420
  H     -2.641163    2.923562    1.889113
  H     -1.034438    2.755506    2.617991
  H     -4.488823   -2.687468   -0.965526
  H     -3.184143   -2.412597    0.220659
  H     -6.106012   -1.557184    0.558357
  H     -5.348242   -2.943199    1.360265
  H     -4.823007   -1.293768    1.742984

 Total Charge           Charge          ....    0
 Multiplicity           Mult            ....    1
 Number of Electrons    NEL             ....  202
 Basis Dimension        Dim             ....  334

ORBITAL ENERGIES
----------------

  NO   OCC          E(Eh)            E(eV)
   0   2.0000     -88.047897     -2395.9051
   1   2.0000     -88.043065     -2395.7736
   2   2.0000     -87.988389     -2394.2858
   3   2.0000     -87.986287     -2394.2286
   4   2.0000     -76.430324     -2079.7749
   5   2.0000     -76.428442     -2079.7236
   6   2.0000     -18.802209      -511.6341
   7   2.0000     -18.796132      -511.4688
   8   2.0000     -18.794690      -511.4295
   9   2.0000     -18.794488      -511.4240
  10   2.0000      -9.964815      -271.1564
  11   2.0000      -9.961843      -271.0755
  12   2.0000      -9.961476      -271.0655
  13   2.0000      -9.958656      -270.9888
  14   2.0000      -9.950465      -270.7659
  15   2.0000      -9.891546      -269.1627
  16   2.0000      -9.889994      -269.1204
  17   2.0000      -9.887072      -269.0409
  18   2.0000      -9.883739      -268.9502
  19   2.0000      -7.692467      -209.3227
  20   2.0000      -7.687678      -209.1924
  21   2.0000      -7.633606      -207.7210
  22   2.0000      -7.631551      -207.6651
  23   2.0000      -6.427718      -174.9071
  24   2.0000      -6.425961      -174.8593
  25   2.0000      -5.720003      -155.6492
  26   2.0000      -5.716986      -155.5671
  27   2.0000      -5.715433      -155.5248
  28   2.0000      -5.712259      -155.4385
  29   2.0000      -5.709891      -155.3740
  30   2.0000      -5.704808      -155.2357
  31   2.0000      -5.662633      -154.0881
  32   2.0000      -5.660723      -154.0361
  33   2.0000      -5.654315      -153.8617
  34   2.0000      -5.653509      -153.8398
  35   2.0000      -5.652077      -153.8008
  36   2.0000      -5.651512      -153.7855
  37   2.0000      -4.650639      -126.5503
  38   2.0000      -4.649694      -126.5246
  39   2.0000      -4.648694      -126.4974
  40   2.0000      -4.647839      -126.4741
  41   2.0000      -4.647664      -126.4694
  42   2.0000      -4.646158      -126.4284
  43   2.0000      -0.994934       -27.0735
  44   2.0000      -0.991686       -26.9851
  45   2.0000      -0.951246       -25.8847
  46   2.0000      -0.948379       -25.8067
  47   2.0000      -0.764553       -20.8045
  48   2.0000      -0.725838       -19.7511
  49   2.0000      -0.716809       -19.5054
  50   2.0000      -0.696911       -18.9639
  51   2.0000      -0.693479       -18.8705
  52   2.0000      -0.678921       -18.4744
  53   2.0000      -0.653172       -17.7737
  54   2.0000      -0.641918       -17.4675
  55   2.0000      -0.595300       -16.1989
  56   2.0000      -0.592128       -16.1126
  57   2.0000      -0.580706       -15.8018
  58   2.0000      -0.578865       -15.7517
  59   2.0000      -0.569767       -15.5042
  60   2.0000      -0.512188       -13.9373
  61   2.0000      -0.502203       -13.6656
  62   2.0000      -0.481932       -13.1140
  63   2.0000      -0.478456       -13.0194
  64   2.0000      -0.462517       -12.5857
  65   2.0000      -0.452016       -12.3000
  66   2.0000      -0.446637       -12.1536
  67   2.0000      -0.442212       -12.0332
  68   2.0000      -0.432753       -11.7758
  69   2.0000      -0.420445       -11.4409
  70   2.0000      -0.413922       -11.2634
  71   2.0000      -0.408843       -11.1252
  72   2.0000      -0.400867       -10.9082
  73   2.0000      -0.391409       -10.6508
  74   2.0000      -0.385330       -10.4854
  75   2.0000      -0.369476       -10.0539
  76   2.0000      -0.362101        -9.8533
  77   2.0000      -0.360979        -9.8227
  78   2.0000      -0.359279        -9.7765
  79   2.0000      -0.355678        -9.6785
  80   2.0000      -0.351113        -9.5543
  81   2.0000      -0.348466        -9.4823
  82   2.0000      -0.344237        -9.3672
  83   2.0000      -0.343588        -9.3495
  84   2.0000      -0.339091        -9.2271
  85   2.0000      -0.327722        -8.9178
  86   2.0000      -0.320339        -8.7169
  87   2.0000      -0.302724        -8.2375
  88   2.0000      -0.299244        -8.1428
  89   2.0000      -0.295315        -8.0359
  90   2.0000      -0.291737        -7.9386
  91   2.0000      -0.283814        -7.7230
  92   2.0000      -0.281446        -7.6585
  93   2.0000      -0.268834        -7.3154
  94   2.0000      -0.259519        -7.0619
  95   2.0000      -0.240397        -6.5415
  96   2.0000      -0.221077        -6.0158
  97   2.0000      -0.211848        -5.7647
  98   2.0000      -0.203518        -5.5380
  99   2.0000      -0.201675        -5.4879
 100   2.0000      -0.199637        -5.4324
 101   0.0000      -0.047062        -1.2806
 102   0.0000      -0.033059        -0.8996
 103   0.0000      -0.014995        -0.4080
 104   0.0000      -0.001557        -0.0424
 105   0.0000       0.009406         0.2560

MULLIKEN ATOMIC CHARGES
-----------------------
   0 C :   -0.271791
   1 C :   -0.035481
   2 O :   -0.346713
   3 P :    0.592996
   4 S :   -0.299522
   5 O :   -0.381490
   6 C :   -0.012454
   7 C :   -0.310181
   8 S :   -0.118675
   9 C :   -0.354477
  10 S :   -0.111688
  11 P :    0.598830
  12 S :   -0.298536
  13 O :   -0.376217
  14 C :   -0.037546
  15 C :   -0.301509
  16 O :   -0.352595
  17 C :   -0.017610
  18 C :   -0.288519
  19 H :    0.121596
  20 H :    0.120395
  21 H :    0.107859
  22 H :    0.104300
  23 H :    0.117287
  24 H :    0.114748
  25 H :    0.109991
  26 H :    0.113719
  27 H :    0.128521
  28 H :    0.128763
  29 H :    0.197754
  30 H :    0.195545
  31 H :    0.103005
  32 H :    0.125137
  33 H :    0.128473
  34 H :    0.121252
  35 H :    0.104420
  36 H :    0.116880
  37 H :    0.107657
  38 H :    0.123006
  39 H :    0.110606
  40 H :    0.122262
Sum of atomic charges:    0.0000000

LOEWDIN ATOMIC CHARGES
----------------------
   0 C :   -0.357239
   1 C :   -0.118172
   2 O :   -0.232521
   3 P :    0.567566
   4 S :   -0.298516
   5 O :   -0.244434
   6 C :   -0.114868
   7 C :   -0.368761
   8 S :    0.068369
   9 C :   -0.491212
  10 S :    0.064618
  11 P :    0.568117
  12 S :   -0.290107
  13 O :   -0.245607
  14 C :   -0.122851
  15 C :   -0.367407
  16 O :   -0.233244
  17 C :   -0.111003
  18 C :   -0.358539
  19 H :    0.130301
  20 H :    0.126879
  21 H :    0.128684
  22 H :    0.101308
  23 H :    0.119844
  24 H :    0.108768
  25 H :    0.121410
  26 H :    0.131449
  27 H :    0.131427
  28 H :    0.122982
  29 H :    0.128258
  30 H :    0.125662
  31 H :    0.117802
  32 H :    0.101815
  33 H :    0.115065
  34 H :    0.129260
  35 H :    0.127425
  36 H :    0.124640
  37 H :    0.105572
  38 H :    0.130747
  39 H :    0.129799
  40 H :    0.126717

  Mayer bond orders larger than 0.100000
B(  0-C ,  1-C ) :   1.1560 B(  0-C , 19-H ) :   0.9457 B(  0-C , 20-H ) :   0.9420
B(  0-C , 21-H ) :   0.9405 B(  1-C ,  2-O ) :   0.8967 B(  1-C , 22-H ) :   0.9068
B(  1-C , 23-H ) :   0.9300 B(  2-O ,  3-P ) :   1.1393 B(  3-P ,  4-S ) :   1.6521
B(  3-P ,  5-O ) :   1.0807 B(  3-P ,  8-S ) :   0.9383 B(  4-S ,  8-S ) :   0.1101
B(  5-O ,  6-C ) :   0.9088 B(  6-C ,  7-C ) :   1.1681 B(  6-C , 24-H ) :   0.9260
B(  6-C , 25-H ) :   0.9327 B(  7-C , 26-H ) :   0.9346 B(  7-C , 27-H ) :   0.9430
B(  7-C , 28-H ) :   0.9318 B(  8-S ,  9-C ) :   1.0054 B(  9-C , 10-S ) :   1.0121
B(  9-C , 29-H ) :   0.8591 B(  9-C , 30-H ) :   0.8502 B( 10-S , 11-P ) :   0.9398
B( 10-S , 12-S ) :   0.1163 B( 11-P , 12-S ) :   1.6497 B( 11-P , 13-O ) :   1.0706
B( 11-P , 16-O ) :   1.1503 B( 12-S , 30-H ) :   0.1159 B( 13-O , 14-C ) :   0.9175
B( 14-C , 15-C ) :   1.1652 B( 14-C , 31-H ) :   0.9334 B( 14-C , 32-H ) :   0.9025
B( 15-C , 33-H ) :   0.9276 B( 15-C , 34-H ) :   0.9440 B( 15-C , 35-H ) :   0.9370
B( 16-O , 17-C ) :   0.8909 B( 17-C , 18-C ) :   1.1652 B( 17-C , 36-H ) :   0.9353
B( 17-C , 37-H ) :   0.9171 B( 18-C , 38-H ) :   0.9465 B( 18-C , 39-H ) :   0.9394
B( 18-C , 40-H ) :   0.9420

Dispersion correction           -0.063771527
FINAL SINGLE POINT ENERGY     -2929.516018904373

DIPOLE MOMENT
-------------

Method             : SCF
Type of density    : Electron Density
Multiplicity       :   1
Irrep              :   0
Energy             : -2929.6375298307116282 Eh
Relativity type    :
Basis              : AO
                                X                 Y                 Z
Electronic contribution:     -2.968815556      -2.129347608     -18.561623483
Nuclear contribution   :      3.280895935       2.201604057      20.726906011
                        -----------------------------------------
Total Dipole Moment    :      0.312080379       0.072256449       2.165282528
                        -----------------------------------------
Magnitude (a.u.)       :      2.188849831
Magnitude (Debye)      :      5.563614123

Rotational constants in cm-1:             0.012722             0.004353             0.004201
Rotational constants in MHz :           381.382806           130.485110           125.933897

                             ****ORCA TERMINATED NORMALLY****
TOTAL RUN TIME: 0 days 0 hours 0 minutes 21 seconds 205 msec
