                         Program Version 6.0.0  -   RELEASE  -
|  1> ! pbe def2-sv(p) def2/J RI DEFGRID1 loosescf d4 GCP(DFT/SV(P)) printgap
|  2> %output
|  3>     printlevel normal
|  4> end
|  5> * xyz 0 1
|  6> C 2.8083695752 1.5538859306 -2.9379753646
|  7> C 2.8805513148 1.4545493284 -1.4293911565
|  8> O 2.4760104568 0.1191573734 -1.0544179893
|  9> P 2.1230726665 -0.2551829097 0.4408514766
| 10> S 0.9662845878 1.0105788097 1.4089257653
| 11> O 3.5667337305 -0.3787936486 1.0962590058
| 12> C 3.7689423657 -0.4092156092 2.5198566153
| 13> C 3.1993403218 -1.6668594949 3.1431178775
| 14> S 1.5430978119 -2.2529577151 0.1516419209
| 15> C -0.0467555465 -2.0313199039 -0.6953133717
| 16> S -1.3930743039 -1.5165825089 0.4212090107
| 17> P -1.899867791 0.3305962565 -0.4822400503
| 18> S -0.6966425672 1.1040910807 -1.8075189247
| 19> O -2.2366658495 1.1601943393 0.8353021349
| 20> C -2.1301673781 2.593531149 0.8943763973
| 21> C -3.2158363782 3.2673560648 0.0802462624
| 22> O -3.3013050545 0.0603367289 -1.1906448168
| 23> C -4.4257202802 -0.5164440361 -0.4858701952
| 24> C -4.7019369836 -1.9156527202 -0.9995996997
| 25> H 1.779550727 1.4243942277 -3.2655882424
| 26> H 3.161339368 2.5319998087 -3.2471791497
| 27> H 3.4259318634 0.7832695827 -3.3894760303
| 28> H 2.2037149716 2.1701182289 -0.9504069098
| 29> H 3.8962528866 1.6143277542 -1.0595543165
| 30> H 4.8525367957 -0.3551774057 2.6313753602
| 31> H 3.3027254761 0.4815363065 2.9534149819
| 32> H 3.5880848445 -2.5479975661 2.6388957387
| 33> H 3.4666399249 -1.7018833888 4.1943147554
| 34> H 2.1130826971 -1.6642487212 3.0545395773
| 35> H -0.2970253189 -3.0100607158 -1.0952583741
| 36> H 0.0616818354 -1.288715705 -1.489650393
| 37> H -2.2120577134 2.8187804987 1.9586003106
| 38> H -1.1352213577 2.8832054373 0.5418784882
| 39> H -4.1972596085 2.9624232203 0.4342781788
| 40> H -3.1173297735 4.3442887562 0.1727982065
| 41> H -3.1149505721 2.9905938458 -0.9694345217
| 42> H -4.2133738847 -0.5204053362 0.5872838442
| 43> H -5.2640005589 0.1518046654 -0.6917651411
| 44> H -3.8797886165 -2.5816052227 -0.7504238175
| 45> H -5.6120822264 -2.2880005789 -0.5403807493
| 46> H -4.8259034364 -1.8943802033 -2.0786727338
| 47> *
| 48>
| 49>                          ****END OF INPUT****

CARTESIAN COORDINATES (ANGSTROEM)
---------------------------------
  C      2.808370    1.553886   -2.937975
  C      2.880551    1.454549   -1.429391
  O      2.476010    0.119157   -1.054418
  P      2.123073   -0.255183    0.440851
  S      0.966285    1.010579    1.408926
  O      3.566734   -0.378794    1.096259
  C      3.768942   -0.409216    2.519857
  C      3.199340   -1.666859    3.143118
  S      1.543098   -2.252958    0.151642
  C     -0.046756   -2.031320   -0.695313
  S     -1.393074   -1.516583    0.421209
  P     -1.899868    0.330596   -0.482240
  S     -0.696643    1.104091   -1.807519
  O     -2.236666    1.160194    0.835302
  C     -2.130167    2.593531    0.894376
  C     -3.215836    3.267356    0.080246
  O     -3.301305    0.060337   -1.190645
  C     -4.425720   -0.516444   -0.485870
  C     -4.701937   -1.915653   -0.999600
  H      1.779551    1.424394   -3.265588
  H      3.161339    2.532000   -3.247179
  H      3.425932    0.783270   -3.389476
  H      2.203715    2.170118   -0.950407
  H      3.896253    1.614328   -1.059554
  H      4.852537   -0.355177    2.631375
  H      3.302725    0.481536    2.953415
  H      3.588085   -2.547998    2.638896
  H      3.466640   -1.701883    4.194315
  H      2.113083   -1.664249    3.054540
  H     -0.297025   -3.010061   -1.095258
  H      0.061682   -1.288716   -1.489650
  H     -2.212058    2.818780    1.958600
  H     -1.135221    2.883205    0.541878
  H     -4.197260    2.962423    0.434278
  H     -3.117330    4.344289    0.172798
  H     -3.114951    2.990594   -0.969435
  H     -4.213374   -0.520405    0.587284
  H     -5.264001    0.151805   -0.691765
  H     -3.879789   -2.581605   -0.750424
  H     -5.612082   -2.288001   -0.540381
  H     -4.825903   -1.894380   -2.078673

 Total Charge           Charge          ....    0
 Multiplicity           Mult            ....    1
 Number of Electrons    NEL             ....  202
 Basis Dimension        Dim             ....  334

ORBITAL ENERGIES
----------------

  NO   OCC          E(Eh)            E(eV)
   0   2.0000     -88.041051     -2395.7188
   1   2.0000     -88.038615     -2395.6525
   2   2.0000     -87.985022     -2394.1942
   3   2.0000     -87.978690     -2394.0219
   4   2.0000     -76.422378     -2079.5586
   5   2.0000     -76.420027     -2079.4947
   6   2.0000     -18.788233      -511.2538
   7   2.0000     -18.787178      -511.2251
   8   2.0000     -18.783162      -511.1158
   9   2.0000     -18.781653      -511.0748
  10   2.0000      -9.956024      -270.9172
  11   2.0000      -9.953735      -270.8549
  12   2.0000      -9.948156      -270.7031
  13   2.0000      -9.947541      -270.6864
  14   2.0000      -9.942185      -270.5406
  15   2.0000      -9.883846      -268.9531
  16   2.0000      -9.882179      -268.9078
  17   2.0000      -9.881339      -268.8849
  18   2.0000      -9.876939      -268.7652
  19   2.0000      -7.686724      -209.1664
  20   2.0000      -7.683864      -209.0886
  21   2.0000      -7.630153      -207.6270
  22   2.0000      -7.623320      -207.4411
  23   2.0000      -6.420149      -174.7011
  24   2.0000      -6.417773      -174.6365
  25   2.0000      -5.714622      -155.5028
  26   2.0000      -5.711743      -155.4244
  27   2.0000      -5.711198      -155.4096
  28   2.0000      -5.708638      -155.3399
  29   2.0000      -5.703589      -155.2025
  30   2.0000      -5.700489      -155.1182
  31   2.0000      -5.659141      -153.9931
  32   2.0000      -5.652110      -153.8017
  33   2.0000      -5.651279      -153.7791
  34   2.0000      -5.649604      -153.7335
  35   2.0000      -5.643977      -153.5804
  36   2.0000      -5.643612      -153.5705
  37   2.0000      -4.642860      -126.3387
  38   2.0000      -4.641531      -126.3025
  39   2.0000      -4.640884      -126.2849
  40   2.0000      -4.640381      -126.2712
  41   2.0000      -4.639532      -126.2481
  42   2.0000      -4.638168      -126.2110
  43   2.0000      -0.980670       -26.6854
  44   2.0000      -0.980168       -26.6717
  45   2.0000      -0.938731       -25.5442
  46   2.0000      -0.938443       -25.5363
  47   2.0000      -0.760374       -20.6908
  48   2.0000      -0.718841       -19.5607
  49   2.0000      -0.705368       -19.1940
  50   2.0000      -0.688458       -18.7339
  51   2.0000      -0.682346       -18.5676
  52   2.0000      -0.670412       -18.2428
  53   2.0000      -0.649157       -17.6645
  54   2.0000      -0.632736       -17.2176
  55   2.0000      -0.596870       -16.2417
  56   2.0000      -0.584512       -15.9054
  57   2.0000      -0.571522       -15.5519
  58   2.0000      -0.565273       -15.3819
  59   2.0000      -0.554795       -15.0968
  60   2.0000      -0.499389       -13.5891
  61   2.0000      -0.496198       -13.5022
  62   2.0000      -0.474339       -12.9074
  63   2.0000      -0.467813       -12.7299
  64   2.0000      -0.451422       -12.2838
  65   2.0000      -0.444101       -12.0846
  66   2.0000      -0.436363       -11.8740
  67   2.0000      -0.429599       -11.6900
  68   2.0000      -0.422723       -11.5029
  69   2.0000      -0.418297       -11.3824
  70   2.0000      -0.406986       -11.0747
  71   2.0000      -0.396228       -10.7819
  72   2.0000      -0.388067       -10.5598
  73   2.0000      -0.381775       -10.3886
  74   2.0000      -0.376743       -10.2517
  75   2.0000      -0.368471       -10.0266
  76   2.0000      -0.363774        -9.8988
  77   2.0000      -0.354694        -9.6517
  78   2.0000      -0.349790        -9.5183
  79   2.0000      -0.347270        -9.4497
  80   2.0000      -0.344910        -9.3855
  81   2.0000      -0.343467        -9.3462
  82   2.0000      -0.336897        -9.1674
  83   2.0000      -0.331715        -9.0264
  84   2.0000      -0.328004        -8.9254
  85   2.0000      -0.312501        -8.5036
  86   2.0000      -0.309501        -8.4220
  87   2.0000      -0.304886        -8.2964
  88   2.0000      -0.292460        -7.9582
  89   2.0000      -0.283160        -7.7052
  90   2.0000      -0.278495        -7.5782
  91   2.0000      -0.268761        -7.3133
  92   2.0000      -0.265113        -7.2141
  93   2.0000      -0.263086        -7.1589
  94   2.0000      -0.256809        -6.9881
  95   2.0000      -0.234932        -6.3928
  96   2.0000      -0.219851        -5.9825
  97   2.0000      -0.207595        -5.6489
  98   2.0000      -0.204524        -5.5654
  99   2.0000      -0.191050        -5.1987
 100   2.0000      -0.181812        -4.9474
 101   0.0000      -0.041196        -1.1210
 102   0.0000      -0.030396        -0.8271
 103   0.0000      -0.011145        -0.3033
 104   0.0000       0.002190         0.0596
 105   0.0000       0.026452         0.7198

MULLIKEN ATOMIC CHARGES
-----------------------
   0 C :   -0.287581
   1 C :   -0.002347
   2 O :   -0.368917
   3 P :    0.619715
   4 S :   -0.331382
   5 O :   -0.378235
   6 C :   -0.001886
   7 C :   -0.323882
   8 S :   -0.082906
   9 C :   -0.354577
  10 S :   -0.081217
  11 P :    0.623883
  12 S :   -0.311052
  13 O :   -0.383924
  14 C :   -0.006806
  15 C :   -0.310897
  16 O :   -0.366605
  17 C :   -0.028245
  18 C :   -0.278671
  19 H :    0.132336
  20 H :    0.106142
  21 H :    0.112735
  22 H :    0.108889
  23 H :    0.098508
  24 H :    0.103086
  25 H :    0.110483
  26 H :    0.118537
  27 H :    0.113143
  28 H :    0.131961
  29 H :    0.182545
  30 H :    0.200830
  31 H :    0.105643
  32 H :    0.122214
  33 H :    0.109574
  34 H :    0.111970
  35 H :    0.131535
  36 H :    0.107720
  37 H :    0.108438
  38 H :    0.114806
  39 H :    0.106635
  40 H :    0.117804
Sum of atomic charges:   -0.0000000

LOEWDIN ATOMIC CHARGES
----------------------
   0 C :   -0.352522
   1 C :   -0.117584
   2 O :   -0.241580
   3 P :    0.568177
   4 S :   -0.316332
   5 O :   -0.246922
   6 C :   -0.121093
   7 C :   -0.371428
   8 S :    0.092903
   9 C :   -0.476445
  10 S :    0.083618
  11 P :    0.576657
  12 S :   -0.289583
  13 O :   -0.246781
  14 C :   -0.117331
  15 C :   -0.366097
  16 O :   -0.252136
  17 C :   -0.120732
  18 C :   -0.359844
  19 H :    0.125146
  20 H :    0.128643
  21 H :    0.125570
  22 H :    0.108325
  23 H :    0.109855
  24 H :    0.117687
  25 H :    0.109606
  26 H :    0.123834
  27 H :    0.131265
  28 H :    0.123279
  29 H :    0.137153
  30 H :    0.125842
  31 H :    0.119543
  32 H :    0.110765
  33 H :    0.121778
  34 H :    0.130875
  35 H :    0.125696
  36 H :    0.106652
  37 H :    0.118555
  38 H :    0.118582
  39 H :    0.128160
  40 H :    0.128246

  Mayer bond orders larger than 0.100000
B(  0-C ,  1-C ) :   1.1649 B(  0-C , 19-H ) :   0.9449 B(  0-C , 20-H ) :   0.9412
B(  0-C , 21-H ) :   0.9490 B(  1-C ,  2-O ) :   0.8933 B(  1-C , 22-H ) :   0.9100
B(  1-C , 23-H ) :   0.9307 B(  2-O ,  3-P ) :   1.1300 B(  3-P ,  4-S ) :   1.6206
B(  3-P ,  5-O ) :   1.1004 B(  3-P ,  8-S ) :   0.9687 B(  4-S ,  8-S ) :   0.1183
B(  5-O ,  6-C ) :   0.9097 B(  6-C ,  7-C ) :   1.1644 B(  6-C , 24-H ) :   0.9330
B(  6-C , 25-H ) :   0.9128 B(  7-C , 26-H ) :   0.9443 B(  7-C , 27-H ) :   0.9381
B(  7-C , 28-H ) :   0.9331 B(  8-S ,  9-C ) :   0.9988 B(  9-C , 10-S ) :   1.0055
B(  9-C , 29-H ) :   0.9121 B(  9-C , 30-H ) :   0.8548 B( 10-S , 11-P ) :   0.9470
B( 10-S , 12-S ) :   0.1081 B( 11-P , 12-S ) :   1.6077 B( 11-P , 13-O ) :   1.0965
B( 11-P , 16-O ) :   1.1018 B( 13-O , 14-C ) :   0.9008 B( 14-C , 15-C ) :   1.1604
B( 14-C , 31-H ) :   0.9356 B( 14-C , 32-H ) :   0.9134 B( 15-C , 33-H ) :   0.9462
B( 15-C , 34-H ) :   0.9396 B( 15-C , 35-H ) :   0.9346 B( 16-O , 17-C ) :   0.9031
B( 17-C , 18-C ) :   1.1632 B( 17-C , 36-H ) :   0.9160 B( 17-C , 37-H ) :   0.9330
B( 18-C , 38-H ) :   0.9382 B( 18-C , 39-H ) :   0.9403 B( 18-C , 40-H ) :   0.9462

Dispersion correction           -0.066870630
FINAL SINGLE POINT ENERGY     -2929.517051070501

DIPOLE MOMENT
-------------

Method             : SCF
Type of density    : Electron Density
Multiplicity       :   1
Irrep              :   0
Energy             : -2929.6346823155449783 Eh
Relativity type    :
Basis              : AO
                                X                 Y                 Z
Electronic contribution:      5.517093794      -6.873735722       0.691267527
Nuclear contribution   :     -5.849510529       6.847410567      -0.310833592
                        -----------------------------------------
Total Dipole Moment    :     -0.332416734      -0.026325155       0.380433935
                        -----------------------------------------
Magnitude (a.u.)       :      0.505889196
Magnitude (Debye)      :      1.285868145

Rotational constants in cm-1:             0.011561             0.005423             0.004959
Rotational constants in MHz :           346.604818           162.574967           148.656701

                             ****ORCA TERMINATED NORMALLY****
TOTAL RUN TIME: 0 days 0 hours 0 minutes 21 seconds 29 msec
