                         Program Version 6.0.0  -   RELEASE  -
|  1> ! r2scan-3c def2/J RI DEFGRID2 scfconv6 printgap
|  2> %output
|  3>     printlevel normal
|  4> end
|  5> * xyz 0 1
|  6> C 2.224454454 -1.7907078407 2.9215625039
|  7> C 0.991876625 -1.6913552857 2.0487637065
|  8> O 0.969011248 -0.4516719464 1.3106853087
|  9> P 2.0035068469 -0.1499447894 0.1520425987
| 10> S 2.7178389397 -1.7093003024 -0.8040622339
| 11> O 3.0363757108 0.7796251595 0.9204770443
| 12> C 4.1650977412 1.3991892878 0.2721304355
| 13> C 5.3943734974 0.5143589039 0.3506828477
| 14> S 0.9363131173 1.2469261068 -1.0327099443
| 15> C 0.1584346532 0.0376677182 -2.1374042334
| 16> S -0.9108288462 -1.1278236106 -1.265555883
| 17> P -2.3624321172 0.2897817308 -0.5952726292
| 18> S -2.6689075827 1.8267800937 -1.7619844538
| 19> O -1.9544805692 0.6569549018 0.9012118179
| 20> C -1.4387343135 1.9263060836 1.3317304595
| 21> C -2.3870936727 2.5266075112 2.3505881605
| 22> O -3.6600454566 -0.5868414485 -0.4237672405
| 23> C -3.7220432694 -1.9669625114 0.0075729767
| 24> C -3.1646705994 -2.1600401599 1.4009572638
| 25> H 3.1144831719 -1.8255318148 2.2940170088
| 26> H 2.2916188775 -0.9272796303 3.5781086689
| 27> H 2.1747955486 -2.6975131725 3.5160024664
| 28> H 0.076334643 -1.6617355512 2.6414452532
| 29> H 0.9497517123 -2.5214180272 1.3359924168
| 30> H 3.9063331354 1.6233344029 -0.7668352328
| 31> H 4.312267584 2.333011168 0.8179645244
| 32> H 5.6226179043 0.2826572498 1.3872773728
| 33> H 5.2268318217 -0.4152996134 -0.1886519502
| 34> H 6.2368999184 1.0336562675 -0.0944830228
| 35> H 0.9268517778 -0.5583869258 -2.6289403531
| 36> H -0.4281746245 0.6104720251 -2.8552156133
| 37> H -0.4534061037 1.7309897187 1.7625175161
| 38> H -1.3309426572 2.586254416 0.4640158881
| 39> H -3.3546899563 2.7119542256 1.8898105281
| 40> H -2.517856203 1.8475174847 3.1880798464
| 41> H -1.9768326326 3.4655849677 2.7077522507
| 42> H -4.7879055619 -2.1952017969 -0.039582108
| 43> H -3.1789017892 -2.5780005878 -0.7184810235
| 44> H -3.6861140151 -1.519964687 2.1074841581
| 45> H -3.2872552396 -3.1980963921 1.6936380738
| 46> H -2.105801775 -1.9095635107 1.4116573222
| 47> *
| 48>
| 49>                          ****END OF INPUT****

CARTESIAN COORDINATES (ANGSTROEM)
---------------------------------
  C      2.224454   -1.790708    2.921563
  C      0.991877   -1.691355    2.048764
  O      0.969011   -0.451672    1.310685
  P      2.003507   -0.149945    0.152043
  S      2.717839   -1.709300   -0.804062
  O      3.036376    0.779625    0.920477
  C      4.165098    1.399189    0.272130
  C      5.394373    0.514359    0.350683
  S      0.936313    1.246926   -1.032710
  C      0.158435    0.037668   -2.137404
  S     -0.910829   -1.127824   -1.265556
  P     -2.362432    0.289782   -0.595273
  S     -2.668908    1.826780   -1.761984
  O     -1.954481    0.656955    0.901212
  C     -1.438734    1.926306    1.331730
  C     -2.387094    2.526608    2.350588
  O     -3.660045   -0.586841   -0.423767
  C     -3.722043   -1.966963    0.007573
  C     -3.164671   -2.160040    1.400957
  H      3.114483   -1.825532    2.294017
  H      2.291619   -0.927280    3.578109
  H      2.174796   -2.697513    3.516002
  H      0.076335   -1.661736    2.641445
  H      0.949752   -2.521418    1.335992
  H      3.906333    1.623334   -0.766835
  H      4.312268    2.333011    0.817965
  H      5.622618    0.282657    1.387277
  H      5.226832   -0.415300   -0.188652
  H      6.236900    1.033656   -0.094483
  H      0.926852   -0.558387   -2.628940
  H     -0.428175    0.610472   -2.855216
  H     -0.453406    1.730990    1.762518
  H     -1.330943    2.586254    0.464016
  H     -3.354690    2.711954    1.889811
  H     -2.517856    1.847517    3.188080
  H     -1.976833    3.465585    2.707752
  H     -4.787906   -2.195202   -0.039582
  H     -3.178902   -2.578001   -0.718481
  H     -3.686114   -1.519965    2.107484
  H     -3.287255   -3.198096    1.693638
  H     -2.105802   -1.909564    1.411657

 Total Charge           Charge          ....    0
 Multiplicity           Mult            ....    1
 Number of Electrons    NEL             ....  202
 Basis Dimension        Dim             ....  539

ORBITAL ENERGIES
----------------

  NO   OCC          E(Eh)            E(eV)
   0   2.0000     -88.577754     -2410.3232
   1   2.0000     -88.573582     -2410.2097
   2   2.0000     -88.525061     -2408.8894
   3   2.0000     -88.516210     -2408.6485
   4   2.0000     -76.918209     -2093.0509
   5   2.0000     -76.912846     -2092.9049
   6   2.0000     -18.997345      -516.9441
   7   2.0000     -18.993371      -516.8359
   8   2.0000     -18.991487      -516.7846
   9   2.0000     -18.985074      -516.6101
  10   2.0000     -10.107401      -275.0364
  11   2.0000     -10.106155      -275.0024
  12   2.0000     -10.105183      -274.9760
  13   2.0000     -10.101619      -274.8790
  14   2.0000     -10.088097      -274.5111
  15   2.0000     -10.036884      -273.1175
  16   2.0000     -10.032005      -272.9847
  17   2.0000     -10.029636      -272.9203
  18   2.0000     -10.024948      -272.7927
  19   2.0000      -7.872023      -214.2086
  20   2.0000      -7.867960      -214.0981
  21   2.0000      -7.819888      -212.7900
  22   2.0000      -7.811135      -212.5518
  23   2.0000      -6.596654      -179.5041
  24   2.0000      -6.590900      -179.3475
  25   2.0000      -5.818861      -158.3393
  26   2.0000      -5.815850      -158.2573
  27   2.0000      -5.814898      -158.2314
  28   2.0000      -5.811781      -158.1466
  29   2.0000      -5.809227      -158.0771
  30   2.0000      -5.805040      -157.9632
  31   2.0000      -5.767498      -156.9416
  32   2.0000      -5.760152      -156.7417
  33   2.0000      -5.759941      -156.7360
  34   2.0000      -5.758879      -156.7071
  35   2.0000      -5.751498      -156.5062
  36   2.0000      -5.750918      -156.4904
  37   2.0000      -4.742073      -129.0384
  38   2.0000      -4.741621      -129.0261
  39   2.0000      -4.740429      -128.9936
  40   2.0000      -4.736646      -128.8907
  41   2.0000      -4.735722      -128.8655
  42   2.0000      -4.734556      -128.8338
  43   2.0000      -1.054775       -28.7019
  44   2.0000      -1.046324       -28.4719
  45   2.0000      -1.015239       -27.6261
  46   2.0000      -1.007059       -27.4035
  47   2.0000      -0.803352       -21.8603
  48   2.0000      -0.760605       -20.6971
  49   2.0000      -0.753134       -20.4938
  50   2.0000      -0.734844       -19.9961
  51   2.0000      -0.733365       -19.9559
  52   2.0000      -0.710287       -19.3279
  53   2.0000      -0.687130       -18.6978
  54   2.0000      -0.671062       -18.2605
  55   2.0000      -0.632710       -17.2169
  56   2.0000      -0.627144       -17.0655
  57   2.0000      -0.608093       -16.5471
  58   2.0000      -0.603171       -16.4131
  59   2.0000      -0.596013       -16.2183
  60   2.0000      -0.531602       -14.4656
  61   2.0000      -0.518189       -14.1006
  62   2.0000      -0.499181       -13.5834
  63   2.0000      -0.497416       -13.5354
  64   2.0000      -0.475301       -12.9336
  65   2.0000      -0.467514       -12.7217
  66   2.0000      -0.461936       -12.5699
  67   2.0000      -0.454711       -12.3733
  68   2.0000      -0.445284       -12.1168
  69   2.0000      -0.426873       -11.6158
  70   2.0000      -0.426490       -11.6054
  71   2.0000      -0.419123       -11.4049
  72   2.0000      -0.411493       -11.1973
  73   2.0000      -0.407970       -11.1014
  74   2.0000      -0.397184       -10.8079
  75   2.0000      -0.392747       -10.6872
  76   2.0000      -0.384183       -10.4541
  77   2.0000      -0.373126       -10.1533
  78   2.0000      -0.372428       -10.1343
  79   2.0000      -0.368678       -10.0322
  80   2.0000      -0.365641        -9.9496
  81   2.0000      -0.362558        -9.8657
  82   2.0000      -0.360024        -9.7967
  83   2.0000      -0.353926        -9.6308
  84   2.0000      -0.350805        -9.5459
  85   2.0000      -0.335164        -9.1203
  86   2.0000      -0.325376        -8.8539
  87   2.0000      -0.315739        -8.5917
  88   2.0000      -0.311002        -8.4628
  89   2.0000      -0.305658        -8.3174
  90   2.0000      -0.299798        -8.1579
  91   2.0000      -0.294762        -8.0209
  92   2.0000      -0.289694        -7.8830
  93   2.0000      -0.282996        -7.7007
  94   2.0000      -0.269040        -7.3210
  95   2.0000      -0.248535        -6.7630
  96   2.0000      -0.228971        -6.2306
  97   2.0000      -0.227830        -6.1996
  98   2.0000      -0.222099        -6.0436
  99   2.0000      -0.212169        -5.7734
 100   2.0000      -0.210084        -5.7167
 101   0.0000      -0.049304        -1.3416
 102   0.0000      -0.027511        -0.7486
 103   0.0000      -0.004027        -0.1096
 104   0.0000       0.005529         0.1504
 105   0.0000       0.008577         0.2334

MULLIKEN ATOMIC CHARGES
-----------------------
   0 C :   -0.455884
   1 C :   -0.154091
   2 O :   -0.249386
   3 P :    0.672320
   4 S :   -0.475517
   5 O :   -0.295805
   6 C :   -0.135785
   7 C :   -0.454493
   8 S :   -0.144411
   9 C :   -0.224570
  10 S :   -0.173704
  11 P :    0.655187
  12 S :   -0.464698
  13 O :   -0.220747
  14 C :   -0.119965
  15 C :   -0.485576
  16 O :   -0.279424
  17 C :   -0.172635
  18 C :   -0.432166
  19 H :    0.171353
  20 H :    0.156971
  21 H :    0.148034
  22 H :    0.152092
  23 H :    0.179571
  24 H :    0.154924
  25 H :    0.151293
  26 H :    0.151918
  27 H :    0.182318
  28 H :    0.146438
  29 H :    0.211412
  30 H :    0.212282
  31 H :    0.163440
  32 H :    0.177636
  33 H :    0.163571
  34 H :    0.148636
  35 H :    0.145425
  36 H :    0.156797
  37 H :    0.164791
  38 H :    0.160930
  39 H :    0.152061
  40 H :    0.159456
Sum of atomic charges:   -0.0000000

LOEWDIN ATOMIC CHARGES
----------------------
   0 C :   -0.399394
   1 C :    0.013953
   2 O :   -0.674452
   3 P :    0.378694
   4 S :   -0.126004
   5 O :   -0.660603
   6 C :    0.022838
   7 C :   -0.401935
   8 S :    0.165029
   9 C :   -0.421019
  10 S :    0.142622
  11 P :    0.391194
  12 S :   -0.106495
  13 O :   -0.670715
  14 C :    0.003206
  15 C :   -0.391562
  16 O :   -0.651484
  17 C :    0.023665
  18 C :   -0.400500
  19 H :    0.166564
  20 H :    0.160566
  21 H :    0.159981
  22 H :    0.179661
  23 H :    0.182055
  24 H :    0.176064
  25 H :    0.179578
  26 H :    0.158183
  27 H :    0.169157
  28 H :    0.158665
  29 H :    0.190315
  30 H :    0.191992
  31 H :    0.179684
  32 H :    0.183625
  33 H :    0.162541
  34 H :    0.156170
  35 H :    0.158744
  36 H :    0.184358
  37 H :    0.175439
  38 H :    0.163903
  39 H :    0.160130
  40 H :    0.165590

  Mayer bond orders larger than 0.100000
B(  0-C ,  1-C ) :   0.9267 B(  0-C , 19-H ) :   0.9579 B(  0-C , 20-H ) :   0.9731
B(  0-C , 21-H ) :   0.9623 B(  1-C ,  2-O ) :   0.7815 B(  1-C , 22-H ) :   0.9584
B(  1-C , 23-H ) :   0.9600 B(  2-O ,  3-P ) :   1.1474 B(  3-P ,  4-S ) :   1.7474
B(  3-P ,  5-O ) :   1.0685 B(  3-P ,  8-S ) :   1.0853 B(  5-O ,  6-C ) :   0.7825
B(  6-C ,  7-C ) :   0.9530 B(  6-C , 24-H ) :   0.9633 B(  6-C , 25-H ) :   0.9632
B(  7-C , 26-H ) :   0.9744 B(  7-C , 27-H ) :   0.9565 B(  7-C , 28-H ) :   0.9640
B(  8-S ,  9-C ) :   0.8866 B(  9-C , 10-S ) :   0.9047 B(  9-C , 29-H ) :   0.9112
B(  9-C , 30-H ) :   0.9089 B( 10-S , 11-P ) :   0.9839 B( 11-P , 12-S ) :   1.8232
B( 11-P , 13-O ) :   1.0495 B( 11-P , 16-O ) :   1.1959 B( 13-O , 14-C ) :   0.7198
B( 14-C , 15-C ) :   0.9422 B( 14-C , 31-H ) :   0.9515 B( 14-C , 32-H ) :   0.9478
B( 15-C , 33-H ) :   0.9730 B( 15-C , 34-H ) :   0.9797 B( 15-C , 35-H ) :   0.9675
B( 16-O , 17-C ) :   0.7983 B( 17-C , 18-C ) :   0.9292 B( 17-C , 36-H ) :   0.9555
B( 17-C , 37-H ) :   0.9669 B( 18-C , 38-H ) :   0.9695 B( 18-C , 39-H ) :   0.9629
B( 18-C , 40-H ) :   0.9550

Dispersion correction           -0.022121029
FINAL SINGLE POINT ENERGY     -2932.460874845421

DIPOLE MOMENT
-------------

Method             : SCF
Type of density    : Electron Density
Multiplicity       :   1
Irrep              :   0
Energy             : -2932.4852619298521859 Eh
Relativity type    :
Basis              : AO
                                X                 Y                 Z
Electronic contribution:     -6.910787993       3.247102826     -21.043481147
Nuclear contribution   :      7.547633408      -3.674588950      22.627342050
                        -----------------------------------------
Total Dipole Moment    :      0.636845415      -0.427486124       1.583860903
                        -----------------------------------------
Magnitude (a.u.)       :      1.759810168
Magnitude (Debye)      :      4.473081965

Rotational constants in cm-1:             0.012065             0.005355             0.005091
Rotational constants in MHz :           361.687021           160.552483           152.628548

                             ****ORCA TERMINATED NORMALLY****
TOTAL RUN TIME: 0 days 0 hours 1 minutes 23 seconds 887 msec
