                         Program Version 6.0.0  -   RELEASE  -
|  1> ! r2scan-3c def2/J RI DEFGRID2 scfconv6 printgap
|  2> %output
|  3>     printlevel normal
|  4> end
|  5> %cpcm
|  6>     smd true
|  7>     smdsolvent "water"
|  8> end
|  9> * xyz 0 1
| 10> C 2.224454454 -1.7907078407 2.9215625039
| 11> C 0.991876625 -1.6913552857 2.0487637065
| 12> O 0.969011248 -0.4516719464 1.3106853087
| 13> P 2.0035068469 -0.1499447894 0.1520425987
| 14> S 2.7178389397 -1.7093003024 -0.8040622339
| 15> O 3.0363757108 0.7796251595 0.9204770443
| 16> C 4.1650977412 1.3991892878 0.2721304355
| 17> C 5.3943734974 0.5143589039 0.3506828477
| 18> S 0.9363131173 1.2469261068 -1.0327099443
| 19> C 0.1584346532 0.0376677182 -2.1374042334
| 20> S -0.9108288462 -1.1278236106 -1.265555883
| 21> P -2.3624321172 0.2897817308 -0.5952726292
| 22> S -2.6689075827 1.8267800937 -1.7619844538
| 23> O -1.9544805692 0.6569549018 0.9012118179
| 24> C -1.4387343135 1.9263060836 1.3317304595
| 25> C -2.3870936727 2.5266075112 2.3505881605
| 26> O -3.6600454566 -0.5868414485 -0.4237672405
| 27> C -3.7220432694 -1.9669625114 0.0075729767
| 28> C -3.1646705994 -2.1600401599 1.4009572638
| 29> H 3.1144831719 -1.8255318148 2.2940170088
| 30> H 2.2916188775 -0.9272796303 3.5781086689
| 31> H 2.1747955486 -2.6975131725 3.5160024664
| 32> H 0.076334643 -1.6617355512 2.6414452532
| 33> H 0.9497517123 -2.5214180272 1.3359924168
| 34> H 3.9063331354 1.6233344029 -0.7668352328
| 35> H 4.312267584 2.333011168 0.8179645244
| 36> H 5.6226179043 0.2826572498 1.3872773728
| 37> H 5.2268318217 -0.4152996134 -0.1886519502
| 38> H 6.2368999184 1.0336562675 -0.0944830228
| 39> H 0.9268517778 -0.5583869258 -2.6289403531
| 40> H -0.4281746245 0.6104720251 -2.8552156133
| 41> H -0.4534061037 1.7309897187 1.7625175161
| 42> H -1.3309426572 2.586254416 0.4640158881
| 43> H -3.3546899563 2.7119542256 1.8898105281
| 44> H -2.517856203 1.8475174847 3.1880798464
| 45> H -1.9768326326 3.4655849677 2.7077522507
| 46> H -4.7879055619 -2.1952017969 -0.039582108
| 47> H -3.1789017892 -2.5780005878 -0.7184810235
| 48> H -3.6861140151 -1.519964687 2.1074841581
| 49> H -3.2872552396 -3.1980963921 1.6936380738
| 50> H -2.105801775 -1.9095635107 1.4116573222
| 51> *
| 52>
| 53>                          ****END OF INPUT****

CARTESIAN COORDINATES (ANGSTROEM)
---------------------------------
  C      2.224454   -1.790708    2.921563
  C      0.991877   -1.691355    2.048764
  O      0.969011   -0.451672    1.310685
  P      2.003507   -0.149945    0.152043
  S      2.717839   -1.709300   -0.804062
  O      3.036376    0.779625    0.920477
  C      4.165098    1.399189    0.272130
  C      5.394373    0.514359    0.350683
  S      0.936313    1.246926   -1.032710
  C      0.158435    0.037668   -2.137404
  S     -0.910829   -1.127824   -1.265556
  P     -2.362432    0.289782   -0.595273
  S     -2.668908    1.826780   -1.761984
  O     -1.954481    0.656955    0.901212
  C     -1.438734    1.926306    1.331730
  C     -2.387094    2.526608    2.350588
  O     -3.660045   -0.586841   -0.423767
  C     -3.722043   -1.966963    0.007573
  C     -3.164671   -2.160040    1.400957
  H      3.114483   -1.825532    2.294017
  H      2.291619   -0.927280    3.578109
  H      2.174796   -2.697513    3.516002
  H      0.076335   -1.661736    2.641445
  H      0.949752   -2.521418    1.335992
  H      3.906333    1.623334   -0.766835
  H      4.312268    2.333011    0.817965
  H      5.622618    0.282657    1.387277
  H      5.226832   -0.415300   -0.188652
  H      6.236900    1.033656   -0.094483
  H      0.926852   -0.558387   -2.628940
  H     -0.428175    0.610472   -2.855216
  H     -0.453406    1.730990    1.762518
  H     -1.330943    2.586254    0.464016
  H     -3.354690    2.711954    1.889811
  H     -2.517856    1.847517    3.188080
  H     -1.976833    3.465585    2.707752
  H     -4.787906   -2.195202   -0.039582
  H     -3.178902   -2.578001   -0.718481
  H     -3.686114   -1.519965    2.107484
  H     -3.287255   -3.198096    1.693638
  H     -2.105802   -1.909564    1.411657

 Total Charge           Charge          ....    0
 Multiplicity           Mult            ....    1
 Number of Electrons    NEL             ....  202
 Basis Dimension        Dim             ....  539

ORBITAL ENERGIES
----------------

  NO   OCC          E(Eh)            E(eV)
   0   2.0000     -88.579510     -2410.3710
   1   2.0000     -88.578192     -2410.3351
   2   2.0000     -88.528768     -2408.9902
   3   2.0000     -88.528757     -2408.9899
   4   2.0000     -76.921310     -2093.1353
   5   2.0000     -76.920041     -2093.1007
   6   2.0000     -18.996241      -516.9140
   7   2.0000     -18.996190      -516.9126
   8   2.0000     -18.992819      -516.8209
   9   2.0000     -18.991394      -516.7821
  10   2.0000     -10.105303      -274.9793
  11   2.0000     -10.095620      -274.7158
  12   2.0000     -10.091967      -274.6164
  13   2.0000     -10.089450      -274.5479
  14   2.0000     -10.085711      -274.4461
  15   2.0000     -10.021252      -272.6921
  16   2.0000     -10.018509      -272.6175
  17   2.0000     -10.016923      -272.5743
  18   2.0000     -10.016849      -272.5723
  19   2.0000      -7.873846      -214.2582
  20   2.0000      -7.872515      -214.2220
  21   2.0000      -7.824040      -212.9029
  22   2.0000      -7.823857      -212.8980
  23   2.0000      -6.599431      -179.5796
  24   2.0000      -6.598508      -179.5545
  25   2.0000      -5.820664      -158.3883
  26   2.0000      -5.819453      -158.3554
  27   2.0000      -5.817677      -158.3070
  28   2.0000      -5.816320      -158.2701
  29   2.0000      -5.811062      -158.1270
  30   2.0000      -5.809624      -158.0879
  31   2.0000      -5.771666      -157.0550
  32   2.0000      -5.771417      -157.0482
  33   2.0000      -5.764382      -156.8568
  34   2.0000      -5.764114      -156.8495
  35   2.0000      -5.763918      -156.8442
  36   2.0000      -5.763891      -156.8434
  37   2.0000      -4.745142      -129.1219
  38   2.0000      -4.744231      -129.0971
  39   2.0000      -4.743877      -129.0875
  40   2.0000      -4.743479      -129.0766
  41   2.0000      -4.743180      -129.0685
  42   2.0000      -4.742361      -129.0462
  43   2.0000      -1.053664       -28.6716
  44   2.0000      -1.051352       -28.6087
  45   2.0000      -1.013487       -27.5784
  46   2.0000      -1.011781       -27.5320
  47   2.0000      -0.805026       -21.9059
  48   2.0000      -0.756828       -20.5943
  49   2.0000      -0.745565       -20.2878
  50   2.0000      -0.727185       -19.7877
  51   2.0000      -0.723022       -19.6744
  52   2.0000      -0.709063       -19.2946
  53   2.0000      -0.689672       -18.7669
  54   2.0000      -0.676396       -18.4057
  55   2.0000      -0.628985       -17.1156
  56   2.0000      -0.624182       -16.9849
  57   2.0000      -0.601543       -16.3688
  58   2.0000      -0.596370       -16.2281
  59   2.0000      -0.592866       -16.1327
  60   2.0000      -0.527780       -14.3616
  61   2.0000      -0.514807       -14.0086
  62   2.0000      -0.495959       -13.4957
  63   2.0000      -0.491851       -13.3839
  64   2.0000      -0.473824       -12.8934
  65   2.0000      -0.462783       -12.5930
  66   2.0000      -0.455008       -12.3814
  67   2.0000      -0.449319       -12.2266
  68   2.0000      -0.442135       -12.0311
  69   2.0000      -0.424402       -11.5486
  70   2.0000      -0.419934       -11.4270
  71   2.0000      -0.416288       -11.3278
  72   2.0000      -0.406091       -11.0503
  73   2.0000      -0.404273       -11.0008
  74   2.0000      -0.394347       -10.7307
  75   2.0000      -0.388440       -10.5700
  76   2.0000      -0.382559       -10.4100
  77   2.0000      -0.370161       -10.0726
  78   2.0000      -0.363030        -9.8786
  79   2.0000      -0.359930        -9.7942
  80   2.0000      -0.357079        -9.7166
  81   2.0000      -0.352967        -9.6047
  82   2.0000      -0.352101        -9.5812
  83   2.0000      -0.345911        -9.4127
  84   2.0000      -0.345434        -9.3997
  85   2.0000      -0.332883        -9.0582
  86   2.0000      -0.321187        -8.7400
  87   2.0000      -0.308531        -8.3956
  88   2.0000      -0.306810        -8.3487
  89   2.0000      -0.301169        -8.1952
  90   2.0000      -0.299857        -8.1595
  91   2.0000      -0.291275        -7.9260
  92   2.0000      -0.289329        -7.8730
  93   2.0000      -0.282278        -7.6812
  94   2.0000      -0.272158        -7.4058
  95   2.0000      -0.250818        -6.8251
  96   2.0000      -0.237491        -6.4625
  97   2.0000      -0.234638        -6.3848
  98   2.0000      -0.227616        -6.1937
  99   2.0000      -0.221867        -6.0373
 100   2.0000      -0.218598        -5.9484
 101   0.0000      -0.053445        -1.4543
 102   0.0000      -0.033183        -0.9030
 103   0.0000      -0.006207        -0.1689
 104   0.0000       0.000699         0.0190
 105   0.0000       0.008604         0.2341

MULLIKEN ATOMIC CHARGES
-----------------------
   0 C :   -0.496742
   1 C :   -0.140755
   2 O :   -0.279393
   3 P :    0.707031
   4 S :   -0.517099
   5 O :   -0.323979
   6 C :   -0.130053
   7 C :   -0.491337
   8 S :   -0.155216
   9 C :   -0.235290
  10 S :   -0.178655
  11 P :    0.662262
  12 S :   -0.518195
  13 O :   -0.247212
  14 C :   -0.098031
  15 C :   -0.524698
  16 O :   -0.315515
  17 C :   -0.163942
  18 C :   -0.467980
  19 H :    0.168435
  20 H :    0.171426
  21 H :    0.173158
  22 H :    0.180378
  23 H :    0.180133
  24 H :    0.164913
  25 H :    0.177252
  26 H :    0.167553
  27 H :    0.171609
  28 H :    0.169995
  29 H :    0.234409
  30 H :    0.230042
  31 H :    0.175240
  32 H :    0.175339
  33 H :    0.165749
  34 H :    0.166712
  35 H :    0.168898
  36 H :    0.181550
  37 H :    0.176872
  38 H :    0.173659
  39 H :    0.178369
  40 H :    0.163109
Sum of atomic charges:   -0.0000000

LOEWDIN ATOMIC CHARGES
----------------------
   0 C :   -0.402945
   1 C :    0.019995
   2 O :   -0.686560
   3 P :    0.384107
   4 S :   -0.151541
   5 O :   -0.671864
   6 C :    0.028450
   7 C :   -0.405934
   8 S :    0.160411
   9 C :   -0.416261
  10 S :    0.143788
  11 P :    0.390438
  12 S :   -0.147761
  13 O :   -0.681082
  14 C :    0.007770
  15 C :   -0.394932
  16 O :   -0.673043
  17 C :    0.030356
  18 C :   -0.400374
  19 H :    0.163007
  20 H :    0.164263
  21 H :    0.169201
  22 H :    0.191315
  23 H :    0.182831
  24 H :    0.180168
  25 H :    0.190719
  26 H :    0.162430
  27 H :    0.163004
  28 H :    0.167418
  29 H :    0.197520
  30 H :    0.196942
  31 H :    0.184831
  32 H :    0.182947
  33 H :    0.161852
  34 H :    0.162288
  35 H :    0.167554
  36 H :    0.195037
  37 H :    0.181124
  38 H :    0.166113
  39 H :    0.171172
  40 H :    0.165244

  Mayer bond orders larger than 0.100000
B(  0-C ,  1-C ) :   0.9129 B(  0-C , 19-H ) :   0.9584 B(  0-C , 20-H ) :   0.9718
B(  0-C , 21-H ) :   0.9565 B(  1-C ,  2-O ) :   0.7715 B(  1-C , 22-H ) :   0.9483
B(  1-C , 23-H ) :   0.9564 B(  2-O ,  3-P ) :   1.1554 B(  3-P ,  4-S ) :   1.7138
B(  3-P ,  5-O ) :   1.0757 B(  3-P ,  8-S ) :   1.0910 B(  5-O ,  6-C ) :   0.7712
B(  6-C ,  7-C ) :   0.9429 B(  6-C , 24-H ) :   0.9569 B(  6-C , 25-H ) :   0.9534
B(  7-C , 26-H ) :   0.9717 B(  7-C , 27-H ) :   0.9608 B(  7-C , 28-H ) :   0.9592
B(  8-S ,  9-C ) :   0.8790 B(  9-C , 10-S ) :   0.8911 B(  9-C , 29-H ) :   0.9045
B(  9-C , 30-H ) :   0.9045 B( 10-S , 11-P ) :   1.0057 B( 11-P , 12-S ) :   1.8037
B( 11-P , 13-O ) :   1.0501 B( 11-P , 16-O ) :   1.2006 B( 13-O , 14-C ) :   0.7111
B( 14-C , 15-C ) :   0.9403 B( 14-C , 31-H ) :   0.9428 B( 14-C , 32-H ) :   0.9466
B( 15-C , 33-H ) :   0.9718 B( 15-C , 34-H ) :   0.9745 B( 15-C , 35-H ) :   0.9615
B( 16-O , 17-C ) :   0.7875 B( 17-C , 18-C ) :   0.9152 B( 17-C , 36-H ) :   0.9449
B( 17-C , 37-H ) :   0.9562 B( 18-C , 38-H ) :   0.9705 B( 18-C , 39-H ) :   0.9556
B( 18-C , 40-H ) :   0.9512

Dispersion correction           -0.022121029
FINAL SINGLE POINT ENERGY     -2932.470359235384

DIPOLE MOMENT
-------------

Method             : SCF
Type of density    : Electron Density
Multiplicity       :   1
Irrep              :   0
Energy             : -2932.4947463198154765 Eh
Relativity type    :
Basis              : AO
                                X                 Y                 Z
Electronic contribution:     -6.648622249       3.066574162     -20.563896596
Nuclear contribution   :      7.547633408      -3.674588950      22.627342050
                        -----------------------------------------
Total Dipole Moment    :      0.899011159      -0.608014788       2.063445453
                        -----------------------------------------
Magnitude (a.u.)       :      2.331460955
Magnitude (Debye)      :      5.926102793

Rotational constants in cm-1:             0.012065             0.005355             0.005091
Rotational constants in MHz :           361.687021           160.552483           152.628548

                             ****ORCA TERMINATED NORMALLY****
TOTAL RUN TIME: 0 days 0 hours 1 minutes 54 seconds 242 msec
