                         Program Version 6.0.0  -   RELEASE  -
|  1> ! pbe def2-sv(p) def2/J RI DEFGRID1 loosescf d4 GCP(DFT/SV(P)) printgap
|  2> %output
|  3>     printlevel normal
|  4> end
|  5> * xyz 0 1
|  6> C 4.4248741329 1.9465895091 -0.8709405525
|  7> C 4.559202991 0.4380715266 -0.9136104187
|  8> O 3.2841912733 -0.2156731281 -1.0458149943
|  9> P 2.2045682958 -0.2185478547 0.1178447477
| 10> S 2.9306495905 -0.3995916602 1.9329076474
| 11> O 1.2065063999 -1.3475734094 -0.3585008821
| 12> C 1.3139531435 -2.7213928805 0.061242962
| 13> C 2.5762019706 -3.3738759909 -0.4602517645
| 14> S 1.0119382686 1.4787206467 -0.2700049744
| 15> C 0.2051334534 1.5346431308 1.3521705873
| 16> S -0.8820203853 0.1179719904 1.6803664328
| 17> P -2.1582100064 0.2583436361 -0.0275392296
| 18> S -1.6908682286 -0.7756012227 -1.6297764173
| 19> O -2.2552002579 1.8231471284 -0.2133445692
| 20> C -2.4880910672 2.4210412638 -1.5057329298
| 21> C -3.9335875929 2.2552128428 -1.9226040945
| 22> O -3.5810814533 -0.0668413347 0.6067454367
| 23> C -3.88807788 -1.3277668278 1.2296447893
| 24> C -4.4252985817 -2.3293725389 0.2253058642
| 25> H 3.8468043786 2.2982267337 -1.7219818044
| 26> H 3.9197193492 2.2500512293 0.0452303488
| 27> H 5.4125289532 2.3958358564 -0.8940625696
| 28> H 5.0429127185 0.0695179018 -0.0032025099
| 29> H 5.1150277482 0.106431798 -1.7915615546
| 30> H 1.2810709592 -2.7499151534 1.1555842582
| 31> H 0.4155587104 -3.1851321784 -0.3501038113
| 32> H 2.5686183413 -4.4284120481 -0.2031095793
| 33> H 2.6351490483 -3.2626811222 -1.5399649545
| 34> H 3.4492068096 -2.904141553 -0.0077249993
| 35> H -0.3712571331 2.4548177034 1.3899483993
| 36> H 0.9629125745 1.5051607228 2.1362001887
| 37> H -2.2166215486 3.4681348602 -1.3675319109
| 38> H -1.815790781 1.9564907908 -2.2344554911
| 39> H -4.5931021463 2.6674877862 -1.1639241266
| 40> H -4.099717802 2.7646397404 -2.8664106275
| 41> H -4.1571293893 1.1959019843 -2.0443835402
| 42> H -2.9894685873 -1.7079647461 1.7274086316
| 43> H -4.6391044633 -1.0805438017 1.9825880029
| 44> H -4.6793087001 -3.2505448922 0.7397205642
| 45> H -5.3123737107 -1.9315648395 -0.2595326714
| 46> H -3.6782301505 -2.5407306319 -0.536532826
| 47> *
| 48>
| 49>                          ****END OF INPUT****

CARTESIAN COORDINATES (ANGSTROEM)
---------------------------------
  C      4.424874    1.946590   -0.870941
  C      4.559203    0.438072   -0.913610
  O      3.284191   -0.215673   -1.045815
  P      2.204568   -0.218548    0.117845
  S      2.930650   -0.399592    1.932908
  O      1.206506   -1.347573   -0.358501
  C      1.313953   -2.721393    0.061243
  C      2.576202   -3.373876   -0.460252
  S      1.011938    1.478721   -0.270005
  C      0.205133    1.534643    1.352171
  S     -0.882020    0.117972    1.680366
  P     -2.158210    0.258344   -0.027539
  S     -1.690868   -0.775601   -1.629776
  O     -2.255200    1.823147   -0.213345
  C     -2.488091    2.421041   -1.505733
  C     -3.933588    2.255213   -1.922604
  O     -3.581081   -0.066841    0.606745
  C     -3.888078   -1.327767    1.229645
  C     -4.425299   -2.329373    0.225306
  H      3.846804    2.298227   -1.721982
  H      3.919719    2.250051    0.045230
  H      5.412529    2.395836   -0.894063
  H      5.042913    0.069518   -0.003203
  H      5.115028    0.106432   -1.791562
  H      1.281071   -2.749915    1.155584
  H      0.415559   -3.185132   -0.350104
  H      2.568618   -4.428412   -0.203110
  H      2.635149   -3.262681   -1.539965
  H      3.449207   -2.904142   -0.007725
  H     -0.371257    2.454818    1.389948
  H      0.962913    1.505161    2.136200
  H     -2.216622    3.468135   -1.367532
  H     -1.815791    1.956491   -2.234455
  H     -4.593102    2.667488   -1.163924
  H     -4.099718    2.764640   -2.866411
  H     -4.157129    1.195902   -2.044384
  H     -2.989469   -1.707965    1.727409
  H     -4.639104   -1.080544    1.982588
  H     -4.679309   -3.250545    0.739721
  H     -5.312374   -1.931565   -0.259533
  H     -3.678230   -2.540731   -0.536533

 Total Charge           Charge          ....    0
 Multiplicity           Mult            ....    1
 Number of Electrons    NEL             ....  202
 Basis Dimension        Dim             ....  334

ORBITAL ENERGIES
----------------

  NO   OCC          E(Eh)            E(eV)
   0   2.0000     -88.041510     -2395.7313
   1   2.0000     -88.036148     -2395.5854
   2   2.0000     -87.987569     -2394.2635
   3   2.0000     -87.981721     -2394.1043
   4   2.0000     -76.424560     -2079.6180
   5   2.0000     -76.424394     -2079.6135
   6   2.0000     -18.795450      -511.4502
   7   2.0000     -18.793132      -511.3871
   8   2.0000     -18.787562      -511.2356
   9   2.0000     -18.782119      -511.0874
  10   2.0000      -9.956872      -270.9403
  11   2.0000      -9.955556      -270.9045
  12   2.0000      -9.952390      -270.8183
  13   2.0000      -9.952319      -270.8164
  14   2.0000      -9.943072      -270.5647
  15   2.0000      -9.884264      -268.9645
  16   2.0000      -9.882936      -268.9284
  17   2.0000      -9.880733      -268.8684
  18   2.0000      -9.878190      -268.7992
  19   2.0000      -7.686605      -209.1632
  20   2.0000      -7.681246      -209.0173
  21   2.0000      -7.632520      -207.6914
  22   2.0000      -7.626701      -207.5331
  23   2.0000      -6.422036      -174.7525
  24   2.0000      -6.421957      -174.7503
  25   2.0000      -5.714434      -155.4977
  26   2.0000      -5.711255      -155.4111
  27   2.0000      -5.709404      -155.3608
  28   2.0000      -5.705850      -155.2641
  29   2.0000      -5.703422      -155.1980
  30   2.0000      -5.697833      -155.0459
  31   2.0000      -5.661233      -154.0500
  32   2.0000      -5.655517      -153.8945
  33   2.0000      -5.653303      -153.8342
  34   2.0000      -5.652748      -153.8191
  35   2.0000      -5.647605      -153.6792
  36   2.0000      -5.646692      -153.6543
  37   2.0000      -4.644724      -126.3894
  38   2.0000      -4.644298      -126.3778
  39   2.0000      -4.643975      -126.3690
  40   2.0000      -4.643639      -126.3598
  41   2.0000      -4.642713      -126.3346
  42   2.0000      -4.642217      -126.3211
  43   2.0000      -0.987820       -26.8800
  44   2.0000      -0.983946       -26.7745
  45   2.0000      -0.946860       -25.7654
  46   2.0000      -0.942202       -25.6386
  47   2.0000      -0.762171       -20.7397
  48   2.0000      -0.718757       -19.5584
  49   2.0000      -0.705884       -19.2081
  50   2.0000      -0.686580       -18.6828
  51   2.0000      -0.684111       -18.6156
  52   2.0000      -0.670209       -18.2373
  53   2.0000      -0.650598       -17.7037
  54   2.0000      -0.637778       -17.3548
  55   2.0000      -0.599533       -16.3141
  56   2.0000      -0.592598       -16.1254
  57   2.0000      -0.570338       -15.5197
  58   2.0000      -0.568971       -15.4825
  59   2.0000      -0.561118       -15.2688
  60   2.0000      -0.500829       -13.6283
  61   2.0000      -0.488847       -13.3022
  62   2.0000      -0.478027       -13.0078
  63   2.0000      -0.469997       -12.7893
  64   2.0000      -0.456628       -12.4255
  65   2.0000      -0.441021       -12.0008
  66   2.0000      -0.438341       -11.9279
  67   2.0000      -0.436271       -11.8715
  68   2.0000      -0.423281       -11.5181
  69   2.0000      -0.409554       -11.1445
  70   2.0000      -0.401899       -10.9362
  71   2.0000      -0.399802       -10.8792
  72   2.0000      -0.391433       -10.6514
  73   2.0000      -0.389157       -10.5895
  74   2.0000      -0.383540       -10.4367
  75   2.0000      -0.377061       -10.2604
  76   2.0000      -0.365559        -9.9474
  77   2.0000      -0.356387        -9.6978
  78   2.0000      -0.348861        -9.4930
  79   2.0000      -0.348019        -9.4701
  80   2.0000      -0.347300        -9.4505
  81   2.0000      -0.345185        -9.3930
  82   2.0000      -0.338922        -9.2225
  83   2.0000      -0.336041        -9.1441
  84   2.0000      -0.332103        -9.0370
  85   2.0000      -0.320330        -8.7166
  86   2.0000      -0.309125        -8.4117
  87   2.0000      -0.295574        -8.0430
  88   2.0000      -0.294419        -8.0116
  89   2.0000      -0.290592        -7.9074
  90   2.0000      -0.278806        -7.5867
  91   2.0000      -0.275070        -7.4850
  92   2.0000      -0.269624        -7.3368
  93   2.0000      -0.263185        -7.1616
  94   2.0000      -0.257654        -7.0111
  95   2.0000      -0.233076        -6.3423
  96   2.0000      -0.215245        -5.8571
  97   2.0000      -0.208859        -5.6833
  98   2.0000      -0.204519        -5.5652
  99   2.0000      -0.196942        -5.3591
 100   2.0000      -0.188230        -5.1220
 101   0.0000      -0.046299        -1.2598
 102   0.0000      -0.022436        -0.6105
 103   0.0000      -0.020734        -0.5642
 104   0.0000       0.006107         0.1662
 105   0.0000       0.021950         0.5973

MULLIKEN ATOMIC CHARGES
-----------------------
   0 C :   -0.314787
   1 C :   -0.004766
   2 O :   -0.368819
   3 P :    0.621884
   4 S :   -0.342728
   5 O :   -0.343060
   6 C :    0.005224
   7 C :   -0.311519
   8 S :   -0.083894
   9 C :   -0.342503
  10 S :   -0.110175
  11 P :    0.616008
  12 S :   -0.308185
  13 O :   -0.374042
  14 C :   -0.011366
  15 C :   -0.299404
  16 O :   -0.367800
  17 C :   -0.021581
  18 C :   -0.290602
  19 H :    0.118877
  20 H :    0.124867
  21 H :    0.113209
  22 H :    0.111175
  23 H :    0.106600
  24 H :    0.107314
  25 H :    0.103865
  26 H :    0.109761
  27 H :    0.118916
  28 H :    0.119453
  29 H :    0.187555
  30 H :    0.190920
  31 H :    0.102282
  32 H :    0.119050
  33 H :    0.115691
  34 H :    0.111746
  35 H :    0.124195
  36 H :    0.108991
  37 H :    0.110337
  38 H :    0.105671
  39 H :    0.114100
  40 H :    0.127537
Sum of atomic charges:   -0.0000000

LOEWDIN ATOMIC CHARGES
----------------------
   0 C :   -0.369386
   1 C :   -0.118875
   2 O :   -0.240935
   3 P :    0.576780
   4 S :   -0.328196
   5 O :   -0.226362
   6 C :   -0.115562
   7 C :   -0.365824
   8 S :    0.094380
   9 C :   -0.475622
  10 S :    0.065503
  11 P :    0.569972
  12 S :   -0.303009
  13 O :   -0.237130
  14 C :   -0.119822
  15 C :   -0.362981
  16 O :   -0.248787
  17 C :   -0.114717
  18 C :   -0.364820
  19 H :    0.124839
  20 H :    0.120410
  21 H :    0.131132
  22 H :    0.110475
  23 H :    0.119413
  24 H :    0.109266
  25 H :    0.117508
  26 H :    0.129197
  27 H :    0.127193
  28 H :    0.120165
  29 H :    0.133672
  30 H :    0.129659
  31 H :    0.116794
  32 H :    0.111709
  33 H :    0.126215
  34 H :    0.130603
  35 H :    0.123964
  36 H :    0.105625
  37 H :    0.120461
  38 H :    0.127558
  39 H :    0.126437
  40 H :    0.123097

  Mayer bond orders larger than 0.100000
B(  0-C ,  1-C ) :   1.1664 B(  0-C , 19-H ) :   0.9448 B(  0-C , 20-H ) :   0.9353
B(  0-C , 21-H ) :   0.9379 B(  1-C ,  2-O ) :   0.9081 B(  1-C , 22-H ) :   0.9156
B(  1-C , 23-H ) :   0.9337 B(  2-O ,  3-P ) :   1.1125 B(  3-P ,  4-S ) :   1.5817
B(  3-P ,  5-O ) :   1.1513 B(  3-P ,  8-S ) :   0.9490 B(  4-S ,  8-S ) :   0.1088
B(  5-O ,  6-C ) :   0.9064 B(  6-C ,  7-C ) :   1.1637 B(  6-C , 24-H ) :   0.9204
B(  6-C , 25-H ) :   0.9289 B(  7-C , 26-H ) :   0.9396 B(  7-C , 27-H ) :   0.9456
B(  7-C , 28-H ) :   0.9365 B(  8-S ,  9-C ) :   1.0096 B(  9-C , 10-S ) :   1.0070
B(  9-C , 29-H ) :   0.9023 B(  9-C , 30-H ) :   0.8800 B( 10-S , 11-P ) :   0.9414
B( 10-S , 12-S ) :   0.1045 B( 11-P , 12-S ) :   1.6441 B( 11-P , 13-O ) :   1.1142
B( 11-P , 16-O ) :   1.0984 B( 13-O , 14-C ) :   0.8949 B( 14-C , 15-C ) :   1.1654
B( 14-C , 31-H ) :   0.9335 B( 14-C , 32-H ) :   0.9108 B( 15-C , 33-H ) :   0.9464
B( 15-C , 34-H ) :   0.9395 B( 15-C , 35-H ) :   0.9346 B( 16-O , 17-C ) :   0.9133
B( 17-C , 18-C ) :   1.1633 B( 17-C , 36-H ) :   0.9190 B( 17-C , 37-H ) :   0.9362
B( 18-C , 38-H ) :   0.9389 B( 18-C , 39-H ) :   0.9471 B( 18-C , 40-H ) :   0.9297

Dispersion correction           -0.066615958
FINAL SINGLE POINT ENERGY     -2929.519285121680

DIPOLE MOMENT
-------------

Method             : SCF
Type of density    : Electron Density
Multiplicity       :   1
Irrep              :   0
Energy             : -2929.6367659578145322 Eh
Relativity type    :
Basis              : AO
                                X                 Y                 Z
Electronic contribution:      3.498013153       4.039535189       7.243331181
Nuclear contribution   :     -3.762303077      -3.712151323      -7.470321404
                        -----------------------------------------
Total Dipole Moment    :     -0.264289924       0.327383865      -0.226990224
                        -----------------------------------------
Magnitude (a.u.)       :      0.478073133
Magnitude (Debye)      :      1.215165334

Rotational constants in cm-1:             0.012614             0.005205             0.004628
Rotational constants in MHz :           378.170275           156.045115           138.758246

                             ****ORCA TERMINATED NORMALLY****
TOTAL RUN TIME: 0 days 0 hours 0 minutes 20 seconds 866 msec
