                         Program Version 6.0.1  -  RELEASE   -
|  1> ! pbe def2-sv(p) def2/J RI DEFGRID1 loosescf d4 GCP(DFT/SV(P)) printgap
|  2> %output
|  3>     printlevel normal
|  4> end
|  5> * xyz 0 1
|  6> C 2.4859970897 -3.1552520856 -2.676935309
|  7> C 3.3133780846 -3.0318050635 -1.4071835887
|  8> O 3.0465882848 -1.7741335557 -0.7574332611
|  9> C 2.0845058434 -1.7200423454 0.138380945
| 10> O 1.4433313687 -2.6706281794 0.5283529138
| 11> C 1.8465513999 -0.2947108558 0.60370419
| 12> C 1.1206007189 0.4596607276 -0.5162711384
| 13> H 1.7991181045 0.6203758715 -1.3574118164
| 14> C 0.5839745352 1.791793123 -0.0270518346
| 15> O -0.602620473 2.0568510104 -0.0371298744
| 16> O 1.5302983127 2.569560791 0.4096673148
| 17> C 1.1692073054 3.8645465084 0.9421906536
| 18> C 1.0338449275 4.8898016889 -0.1708662678
| 19> S -0.2802406702 -0.4861067944 -1.212178047
| 20> P -1.7795289767 -0.1893156378 0.2596765891
| 21> S -1.3590912737 0.1907329789 2.146639289
| 22> O -2.9602324585 0.6242114852 -0.4157091716
| 23> C -3.4067882375 1.9225553545 -0.0185881673
| 24> O -2.5213667577 -1.6046439605 0.1094528246
| 25> C -1.9608756574 -2.790436368 0.6774646471
| 26> H 1.4252589009 -3.1155591209 -2.4377170158
| 27> H 2.7185368604 -2.3418977094 -3.3580044041
| 28> H 2.7058645946 -4.1016799213 -3.1593817904
| 29> H 4.380897023 -3.011216739 -1.6267203001
| 30> H 3.081895439 -3.8416734631 -0.7098526046
| 31> H 2.7962215337 0.1994503787 0.8049885143
| 32> H 1.2362536084 -0.3216988789 1.5084007604
| 33> H 0.2349260447 3.7616493279 1.5005485513
| 34> H 1.9894264099 4.1113073998 1.6157225846
| 35> H 0.2182123 4.6185764074 -0.8370751411
| 36> H 0.8229118418 5.8610597388 0.2639827385
| 37> H 1.955772835 4.9460786884 -0.7426541883
| 38> H -3.1122187745 2.1280317863 1.0118094076
| 39> H -4.490767526 1.907567329 -0.1081946629
| 40> H -2.9709250745 2.6682960282 -0.6804901417
| 41> H -1.9681169819 -2.7175971186 1.7662160391
| 42> H -0.934288522 -2.9456104098 0.3394621697
| 43> H -2.5984257268 -3.604628656 0.3442617378
| 44> *
| 45>
| 46>                          ****END OF INPUT****

CARTESIAN COORDINATES (ANGSTROEM)
---------------------------------
  C      2.485997   -3.155252   -2.676935
  C      3.313378   -3.031805   -1.407184
  O      3.046588   -1.774134   -0.757433
  C      2.084506   -1.720042    0.138381
  O      1.443331   -2.670628    0.528353
  C      1.846551   -0.294711    0.603704
  C      1.120601    0.459661   -0.516271
  H      1.799118    0.620376   -1.357412
  C      0.583975    1.791793   -0.027052
  O     -0.602620    2.056851   -0.037130
  O      1.530298    2.569561    0.409667
  C      1.169207    3.864547    0.942191
  C      1.033845    4.889802   -0.170866
  S     -0.280241   -0.486107   -1.212178
  P     -1.779529   -0.189316    0.259677
  S     -1.359091    0.190733    2.146639
  O     -2.960232    0.624211   -0.415709
  C     -3.406788    1.922555   -0.018588
  O     -2.521367   -1.604644    0.109453
  C     -1.960876   -2.790436    0.677465
  H      1.425259   -3.115559   -2.437717
  H      2.718537   -2.341898   -3.358004
  H      2.705865   -4.101680   -3.159382
  H      4.380897   -3.011217   -1.626720
  H      3.081895   -3.841673   -0.709853
  H      2.796222    0.199450    0.804989
  H      1.236254   -0.321699    1.508401
  H      0.234926    3.761649    1.500549
  H      1.989426    4.111307    1.615723
  H      0.218212    4.618576   -0.837075
  H      0.822912    5.861060    0.263983
  H      1.955773    4.946079   -0.742654
  H     -3.112219    2.128032    1.011809
  H     -4.490768    1.907567   -0.108195
  H     -2.970925    2.668296   -0.680490
  H     -1.968117   -2.717597    1.766216
  H     -0.934289   -2.945610    0.339462
  H     -2.598426   -3.604629    0.344262

 Total Charge           Charge          ....    0
 Multiplicity           Mult            ....    1
 Number of Electrons    NEL             ....  174
 Basis Dimension        Dim             ....  316

ORBITAL ENERGIES
----------------

  NO   OCC          E(Eh)            E(eV)
   0   2.0000     -88.034249     -2395.5337
   1   2.0000     -87.971600     -2393.8289
   2   2.0000     -76.416795     -2079.4067
   3   2.0000     -18.828603      -512.3523
   4   2.0000     -18.806851      -511.7604
   5   2.0000     -18.776552      -510.9360
   6   2.0000     -18.766716      -510.6683
   7   2.0000     -18.762535      -510.5545
   8   2.0000     -18.740046      -509.9426
   9   2.0000     -10.033304      -273.0201
  10   2.0000     -10.011947      -272.4389
  11   2.0000      -9.963827      -271.1295
  12   2.0000      -9.956144      -270.9204
  13   2.0000      -9.950518      -270.7674
  14   2.0000      -9.930875      -270.2328
  15   2.0000      -9.917704      -269.8744
  16   2.0000      -9.907290      -269.5911
  17   2.0000      -9.900155      -269.3969
  18   2.0000      -9.888942      -269.0918
  19   2.0000      -7.679125      -208.9596
  20   2.0000      -7.616687      -207.2606
  21   2.0000      -6.412499      -174.4930
  22   2.0000      -5.707264      -155.3025
  23   2.0000      -5.703721      -155.2061
  24   2.0000      -5.695713      -154.9882
  25   2.0000      -5.645805      -153.6302
  26   2.0000      -5.637618      -153.4074
  27   2.0000      -5.636297      -153.3715
  28   2.0000      -4.634829      -126.1201
  29   2.0000      -4.634706      -126.1167
  30   2.0000      -4.633148      -126.0744
  31   2.0000      -1.038098       -28.2481
  32   2.0000      -1.014415       -27.6036
  33   2.0000      -0.968067       -26.3424
  34   2.0000      -0.942106       -25.6360
  35   2.0000      -0.921511       -25.0756
  36   2.0000      -0.917213       -24.9586
  37   2.0000      -0.769475       -20.9385
  38   2.0000      -0.720753       -19.6127
  39   2.0000      -0.710368       -19.3301
  40   2.0000      -0.684498       -18.6261
  41   2.0000      -0.651497       -17.7281
  42   2.0000      -0.632804       -17.2195
  43   2.0000      -0.620213       -16.8769
  44   2.0000      -0.603130       -16.4120
  45   2.0000      -0.598321       -16.2811
  46   2.0000      -0.571118       -15.5409
  47   2.0000      -0.516260       -14.0482
  48   2.0000      -0.504548       -13.7294
  49   2.0000      -0.500264       -13.6129
  50   2.0000      -0.486661       -13.2427
  51   2.0000      -0.461455       -12.5568
  52   2.0000      -0.458338       -12.4720
  53   2.0000      -0.448626       -12.2077
  54   2.0000      -0.443639       -12.0720
  55   2.0000      -0.436563       -11.8795
  56   2.0000      -0.427127       -11.6227
  57   2.0000      -0.416007       -11.3201
  58   2.0000      -0.408874       -11.1260
  59   2.0000      -0.402154       -10.9432
  60   2.0000      -0.398245       -10.8368
  61   2.0000      -0.392855       -10.6901
  62   2.0000      -0.391010       -10.6399
  63   2.0000      -0.382008       -10.3950
  64   2.0000      -0.377301       -10.2669
  65   2.0000      -0.370868       -10.0918
  66   2.0000      -0.362095        -9.8531
  67   2.0000      -0.359405        -9.7799
  68   2.0000      -0.355714        -9.6795
  69   2.0000      -0.342730        -9.3262
  70   2.0000      -0.337742        -9.1904
  71   2.0000      -0.333206        -9.0670
  72   2.0000      -0.330338        -8.9890
  73   2.0000      -0.313553        -8.5322
  74   2.0000      -0.303956        -8.2711
  75   2.0000      -0.297617        -8.0986
  76   2.0000      -0.290083        -7.8936
  77   2.0000      -0.285988        -7.7821
  78   2.0000      -0.273801        -7.4505
  79   2.0000      -0.264776        -7.2049
  80   2.0000      -0.259581        -7.0636
  81   2.0000      -0.245335        -6.6759
  82   2.0000      -0.240491        -6.5441
  83   2.0000      -0.223392        -6.0788
  84   2.0000      -0.213666        -5.8142
  85   2.0000      -0.192566        -5.2400
  86   2.0000      -0.184206        -5.0125
  87   0.0000      -0.050463        -1.3732
  88   0.0000      -0.037443        -1.0189
  89   0.0000      -0.019817        -0.5393
  90   0.0000       0.006028         0.1640
  91   0.0000       0.031889         0.8677

MULLIKEN ATOMIC CHARGES
-----------------------
   0 C :   -0.306040
   1 C :   -0.016733
   2 O :   -0.234610
   3 C :    0.123150
   4 O :   -0.184184
   5 C :   -0.047603
   6 C :   -0.345481
   7 H :    0.150567
   8 C :    0.233056
   9 O :   -0.190762
  10 O :   -0.217384
  11 C :   -0.010337
  12 C :   -0.311478
  13 S :   -0.084674
  14 P :    0.627731
  15 S :   -0.352001
  16 O :   -0.368351
  17 C :   -0.085080
  18 O :   -0.375381
  19 C :   -0.123765
  20 H :    0.132118
  21 H :    0.111586
  22 H :    0.114137
  23 H :    0.104059
  24 H :    0.113072
  25 H :    0.110896
  26 H :    0.121003
  27 H :    0.122687
  28 H :    0.111345
  29 H :    0.130569
  30 H :    0.120929
  31 H :    0.118257
  32 H :    0.114755
  33 H :    0.118405
  34 H :    0.113152
  35 H :    0.113009
  36 H :    0.137258
  37 H :    0.112121
Sum of atomic charges:    0.0000000

LOEWDIN ATOMIC CHARGES
----------------------
   0 C :   -0.356618
   1 C :   -0.111905
   2 O :   -0.060922
   3 C :    0.024244
   4 O :   -0.156061
   5 C :   -0.253248
   6 C :   -0.260920
   7 H :    0.148520
   8 C :    0.026550
   9 O :   -0.153836
  10 O :   -0.034009
  11 C :   -0.104887
  12 C :   -0.355914
  13 S :    0.112425
  14 P :    0.590532
  15 S :   -0.334991
  16 O :   -0.239094
  17 C :   -0.207570
  18 O :   -0.259377
  19 C :   -0.227401
  20 H :    0.130233
  21 H :    0.123430
  22 H :    0.131262
  23 H :    0.117895
  24 H :    0.121590
  25 H :    0.139860
  26 H :    0.134688
  27 H :    0.127002
  28 H :    0.122826
  29 H :    0.131230
  30 H :    0.134999
  31 H :    0.127064
  32 H :    0.107980
  33 H :    0.117043
  34 H :    0.111113
  35 H :    0.109624
  36 H :    0.110446
  37 H :    0.116196

  Mayer bond orders larger than 0.100000
B(  0-C ,  1-C ) :   1.1748 B(  0-C , 20-H ) :   0.9419 B(  0-C , 21-H ) :   0.9499
B(  0-C , 22-H ) :   0.9431 B(  1-C ,  2-O ) :   0.9105 B(  1-C , 23-H ) :   0.9369
B(  1-C , 24-H ) :   0.9106 B(  2-O ,  3-C ) :   1.2190 B(  3-C ,  4-O ) :   2.0173
B(  3-C ,  5-C ) :   1.0230 B(  5-C ,  6-C ) :   1.0396 B(  5-C , 25-H ) :   0.8765
B(  5-C , 26-H ) :   0.8709 B(  6-C ,  7-H ) :   0.8634 B(  6-C ,  8-C ) :   0.9165
B(  6-C , 13-S ) :   1.0411 B(  8-C ,  9-O ) :   1.9375 B(  8-C , 10-O ) :   1.2840
B(  9-O , 14-P ) :   0.1047 B( 10-O , 11-C ) :   0.8968 B( 11-C , 12-C ) :   1.1738
B( 11-C , 27-H ) :   0.9153 B( 11-C , 28-H ) :   0.9361 B( 12-C , 29-H ) :   0.9455
B( 12-C , 30-H ) :   0.9431 B( 12-C , 31-H ) :   0.9473 B( 13-S , 14-P ) :   0.9241
B( 13-S , 15-S ) :   0.1179 B( 14-P , 15-S ) :   1.5492 B( 14-P , 16-O ) :   1.1385
B( 14-P , 18-O ) :   1.0952 B( 16-O , 17-C ) :   0.9300 B( 17-C , 32-H ) :   0.9338
B( 17-C , 33-H ) :   0.9549 B( 17-C , 34-H ) :   0.9541 B( 18-O , 19-C ) :   0.9336
B( 19-C , 35-H ) :   0.9437 B( 19-C , 36-H ) :   0.9226 B( 19-C , 37-H ) :   0.9569

Dispersion correction           -0.052955722
FINAL SINGLE POINT ENERGY     -1979.014791176463

DIPOLE MOMENT
-------------

Method             : SCF
Type of density    : Electron Density
Multiplicity       :   1
Irrep              :   0
Energy             : -1979.1449556859520271 Eh
Relativity type    :
Basis              : AO
                                X                 Y                 Z
Electronic contribution:     -8.882368923      -3.526487277       4.941127926
Nuclear contribution   :     10.352659648       4.688640850      -5.761148473
                        -----------------------------------------
Total Dipole Moment    :      1.470290724       1.162153573      -0.820020547
                        -----------------------------------------
Magnitude (a.u.)       :      2.045675790
Magnitude (Debye)      :      5.199694632

Rotational constants in cm-1:             0.011615             0.008228             0.005831
Rotational constants in MHz :           348.212165           246.654854           174.820481

                             ****ORCA TERMINATED NORMALLY****
TOTAL RUN TIME: 0 days 0 hours 0 minutes 53 seconds 917 msec
