                         Program Version 6.0.0  -   RELEASE  -
|  1> ! pbe def2-sv(p) def2/J RI DEFGRID1 loosescf d4 GCP(DFT/SV(P)) printgap
|  2> %output
|  3>     printlevel normal
|  4> end
|  5> * xyz 0 1
|  6> C 4.0942590643 0.6730636751 -2.6503240605
|  7> C 4.8156094464 -0.2120556427 -1.6531858147
|  8> O 3.9211964266 -1.1280447207 -0.998874956
|  9> P 2.8474628209 -0.6387508458 0.0529090244
| 10> S 3.4283188832 0.8724544626 1.1706336309
| 11> O 2.6664562724 -2.0510360159 0.7444442756
| 12> C 1.538247426 -2.4343487193 1.5485577428
| 13> C 1.511080108 -1.7190677305 2.8849972415
| 14> S 1.058638343 -0.3173303845 -1.0734635157
| 15> C 0.380235598 1.0738395233 -0.1275042129
| 16> S -0.7988099511 0.5525953968 1.1545594669
| 17> P -2.5560880424 0.6465570504 -0.0121019207
| 18> S -2.4159093474 0.416962541 -1.9601025835
| 19> O -3.058288375 2.0742271602 0.459299539
| 20> C -4.0636903186 2.8183001845 -0.2583804747
| 21> C -5.4286475479 2.1705229743 -0.1558515578
| 22> O -3.5722801647 -0.3325242677 0.7185373198
| 23> C -3.710117687 -1.7136348316 0.3416757026
| 24> C -2.4314104101 -2.4953399256 0.5638129089
| 25> H 3.4264632995 1.3562363624 -2.1271099241
| 26> H 4.8217714597 1.2528636106 -3.2092268569
| 27> H 3.5088804394 0.0676281425 -3.3378285698
| 28> H 5.3155804244 0.3949256823 -0.8909984595
| 29> H 5.5420472978 -0.8611215209 -2.1439671601
| 30> H 0.619305246 -2.2399984801 0.9871169319
| 31> H 1.6683263395 -3.5104571352 1.675726725
| 32> H 2.4624856885 -1.8422584244 3.3959305051
| 33> H 1.3243607805 -0.655350774 2.7447482504
| 34> H 0.7172808503 -2.1334082317 3.4978290859
| 35> H -0.1240612647 1.7269782837 -0.8356091742
| 36> H 1.2011348661 1.5872468816 0.3786338047
| 37> H -4.0452226092 3.8017957913 0.2130793371
| 38> H -3.7528511539 2.8998381661 -1.3051348009
| 39> H -5.6818034341 1.9930953413 0.8860569651
| 40> H -6.1712483879 2.8237254663 -0.6033803156
| 41> H -5.4288865247 1.2190537143 -0.6856610712
| 42> H -4.522206527 -2.0778189259 0.9721386157
| 43> H -4.0051155667 -1.7564312865 -0.7115996362
| 44> H -2.0833068331 -2.3663178464 1.5859366786
| 45> H -2.6126920074 -3.5481009293 0.3725557726
| 46> H -1.6621771891 -2.1414879342 -0.1235062755
| 47> *
| 48>
| 49>                          ****END OF INPUT****

CARTESIAN COORDINATES (ANGSTROEM)
---------------------------------
  C      4.094259    0.673064   -2.650324
  C      4.815609   -0.212056   -1.653186
  O      3.921196   -1.128045   -0.998875
  P      2.847463   -0.638751    0.052909
  S      3.428319    0.872454    1.170634
  O      2.666456   -2.051036    0.744444
  C      1.538247   -2.434349    1.548558
  C      1.511080   -1.719068    2.884997
  S      1.058638   -0.317330   -1.073464
  C      0.380236    1.073840   -0.127504
  S     -0.798810    0.552595    1.154559
  P     -2.556088    0.646557   -0.012102
  S     -2.415909    0.416963   -1.960103
  O     -3.058288    2.074227    0.459300
  C     -4.063690    2.818300   -0.258380
  C     -5.428648    2.170523   -0.155852
  O     -3.572280   -0.332524    0.718537
  C     -3.710118   -1.713635    0.341676
  C     -2.431410   -2.495340    0.563813
  H      3.426463    1.356236   -2.127110
  H      4.821771    1.252864   -3.209227
  H      3.508880    0.067628   -3.337829
  H      5.315580    0.394926   -0.890998
  H      5.542047   -0.861122   -2.143967
  H      0.619305   -2.239998    0.987117
  H      1.668326   -3.510457    1.675727
  H      2.462486   -1.842258    3.395931
  H      1.324361   -0.655351    2.744748
  H      0.717281   -2.133408    3.497829
  H     -0.124061    1.726978   -0.835609
  H      1.201135    1.587247    0.378634
  H     -4.045223    3.801796    0.213079
  H     -3.752851    2.899838   -1.305135
  H     -5.681803    1.993095    0.886057
  H     -6.171248    2.823725   -0.603380
  H     -5.428887    1.219054   -0.685661
  H     -4.522207   -2.077819    0.972139
  H     -4.005116   -1.756431   -0.711600
  H     -2.083307   -2.366318    1.585937
  H     -2.612692   -3.548101    0.372556
  H     -1.662177   -2.141488   -0.123506

 Total Charge           Charge          ....    0
 Multiplicity           Mult            ....    1
 Number of Electrons    NEL             ....  202
 Basis Dimension        Dim             ....  334

ORBITAL ENERGIES
----------------

  NO   OCC          E(Eh)            E(eV)
   0   2.0000     -88.046076     -2395.8555
   1   2.0000     -88.044631     -2395.8162
   2   2.0000     -87.996349     -2394.5024
   3   2.0000     -87.990548     -2394.3446
   4   2.0000     -76.431831     -2079.8159
   5   2.0000     -76.426555     -2079.6723
   6   2.0000     -18.799884      -511.5709
   7   2.0000     -18.793323      -511.3923
   8   2.0000     -18.789896      -511.2991
   9   2.0000     -18.788850      -511.2706
  10   2.0000      -9.959005      -270.9983
  11   2.0000      -9.954491      -270.8755
  12   2.0000      -9.954301      -270.8703
  13   2.0000      -9.952431      -270.8194
  14   2.0000      -9.950128      -270.7567
  15   2.0000      -9.889644      -269.1109
  16   2.0000      -9.887312      -269.0474
  17   2.0000      -9.881711      -268.8950
  18   2.0000      -9.880294      -268.8565
  19   2.0000      -7.691160      -209.2871
  20   2.0000      -7.688964      -209.2273
  21   2.0000      -7.641136      -207.9259
  22   2.0000      -7.635397      -207.7697
  23   2.0000      -6.429523      -174.9562
  24   2.0000      -6.423988      -174.8056
  25   2.0000      -5.718964      -155.6209
  26   2.0000      -5.716738      -155.5604
  27   2.0000      -5.715784      -155.5344
  28   2.0000      -5.713490      -155.4720
  29   2.0000      -5.708055      -155.3241
  30   2.0000      -5.706154      -155.2723
  31   2.0000      -5.669960      -154.2875
  32   2.0000      -5.664139      -154.1291
  33   2.0000      -5.661803      -154.0655
  34   2.0000      -5.661425      -154.0552
  35   2.0000      -5.656065      -153.9094
  36   2.0000      -5.655708      -153.8996
  37   2.0000      -4.651911      -126.5849
  38   2.0000      -4.651241      -126.5667
  39   2.0000      -4.650173      -126.5376
  40   2.0000      -4.646241      -126.4307
  41   2.0000      -4.646053      -126.4255
  42   2.0000      -4.644408      -126.3808
  43   2.0000      -0.991984       -26.9933
  44   2.0000      -0.988519       -26.8990
  45   2.0000      -0.951234       -25.8844
  46   2.0000      -0.944033       -25.6884
  47   2.0000      -0.763996       -20.7894
  48   2.0000      -0.723379       -19.6841
  49   2.0000      -0.711548       -19.3622
  50   2.0000      -0.692514       -18.8443
  51   2.0000      -0.681452       -18.5433
  52   2.0000      -0.678408       -18.4604
  53   2.0000      -0.655647       -17.8411
  54   2.0000      -0.642238       -17.4762
  55   2.0000      -0.607004       -16.5174
  56   2.0000      -0.597508       -16.2590
  57   2.0000      -0.577890       -15.7252
  58   2.0000      -0.569458       -15.4957
  59   2.0000      -0.560665       -15.2565
  60   2.0000      -0.499991       -13.6054
  61   2.0000      -0.493707       -13.4344
  62   2.0000      -0.478137       -13.0108
  63   2.0000      -0.468521       -12.7491
  64   2.0000      -0.458405       -12.4738
  65   2.0000      -0.446823       -12.1587
  66   2.0000      -0.445320       -12.1178
  67   2.0000      -0.435533       -11.8515
  68   2.0000      -0.424005       -11.5378
  69   2.0000      -0.421187       -11.4611
  70   2.0000      -0.413855       -11.2616
  71   2.0000      -0.407898       -11.0995
  72   2.0000      -0.397255       -10.8099
  73   2.0000      -0.390771       -10.6334
  74   2.0000      -0.385566       -10.4918
  75   2.0000      -0.376400       -10.2424
  76   2.0000      -0.370205       -10.0738
  77   2.0000      -0.359421        -9.7803
  78   2.0000      -0.356040        -9.6883
  79   2.0000      -0.352785        -9.5998
  80   2.0000      -0.347926        -9.4675
  81   2.0000      -0.346368        -9.4252
  82   2.0000      -0.342318        -9.3149
  83   2.0000      -0.338194        -9.2027
  84   2.0000      -0.335983        -9.1426
  85   2.0000      -0.318803        -8.6751
  86   2.0000      -0.311648        -8.4804
  87   2.0000      -0.301500        -8.2042
  88   2.0000      -0.298258        -8.1160
  89   2.0000      -0.288561        -7.8521
  90   2.0000      -0.287291        -7.8176
  91   2.0000      -0.277464        -7.5502
  92   2.0000      -0.271004        -7.3744
  93   2.0000      -0.269084        -7.3221
  94   2.0000      -0.260357        -7.0847
  95   2.0000      -0.238645        -6.4939
  96   2.0000      -0.220918        -6.0115
  97   2.0000      -0.216896        -5.9020
  98   2.0000      -0.211111        -5.7446
  99   2.0000      -0.207159        -5.6371
 100   2.0000      -0.203024        -5.5246
 101   0.0000      -0.047482        -1.2920
 102   0.0000      -0.037238        -1.0133
 103   0.0000      -0.010888        -0.2963
 104   0.0000       0.005310         0.1445
 105   0.0000       0.011963         0.3255

MULLIKEN ATOMIC CHARGES
-----------------------
   0 C :   -0.311447
   1 C :   -0.003497
   2 O :   -0.355973
   3 P :    0.593375
   4 S :   -0.328355
   5 O :   -0.350479
   6 C :   -0.035852
   7 C :   -0.306865
   8 S :   -0.078968
   9 C :   -0.356045
  10 S :   -0.078910
  11 P :    0.601778
  12 S :   -0.329664
  13 O :   -0.362800
  14 C :   -0.004847
  15 C :   -0.308389
  16 O :   -0.371874
  17 C :    0.008068
  18 C :   -0.353971
  19 H :    0.120442
  20 H :    0.112049
  21 H :    0.119731
  22 H :    0.114119
  23 H :    0.107205
  24 H :    0.131372
  25 H :    0.106856
  26 H :    0.120984
  27 H :    0.128216
  28 H :    0.107916
  29 H :    0.189468
  30 H :    0.194778
  31 H :    0.108205
  32 H :    0.110559
  33 H :    0.119352
  34 H :    0.113410
  35 H :    0.121954
  36 H :    0.107453
  37 H :    0.111980
  38 H :    0.122358
  39 H :    0.115923
  40 H :    0.150385
Sum of atomic charges:    0.0000000

LOEWDIN ATOMIC CHARGES
----------------------
   0 C :   -0.368051
   1 C :   -0.119002
   2 O :   -0.232920
   3 P :    0.569511
   4 S :   -0.309504
   5 O :   -0.231275
   6 C :   -0.121373
   7 C :   -0.366315
   8 S :    0.091196
   9 C :   -0.485385
  10 S :    0.100100
  11 P :    0.572849
  12 S :   -0.320287
  13 O :   -0.243537
  14 C :   -0.117488
  15 C :   -0.364234
  16 O :   -0.242308
  17 C :   -0.116697
  18 C :   -0.375252
  19 H :    0.119329
  20 H :    0.130325
  21 H :    0.125827
  22 H :    0.110614
  23 H :    0.119815
  24 H :    0.105196
  25 H :    0.120481
  26 H :    0.128977
  27 H :    0.113904
  28 H :    0.128293
  29 H :    0.131207
  30 H :    0.124643
  31 H :    0.120403
  32 H :    0.110217
  33 H :    0.127637
  34 H :    0.130949
  35 H :    0.122647
  36 H :    0.120054
  37 H :    0.112243
  38 H :    0.123048
  39 H :    0.132443
  40 H :    0.121721

  Mayer bond orders larger than 0.100000
B(  0-C ,  1-C ) :   1.1629 B(  0-C , 19-H ) :   0.9385 B(  0-C , 20-H ) :   0.9386
B(  0-C , 21-H ) :   0.9448 B(  1-C ,  2-O ) :   0.9110 B(  1-C , 22-H ) :   0.9148
B(  1-C , 23-H ) :   0.9339 B(  2-O ,  3-P ) :   1.1352 B(  3-P ,  4-S ) :   1.5877
B(  3-P ,  5-O ) :   1.1327 B(  3-P ,  8-S ) :   0.9376 B(  4-S ,  8-S ) :   0.1232
B(  4-S , 30-H ) :   0.1155 B(  5-O ,  6-C ) :   0.9189 B(  6-C ,  7-C ) :   1.1615
B(  6-C , 24-H ) :   0.9042 B(  6-C , 25-H ) :   0.9341 B(  7-C , 26-H ) :   0.9440
B(  7-C , 27-H ) :   0.9304 B(  7-C , 28-H ) :   0.9376 B(  8-S ,  9-C ) :   1.0115
B(  9-C , 10-S ) :   0.9949 B(  9-C , 29-H ) :   0.8855 B(  9-C , 30-H ) :   0.8505
B( 10-S , 11-P ) :   0.9701 B( 10-S , 12-S ) :   0.1136 B( 11-P , 12-S ) :   1.5807
B( 11-P , 13-O ) :   1.1335 B( 11-P , 16-O ) :   1.1086 B( 13-O , 14-C ) :   0.9096
B( 14-C , 15-C ) :   1.1639 B( 14-C , 31-H ) :   0.9347 B( 14-C , 32-H ) :   0.9170
B( 15-C , 33-H ) :   0.9461 B( 15-C , 34-H ) :   0.9386 B( 15-C , 35-H ) :   0.9389
B( 16-O , 17-C ) :   0.9076 B( 17-C , 18-C ) :   1.1635 B( 17-C , 36-H ) :   0.9329
B( 17-C , 37-H ) :   0.9184 B( 18-C , 38-H ) :   0.9412 B( 18-C , 39-H ) :   0.9354
B( 18-C , 40-H ) :   0.9199

Dispersion correction           -0.064593928
FINAL SINGLE POINT ENERGY     -2929.523933631970

DIPOLE MOMENT
-------------

Method             : SCF
Type of density    : Electron Density
Multiplicity       :   1
Irrep              :   0
Energy             : -2929.6435590118526306 Eh
Relativity type    :
Basis              : AO
                                X                 Y                 Z
Electronic contribution:      8.200637051       3.485878448      -0.721021897
Nuclear contribution   :     -9.193492138      -3.833870419       0.687961429
                        -----------------------------------------
Total Dipole Moment    :     -0.992855087      -0.347991971      -0.033060468
                        -----------------------------------------
Magnitude (a.u.)       :      1.052593288
Magnitude (Debye)      :      2.675479515

Rotational constants in cm-1:             0.013687             0.004254             0.003924
Rotational constants in MHz :           410.325250           127.545997           117.626275

                             ****ORCA TERMINATED NORMALLY****
TOTAL RUN TIME: 0 days 0 hours 0 minutes 20 seconds 578 msec
