                         Program Version 6.0.0  -   RELEASE  -
|  1> ! pbe def2-sv(p) def2/J RI DEFGRID1 loosescf d4 GCP(DFT/SV(P)) printgap
|  2> %output
|  3>     printlevel normal
|  4> end
|  5> * xyz 0 1
|  6> C 4.4735743593 0.3374537169 -2.2952117735
|  7> C 4.4419508712 1.0013308508 -0.9340237033
|  8> O 3.6823462557 0.2383937756 0.0190971517
|  9> P 2.1041507988 0.0614045274 -0.0891758215
| 10> S 1.1757102896 1.7039461558 -0.6432450397
| 11> O 1.7560526772 -0.4914631918 1.3527032616
| 12> C 1.7808216952 0.3626814511 2.5174278442
| 13> C 1.0167903569 -0.3396645464 3.6204058063
| 14> S 1.8464342578 -1.6935005241 -1.2093254916
| 15> C 0.0527202741 -1.6405646294 -1.4645425497
| 16> S -0.8999873426 -1.8208865545 0.0754478101
| 17> P -1.9776583386 -0.0056582595 0.0674253212
| 18> S -2.1755856688 0.8573188003 -1.6891246148
| 19> O -1.2519596147 0.7457173944 1.260872837
| 20> C -1.8327705029 1.8441610299 1.9982414102
| 21> C -2.0175841724 3.078543299 1.1399781664
| 22> O -3.3689332772 -0.3518593262 0.7600048651
| 23> C -4.5183303883 -0.7759797165 0.0086776931
| 24> C -4.3427768937 -2.1671318154 -0.5644295867
| 25> H 4.8025481021 -0.6945845684 -2.2045606579
| 26> H 3.4779016539 0.3498831031 -2.7372727864
| 27> H 5.1533562245 0.8796350148 -2.9445890316
| 28> H 4.0027280578 2.0019289177 -1.003297466
| 29> H 5.435968313 1.0604568983 -0.4888925792
| 30> H 2.8258696457 0.5275559963 2.7911613991
| 31> H 1.3243921684 1.3222865228 2.2510660424
| 32> H 1.4759305172 -1.3010652218 3.8310738716
| 33> H 1.0331907405 0.2738150087 4.5154670313
| 34> H -0.0119810173 -0.5057024647 3.3113339176
| 35> H -0.170861048 -2.4893176692 -2.1059264092
| 36> H -0.2352005012 -0.6999389832 -1.9441795742
| 37> H -2.783526537 1.5106489139 2.4203824249
| 38> H -1.1129115645 2.0230030513 2.7992014913
| 39> H -2.7727575146 2.900745289 0.3758864543
| 40> H -2.3303884313 3.9104035171 1.7628553645
| 41> H -1.0832982956 3.3313914482 0.6413439284
| 42> H -5.3332371838 -0.7372422776 0.7327725793
| 43> H -4.6938661436 -0.0507282606 -0.7923655364
| 44> H -4.0462360513 -2.8631478749 0.2159543437
| 45> H -5.2792415889 -2.4936703094 -1.0049440419
| 46> H -3.5745817916 -2.1553292043 -1.3360547645
| 47> *
| 48>
| 49>                          ****END OF INPUT****

CARTESIAN COORDINATES (ANGSTROEM)
---------------------------------
  C      4.473574    0.337454   -2.295212
  C      4.441951    1.001331   -0.934024
  O      3.682346    0.238394    0.019097
  P      2.104151    0.061405   -0.089176
  S      1.175710    1.703946   -0.643245
  O      1.756053   -0.491463    1.352703
  C      1.780822    0.362681    2.517428
  C      1.016790   -0.339665    3.620406
  S      1.846434   -1.693501   -1.209325
  C      0.052720   -1.640565   -1.464543
  S     -0.899987   -1.820887    0.075448
  P     -1.977658   -0.005658    0.067425
  S     -2.175586    0.857319   -1.689125
  O     -1.251960    0.745717    1.260873
  C     -1.832771    1.844161    1.998241
  C     -2.017584    3.078543    1.139978
  O     -3.368933   -0.351859    0.760005
  C     -4.518330   -0.775980    0.008678
  C     -4.342777   -2.167132   -0.564430
  H      4.802548   -0.694585   -2.204561
  H      3.477902    0.349883   -2.737273
  H      5.153356    0.879635   -2.944589
  H      4.002728    2.001929   -1.003297
  H      5.435968    1.060457   -0.488893
  H      2.825870    0.527556    2.791161
  H      1.324392    1.322287    2.251066
  H      1.475931   -1.301065    3.831074
  H      1.033191    0.273815    4.515467
  H     -0.011981   -0.505702    3.311334
  H     -0.170861   -2.489318   -2.105926
  H     -0.235201   -0.699939   -1.944180
  H     -2.783527    1.510649    2.420382
  H     -1.112912    2.023003    2.799201
  H     -2.772758    2.900745    0.375886
  H     -2.330388    3.910404    1.762855
  H     -1.083298    3.331391    0.641344
  H     -5.333237   -0.737242    0.732773
  H     -4.693866   -0.050728   -0.792366
  H     -4.046236   -2.863148    0.215954
  H     -5.279242   -2.493670   -1.004944
  H     -3.574582   -2.155329   -1.336055

 Total Charge           Charge          ....    0
 Multiplicity           Mult            ....    1
 Number of Electrons    NEL             ....  202
 Basis Dimension        Dim             ....  334

ORBITAL ENERGIES
----------------

  NO   OCC          E(Eh)            E(eV)
   0   2.0000     -88.041505     -2395.7312
   1   2.0000     -88.040322     -2395.6990
   2   2.0000     -87.984080     -2394.1685
   3   2.0000     -87.979045     -2394.0315
   4   2.0000     -76.425238     -2079.6365
   5   2.0000     -76.420360     -2079.5037
   6   2.0000     -18.793529      -511.3979
   7   2.0000     -18.789260      -511.2818
   8   2.0000     -18.787718      -511.2398
   9   2.0000     -18.782353      -511.0938
  10   2.0000      -9.953368      -270.8449
  11   2.0000      -9.952193      -270.8129
  12   2.0000      -9.950869      -270.7769
  13   2.0000      -9.948516      -270.7129
  14   2.0000      -9.946306      -270.6527
  15   2.0000      -9.882661      -268.9209
  16   2.0000      -9.881382      -268.8861
  17   2.0000      -9.880881      -268.8724
  18   2.0000      -9.876370      -268.7497
  19   2.0000      -7.687201      -209.1794
  20   2.0000      -7.685446      -209.1316
  21   2.0000      -7.628970      -207.5948
  22   2.0000      -7.623860      -207.4558
  23   2.0000      -6.422445      -174.7636
  24   2.0000      -6.418085      -174.6450
  25   2.0000      -5.715229      -155.5193
  26   2.0000      -5.713348      -155.4681
  27   2.0000      -5.711572      -155.4198
  28   2.0000      -5.710029      -155.3778
  29   2.0000      -5.704038      -155.2148
  30   2.0000      -5.702260      -155.1664
  31   2.0000      -5.657834      -153.9575
  32   2.0000      -5.652573      -153.8143
  33   2.0000      -5.649840      -153.7400
  34   2.0000      -5.648920      -153.7149
  35   2.0000      -5.644600      -153.5974
  36   2.0000      -5.644105      -153.5839
  37   2.0000      -4.645206      -126.4025
  38   2.0000      -4.643955      -126.3684
  39   2.0000      -4.642999      -126.3424
  40   2.0000      -4.640657      -126.2787
  41   2.0000      -4.639800      -126.2554
  42   2.0000      -4.638545      -126.2212
  43   2.0000      -0.986686       -26.8491
  44   2.0000      -0.981560       -26.7096
  45   2.0000      -0.941952       -25.6318
  46   2.0000      -0.939008       -25.5517
  47   2.0000      -0.761684       -20.7265
  48   2.0000      -0.719395       -19.5757
  49   2.0000      -0.705850       -19.2071
  50   2.0000      -0.685856       -18.6631
  51   2.0000      -0.683463       -18.5980
  52   2.0000      -0.673074       -18.3153
  53   2.0000      -0.648876       -17.6568
  54   2.0000      -0.630927       -17.1684
  55   2.0000      -0.598781       -16.2937
  56   2.0000      -0.588025       -16.0010
  57   2.0000      -0.575043       -15.6477
  58   2.0000      -0.568833       -15.4787
  59   2.0000      -0.553441       -15.0599
  60   2.0000      -0.499346       -13.5879
  61   2.0000      -0.494971       -13.4689
  62   2.0000      -0.469302       -12.7703
  63   2.0000      -0.467625       -12.7247
  64   2.0000      -0.453761       -12.3475
  65   2.0000      -0.442886       -12.0515
  66   2.0000      -0.436814       -11.8863
  67   2.0000      -0.431717       -11.7476
  68   2.0000      -0.423116       -11.5136
  69   2.0000      -0.416391       -11.3306
  70   2.0000      -0.410425       -11.1682
  71   2.0000      -0.406686       -11.0665
  72   2.0000      -0.388081       -10.5602
  73   2.0000      -0.384456       -10.4616
  74   2.0000      -0.378585       -10.3018
  75   2.0000      -0.368901       -10.0383
  76   2.0000      -0.366095        -9.9620
  77   2.0000      -0.352096        -9.5810
  78   2.0000      -0.350842        -9.5469
  79   2.0000      -0.348448        -9.4817
  80   2.0000      -0.343501        -9.3471
  81   2.0000      -0.340361        -9.2617
  82   2.0000      -0.335107        -9.1187
  83   2.0000      -0.331901        -9.0315
  84   2.0000      -0.330879        -9.0037
  85   2.0000      -0.312702        -8.5090
  86   2.0000      -0.310245        -8.4422
  87   2.0000      -0.294963        -8.0264
  88   2.0000      -0.292895        -7.9701
  89   2.0000      -0.287841        -7.8325
  90   2.0000      -0.284040        -7.7291
  91   2.0000      -0.273551        -7.4437
  92   2.0000      -0.268053        -7.2941
  93   2.0000      -0.260506        -7.0887
  94   2.0000      -0.258101        -7.0233
  95   2.0000      -0.233561        -6.3555
  96   2.0000      -0.219603        -5.9757
  97   2.0000      -0.213794        -5.8176
  98   2.0000      -0.199602        -5.4314
  99   2.0000      -0.192025        -5.2253
 100   2.0000      -0.183859        -5.0030
 101   0.0000      -0.039339        -1.0705
 102   0.0000      -0.032416        -0.8821
 103   0.0000      -0.010770        -0.2931
 104   0.0000       0.012392         0.3372
 105   0.0000       0.017825         0.4850

MULLIKEN ATOMIC CHARGES
-----------------------
   0 C :   -0.319830
   1 C :   -0.001781
   2 O :   -0.380628
   3 P :    0.606990
   4 S :   -0.317331
   5 O :   -0.361541
   6 C :   -0.005669
   7 C :   -0.287589
   8 S :   -0.081610
   9 C :   -0.362403
  10 S :   -0.078781
  11 P :    0.628437
  12 S :   -0.307425
  13 O :   -0.362067
  14 C :   -0.008729
  15 C :   -0.315430
  16 O :   -0.383424
  17 C :   -0.003875
  18 C :   -0.306905
  19 H :    0.117625
  20 H :    0.129171
  21 H :    0.112994
  22 H :    0.109299
  23 H :    0.102586
  24 H :    0.099833
  25 H :    0.103578
  26 H :    0.115377
  27 H :    0.103047
  28 H :    0.128231
  29 H :    0.181357
  30 H :    0.207757
  31 H :    0.107268
  32 H :    0.105040
  33 H :    0.124709
  34 H :    0.105332
  35 H :    0.137383
  36 H :    0.101664
  37 H :    0.110083
  38 H :    0.116625
  39 H :    0.111540
  40 H :    0.119089
Sum of atomic charges:   -0.0000000

LOEWDIN ATOMIC CHARGES
----------------------
   0 C :   -0.370120
   1 C :   -0.120881
   2 O :   -0.249166
   3 P :    0.561382
   4 S :   -0.309080
   5 O :   -0.240567
   6 C :   -0.114807
   7 C :   -0.353597
   8 S :    0.092924
   9 C :   -0.480967
  10 S :    0.093830
  11 P :    0.573244
  12 S :   -0.295845
  13 O :   -0.235580
  14 C :   -0.111012
  15 C :   -0.368521
  16 O :   -0.247753
  17 C :   -0.121614
  18 C :   -0.367931
  19 H :    0.123886
  20 H :    0.122226
  21 H :    0.131081
  22 H :    0.109395
  23 H :    0.117388
  24 H :    0.110747
  25 H :    0.105472
  26 H :    0.127355
  27 H :    0.126074
  28 H :    0.126559
  29 H :    0.136623
  30 H :    0.125823
  31 H :    0.111032
  32 H :    0.114886
  33 H :    0.120991
  34 H :    0.126978
  35 H :    0.130259
  36 H :    0.116657
  37 H :    0.108997
  38 H :    0.124231
  39 H :    0.130076
  40 H :    0.119322

  Mayer bond orders larger than 0.100000
B(  0-C ,  1-C ) :   1.1651 B(  0-C , 19-H ) :   0.9449 B(  0-C , 20-H ) :   0.9349
B(  0-C , 21-H ) :   0.9381 B(  1-C ,  2-O ) :   0.9111 B(  1-C , 22-H ) :   0.9127
B(  1-C , 23-H ) :   0.9335 B(  2-O ,  3-P ) :   1.0926 B(  3-P ,  4-S ) :   1.6314
B(  3-P ,  5-O ) :   1.1318 B(  3-P ,  8-S ) :   0.9634 B(  4-S ,  8-S ) :   0.1134
B(  5-O ,  6-C ) :   0.8994 B(  6-C ,  7-C ) :   1.1653 B(  6-C , 24-H ) :   0.9300
B(  6-C , 25-H ) :   0.9066 B(  7-C , 26-H ) :   0.9484 B(  7-C , 27-H ) :   0.9412
B(  7-C , 28-H ) :   0.9427 B(  8-S ,  9-C ) :   0.9981 B(  9-C , 10-S ) :   1.0036
B(  9-C , 29-H ) :   0.9114 B(  9-C , 30-H ) :   0.8467 B( 10-S , 11-P ) :   0.9696
B( 10-S , 12-S ) :   0.1240 B( 11-P , 12-S ) :   1.6008 B( 11-P , 13-O ) :   1.1193
B( 11-P , 16-O ) :   1.0826 B( 13-O , 14-C ) :   0.9039 B( 14-C , 15-C ) :   1.1701
B( 14-C , 31-H ) :   0.9287 B( 14-C , 32-H ) :   0.9265 B( 15-C , 33-H ) :   0.9351
B( 15-C , 34-H ) :   0.9366 B( 15-C , 35-H ) :   0.9397 B( 16-O , 17-C ) :   0.9117
B( 17-C , 18-C ) :   1.1671 B( 17-C , 36-H ) :   0.9331 B( 17-C , 37-H ) :   0.9120
B( 18-C , 38-H ) :   0.9449 B( 18-C , 39-H ) :   0.9383 B( 18-C , 40-H ) :   0.9370

Dispersion correction           -0.068310782
FINAL SINGLE POINT ENERGY     -2929.519117087688

DIPOLE MOMENT
-------------

Method             : SCF
Type of density    : Electron Density
Multiplicity       :   1
Irrep              :   0
Energy             : -2929.6368852395498834 Eh
Relativity type    :
Basis              : AO
                                X                 Y                 Z
Electronic contribution:      3.641328242      -5.866082940      -7.829641253
Nuclear contribution   :     -3.754674690       5.703677176       8.694637955
                        -----------------------------------------
Total Dipole Moment    :     -0.113346448      -0.162405764       0.864996702
                        -----------------------------------------
Magnitude (a.u.)       :      0.887379481
Magnitude (Debye)      :      2.255539390

Rotational constants in cm-1:             0.012184             0.005627             0.005205
Rotational constants in MHz :           365.268662           168.699871           156.030430

                             ****ORCA TERMINATED NORMALLY****
TOTAL RUN TIME: 0 days 0 hours 0 minutes 21 seconds 854 msec
