                         Program Version 6.0.0  -   RELEASE  -
|  1> ! pbe def2-sv(p) def2/J RI DEFGRID1 loosescf d4 GCP(DFT/SV(P)) printgap
|  2> %output
|  3>     printlevel normal
|  4> end
|  5> * xyz 0 1
|  6> C 2.8992721416 0.1902449446 3.2804559067
|  7> C 1.5473054971 -0.1556305391 2.6945094398
|  8> O 1.4005869976 0.3830515429 1.3619430436
|  9> P 2.2212181184 -0.1966777627 0.1409385203
| 10> S 2.7309382499 -2.0883903275 0.2743877947
| 11> O 3.3873766256 0.8745280276 0.0253336529
| 12> C 4.4073722233 0.8090676648 -0.9913048058
| 13> C 5.6232269219 0.0525846006 -0.4916104029
| 14> S 0.9764580395 0.2906171393 -1.5037156217
| 15> C -0.044797233 -1.2052866679 -1.4191656757
| 16> S -1.1309245686 -1.2350945632 0.0238504918
| 17> P -2.3887006279 0.3744345267 -0.6082986271
| 18> S -2.768213599 0.4128511566 -2.5242482753
| 19> O -1.6916978487 1.693862226 -0.1059974685
| 20> C -1.4284087422 1.97072071 1.291786492
| 21> C -2.4749632134 2.9117218839 1.8504306098
| 22> O -3.6536423741 0.2721420848 0.3465121547
| 23> C -4.7149905097 -0.6790977697 0.1306553616
| 24> C -4.4979098174 -1.9411177948 0.9422265272
| 25> H 2.950877919 -0.1630376268 4.3054386454
| 26> H 3.6838939112 -0.2924411874 2.6987664013
| 27> H 3.0561953421 1.2652453233 3.256618033
| 28> H 0.7311374553 0.2998189627 3.2562089143
| 29> H 1.408268101 -1.2404131984 2.6481633463
| 30> H 3.9935247899 0.3415652647 -1.8896111101
| 31> H 4.6478396878 1.8523099813 -1.204635945
| 32> H 6.0053630693 0.5162314646 0.4135177221
| 33> H 5.3623241469 -0.9810040702 -0.2750021802
| 34> H 6.3932854439 0.0694193789 -1.256035333
| 35> H 0.5990036605 -2.0825510081 -1.3492186961
| 36> H -0.6501500673 -1.2217284835 -2.3256703077
| 37> H -1.409170538 1.0252541387 1.8408864014
| 38> H -0.4334065859 2.4207868708 1.3015081227
| 39> H -3.4537058913 2.4399655592 1.8278123115
| 40> H -2.2187203386 3.1613027957 2.8753157579
| 41> H -2.5101309431 3.8210795325 1.2568417739
| 42> H -5.618298396 -0.1558077802 0.4495785421
| 43> H -4.780897447 -0.8961176973 -0.9402261631
| 44> H -3.6009332085 -2.4606593053 0.6133890305
| 45> H -4.3925433842 -1.6942528383 1.9948327159
| 46> H -5.3538604677 -2.5954997953 0.8123149105
| 47> *
| 48>
| 49>                          ****END OF INPUT****

CARTESIAN COORDINATES (ANGSTROEM)
---------------------------------
  C      2.899272    0.190245    3.280456
  C      1.547305   -0.155631    2.694509
  O      1.400587    0.383052    1.361943
  P      2.221218   -0.196678    0.140939
  S      2.730938   -2.088390    0.274388
  O      3.387377    0.874528    0.025334
  C      4.407372    0.809068   -0.991305
  C      5.623227    0.052585   -0.491610
  S      0.976458    0.290617   -1.503716
  C     -0.044797   -1.205287   -1.419166
  S     -1.130925   -1.235095    0.023850
  P     -2.388701    0.374435   -0.608299
  S     -2.768214    0.412851   -2.524248
  O     -1.691698    1.693862   -0.105997
  C     -1.428409    1.970721    1.291786
  C     -2.474963    2.911722    1.850431
  O     -3.653642    0.272142    0.346512
  C     -4.714991   -0.679098    0.130655
  C     -4.497910   -1.941118    0.942227
  H      2.950878   -0.163038    4.305439
  H      3.683894   -0.292441    2.698766
  H      3.056195    1.265245    3.256618
  H      0.731137    0.299819    3.256209
  H      1.408268   -1.240413    2.648163
  H      3.993525    0.341565   -1.889611
  H      4.647840    1.852310   -1.204636
  H      6.005363    0.516231    0.413518
  H      5.362324   -0.981004   -0.275002
  H      6.393285    0.069419   -1.256035
  H      0.599004   -2.082551   -1.349219
  H     -0.650150   -1.221728   -2.325670
  H     -1.409171    1.025254    1.840886
  H     -0.433407    2.420787    1.301508
  H     -3.453706    2.439966    1.827812
  H     -2.218720    3.161303    2.875316
  H     -2.510131    3.821080    1.256842
  H     -5.618298   -0.155808    0.449579
  H     -4.780897   -0.896118   -0.940226
  H     -3.600933   -2.460659    0.613389
  H     -4.392543   -1.694253    1.994833
  H     -5.353860   -2.595500    0.812315

 Total Charge           Charge          ....    0
 Multiplicity           Mult            ....    1
 Number of Electrons    NEL             ....  202
 Basis Dimension        Dim             ....  334

ORBITAL ENERGIES
----------------

  NO   OCC          E(Eh)            E(eV)
   0   2.0000     -88.041248     -2395.7242
   1   2.0000     -88.040892     -2395.7145
   2   2.0000     -87.992243     -2394.3907
   3   2.0000     -87.984237     -2394.1728
   4   2.0000     -76.429696     -2079.7578
   5   2.0000     -76.425569     -2079.6455
   6   2.0000     -18.798000      -511.5196
   7   2.0000     -18.797442      -511.5044
   8   2.0000     -18.795147      -511.4419
   9   2.0000     -18.789801      -511.2965
  10   2.0000      -9.958261      -270.9781
  11   2.0000      -9.955729      -270.9092
  12   2.0000      -9.955610      -270.9059
  13   2.0000      -9.952471      -270.8205
  14   2.0000      -9.950286      -270.7611
  15   2.0000      -9.887497      -269.0525
  16   2.0000      -9.887403      -269.0499
  17   2.0000      -9.885236      -268.9910
  18   2.0000      -9.884292      -268.9653
  19   2.0000      -7.686422      -209.1582
  20   2.0000      -7.685645      -209.1370
  21   2.0000      -7.637145      -207.8173
  22   2.0000      -7.629616      -207.6124
  23   2.0000      -6.427342      -174.8969
  24   2.0000      -6.423215      -174.7846
  25   2.0000      -5.714220      -155.4918
  26   2.0000      -5.713314      -155.4672
  27   2.0000      -5.711027      -155.4049
  28   2.0000      -5.710224      -155.3831
  29   2.0000      -5.703366      -155.1965
  30   2.0000      -5.702794      -155.1809
  31   2.0000      -5.665867      -154.1761
  32   2.0000      -5.658583      -153.9779
  33   2.0000      -5.657730      -153.9547
  34   2.0000      -5.657544      -153.9496
  35   2.0000      -5.650108      -153.7473
  36   2.0000      -5.649791      -153.7386
  37   2.0000      -4.649793      -126.5273
  38   2.0000      -4.649117      -126.5089
  39   2.0000      -4.647878      -126.4752
  40   2.0000      -4.646165      -126.4286
  41   2.0000      -4.644915      -126.3946
  42   2.0000      -4.643371      -126.3526
  43   2.0000      -0.991898       -26.9909
  44   2.0000      -0.989824       -26.9345
  45   2.0000      -0.950631       -25.8680
  46   2.0000      -0.945924       -25.7399
  47   2.0000      -0.763916       -20.7872
  48   2.0000      -0.722483       -19.6598
  49   2.0000      -0.711001       -19.3473
  50   2.0000      -0.691913       -18.8279
  51   2.0000      -0.690067       -18.7777
  52   2.0000      -0.675742       -18.3879
  53   2.0000      -0.651975       -17.7412
  54   2.0000      -0.638190       -17.3660
  55   2.0000      -0.601704       -16.3732
  56   2.0000      -0.593706       -16.1556
  57   2.0000      -0.573583       -15.6080
  58   2.0000      -0.572524       -15.5792
  59   2.0000      -0.562004       -15.2929
  60   2.0000      -0.507222       -13.8022
  61   2.0000      -0.498879       -13.5752
  62   2.0000      -0.480865       -13.0850
  63   2.0000      -0.479294       -13.0423
  64   2.0000      -0.458767       -12.4837
  65   2.0000      -0.448566       -12.2061
  66   2.0000      -0.442569       -12.0429
  67   2.0000      -0.435783       -11.8583
  68   2.0000      -0.430557       -11.7160
  69   2.0000      -0.411312       -11.1924
  70   2.0000      -0.407491       -11.0884
  71   2.0000      -0.397508       -10.8167
  72   2.0000      -0.394823       -10.7437
  73   2.0000      -0.390237       -10.6189
  74   2.0000      -0.384385       -10.4596
  75   2.0000      -0.376003       -10.2316
  76   2.0000      -0.367223        -9.9926
  77   2.0000      -0.362070        -9.8524
  78   2.0000      -0.356110        -9.6903
  79   2.0000      -0.355164        -9.6645
  80   2.0000      -0.349854        -9.5200
  81   2.0000      -0.345911        -9.4127
  82   2.0000      -0.343998        -9.3607
  83   2.0000      -0.339395        -9.2354
  84   2.0000      -0.336364        -9.1529
  85   2.0000      -0.325655        -8.8615
  86   2.0000      -0.313760        -8.5378
  87   2.0000      -0.301002        -8.1907
  88   2.0000      -0.296239        -8.0611
  89   2.0000      -0.294202        -8.0056
  90   2.0000      -0.290392        -7.9020
  91   2.0000      -0.280418        -7.6306
  92   2.0000      -0.271906        -7.3989
  93   2.0000      -0.267132        -7.2690
  94   2.0000      -0.258878        -7.0444
  95   2.0000      -0.234387        -6.3780
  96   2.0000      -0.220647        -6.0041
  97   2.0000      -0.213124        -5.7994
  98   2.0000      -0.205334        -5.5874
  99   2.0000      -0.202561        -5.5120
 100   2.0000      -0.198572        -5.4034
 101   0.0000      -0.043589        -1.1861
 102   0.0000      -0.021953        -0.5974
 103   0.0000      -0.003202        -0.0871
 104   0.0000      -0.001125        -0.0306
 105   0.0000       0.014446         0.3931

MULLIKEN ATOMIC CHARGES
-----------------------
   0 C :   -0.304646
   1 C :   -0.009388
   2 O :   -0.358297
   3 P :    0.607191
   4 S :   -0.336337
   5 O :   -0.370547
   6 C :   -0.012228
   7 C :   -0.296523
   8 S :   -0.060987
   9 C :   -0.377443
  10 S :   -0.096654
  11 P :    0.604088
  12 S :   -0.311841
  13 O :   -0.347322
  14 C :   -0.023685
  15 C :   -0.281202
  16 O :   -0.381645
  17 C :   -0.005937
  18 C :   -0.305895
  19 H :    0.112570
  20 H :    0.126240
  21 H :    0.115934
  22 H :    0.102535
  23 H :    0.115880
  24 H :    0.106030
  25 H :    0.110483
  26 H :    0.114137
  27 H :    0.130808
  28 H :    0.109998
  29 H :    0.193386
  30 H :    0.195509
  31 H :    0.105120
  32 H :    0.117306
  33 H :    0.117235
  34 H :    0.105796
  35 H :    0.120219
  36 H :    0.108205
  37 H :    0.107594
  38 H :    0.129273
  39 H :    0.111553
  40 H :    0.113488
Sum of atomic charges:   -0.0000000

LOEWDIN ATOMIC CHARGES
----------------------
   0 C :   -0.364762
   1 C :   -0.117834
   2 O :   -0.234398
   3 P :    0.571118
   4 S :   -0.318726
   5 O :   -0.243977
   6 C :   -0.115177
   7 C :   -0.363794
   8 S :    0.093902
   9 C :   -0.489283
  10 S :    0.071871
  11 P :    0.569161
  12 S :   -0.308664
  13 O :   -0.229548
  14 C :   -0.114812
  15 C :   -0.358167
  16 O :   -0.246897
  17 C :   -0.117050
  18 C :   -0.365970
  19 H :    0.130944
  20 H :    0.123240
  21 H :    0.126092
  22 H :    0.114221
  23 H :    0.111411
  24 H :    0.108980
  25 H :    0.120403
  26 H :    0.125275
  27 H :    0.124807
  28 H :    0.129956
  29 H :    0.128016
  30 H :    0.129001
  31 H :    0.102779
  32 H :    0.120451
  33 H :    0.124986
  34 H :    0.127578
  35 H :    0.129143
  36 H :    0.119761
  37 H :    0.109996
  38 H :    0.119859
  39 H :    0.124243
  40 H :    0.131868

  Mayer bond orders larger than 0.100000
B(  0-C ,  1-C ) :   1.1651 B(  0-C , 19-H ) :   0.9386 B(  0-C , 20-H ) :   0.9331
B(  0-C , 21-H ) :   0.9463 B(  1-C ,  2-O ) :   0.9004 B(  1-C , 22-H ) :   0.9295
B(  1-C , 23-H ) :   0.9143 B(  2-O ,  3-P ) :   1.1212 B(  3-P ,  4-S ) :   1.5895
B(  3-P ,  5-O ) :   1.1164 B(  3-P ,  8-S ) :   0.9704 B(  4-S ,  8-S ) :   0.1112
B(  5-O ,  6-C ) :   0.9025 B(  6-C ,  7-C ) :   1.1673 B(  6-C , 24-H ) :   0.9160
B(  6-C , 25-H ) :   0.9356 B(  7-C , 26-H ) :   0.9466 B(  7-C , 27-H ) :   0.9322
B(  7-C , 28-H ) :   0.9394 B(  8-S ,  9-C ) :   1.0048 B(  9-C , 10-S ) :   1.0051
B(  9-C , 29-H ) :   0.8731 B(  9-C , 30-H ) :   0.8726 B( 10-S , 11-P ) :   0.9436
B( 10-S , 12-S ) :   0.1091 B( 11-P , 12-S ) :   1.6508 B( 11-P , 13-O ) :   1.1459
B( 11-P , 16-O ) :   1.0820 B( 13-O , 14-C ) :   0.8898 B( 14-C , 15-C ) :   1.1563
B( 14-C , 31-H ) :   0.9113 B( 14-C , 32-H ) :   0.9308 B( 15-C , 33-H ) :   0.9425
B( 15-C , 34-H ) :   0.9409 B( 15-C , 35-H ) :   0.9466 B( 16-O , 17-C ) :   0.9019
B( 17-C , 18-C ) :   1.1672 B( 17-C , 36-H ) :   0.9349 B( 17-C , 37-H ) :   0.9065
B( 18-C , 38-H ) :   0.9321 B( 18-C , 39-H ) :   0.9485 B( 18-C , 40-H ) :   0.9395

Dispersion correction           -0.065062727
FINAL SINGLE POINT ENERGY     -2929.524866185487

DIPOLE MOMENT
-------------

Method             : SCF
Type of density    : Electron Density
Multiplicity       :   1
Irrep              :   0
Energy             : -2929.6449772306941668 Eh
Relativity type    :
Basis              : AO
                                X                 Y                 Z
Electronic contribution:     -4.094412261      -2.865423784     -18.122438252
Nuclear contribution   :      4.284182345       3.182186092      19.604674994
                        -----------------------------------------
Total Dipole Moment    :      0.189770084       0.316762308       1.482236742
                        -----------------------------------------
Magnitude (a.u.)       :      1.527539461
Magnitude (Debye)      :      3.882696746

Rotational constants in cm-1:             0.013184             0.004689             0.004442
Rotational constants in MHz :           395.253683           140.583453           133.176163

                             ****ORCA TERMINATED NORMALLY****
TOTAL RUN TIME: 0 days 0 hours 0 minutes 21 seconds 485 msec
