                         Program Version 6.0.1  -  RELEASE   -
|  1> ! pbe def2-sv(p) def2/J RI DEFGRID1 loosescf d4 GCP(DFT/SV(P)) printgap
|  2> %output
|  3>     printlevel normal
|  4> end
|  5> * xyz 0 1
|  6> C 2.5359054849 -3.8522915027 -0.6952872564
|  7> C 2.6730906415 -3.4545364411 0.7657289569
|  8> O 2.765787177 -2.0214804418 0.8911324914
|  9> C 1.6583810626 -1.3260957587 1.0019819372
| 10> O 0.545343734 -1.8151624946 1.0547421369
| 11> C 1.9246632741 0.1605883369 1.0651474595
| 12> C 0.8653257098 0.916030079 0.2753330022
| 13> H 0.7729766446 0.5015000495 -0.7391406032
| 14> C 1.1782044729 2.4009513932 0.1558084676
| 15> O 2.1665201859 2.9141292272 0.6236876484
| 16> O 0.241299352 3.0267294017 -0.5220379525
| 17> C 0.3958647361 4.4434991507 -0.7495092109
| 18> C 1.2088189258 4.7038474387 -2.0071428055
| 19> S -0.7955845531 0.7598924577 1.0260863146
| 20> P -1.5854140918 -0.7899748747 -0.2113426069
| 21> S -0.5468158561 -1.331870053 -1.779550516
| 22> O -2.111801855 -1.9822692014 0.67238464
| 23> C -2.8963585539 -1.7714309607 1.8615258765
| 24> O -3.0014134595 -0.1415322179 -0.6272105512
| 25> C -3.0564850109 0.9939282495 -1.49277566
| 26> H 1.6182226988 -3.441332481 -1.1137025073
| 27> H 3.3783918015 -3.4748814531 -1.2679075865
| 28> H 2.5031692641 -4.9338174124 -0.7733855604
| 29> H 3.6021001631 -3.8283127541 1.1960721172
| 30> H 1.8127574815 -3.8020550541 1.344522778
| 31> H 2.9149652326 0.3697817562 0.6602949661
| 32> H 1.9039201148 0.4813245031 2.1094170243
| 33> H -0.62350675 4.8156963716 -0.8496296495
| 34> H 0.8806625572 4.8837934756 0.1258048996
| 35> H 2.2236955508 4.3339580774 -1.8808875744
| 36> H 0.7534601558 4.2047008293 -2.8581078743
| 37> H 1.2440741151 5.7717634279 -2.1950395891
| 38> H -2.3291224892 -1.176516354 2.577236269
| 39> H -3.0841262773 -2.7672321965 2.2545280364
| 40> H -3.8286446225 -1.2693628268 1.6085896275
| 41> H -2.5958509836 1.8560962999 -1.0084593522
| 42> H -4.1126981009 1.1734716008 -1.6747760434
| 43> H -2.5380644198 0.7762872739 -2.4281187649
| 44> *
| 45>
| 46>                          ****END OF INPUT****

CARTESIAN COORDINATES (ANGSTROEM)
---------------------------------
  C      2.535905   -3.852292   -0.695287
  C      2.673091   -3.454536    0.765729
  O      2.765787   -2.021480    0.891132
  C      1.658381   -1.326096    1.001982
  O      0.545344   -1.815162    1.054742
  C      1.924663    0.160588    1.065147
  C      0.865326    0.916030    0.275333
  H      0.772977    0.501500   -0.739141
  C      1.178204    2.400951    0.155808
  O      2.166520    2.914129    0.623688
  O      0.241299    3.026729   -0.522038
  C      0.395865    4.443499   -0.749509
  C      1.208819    4.703847   -2.007143
  S     -0.795585    0.759892    1.026086
  P     -1.585414   -0.789975   -0.211343
  S     -0.546816   -1.331870   -1.779551
  O     -2.111802   -1.982269    0.672385
  C     -2.896359   -1.771431    1.861526
  O     -3.001413   -0.141532   -0.627211
  C     -3.056485    0.993928   -1.492776
  H      1.618223   -3.441332   -1.113703
  H      3.378392   -3.474881   -1.267908
  H      2.503169   -4.933817   -0.773386
  H      3.602100   -3.828313    1.196072
  H      1.812757   -3.802055    1.344523
  H      2.914965    0.369782    0.660295
  H      1.903920    0.481325    2.109417
  H     -0.623507    4.815696   -0.849630
  H      0.880663    4.883793    0.125805
  H      2.223696    4.333958   -1.880888
  H      0.753460    4.204701   -2.858108
  H      1.244074    5.771763   -2.195040
  H     -2.329122   -1.176516    2.577236
  H     -3.084126   -2.767232    2.254528
  H     -3.828645   -1.269363    1.608590
  H     -2.595851    1.856096   -1.008459
  H     -4.112698    1.173472   -1.674776
  H     -2.538064    0.776287   -2.428119

 Total Charge           Charge          ....    0
 Multiplicity           Mult            ....    1
 Number of Electrons    NEL             ....  174
 Basis Dimension        Dim             ....  316

ORBITAL ENERGIES
----------------

  NO   OCC          E(Eh)            E(eV)
   0   2.0000     -88.035722     -2395.5738
   1   2.0000     -87.980339     -2394.0667
   2   2.0000     -76.420710     -2079.5132
   3   2.0000     -18.810248      -511.8529
   4   2.0000     -18.804626      -511.6999
   5   2.0000     -18.786475      -511.2060
   6   2.0000     -18.780614      -511.0465
   7   2.0000     -18.747996      -510.1589
   8   2.0000     -18.737549      -509.8746
   9   2.0000     -10.019732      -272.6508
  10   2.0000     -10.010441      -272.3979
  11   2.0000      -9.954154      -270.8663
  12   2.0000      -9.945836      -270.6400
  13   2.0000      -9.944722      -270.6096
  14   2.0000      -9.942195      -270.5409
  15   2.0000      -9.935091      -270.3476
  16   2.0000      -9.906179      -269.5608
  17   2.0000      -9.891653      -269.1656
  18   2.0000      -9.878422      -268.8055
  19   2.0000      -7.680064      -208.9852
  20   2.0000      -7.625381      -207.4972
  21   2.0000      -6.417233      -174.6218
  22   2.0000      -5.708045      -155.3238
  23   2.0000      -5.704927      -155.2390
  24   2.0000      -5.696701      -155.0151
  25   2.0000      -5.654430      -153.8649
  26   2.0000      -5.646293      -153.6434
  27   2.0000      -5.645016      -153.6087
  28   2.0000      -4.639941      -126.2592
  29   2.0000      -4.639133      -126.2372
  30   2.0000      -4.637672      -126.1975
  31   2.0000      -1.019639       -27.7458
  32   2.0000      -1.012255       -27.5449
  33   2.0000      -0.979355       -26.6496
  34   2.0000      -0.933427       -25.3998
  35   2.0000      -0.926403       -25.2087
  36   2.0000      -0.915670       -24.9167
  37   2.0000      -0.761074       -20.7099
  38   2.0000      -0.712425       -19.3861
  39   2.0000      -0.705322       -19.1928
  40   2.0000      -0.688675       -18.7398
  41   2.0000      -0.654456       -17.8086
  42   2.0000      -0.628637       -17.1061
  43   2.0000      -0.622985       -16.9523
  44   2.0000      -0.615412       -16.7462
  45   2.0000      -0.595718       -16.2103
  46   2.0000      -0.562750       -15.3132
  47   2.0000      -0.508892       -13.8476
  48   2.0000      -0.504877       -13.7384
  49   2.0000      -0.495153       -13.4738
  50   2.0000      -0.477922       -13.0049
  51   2.0000      -0.468402       -12.7459
  52   2.0000      -0.455706       -12.4004
  53   2.0000      -0.451050       -12.2737
  54   2.0000      -0.433707       -11.8018
  55   2.0000      -0.428056       -11.6480
  56   2.0000      -0.421223       -11.4621
  57   2.0000      -0.417637       -11.3645
  58   2.0000      -0.417143       -11.3511
  59   2.0000      -0.407466       -11.0877
  60   2.0000      -0.400881       -10.9085
  61   2.0000      -0.395921       -10.7736
  62   2.0000      -0.390548       -10.6273
  63   2.0000      -0.381428       -10.3792
  64   2.0000      -0.376359       -10.2412
  65   2.0000      -0.369180       -10.0459
  66   2.0000      -0.365332        -9.9412
  67   2.0000      -0.349398        -9.5076
  68   2.0000      -0.347567        -9.4578
  69   2.0000      -0.338774        -9.2185
  70   2.0000      -0.334412        -9.0998
  71   2.0000      -0.328980        -8.9520
  72   2.0000      -0.321156        -8.7391
  73   2.0000      -0.307781        -8.3751
  74   2.0000      -0.301433        -8.2024
  75   2.0000      -0.295305        -8.0356
  76   2.0000      -0.291477        -7.9315
  77   2.0000      -0.288249        -7.8437
  78   2.0000      -0.268979        -7.3193
  79   2.0000      -0.264687        -7.2025
  80   2.0000      -0.261029        -7.1030
  81   2.0000      -0.256840        -6.9890
  82   2.0000      -0.238283        -6.4840
  83   2.0000      -0.230004        -6.2587
  84   2.0000      -0.206742        -5.6257
  85   2.0000      -0.198735        -5.4078
  86   2.0000      -0.191404        -5.2084
  87   0.0000      -0.045194        -1.2298
  88   0.0000      -0.034919        -0.9502
  89   0.0000      -0.025119        -0.6835
  90   0.0000       0.021215         0.5773
  91   0.0000       0.029845         0.8121

MULLIKEN ATOMIC CHARGES
-----------------------
   0 C :   -0.313908
   1 C :   -0.014359
   2 O :   -0.218138
   3 C :    0.133683
   4 O :   -0.209151
   5 C :   -0.036533
   6 C :   -0.374375
   7 H :    0.155837
   8 C :    0.221167
   9 O :   -0.191285
  10 O :   -0.219936
  11 C :   -0.010472
  12 C :   -0.305125
  13 S :   -0.101038
  14 P :    0.628630
  15 S :   -0.310305
  16 O :   -0.352381
  17 C :   -0.104874
  18 O :   -0.390865
  19 C :   -0.102242
  20 H :    0.144132
  21 H :    0.110380
  22 H :    0.109546
  23 H :    0.102266
  24 H :    0.109615
  25 H :    0.116405
  26 H :    0.124680
  27 H :    0.105780
  28 H :    0.110743
  29 H :    0.127463
  30 H :    0.118681
  31 H :    0.115336
  32 H :    0.123068
  33 H :    0.131702
  34 H :    0.122328
  35 H :    0.112112
  36 H :    0.118869
  37 H :    0.112563
Sum of atomic charges:   -0.0000000

LOEWDIN ATOMIC CHARGES
----------------------
   0 C :   -0.359273
   1 C :   -0.110527
   2 O :   -0.048459
   3 C :    0.038424
   4 O :   -0.174916
   5 C :   -0.247444
   6 C :   -0.274303
   7 H :    0.133946
   8 C :    0.017453
   9 O :   -0.154587
  10 O :   -0.052821
  11 C :   -0.108142
  12 C :   -0.355642
  13 S :    0.097316
  14 P :    0.596312
  15 S :   -0.300994
  16 O :   -0.227131
  17 C :   -0.207313
  18 O :   -0.267869
  19 C :   -0.222965
  20 H :    0.130937
  21 H :    0.123568
  22 H :    0.129613
  23 H :    0.117140
  24 H :    0.120710
  25 H :    0.143510
  26 H :    0.148280
  27 H :    0.118718
  28 H :    0.121289
  29 H :    0.131052
  30 H :    0.127038
  31 H :    0.131893
  32 H :    0.112229
  33 H :    0.126882
  34 H :    0.114628
  35 H :    0.103981
  36 H :    0.118979
  37 H :    0.108488

  Mayer bond orders larger than 0.100000
B(  0-C ,  1-C ) :   1.1768 B(  0-C , 20-H ) :   0.9317 B(  0-C , 21-H ) :   0.9490
B(  0-C , 22-H ) :   0.9425 B(  1-C ,  2-O ) :   0.9062 B(  1-C , 23-H ) :   0.9368
B(  1-C , 24-H ) :   0.9117 B(  2-O ,  3-C ) :   1.2682 B(  3-C ,  4-O ) :   1.9590
B(  3-C ,  5-C ) :   1.0031 B(  5-C ,  6-C ) :   1.0256 B(  5-C , 25-H ) :   0.8929
B(  5-C , 26-H ) :   0.8800 B(  6-C ,  7-H ) :   0.8213 B(  6-C ,  8-C ) :   0.9046
B(  6-C , 13-S ) :   1.0190 B(  7-H , 15-S ) :   0.1269 B(  8-C ,  9-O ) :   2.0581
B(  8-C , 10-O ) :   1.2527 B( 10-O , 11-C ) :   0.9116 B( 11-C , 12-C ) :   1.1774
B( 11-C , 27-H ) :   0.9358 B( 11-C , 28-H ) :   0.9139 B( 12-C , 29-H ) :   0.9460
B( 12-C , 30-H ) :   0.9480 B( 12-C , 31-H ) :   0.9438 B( 13-S , 14-P ) :   0.9349
B( 13-S , 15-S ) :   0.1146 B( 14-P , 15-S ) :   1.5938 B( 14-P , 16-O ) :   1.1445
B( 14-P , 18-O ) :   1.0522 B( 16-O , 17-C ) :   0.9207 B( 17-C , 32-H ) :   0.9407
B( 17-C , 33-H ) :   0.9600 B( 17-C , 34-H ) :   0.9460 B( 18-O , 19-C ) :   0.9413
B( 19-C , 35-H ) :   0.9377 B( 19-C , 36-H ) :   0.9583 B( 19-C , 37-H ) :   0.9377

Dispersion correction           -0.051360757
FINAL SINGLE POINT ENERGY     -1979.017760671412

DIPOLE MOMENT
-------------

Method             : SCF
Type of density    : Electron Density
Multiplicity       :   1
Irrep              :   0
Energy             : -1979.1483434279152789 Eh
Relativity type    :
Basis              : AO
                                X                 Y                 Z
Electronic contribution:     -5.984058715      -4.313927297       4.712499011
Nuclear contribution   :      5.682786223       4.920303782      -4.367303417
                        -----------------------------------------
Total Dipole Moment    :     -0.301272491       0.606376485       0.345195594
                        -----------------------------------------
Magnitude (a.u.)       :      0.760011549
Magnitude (Debye)      :      1.931795835

Rotational constants in cm-1:             0.011158             0.007866             0.005732
Rotational constants in MHz :           334.510932           235.818296           171.851419

                             ****ORCA TERMINATED NORMALLY****
TOTAL RUN TIME: 0 days 0 hours 0 minutes 39 seconds 18 msec
