                         Program Version 6.0.0  -   RELEASE  -
|  1> ! r2scan-3c def2/J RI DEFGRID2 scfconv6 printgap
|  2> %output
|  3>     printlevel normal
|  4> end
|  5> * xyz 0 1
|  6> C 5.4475275198 -0.1832334549 -0.8483060172
|  7> C 4.4498531272 -0.9288912102 0.0166713699
|  8> O 3.4390330004 -0.0327302862 0.519203982
|  9> P 2.0192563275 0.1222368019 -0.1828668836
| 10> S 2.0447388997 0.4635796673 -2.1165031682
| 11> O 1.3540883503 1.2098261808 0.752287228
| 12> C 1.4405557565 2.6204086385 0.4732647576
| 13> C 2.8610163282 3.1294972339 0.5830196735
| 14> S 1.0727157005 -1.6522816946 0.4332465238
| 15> C -0.1598835917 -1.8902777377 -0.8963287991
| 16> S -1.8518306453 -1.9434955241 -0.2725737431
| 17> P -2.0572352757 0.1208283472 0.1917633995
| 18> S -1.3493128193 1.3687978792 -1.1418160842
| 19> O -1.3858565853 0.3415798438 1.6005098198
| 20> C -1.4329341304 -0.5526544471 2.7411710324
| 21> C -2.8428269283 -0.9097571268 3.1563270563
| 22> O -3.6038757111 0.3034895072 0.5002008297
| 23> C -4.573641953 0.5955062037 -0.5204114115
| 24> C -4.7645696027 -0.5592838917 -1.4824182991
| 25> H 5.8916877584 0.6340621989 -0.2870350792
| 26> H 6.2275860882 -0.8676726705 -1.1653216737
| 27> H 4.9517704112 0.220786797 -1.7284991266
| 28> H 4.9243813014 -1.3398568402 0.9095642865
| 29> H 3.971614411 -1.7356560383 -0.5463357043
| 30> H 1.0338041159 2.8011945885 -0.5277074406
| 31> H 0.7806775972 3.071257622 1.2162315277
| 32> H 2.8658690301 4.2080476386 0.4603798641
| 33> H 3.2786764756 2.8688114894 1.5520119065
| 34> H 3.4726775284 2.6804478916 -0.1988044531
| 35> H 0.026057966 -2.8572317067 -1.3561789334
| 36> H -0.0493120578 -1.0792500037 -1.6220212864
| 37> H -0.8572478379 -1.4501106519 2.4961876782
| 38> H -0.9121018456 0.0130614713 3.5152554603
| 39> H -3.3243883244 -1.5062397944 2.3844387603
| 40> H -2.8013202187 -1.4868553623 4.0750313057
| 41> H -3.4276250289 -0.0088401768 3.3221839254
| 42> H -5.4843296303 0.8057270226 0.0422047835
| 43> H -4.25201907 1.4937703021 -1.056954797
| 44> H -5.5999517354 -0.3414381268 -2.1401044092
| 45> H -3.8687998048 -0.6945720328 -2.0863596369
| 46> H -4.9633548939 -1.4785592846 -0.9376434272
| 47> *
| 48>
| 49>                          ****END OF INPUT****

CARTESIAN COORDINATES (ANGSTROEM)
---------------------------------
  C      5.447528   -0.183233   -0.848306
  C      4.449853   -0.928891    0.016671
  O      3.439033   -0.032730    0.519204
  P      2.019256    0.122237   -0.182867
  S      2.044739    0.463580   -2.116503
  O      1.354088    1.209826    0.752287
  C      1.440556    2.620409    0.473265
  C      2.861016    3.129497    0.583020
  S      1.072716   -1.652282    0.433247
  C     -0.159884   -1.890278   -0.896329
  S     -1.851831   -1.943496   -0.272574
  P     -2.057235    0.120828    0.191763
  S     -1.349313    1.368798   -1.141816
  O     -1.385857    0.341580    1.600510
  C     -1.432934   -0.552654    2.741171
  C     -2.842827   -0.909757    3.156327
  O     -3.603876    0.303490    0.500201
  C     -4.573642    0.595506   -0.520411
  C     -4.764570   -0.559284   -1.482418
  H      5.891688    0.634062   -0.287035
  H      6.227586   -0.867673   -1.165322
  H      4.951770    0.220787   -1.728499
  H      4.924381   -1.339857    0.909564
  H      3.971614   -1.735656   -0.546336
  H      1.033804    2.801195   -0.527707
  H      0.780678    3.071258    1.216232
  H      2.865869    4.208048    0.460380
  H      3.278676    2.868811    1.552012
  H      3.472678    2.680448   -0.198804
  H      0.026058   -2.857232   -1.356179
  H     -0.049312   -1.079250   -1.622021
  H     -0.857248   -1.450111    2.496188
  H     -0.912102    0.013061    3.515255
  H     -3.324388   -1.506240    2.384439
  H     -2.801320   -1.486855    4.075031
  H     -3.427625   -0.008840    3.322184
  H     -5.484330    0.805727    0.042205
  H     -4.252019    1.493770   -1.056955
  H     -5.599952   -0.341438   -2.140104
  H     -3.868800   -0.694572   -2.086360
  H     -4.963355   -1.478559   -0.937643

 Total Charge           Charge          ....    0
 Multiplicity           Mult            ....    1
 Number of Electrons    NEL             ....  202
 Basis Dimension        Dim             ....  539

ORBITAL ENERGIES
----------------

  NO   OCC          E(Eh)            E(eV)
   0   2.0000     -88.577319     -2410.3114
   1   2.0000     -88.573533     -2410.2084
   2   2.0000     -88.513932     -2408.5865
   3   2.0000     -88.511870     -2408.5304
   4   2.0000     -76.911634     -2092.8720
   5   2.0000     -76.908763     -2092.7938
   6   2.0000     -18.991508      -516.7852
   7   2.0000     -18.986878      -516.6592
   8   2.0000     -18.986398      -516.6462
   9   2.0000     -18.979744      -516.4651
  10   2.0000     -10.106225      -275.0044
  11   2.0000     -10.097833      -274.7760
  12   2.0000     -10.097783      -274.7746
  13   2.0000     -10.096306      -274.7345
  14   2.0000     -10.084888      -274.4237
  15   2.0000     -10.030427      -272.9418
  16   2.0000     -10.028276      -272.8833
  17   2.0000     -10.023109      -272.7427
  18   2.0000     -10.019989      -272.6577
  19   2.0000      -7.871857      -214.2041
  20   2.0000      -7.868168      -214.1037
  21   2.0000      -7.808689      -212.4852
  22   2.0000      -7.806796      -212.4337
  23   2.0000      -6.589895      -179.3202
  24   2.0000      -6.587083      -179.2436
  25   2.0000      -5.818733      -158.3358
  26   2.0000      -5.815498      -158.2477
  27   2.0000      -5.814952      -158.2329
  28   2.0000      -5.811937      -158.1508
  29   2.0000      -5.809141      -158.0748
  30   2.0000      -5.805390      -157.9727
  31   2.0000      -5.756341      -156.6380
  32   2.0000      -5.754576      -156.5900
  33   2.0000      -5.749144      -156.4422
  34   2.0000      -5.748524      -156.4253
  35   2.0000      -5.747012      -156.3842
  36   2.0000      -5.746704      -156.3758
  37   2.0000      -4.735646      -128.8635
  38   2.0000      -4.734972      -128.8451
  39   2.0000      -4.733281      -128.7991
  40   2.0000      -4.732470      -128.7771
  41   2.0000      -4.731956      -128.7631
  42   2.0000      -4.730998      -128.7370
  43   2.0000      -1.047650       -28.5080
  44   2.0000      -1.043021       -28.3820
  45   2.0000      -1.008182       -27.4340
  46   2.0000      -1.002561       -27.2811
  47   2.0000      -0.799373       -21.7520
  48   2.0000      -0.755256       -20.5516
  49   2.0000      -0.746173       -20.3044
  50   2.0000      -0.733538       -19.9606
  51   2.0000      -0.724405       -19.7121
  52   2.0000      -0.710015       -19.3205
  53   2.0000      -0.683986       -18.6122
  54   2.0000      -0.662629       -18.0311
  55   2.0000      -0.628932       -17.1141
  56   2.0000      -0.620896       -16.8954
  57   2.0000      -0.608227       -16.5507
  58   2.0000      -0.597708       -16.2645
  59   2.0000      -0.590480       -16.0678
  60   2.0000      -0.522143       -14.2082
  61   2.0000      -0.513408       -13.9705
  62   2.0000      -0.489042       -13.3075
  63   2.0000      -0.486100       -13.2274
  64   2.0000      -0.466226       -12.6866
  65   2.0000      -0.462856       -12.5949
  66   2.0000      -0.457581       -12.4514
  67   2.0000      -0.452195       -12.3049
  68   2.0000      -0.446626       -12.1533
  69   2.0000      -0.430853       -11.7241
  70   2.0000      -0.424210       -11.5433
  71   2.0000      -0.414168       -11.2701
  72   2.0000      -0.410876       -11.1805
  73   2.0000      -0.398724       -10.8498
  74   2.0000      -0.394220       -10.7273
  75   2.0000      -0.384885       -10.4732
  76   2.0000      -0.381161       -10.3719
  77   2.0000      -0.374865       -10.2006
  78   2.0000      -0.366279        -9.9670
  79   2.0000      -0.364612        -9.9216
  80   2.0000      -0.360598        -9.8124
  81   2.0000      -0.355972        -9.6865
  82   2.0000      -0.349550        -9.5117
  83   2.0000      -0.348073        -9.4716
  84   2.0000      -0.343202        -9.3390
  85   2.0000      -0.326342        -8.8802
  86   2.0000      -0.322230        -8.7683
  87   2.0000      -0.308688        -8.3998
  88   2.0000      -0.305799        -8.3212
  89   2.0000      -0.304990        -8.2992
  90   2.0000      -0.292086        -7.9481
  91   2.0000      -0.285564        -7.7706
  92   2.0000      -0.277786        -7.5589
  93   2.0000      -0.275531        -7.4976
  94   2.0000      -0.272091        -7.4040
  95   2.0000      -0.249485        -6.7888
  96   2.0000      -0.233586        -6.3562
  97   2.0000      -0.224971        -6.1218
  98   2.0000      -0.214371        -5.8333
  99   2.0000      -0.205745        -5.5986
 100   2.0000      -0.196938        -5.3589
 101   0.0000      -0.041604        -1.1321
 102   0.0000      -0.030162        -0.8208
 103   0.0000      -0.008676        -0.2361
 104   0.0000       0.016509         0.4492
 105   0.0000       0.020204         0.5498

MULLIKEN ATOMIC CHARGES
-----------------------
   0 C :   -0.462523
   1 C :   -0.127527
   2 O :   -0.288891
   3 P :    0.637872
   4 S :   -0.455097
   5 O :   -0.264835
   6 C :   -0.145676
   7 C :   -0.453959
   8 S :   -0.150933
   9 C :   -0.215502
  10 S :   -0.155024
  11 P :    0.651009
  12 S :   -0.429016
  13 O :   -0.256079
  14 C :   -0.138012
  15 C :   -0.440805
  16 O :   -0.281101
  17 C :   -0.166895
  18 C :   -0.456610
  19 H :    0.151057
  20 H :    0.143876
  21 H :    0.183859
  22 H :    0.148904
  23 H :    0.153141
  24 H :    0.180771
  25 H :    0.155536
  26 H :    0.146176
  27 H :    0.155740
  28 H :    0.167184
  29 H :    0.196638
  30 H :    0.219521
  31 H :    0.167017
  32 H :    0.153793
  33 H :    0.158763
  34 H :    0.148934
  35 H :    0.160671
  36 H :    0.147671
  37 H :    0.176656
  38 H :    0.148579
  39 H :    0.182416
  40 H :    0.152696
Sum of atomic charges:    0.0000000

LOEWDIN ATOMIC CHARGES
----------------------
   0 C :   -0.402635
   1 C :    0.018385
   2 O :   -0.667180
   3 P :    0.368005
   4 S :   -0.124700
   5 O :   -0.662290
   6 C :    0.012963
   7 C :   -0.401363
   8 S :    0.159310
   9 C :   -0.412828
  10 S :    0.131244
  11 P :    0.383386
  12 S :   -0.075907
  13 O :   -0.651710
  14 C :    0.018942
  15 C :   -0.400469
  16 O :   -0.670890
  17 C :    0.020643
  18 C :   -0.408700
  19 H :    0.157349
  20 H :    0.157604
  21 H :    0.168958
  22 H :    0.177384
  23 H :    0.176150
  24 H :    0.184427
  25 H :    0.183075
  26 H :    0.158786
  27 H :    0.160246
  28 H :    0.164783
  29 H :    0.180520
  30 H :    0.203165
  31 H :    0.177951
  32 H :    0.183573
  33 H :    0.163136
  34 H :    0.159374
  35 H :    0.163660
  36 H :    0.179070
  37 H :    0.181483
  38 H :    0.159685
  39 H :    0.166941
  40 H :    0.158477

  Mayer bond orders larger than 0.100000
B(  0-C ,  1-C ) :   0.9497 B(  0-C , 19-H ) :   0.9742 B(  0-C , 20-H ) :   0.9646
B(  0-C , 21-H ) :   0.9592 B(  1-C ,  2-O ) :   0.7836 B(  1-C , 22-H ) :   0.9644
B(  1-C , 23-H ) :   0.9651 B(  2-O ,  3-P ) :   1.0491 B(  3-P ,  4-S ) :   1.7690
B(  3-P ,  5-O ) :   1.1845 B(  3-P ,  8-S ) :   1.1224 B(  5-O ,  6-C ) :   0.8020
B(  6-C ,  7-C ) :   0.9101 B(  6-C , 24-H ) :   0.9629 B(  6-C , 25-H ) :   0.9619
B(  7-C , 26-H ) :   0.9615 B(  7-C , 27-H ) :   0.9727 B(  7-C , 28-H ) :   0.9607
B(  8-S ,  9-C ) :   0.8880 B(  9-C , 10-S ) :   0.9091 B(  9-C , 29-H ) :   0.9125
B(  9-C , 30-H ) :   0.9050 B( 10-S , 11-P ) :   1.0097 B( 11-P , 12-S ) :   1.8159
B( 11-P , 13-O ) :   1.1485 B( 11-P , 16-O ) :   1.0508 B( 13-O , 14-C ) :   0.8108
B( 14-C , 15-C ) :   0.9163 B( 14-C , 31-H ) :   0.9604 B( 14-C , 32-H ) :   0.9588
B( 15-C , 33-H ) :   0.9624 B( 15-C , 34-H ) :   0.9584 B( 15-C , 35-H ) :   0.9706
B( 16-O , 17-C ) :   0.8141 B( 17-C , 18-C ) :   0.9101 B( 17-C , 36-H ) :   0.9617
B( 17-C , 37-H ) :   0.9668 B( 18-C , 38-H ) :   0.9578 B( 18-C , 39-H ) :   0.9628
B( 18-C , 40-H ) :   0.9694

Dispersion correction           -0.022352068
FINAL SINGLE POINT ENERGY     -2932.458177419424

DIPOLE MOMENT
-------------

Method             : SCF
Type of density    : Electron Density
Multiplicity       :   1
Irrep              :   0
Energy             : -2932.4824286070183916 Eh
Relativity type    :
Basis              : AO
                                X                 Y                 Z
Electronic contribution:     -2.119181738      -4.196265381      -4.955582891
Nuclear contribution   :      1.801291166       3.567460421       6.061399157
                        -----------------------------------------
Total Dipole Moment    :     -0.317890572      -0.628804960       1.105816267
                        -----------------------------------------
Magnitude (a.u.)       :      1.311213068
Magnitude (Debye)      :      3.332838754

Rotational constants in cm-1:             0.013824             0.005040             0.004918
Rotational constants in MHz :           414.420356           151.087808           147.446305

                             ****ORCA TERMINATED NORMALLY****
TOTAL RUN TIME: 0 days 0 hours 1 minutes 21 seconds 449 msec
