                         Program Version 6.0.0  -   RELEASE  -
|  1> ! r2scan-3c def2/J RI DEFGRID2 scfconv6 printgap
|  2> %output
|  3>     printlevel normal
|  4> end
|  5> %cpcm
|  6>     smd true
|  7>     smdsolvent "water"
|  8> end
|  9> * xyz 0 1
| 10> C 5.4475275198 -0.1832334549 -0.8483060172
| 11> C 4.4498531272 -0.9288912102 0.0166713699
| 12> O 3.4390330004 -0.0327302862 0.519203982
| 13> P 2.0192563275 0.1222368019 -0.1828668836
| 14> S 2.0447388997 0.4635796673 -2.1165031682
| 15> O 1.3540883503 1.2098261808 0.752287228
| 16> C 1.4405557565 2.6204086385 0.4732647576
| 17> C 2.8610163282 3.1294972339 0.5830196735
| 18> S 1.0727157005 -1.6522816946 0.4332465238
| 19> C -0.1598835917 -1.8902777377 -0.8963287991
| 20> S -1.8518306453 -1.9434955241 -0.2725737431
| 21> P -2.0572352757 0.1208283472 0.1917633995
| 22> S -1.3493128193 1.3687978792 -1.1418160842
| 23> O -1.3858565853 0.3415798438 1.6005098198
| 24> C -1.4329341304 -0.5526544471 2.7411710324
| 25> C -2.8428269283 -0.9097571268 3.1563270563
| 26> O -3.6038757111 0.3034895072 0.5002008297
| 27> C -4.573641953 0.5955062037 -0.5204114115
| 28> C -4.7645696027 -0.5592838917 -1.4824182991
| 29> H 5.8916877584 0.6340621989 -0.2870350792
| 30> H 6.2275860882 -0.8676726705 -1.1653216737
| 31> H 4.9517704112 0.220786797 -1.7284991266
| 32> H 4.9243813014 -1.3398568402 0.9095642865
| 33> H 3.971614411 -1.7356560383 -0.5463357043
| 34> H 1.0338041159 2.8011945885 -0.5277074406
| 35> H 0.7806775972 3.071257622 1.2162315277
| 36> H 2.8658690301 4.2080476386 0.4603798641
| 37> H 3.2786764756 2.8688114894 1.5520119065
| 38> H 3.4726775284 2.6804478916 -0.1988044531
| 39> H 0.026057966 -2.8572317067 -1.3561789334
| 40> H -0.0493120578 -1.0792500037 -1.6220212864
| 41> H -0.8572478379 -1.4501106519 2.4961876782
| 42> H -0.9121018456 0.0130614713 3.5152554603
| 43> H -3.3243883244 -1.5062397944 2.3844387603
| 44> H -2.8013202187 -1.4868553623 4.0750313057
| 45> H -3.4276250289 -0.0088401768 3.3221839254
| 46> H -5.4843296303 0.8057270226 0.0422047835
| 47> H -4.25201907 1.4937703021 -1.056954797
| 48> H -5.5999517354 -0.3414381268 -2.1401044092
| 49> H -3.8687998048 -0.6945720328 -2.0863596369
| 50> H -4.9633548939 -1.4785592846 -0.9376434272
| 51> *
| 52>
| 53>                          ****END OF INPUT****

CARTESIAN COORDINATES (ANGSTROEM)
---------------------------------
  C      5.447528   -0.183233   -0.848306
  C      4.449853   -0.928891    0.016671
  O      3.439033   -0.032730    0.519204
  P      2.019256    0.122237   -0.182867
  S      2.044739    0.463580   -2.116503
  O      1.354088    1.209826    0.752287
  C      1.440556    2.620409    0.473265
  C      2.861016    3.129497    0.583020
  S      1.072716   -1.652282    0.433247
  C     -0.159884   -1.890278   -0.896329
  S     -1.851831   -1.943496   -0.272574
  P     -2.057235    0.120828    0.191763
  S     -1.349313    1.368798   -1.141816
  O     -1.385857    0.341580    1.600510
  C     -1.432934   -0.552654    2.741171
  C     -2.842827   -0.909757    3.156327
  O     -3.603876    0.303490    0.500201
  C     -4.573642    0.595506   -0.520411
  C     -4.764570   -0.559284   -1.482418
  H      5.891688    0.634062   -0.287035
  H      6.227586   -0.867673   -1.165322
  H      4.951770    0.220787   -1.728499
  H      4.924381   -1.339857    0.909564
  H      3.971614   -1.735656   -0.546336
  H      1.033804    2.801195   -0.527707
  H      0.780678    3.071258    1.216232
  H      2.865869    4.208048    0.460380
  H      3.278676    2.868811    1.552012
  H      3.472678    2.680448   -0.198804
  H      0.026058   -2.857232   -1.356179
  H     -0.049312   -1.079250   -1.622021
  H     -0.857248   -1.450111    2.496188
  H     -0.912102    0.013061    3.515255
  H     -3.324388   -1.506240    2.384439
  H     -2.801320   -1.486855    4.075031
  H     -3.427625   -0.008840    3.322184
  H     -5.484330    0.805727    0.042205
  H     -4.252019    1.493770   -1.056955
  H     -5.599952   -0.341438   -2.140104
  H     -3.868800   -0.694572   -2.086360
  H     -4.963355   -1.478559   -0.937643

 Total Charge           Charge          ....    0
 Multiplicity           Mult            ....    1
 Number of Electrons    NEL             ....  202
 Basis Dimension        Dim             ....  539

ORBITAL ENERGIES
----------------

  NO   OCC          E(Eh)            E(eV)
   0   2.0000     -88.580204     -2410.3899
   1   2.0000     -88.578470     -2410.3427
   2   2.0000     -88.524954     -2408.8865
   3   2.0000     -88.522123     -2408.8094
   4   2.0000     -76.918361     -2093.0550
   5   2.0000     -76.917971     -2093.0444
   6   2.0000     -18.994129      -516.8565
   7   2.0000     -18.993266      -516.8330
   8   2.0000     -18.992482      -516.8117
   9   2.0000     -18.990367      -516.7542
  10   2.0000     -10.105538      -274.9857
  11   2.0000     -10.091181      -274.5950
  12   2.0000     -10.089874      -274.5594
  13   2.0000     -10.089493      -274.5491
  14   2.0000     -10.086729      -274.4739
  15   2.0000     -10.019607      -272.6474
  16   2.0000     -10.018374      -272.6138
  17   2.0000     -10.017621      -272.5933
  18   2.0000     -10.016233      -272.5556
  19   2.0000      -7.874634      -214.2797
  20   2.0000      -7.873048      -214.2365
  21   2.0000      -7.820024      -212.7937
  22   2.0000      -7.817378      -212.7217
  23   2.0000      -6.596698      -179.5053
  24   2.0000      -6.596345      -179.4957
  25   2.0000      -5.821545      -158.4123
  26   2.0000      -5.819840      -158.3659
  27   2.0000      -5.818298      -158.3239
  28   2.0000      -5.816823      -158.2838
  29   2.0000      -5.811877      -158.1492
  30   2.0000      -5.810272      -158.1055
  31   2.0000      -5.767613      -156.9447
  32   2.0000      -5.765054      -156.8751
  33   2.0000      -5.760473      -156.7504
  34   2.0000      -5.759868      -156.7340
  35   2.0000      -5.757674      -156.6743
  36   2.0000      -5.757246      -156.6626
  37   2.0000      -4.742423      -129.0479
  38   2.0000      -4.741721      -129.0288
  39   2.0000      -4.741701      -129.0282
  40   2.0000      -4.741225      -129.0153
  41   2.0000      -4.740308      -128.9903
  42   2.0000      -4.740189      -128.9871
  43   2.0000      -1.052056       -28.6279
  44   2.0000      -1.050720       -28.5915
  45   2.0000      -1.012226       -27.5441
  46   2.0000      -1.010139       -27.4873
  47   2.0000      -0.801590       -21.8124
  48   2.0000      -0.755369       -20.5546
  49   2.0000      -0.744371       -20.2554
  50   2.0000      -0.726035       -19.7564
  51   2.0000      -0.722049       -19.6480
  52   2.0000      -0.711361       -19.3571
  53   2.0000      -0.689351       -18.7582
  54   2.0000      -0.669901       -18.2289
  55   2.0000      -0.631199       -17.1758
  56   2.0000      -0.621854       -16.9215
  57   2.0000      -0.604220       -16.4417
  58   2.0000      -0.595476       -16.2037
  59   2.0000      -0.590782       -16.0760
  60   2.0000      -0.522827       -14.2269
  61   2.0000      -0.511683       -13.9236
  62   2.0000      -0.490476       -13.3465
  63   2.0000      -0.486375       -13.2349
  64   2.0000      -0.468714       -12.7544
  65   2.0000      -0.463712       -12.6182
  66   2.0000      -0.456065       -12.4102
  67   2.0000      -0.452144       -12.3035
  68   2.0000      -0.443696       -12.0736
  69   2.0000      -0.429943       -11.6994
  70   2.0000      -0.423221       -11.5164
  71   2.0000      -0.414623       -11.2825
  72   2.0000      -0.409000       -11.1295
  73   2.0000      -0.400895       -10.9089
  74   2.0000      -0.392499       -10.6804
  75   2.0000      -0.386157       -10.5079
  76   2.0000      -0.380986       -10.3672
  77   2.0000      -0.372132       -10.1262
  78   2.0000      -0.364153        -9.9091
  79   2.0000      -0.359101        -9.7716
  80   2.0000      -0.353122        -9.6089
  81   2.0000      -0.352170        -9.5830
  82   2.0000      -0.351020        -9.5517
  83   2.0000      -0.343952        -9.3594
  84   2.0000      -0.342763        -9.3271
  85   2.0000      -0.326391        -8.8815
  86   2.0000      -0.321673        -8.7532
  87   2.0000      -0.307994        -8.3809
  88   2.0000      -0.304805        -8.2942
  89   2.0000      -0.302487        -8.2311
  90   2.0000      -0.296939        -8.0801
  91   2.0000      -0.288401        -7.8478
  92   2.0000      -0.283873        -7.7246
  93   2.0000      -0.277495        -7.5510
  94   2.0000      -0.275830        -7.5057
  95   2.0000      -0.253428        -6.8961
  96   2.0000      -0.240844        -6.5537
  97   2.0000      -0.235419        -6.4061
  98   2.0000      -0.225317        -6.1312
  99   2.0000      -0.215213        -5.8563
 100   2.0000      -0.208251        -5.6668
 101   0.0000      -0.046077        -1.2538
 102   0.0000      -0.036616        -0.9964
 103   0.0000      -0.012600        -0.3429
 104   0.0000       0.010394         0.2828
 105   0.0000       0.014290         0.3889

MULLIKEN ATOMIC CHARGES
-----------------------
   0 C :   -0.496382
   1 C :   -0.126292
   2 O :   -0.316401
   3 P :    0.669419
   4 S :   -0.507879
   5 O :   -0.295973
   6 C :   -0.144135
   7 C :   -0.496433
   8 S :   -0.148417
   9 C :   -0.215777
  10 S :   -0.148624
  11 P :    0.665426
  12 S :   -0.479844
  13 O :   -0.294385
  14 C :   -0.131136
  15 C :   -0.481860
  16 O :   -0.302351
  17 C :   -0.160894
  18 C :   -0.491896
  19 H :    0.166268
  20 H :    0.169125
  21 H :    0.172733
  22 H :    0.175754
  23 H :    0.164594
  24 H :    0.180135
  25 H :    0.177644
  26 H :    0.171644
  27 H :    0.170920
  28 H :    0.168706
  29 H :    0.238372
  30 H :    0.212525
  31 H :    0.174081
  32 H :    0.178497
  33 H :    0.165002
  34 H :    0.175140
  35 H :    0.171253
  36 H :    0.175186
  37 H :    0.178365
  38 H :    0.172852
  39 H :    0.174910
  40 H :    0.170128
Sum of atomic charges:    0.0000000

LOEWDIN ATOMIC CHARGES
----------------------
   0 C :   -0.406006
   1 C :    0.023822
   2 O :   -0.680634
   3 P :    0.371563
   4 S :   -0.157315
   5 O :   -0.683078
   6 C :    0.013506
   7 C :   -0.403362
   8 S :    0.164025
   9 C :   -0.406847
  10 S :    0.143308
  11 P :    0.384721
  12 S :   -0.112942
  13 O :   -0.675801
  14 C :    0.023901
  15 C :   -0.401599
  16 O :   -0.679468
  17 C :    0.025597
  18 C :   -0.411200
  19 H :    0.161859
  20 H :    0.167045
  21 H :    0.162793
  22 H :    0.188919
  23 H :    0.180152
  24 H :    0.183341
  25 H :    0.190739
  26 H :    0.168517
  27 H :    0.164330
  28 H :    0.163216
  29 H :    0.197217
  30 H :    0.200178
  31 H :    0.181134
  32 H :    0.193374
  33 H :    0.163436
  34 H :    0.169782
  35 H :    0.165640
  36 H :    0.190796
  37 H :    0.181501
  38 H :    0.168486
  39 H :    0.161842
  40 H :    0.163511

  Mayer bond orders larger than 0.100000
B(  0-C ,  1-C ) :   0.9413 B(  0-C , 19-H ) :   0.9709 B(  0-C , 20-H ) :   0.9594
B(  0-C , 21-H ) :   0.9634 B(  1-C ,  2-O ) :   0.7695 B(  1-C , 22-H ) :   0.9538
B(  1-C , 23-H ) :   0.9584 B(  2-O ,  3-P ) :   1.0564 B(  3-P ,  4-S ) :   1.7186
B(  3-P ,  5-O ) :   1.1796 B(  3-P ,  8-S ) :   1.1481 B(  5-O ,  6-C ) :   0.7869
B(  6-C ,  7-C ) :   0.9070 B(  6-C , 24-H ) :   0.9591 B(  6-C , 25-H ) :   0.9502
B(  7-C , 26-H ) :   0.9547 B(  7-C , 27-H ) :   0.9709 B(  7-C , 28-H ) :   0.9601
B(  8-S ,  9-C ) :   0.8822 B(  9-C , 10-S ) :   0.9030 B(  9-C , 29-H ) :   0.8962
B(  9-C , 30-H ) :   0.9094 B( 10-S , 11-P ) :   1.0302 B( 11-P , 12-S ) :   1.7935
B( 11-P , 13-O ) :   1.1443 B( 11-P , 16-O ) :   1.0595 B( 13-O , 14-C ) :   0.7992
B( 14-C , 15-C ) :   0.9106 B( 14-C , 31-H ) :   0.9525 B( 14-C , 32-H ) :   0.9471
B( 15-C , 33-H ) :   0.9597 B( 15-C , 34-H ) :   0.9514 B( 15-C , 35-H ) :   0.9700
B( 16-O , 17-C ) :   0.8032 B( 17-C , 18-C ) :   0.8997 B( 17-C , 36-H ) :   0.9513
B( 17-C , 37-H ) :   0.9650 B( 18-C , 38-H ) :   0.9525 B( 18-C , 39-H ) :   0.9646
B( 18-C , 40-H ) :   0.9661

Dispersion correction           -0.022352068
FINAL SINGLE POINT ENERGY     -2932.467247582159

DIPOLE MOMENT
-------------

Method             : SCF
Type of density    : Electron Density
Multiplicity       :   1
Irrep              :   0
Energy             : -2932.4914987697534343 Eh
Relativity type    :
Basis              : AO
                                X                 Y                 Z
Electronic contribution:     -2.236447906      -4.731958283      -4.582096810
Nuclear contribution   :      1.801291166       3.567460421       6.061399157
                        -----------------------------------------
Total Dipole Moment    :     -0.435156741      -1.164497863       1.479302347
                        -----------------------------------------
Magnitude (a.u.)       :      1.932291928
Magnitude (Debye)      :      4.911495759

Rotational constants in cm-1:             0.013824             0.005040             0.004918
Rotational constants in MHz :           414.420356           151.087808           147.446305

                             ****ORCA TERMINATED NORMALLY****
TOTAL RUN TIME: 0 days 0 hours 1 minutes 50 seconds 631 msec
