                         Program Version 6.0.0  -   RELEASE  -
|  1> ! pbe def2-sv(p) def2/J RI DEFGRID1 loosescf d4 GCP(DFT/SV(P)) printgap
|  2> %output
|  3>     printlevel normal
|  4> end
|  5> * xyz 0 1
|  6> C 3.4040740635 2.25709698 -1.5187836571
|  7> C 4.1813489021 1.6624802093 -0.3622785558
|  8> O 3.7899444254 0.3046383617 -0.102049925
|  9> P 2.3449795078 -0.0660722965 0.4470394354
| 10> S 1.6957918213 1.1708845697 1.8328341089
| 11> O 2.5182079672 -1.577291793 0.8845847267
| 12> C 2.8584961569 -1.9432052839 2.2382494463
| 13> C 4.2787460292 -1.5489146557 2.5838712286
| 14> S 1.2102070674 -0.3557567626 -1.3188206475
| 15> C 0.000909606 -1.5691224985 -0.7150286592
| 16> S -0.9669228228 -0.9996701504 0.7064993672
| 17> P -2.5294394703 0.0352118441 -0.3248491498
| 18> S -2.7516417872 -0.5122600461 -2.1982763905
| 19> O -2.3750796077 1.5705313324 0.0094783122
| 20> C -1.2360958606 2.3976360827 -0.2769894564
| 21> C -1.0144044901 2.5939829939 -1.7637336039
| 22> O -3.7852715297 -0.184906002 0.6078721543
| 23> C -4.5997430737 -1.3709022373 0.4994963413
| 24> C -5.8767033886 -1.0621930188 -0.2574996787
| 25> H 3.4986327987 1.6301304713 -2.4016542628
| 26> H 2.3488617974 2.3272010009 -1.2536803949
| 27> H 3.7807142767 3.2510757467 -1.7372444639
| 28> H 4.0232506971 2.2492291927 0.5487815448
| 29> H 5.2474721703 1.5935210669 -0.5813479452
| 30> H 2.1449692389 -1.4641051329 2.9166284499
| 31> H 2.7206872595 -3.025008673 2.2600937775
| 32> H 4.3694591873 -0.4634344896 2.5922855477
| 33> H 4.5294854061 -1.9314650977 3.5682851752
| 34> H 4.9699362976 -1.9534720062 1.8492284953
| 35> H 0.5187622988 -2.4734031057 -0.4091198956
| 36> H -0.6728264965 -1.7555847982 -1.5552176393
| 37> H -1.4782600941 3.3414124473 0.2155834654
| 38> H -0.3518877013 1.966704284 0.2048197023
| 39> H -0.7008772407 1.6638642818 -2.2350062049
| 40> H -1.9342267503 2.9311862269 -2.2351090014
| 41> H -0.241227554 3.3411939391 -1.912963215
| 42> H -4.0333720734 -2.1610387895 -0.0031215371
| 43> H -4.8068276609 -1.6684381988 1.5290209952
| 44> H -6.5114184964 -1.9423706054 -0.2652915767
| 45> H -6.4021355331 -0.240226518 0.220052453
| 46> H -5.6435929151 -0.7820293411 -1.2825384475
| 47> *
| 48>
| 49>                          ****END OF INPUT****

CARTESIAN COORDINATES (ANGSTROEM)
---------------------------------
  C      3.404074    2.257097   -1.518784
  C      4.181349    1.662480   -0.362279
  O      3.789944    0.304638   -0.102050
  P      2.344980   -0.066072    0.447039
  S      1.695792    1.170885    1.832834
  O      2.518208   -1.577292    0.884585
  C      2.858496   -1.943205    2.238249
  C      4.278746   -1.548915    2.583871
  S      1.210207   -0.355757   -1.318821
  C      0.000910   -1.569122   -0.715029
  S     -0.966923   -0.999670    0.706499
  P     -2.529439    0.035212   -0.324849
  S     -2.751642   -0.512260   -2.198276
  O     -2.375080    1.570531    0.009478
  C     -1.236096    2.397636   -0.276989
  C     -1.014404    2.593983   -1.763734
  O     -3.785272   -0.184906    0.607872
  C     -4.599743   -1.370902    0.499496
  C     -5.876703   -1.062193   -0.257500
  H      3.498633    1.630130   -2.401654
  H      2.348862    2.327201   -1.253680
  H      3.780714    3.251076   -1.737244
  H      4.023251    2.249229    0.548782
  H      5.247472    1.593521   -0.581348
  H      2.144969   -1.464105    2.916628
  H      2.720687   -3.025009    2.260094
  H      4.369459   -0.463434    2.592286
  H      4.529485   -1.931465    3.568285
  H      4.969936   -1.953472    1.849228
  H      0.518762   -2.473403   -0.409120
  H     -0.672826   -1.755585   -1.555218
  H     -1.478260    3.341412    0.215583
  H     -0.351888    1.966704    0.204820
  H     -0.700877    1.663864   -2.235006
  H     -1.934227    2.931186   -2.235109
  H     -0.241228    3.341194   -1.912963
  H     -4.033372   -2.161039   -0.003122
  H     -4.806828   -1.668438    1.529021
  H     -6.511418   -1.942371   -0.265292
  H     -6.402136   -0.240227    0.220052
  H     -5.643593   -0.782029   -1.282538

 Total Charge           Charge          ....    0
 Multiplicity           Mult            ....    1
 Number of Electrons    NEL             ....  202
 Basis Dimension        Dim             ....  334

ORBITAL ENERGIES
----------------

  NO   OCC          E(Eh)            E(eV)
   0   2.0000     -88.044603     -2395.8154
   1   2.0000     -88.041182     -2395.7224
   2   2.0000     -87.991934     -2394.3823
   3   2.0000     -87.989389     -2394.3130
   4   2.0000     -76.431943     -2079.8189
   5   2.0000     -76.425865     -2079.6535
   6   2.0000     -18.800461      -511.5865
   7   2.0000     -18.797278      -511.5000
   8   2.0000     -18.787834      -511.2429
   9   2.0000     -18.785526      -511.1801
  10   2.0000      -9.957728      -270.9635
  11   2.0000      -9.957458      -270.9562
  12   2.0000      -9.954735      -270.8821
  13   2.0000      -9.951170      -270.7851
  14   2.0000      -9.942029      -270.5364
  15   2.0000      -9.891547      -269.1627
  16   2.0000      -9.888238      -269.0726
  17   2.0000      -9.879124      -268.8246
  18   2.0000      -9.872360      -268.6406
  19   2.0000      -7.689528      -209.2427
  20   2.0000      -7.686030      -209.1475
  21   2.0000      -7.636404      -207.7971
  22   2.0000      -7.634263      -207.7388
  23   2.0000      -6.429434      -174.9538
  24   2.0000      -6.423090      -174.7812
  25   2.0000      -5.717569      -155.5830
  26   2.0000      -5.714062      -155.4875
  27   2.0000      -5.713858      -155.4820
  28   2.0000      -5.710461      -155.3896
  29   2.0000      -5.706325      -155.2770
  30   2.0000      -5.703190      -155.1917
  31   2.0000      -5.665229      -154.1587
  32   2.0000      -5.663006      -154.0982
  33   2.0000      -5.657126      -153.9382
  34   2.0000      -5.656646      -153.9252
  35   2.0000      -5.654863      -153.8766
  36   2.0000      -5.654624      -153.8701
  37   2.0000      -4.652055      -126.5889
  38   2.0000      -4.651203      -126.5657
  39   2.0000      -4.649836      -126.5285
  40   2.0000      -4.645364      -126.4068
  41   2.0000      -4.645133      -126.4005
  42   2.0000      -4.643584      -126.3583
  43   2.0000      -0.993978       -27.0475
  44   2.0000      -0.985963       -26.8294
  45   2.0000      -0.954202       -25.9651
  46   2.0000      -0.940460       -25.5912
  47   2.0000      -0.762944       -20.7608
  48   2.0000      -0.722178       -19.6515
  49   2.0000      -0.709528       -19.3072
  50   2.0000      -0.693095       -18.8601
  51   2.0000      -0.678018       -18.4498
  52   2.0000      -0.674222       -18.3465
  53   2.0000      -0.655662       -17.8415
  54   2.0000      -0.640938       -17.4408
  55   2.0000      -0.604177       -16.4405
  56   2.0000      -0.592670       -16.1274
  57   2.0000      -0.579065       -15.7572
  58   2.0000      -0.564895       -15.3716
  59   2.0000      -0.560258       -15.2454
  60   2.0000      -0.502508       -13.6739
  61   2.0000      -0.495065       -13.4714
  62   2.0000      -0.479744       -13.0545
  63   2.0000      -0.465908       -12.6780
  64   2.0000      -0.460425       -12.5288
  65   2.0000      -0.445348       -12.1185
  66   2.0000      -0.441420       -12.0116
  67   2.0000      -0.434747       -11.8301
  68   2.0000      -0.421369       -11.4660
  69   2.0000      -0.419005       -11.4017
  70   2.0000      -0.405985       -11.0474
  71   2.0000      -0.403030       -10.9670
  72   2.0000      -0.397888       -10.8271
  73   2.0000      -0.393073       -10.6960
  74   2.0000      -0.380359       -10.3501
  75   2.0000      -0.377943       -10.2844
  76   2.0000      -0.368059       -10.0154
  77   2.0000      -0.361284        -9.8310
  78   2.0000      -0.356198        -9.6927
  79   2.0000      -0.353111        -9.6086
  80   2.0000      -0.348388        -9.4801
  81   2.0000      -0.344915        -9.3856
  82   2.0000      -0.338051        -9.1988
  83   2.0000      -0.332204        -9.0397
  84   2.0000      -0.330913        -9.0046
  85   2.0000      -0.319888        -8.7046
  86   2.0000      -0.310763        -8.4563
  87   2.0000      -0.301630        -8.2078
  88   2.0000      -0.293997        -8.0001
  89   2.0000      -0.290503        -7.9050
  90   2.0000      -0.286995        -7.8095
  91   2.0000      -0.279403        -7.6030
  92   2.0000      -0.268657        -7.3105
  93   2.0000      -0.265577        -7.2267
  94   2.0000      -0.256625        -6.9831
  95   2.0000      -0.244287        -6.6474
  96   2.0000      -0.221816        -6.0359
  97   2.0000      -0.210028        -5.7152
  98   2.0000      -0.207720        -5.6524
  99   2.0000      -0.203337        -5.5331
 100   2.0000      -0.195710        -5.3255
 101   0.0000      -0.049816        -1.3556
 102   0.0000      -0.026000        -0.7075
 103   0.0000      -0.020383        -0.5547
 104   0.0000       0.000058         0.0016
 105   0.0000       0.012703         0.3457

MULLIKEN ATOMIC CHARGES
-----------------------
   0 C :   -0.340614
   1 C :   -0.002819
   2 O :   -0.367022
   3 P :    0.611420
   4 S :   -0.312596
   5 O :   -0.373941
   6 C :   -0.007097
   7 C :   -0.306874
   8 S :   -0.096204
   9 C :   -0.347711
  10 S :   -0.094620
  11 P :    0.604875
  12 S :   -0.331306
  13 O :   -0.350342
  14 C :   -0.032025
  15 C :   -0.316051
  16 O :   -0.357836
  17 C :   -0.003033
  18 C :   -0.286483
  19 H :    0.126915
  20 H :    0.137723
  21 H :    0.118862
  22 H :    0.111126
  23 H :    0.108717
  24 H :    0.117206
  25 H :    0.106191
  26 H :    0.123802
  27 H :    0.114705
  28 H :    0.119123
  29 H :    0.189159
  30 H :    0.192808
  31 H :    0.103077
  32 H :    0.133631
  33 H :    0.131921
  34 H :    0.114938
  35 H :    0.110175
  36 H :    0.097025
  37 H :    0.106877
  38 H :    0.106671
  39 H :    0.115497
  40 H :    0.124132
Sum of atomic charges:    0.0000000

LOEWDIN ATOMIC CHARGES
----------------------
   0 C :   -0.371794
   1 C :   -0.120669
   2 O :   -0.241704
   3 P :    0.571684
   4 S :   -0.306908
   5 O :   -0.239795
   6 C :   -0.117463
   7 C :   -0.364433
   8 S :    0.093855
   9 C :   -0.484590
  10 S :    0.073756
  11 P :    0.571732
  12 S :   -0.309357
  13 O :   -0.226443
  14 C :   -0.121375
  15 C :   -0.371726
  16 O :   -0.235891
  17 C :   -0.116716
  18 C :   -0.359282
  19 H :    0.127769
  20 H :    0.120681
  21 H :    0.134186
  22 H :    0.109765
  23 H :    0.120550
  24 H :    0.113193
  25 H :    0.118944
  26 H :    0.123151
  27 H :    0.131917
  28 H :    0.127746
  29 H :    0.133978
  30 H :    0.126071
  31 H :    0.119823
  32 H :    0.099125
  33 H :    0.113264
  34 H :    0.125631
  35 H :    0.126679
  36 H :    0.105704
  37 H :    0.118221
  38 H :    0.128249
  39 H :    0.126685
  40 H :    0.125790

  Mayer bond orders larger than 0.100000
B(  0-C ,  1-C ) :   1.1627 B(  0-C , 19-H ) :   0.9425 B(  0-C , 20-H ) :   0.9280
B(  0-C , 21-H ) :   0.9376 B(  1-C ,  2-O ) :   0.9091 B(  1-C , 22-H ) :   0.9134
B(  1-C , 23-H ) :   0.9321 B(  2-O ,  3-P ) :   1.1051 B(  3-P ,  4-S ) :   1.6009
B(  3-P ,  5-O ) :   1.1155 B(  3-P ,  8-S ) :   0.9647 B(  4-S ,  8-S ) :   0.1063
B(  5-O ,  6-C ) :   0.8988 B(  6-C ,  7-C ) :   1.1658 B(  6-C , 24-H ) :   0.9160
B(  6-C , 25-H ) :   0.9338 B(  7-C , 26-H ) :   0.9358 B(  7-C , 27-H ) :   0.9385
B(  7-C , 28-H ) :   0.9456 B(  8-S ,  9-C ) :   0.9940 B(  9-C , 10-S ) :   1.0183
B(  9-C , 29-H ) :   0.8973 B(  9-C , 30-H ) :   0.8572 B( 10-S , 11-P ) :   0.9347
B( 10-S , 12-S ) :   0.1225 B( 11-P , 12-S ) :   1.5885 B( 11-P , 13-O ) :   1.1507
B( 11-P , 16-O ) :   1.1332 B( 12-S , 30-H ) :   0.1106 B( 13-O , 14-C ) :   0.9069
B( 14-C , 15-C ) :   1.1650 B( 14-C , 31-H ) :   0.9352 B( 14-C , 32-H ) :   0.8962
B( 15-C , 33-H ) :   0.9284 B( 15-C , 34-H ) :   0.9423 B( 15-C , 35-H ) :   0.9335
B( 16-O , 17-C ) :   0.9036 B( 17-C , 18-C ) :   1.1662 B( 17-C , 36-H ) :   0.9100
B( 17-C , 37-H ) :   0.9352 B( 18-C , 38-H ) :   0.9405 B( 18-C , 39-H ) :   0.9477
B( 18-C , 40-H ) :   0.9387

Dispersion correction           -0.065757771
FINAL SINGLE POINT ENERGY     -2929.523971224989

DIPOLE MOMENT
-------------

Method             : SCF
Type of density    : Electron Density
Multiplicity       :   1
Irrep              :   0
Energy             : -2929.6426260141461171 Eh
Relativity type    :
Basis              : AO
                                X                 Y                 Z
Electronic contribution:     -4.288041636      -4.596143481       0.432081469
Nuclear contribution   :      5.233743033       4.210155105      -0.029664949
                        -----------------------------------------
Total Dipole Moment    :      0.945701397      -0.385988377       0.402416521
                        -----------------------------------------
Magnitude (a.u.)       :      1.097851181
Magnitude (Debye)      :      2.790515936

Rotational constants in cm-1:             0.013823             0.004680             0.004190
Rotational constants in MHz :           414.412971           140.311596           125.627198

                             ****ORCA TERMINATED NORMALLY****
TOTAL RUN TIME: 0 days 0 hours 0 minutes 21 seconds 12 msec
