                         Program Version 6.0.0  -   RELEASE  -
|  1> ! pbe def2-sv(p) def2/J RI DEFGRID1 loosescf d4 GCP(DFT/SV(P)) printgap
|  2> %output
|  3>     printlevel normal
|  4> end
|  5> * xyz 0 1
|  6> C 3.4181380381 -1.0081226389 -2.3656990376
|  7> C 1.997961599 -0.4912936943 -2.2897988614
|  8> O 1.4591430745 -0.6088522715 -0.9606052766
|  9> P 2.0074008389 0.2602142575 0.247604196
| 10> S 2.792136509 2.0087296162 -0.1447833352
| 11> O 3.01891615 -0.789607603 0.901923468
| 12> C 4.0261857846 -0.3949042418 1.8460207031
| 13> C 3.4295365804 0.0132329908 3.1783002014
| 14> S 0.3321204018 0.2267320537 1.5303907564
| 15> C -0.2014977943 -1.4895920623 1.3147847214
| 16> S -1.1135024078 -1.8320365174 -0.233133357
| 17> P -1.9254722792 0.0562245916 -0.727602333
| 18> S -0.8376120976 1.5429904319 -1.4100391107
| 19> O -2.8148889046 0.41085784 0.5471049388
| 20> C -2.8087925458 1.6530699763 1.2753695229
| 21> C -2.7673965313 1.3591111884 2.7614649574
| 22> O -2.930826884 -0.3450840682 -1.880174459
| 23> C -3.7706874332 -1.5237103734 -1.9507918908
| 24> C -4.7400202281 -1.6246446314 -0.7927822091
| 25> H 3.7519656602 -0.9864246276 -3.3982307168
| 26> H 4.0720831295 -0.3735838844 -1.7683456115
| 27> H 3.4671193373 -2.0257966572 -1.9872933768
| 28> H 1.3126578816 -1.0821342839 -2.9006728661
| 29> H 1.9406935138 0.5595581598 -2.5933302359
| 30> H 4.6607897539 -1.2772448241 1.9392272098
| 31> H 4.5970162127 0.4332879677 1.4140483008
| 32> H 2.8047489824 -0.7812625247 3.5776584761
| 33> H 4.2307065918 0.2277523719 3.8781469882
| 34> H 2.8228686758 0.9099023751 3.0519798586
| 35> H -0.8594664929 -1.7037496208 2.1538835594
| 36> H 0.665663483 -2.1470357441 1.3110215546
| 37> H -1.949575183 2.2529152963 0.9564921519
| 38> H -3.7265499566 2.1784248756 1.0010535481
| 39> H -1.8234751369 0.8896572386 3.0275172967
| 40> H -2.8628841295 2.2929477016 3.3054873403
| 41> H -3.5876496984 0.7003524566 3.0306054081
| 42> H -4.2911134884 -1.3974802759 -2.9018461074
| 43> H -3.1236201145 -2.4028674348 -1.9985189348
| 44> H -5.3945081588 -2.4754698948 -0.9549370533
| 45> H -4.199277584 -1.7635206067 0.1400966678
| 46> H -5.3382200303 -0.719952775 -0.7226724322
| 47> *
| 48>
| 49>                          ****END OF INPUT****

CARTESIAN COORDINATES (ANGSTROEM)
---------------------------------
  C      3.418138   -1.008123   -2.365699
  C      1.997962   -0.491294   -2.289799
  O      1.459143   -0.608852   -0.960605
  P      2.007401    0.260214    0.247604
  S      2.792137    2.008730   -0.144783
  O      3.018916   -0.789608    0.901923
  C      4.026186   -0.394904    1.846021
  C      3.429537    0.013233    3.178300
  S      0.332120    0.226732    1.530391
  C     -0.201498   -1.489592    1.314785
  S     -1.113502   -1.832037   -0.233133
  P     -1.925472    0.056225   -0.727602
  S     -0.837612    1.542990   -1.410039
  O     -2.814889    0.410858    0.547105
  C     -2.808793    1.653070    1.275370
  C     -2.767397    1.359111    2.761465
  O     -2.930827   -0.345084   -1.880174
  C     -3.770687   -1.523710   -1.950792
  C     -4.740020   -1.624645   -0.792782
  H      3.751966   -0.986425   -3.398231
  H      4.072083   -0.373584   -1.768346
  H      3.467119   -2.025797   -1.987293
  H      1.312658   -1.082134   -2.900673
  H      1.940694    0.559558   -2.593330
  H      4.660790   -1.277245    1.939227
  H      4.597016    0.433288    1.414048
  H      2.804749   -0.781263    3.577658
  H      4.230707    0.227752    3.878147
  H      2.822869    0.909902    3.051980
  H     -0.859466   -1.703750    2.153884
  H      0.665663   -2.147036    1.311022
  H     -1.949575    2.252915    0.956492
  H     -3.726550    2.178425    1.001054
  H     -1.823475    0.889657    3.027517
  H     -2.862884    2.292948    3.305487
  H     -3.587650    0.700352    3.030605
  H     -4.291113   -1.397480   -2.901846
  H     -3.123620   -2.402867   -1.998519
  H     -5.394508   -2.475470   -0.954937
  H     -4.199278   -1.763521    0.140097
  H     -5.338220   -0.719953   -0.722672

 Total Charge           Charge          ....    0
 Multiplicity           Mult            ....    1
 Number of Electrons    NEL             ....  202
 Basis Dimension        Dim             ....  334

ORBITAL ENERGIES
----------------

  NO   OCC          E(Eh)            E(eV)
   0   2.0000     -88.047785     -2395.9020
   1   2.0000     -88.038280     -2395.6434
   2   2.0000     -87.985632     -2394.2108
   3   2.0000     -87.971189     -2393.8177
   4   2.0000     -76.425216     -2079.6359
   5   2.0000     -76.421915     -2079.5460
   6   2.0000     -18.792418      -511.3677
   7   2.0000     -18.789868      -511.2983
   8   2.0000     -18.786903      -511.2176
   9   2.0000     -18.786170      -511.1977
  10   2.0000      -9.964904      -271.1588
  11   2.0000      -9.955362      -270.8992
  12   2.0000      -9.950864      -270.7768
  13   2.0000      -9.947335      -270.6807
  14   2.0000      -9.942330      -270.5446
  15   2.0000      -9.886777      -269.0329
  16   2.0000      -9.886738      -269.0318
  17   2.0000      -9.885629      -269.0016
  18   2.0000      -9.878129      -268.7975
  19   2.0000      -7.692147      -209.3140
  20   2.0000      -7.683521      -209.0792
  21   2.0000      -7.630801      -207.6447
  22   2.0000      -7.616034      -207.2428
  23   2.0000      -6.422558      -174.7667
  24   2.0000      -6.418620      -174.6595
  25   2.0000      -5.720484      -155.6623
  26   2.0000      -5.716387      -155.5508
  27   2.0000      -5.711645      -155.4218
  28   2.0000      -5.708904      -155.3472
  29   2.0000      -5.707898      -155.3198
  30   2.0000      -5.700301      -155.1131
  31   2.0000      -5.659791      -154.0107
  32   2.0000      -5.651548      -153.7864
  33   2.0000      -5.650773      -153.7653
  34   2.0000      -5.645374      -153.6184
  35   2.0000      -5.636402      -153.3743
  36   2.0000      -5.636033      -153.3643
  37   2.0000      -4.644783      -126.3910
  38   2.0000      -4.644530      -126.3841
  39   2.0000      -4.643201      -126.3479
  40   2.0000      -4.641601      -126.3044
  41   2.0000      -4.640435      -126.2726
  42   2.0000      -4.638799      -126.2281
  43   2.0000      -0.984042       -26.7771
  44   2.0000      -0.978739       -26.6328
  45   2.0000      -0.941859       -25.6293
  46   2.0000      -0.940612       -25.5954
  47   2.0000      -0.765000       -20.8167
  48   2.0000      -0.719421       -19.5764
  49   2.0000      -0.707718       -19.2580
  50   2.0000      -0.691582       -18.8189
  51   2.0000      -0.683357       -18.5951
  52   2.0000      -0.672024       -18.2867
  53   2.0000      -0.650247       -17.6941
  54   2.0000      -0.635036       -17.2802
  55   2.0000      -0.597119       -16.2484
  56   2.0000      -0.587711       -15.9924
  57   2.0000      -0.577084       -15.7032
  58   2.0000      -0.567943       -15.4545
  59   2.0000      -0.564471       -15.3600
  60   2.0000      -0.498388       -13.5618
  61   2.0000      -0.489723       -13.3260
  62   2.0000      -0.477101       -12.9826
  63   2.0000      -0.469315       -12.7707
  64   2.0000      -0.457752       -12.4561
  65   2.0000      -0.442199       -12.0328
  66   2.0000      -0.439849       -11.9689
  67   2.0000      -0.433281       -11.7902
  68   2.0000      -0.424927       -11.5629
  69   2.0000      -0.415655       -11.3106
  70   2.0000      -0.408934       -11.1277
  71   2.0000      -0.398268       -10.8374
  72   2.0000      -0.391713       -10.6591
  73   2.0000      -0.388047       -10.5593
  74   2.0000      -0.384401       -10.4601
  75   2.0000      -0.376498       -10.2450
  76   2.0000      -0.365694        -9.9510
  77   2.0000      -0.356463        -9.6998
  78   2.0000      -0.351584        -9.5671
  79   2.0000      -0.351393        -9.5619
  80   2.0000      -0.345063        -9.3896
  81   2.0000      -0.342932        -9.3316
  82   2.0000      -0.340175        -9.2566
  83   2.0000      -0.335988        -9.1427
  84   2.0000      -0.327385        -8.9086
  85   2.0000      -0.321634        -8.7521
  86   2.0000      -0.314426        -8.5560
  87   2.0000      -0.298928        -8.1343
  88   2.0000      -0.294302        -8.0084
  89   2.0000      -0.285261        -7.7624
  90   2.0000      -0.278947        -7.5905
  91   2.0000      -0.271708        -7.3936
  92   2.0000      -0.268232        -7.2990
  93   2.0000      -0.264711        -7.2032
  94   2.0000      -0.255186        -6.9440
  95   2.0000      -0.231764        -6.3066
  96   2.0000      -0.216151        -5.8818
  97   2.0000      -0.208249        -5.6667
  98   2.0000      -0.200980        -5.4689
  99   2.0000      -0.186494        -5.0748
 100   2.0000      -0.179202        -4.8763
 101   0.0000      -0.052555        -1.4301
 102   0.0000      -0.029798        -0.8109
 103   0.0000      -0.011609        -0.3159
 104   0.0000      -0.005115        -0.1392
 105   0.0000       0.020401         0.5551

MULLIKEN ATOMIC CHARGES
-----------------------
   0 C :   -0.302509
   1 C :    0.002235
   2 O :   -0.371098
   3 P :    0.631938
   4 S :   -0.299879
   5 O :   -0.379148
   6 C :   -0.005885
   7 C :   -0.305593
   8 S :   -0.103553
   9 C :   -0.304349
  10 S :   -0.129067
  11 P :    0.617508
  12 S :   -0.301620
  13 O :   -0.394173
  14 C :   -0.000685
  15 C :   -0.299530
  16 O :   -0.363316
  17 C :   -0.019368
  18 C :   -0.298956
  19 H :    0.110318
  20 H :    0.119866
  21 H :    0.110070
  22 H :    0.101167
  23 H :    0.120273
  24 H :    0.102556
  25 H :    0.110246
  26 H :    0.108913
  27 H :    0.111953
  28 H :    0.123430
  29 H :    0.181793
  30 H :    0.184435
  31 H :    0.121055
  32 H :    0.101589
  33 H :    0.120661
  34 H :    0.112077
  35 H :    0.111053
  36 H :    0.111160
  37 H :    0.117609
  38 H :    0.109702
  39 H :    0.120738
  40 H :    0.116386
Sum of atomic charges:   -0.0000000

LOEWDIN ATOMIC CHARGES
----------------------
   0 C :   -0.365851
   1 C :   -0.115914
   2 O :   -0.238581
   3 P :    0.575308
   4 S :   -0.299896
   5 O :   -0.252071
   6 C :   -0.122366
   7 C :   -0.367060
   8 S :    0.115826
   9 C :   -0.465160
  10 S :    0.067257
  11 P :    0.557748
  12 S :   -0.301882
  13 O :   -0.256495
  14 C :   -0.119584
  15 C :   -0.357040
  16 O :   -0.243020
  17 C :   -0.115805
  18 C :   -0.366337
  19 H :    0.129665
  20 H :    0.120292
  21 H :    0.123375
  22 H :    0.117488
  23 H :    0.113422
  24 H :    0.117078
  25 H :    0.109320
  26 H :    0.120914
  27 H :    0.130217
  28 H :    0.119807
  29 H :    0.134970
  30 H :    0.134645
  31 H :    0.109481
  32 H :    0.114665
  33 H :    0.113115
  34 H :    0.131769
  35 H :    0.123605
  36 H :    0.122586
  37 H :    0.108196
  38 H :    0.129370
  39 H :    0.120027
  40 H :    0.126915

  Mayer bond orders larger than 0.100000
B(  0-C ,  1-C ) :   1.1597 B(  0-C , 19-H ) :   0.9396 B(  0-C , 20-H ) :   0.9351
B(  0-C , 21-H ) :   0.9455 B(  1-C ,  2-O ) :   0.8955 B(  1-C , 22-H ) :   0.9333
B(  1-C , 23-H ) :   0.9182 B(  2-O ,  3-P ) :   1.1222 B(  3-P ,  4-S ) :   1.6461
B(  3-P ,  5-O ) :   1.0681 B(  3-P ,  8-S ) :   0.9369 B(  5-O ,  6-C ) :   0.9161
B(  6-C ,  7-C ) :   1.1650 B(  6-C , 24-H ) :   0.9340 B(  6-C , 25-H ) :   0.9130
B(  7-C , 26-H ) :   0.9462 B(  7-C , 27-H ) :   0.9385 B(  7-C , 28-H ) :   0.9363
B(  8-S ,  9-C ) :   1.0130 B(  9-C , 10-S ) :   0.9696 B(  9-C , 29-H ) :   0.9107
B(  9-C , 30-H ) :   0.9030 B( 10-S , 11-P ) :   0.9652 B( 10-S , 12-S ) :   0.1119
B( 11-P , 12-S ) :   1.6266 B( 11-P , 13-O ) :   1.0698 B( 11-P , 16-O ) :   1.1319
B( 13-O , 14-C ) :   0.8993 B( 14-C , 15-C ) :   1.1606 B( 14-C , 31-H ) :   0.9003
B( 14-C , 32-H ) :   0.9342 B( 15-C , 33-H ) :   0.9409 B( 15-C , 34-H ) :   0.9406
B( 15-C , 35-H ) :   0.9480 B( 16-O , 17-C ) :   0.9078 B( 17-C , 18-C ) :   1.1673
B( 17-C , 36-H ) :   0.9340 B( 17-C , 37-H ) :   0.9221 B( 18-C , 38-H ) :   0.9366
B( 18-C , 39-H ) :   0.9349 B( 18-C , 40-H ) :   0.9455

Dispersion correction           -0.068876765
FINAL SINGLE POINT ENERGY     -2929.506627626414

DIPOLE MOMENT
-------------

Method             : SCF
Type of density    : Electron Density
Multiplicity       :   1
Irrep              :   0
Energy             : -2929.6233675028347534 Eh
Relativity type    :
Basis              : AO
                                X                 Y                 Z
Electronic contribution:      2.262797724       6.931218854      -8.380572516
Nuclear contribution   :     -2.780988296      -8.513151380       9.385933154
                        -----------------------------------------
Total Dipole Moment    :     -0.518190572      -1.581932526       1.005360637
                        -----------------------------------------
Magnitude (a.u.)       :      1.944680436
Magnitude (Debye)      :      4.942984842

Rotational constants in cm-1:             0.012548             0.005641             0.005070
Rotational constants in MHz :           376.187441           169.118029           152.009360

                             ****ORCA TERMINATED NORMALLY****
TOTAL RUN TIME: 0 days 0 hours 0 minutes 23 seconds 609 msec
