                         Program Version 6.0.1  -  RELEASE   -
|  1> ! pbe def2-sv(p) def2/J RI DEFGRID1 loosescf d4 GCP(DFT/SV(P)) printgap
|  2> %output
|  3>     printlevel normal
|  4> end
|  5> * xyz 0 1
|  6> C 3.7824797345 -1.7195161441 1.5434716325
|  7> C 2.9138586655 -2.5358023868 0.600405176
|  8> O 2.6753152861 -1.8112200384 -0.6233772216
|  9> C 1.677692999 -0.9684819985 -0.6703310439
| 10> O 0.9124434606 -0.7586461104 0.2597306463
| 11> C 1.5391373434 -0.2816140963 -2.002396294
| 12> C 0.5865965616 0.8939931058 -1.8704651662
| 13> H 0.5194583982 1.4506141231 -2.809532161
| 14> C 1.0105303809 1.8639838442 -0.7752951706
| 15> O 2.0596887034 1.772499938 -0.1773639905
| 16> O 0.1299412429 2.8260676467 -0.623614531
| 17> C 0.4198273376 3.9004360725 0.2933868068
| 18> C 0.0538239012 3.5417410018 1.7232910266
| 19> S -1.1624669207 0.3922297851 -1.6351069304
| 20> P -1.4993654304 -0.5772928308 0.2244525888
| 21> S -1.2792070047 -2.5210513347 0.4824395955
| 22> O -1.1286442639 0.4220498534 1.4044804202
| 23> C -0.4350674558 0.0183217647 2.5865097307
| 24> O -3.0803199168 -0.2487945522 0.2616584919
| 25> C -4.021954314 -0.9319218583 -0.5646945933
| 26> H 3.9531607037 -2.2830773108 2.4544816767
| 27> H 4.7354048864 -1.4939149761 1.0732991397
| 28> H 3.2861351656 -0.7836406963 1.7928083689
| 29> H 1.949660403 -2.7771036666 1.0577734172
| 30> H 3.416969073 -3.4481095942 0.2809648972
| 31> H 1.1582789816 -0.9977049636 -2.7330093403
| 32> H 2.5263169104 0.0532152423 -2.3236651602
| 33> H 1.4842358678 4.1405996657 0.2153701294
| 34> H -0.1884510703 4.7260799603 -0.0762205464
| 35> H -0.9684304466 3.1740980406 1.7659126535
| 36> H 0.7192079893 2.7683831199 2.0990613397
| 37> H 0.1477584294 4.4231982946 2.3488460545
| 38> H 0.6091621947 0.3190475989 2.5071015982
| 39> H -0.48967759 -1.0645016767 2.7119006093
| 40> H -0.9232147205 0.522850395 3.4172468111
| 41> H -3.9749755538 -0.548064029 -1.5839203295
| 42> H -4.9970094642 -0.7348254366 -0.1258362322
| 43> H -3.8149655779 -2.0044437591 -0.5611571458
| 44> *
| 45>
| 46>                          ****END OF INPUT****

CARTESIAN COORDINATES (ANGSTROEM)
---------------------------------
  C      3.782480   -1.719516    1.543472
  C      2.913859   -2.535802    0.600405
  O      2.675315   -1.811220   -0.623377
  C      1.677693   -0.968482   -0.670331
  O      0.912443   -0.758646    0.259731
  C      1.539137   -0.281614   -2.002396
  C      0.586597    0.893993   -1.870465
  H      0.519458    1.450614   -2.809532
  C      1.010530    1.863984   -0.775295
  O      2.059689    1.772500   -0.177364
  O      0.129941    2.826068   -0.623615
  C      0.419827    3.900436    0.293387
  C      0.053824    3.541741    1.723291
  S     -1.162467    0.392230   -1.635107
  P     -1.499365   -0.577293    0.224453
  S     -1.279207   -2.521051    0.482440
  O     -1.128644    0.422050    1.404480
  C     -0.435067    0.018322    2.586510
  O     -3.080320   -0.248795    0.261658
  C     -4.021954   -0.931922   -0.564695
  H      3.953161   -2.283077    2.454482
  H      4.735405   -1.493915    1.073299
  H      3.286135   -0.783641    1.792808
  H      1.949660   -2.777104    1.057773
  H      3.416969   -3.448110    0.280965
  H      1.158279   -0.997705   -2.733009
  H      2.526317    0.053215   -2.323665
  H      1.484236    4.140600    0.215370
  H     -0.188451    4.726080   -0.076221
  H     -0.968430    3.174098    1.765913
  H      0.719208    2.768383    2.099061
  H      0.147758    4.423198    2.348846
  H      0.609162    0.319048    2.507102
  H     -0.489678   -1.064502    2.711901
  H     -0.923215    0.522850    3.417247
  H     -3.974976   -0.548064   -1.583920
  H     -4.997009   -0.734825   -0.125836
  H     -3.814966   -2.004444   -0.561157

 Total Charge           Charge          ....    0
 Multiplicity           Mult            ....    1
 Number of Electrons    NEL             ....  174
 Basis Dimension        Dim             ....  316

ORBITAL ENERGIES
----------------

  NO   OCC          E(Eh)            E(eV)
   0   2.0000     -88.032812     -2395.4946
   1   2.0000     -87.964176     -2393.6269
   2   2.0000     -76.416832     -2079.4077
   3   2.0000     -18.812569      -511.9160
   4   2.0000     -18.809520      -511.8331
   5   2.0000     -18.780533      -511.0443
   6   2.0000     -18.766825      -510.6713
   7   2.0000     -18.756534      -510.3912
   8   2.0000     -18.746569      -510.1201
   9   2.0000     -10.022566      -272.7279
  10   2.0000     -10.022009      -272.7127
  11   2.0000      -9.954489      -270.8754
  12   2.0000      -9.952105      -270.8105
  13   2.0000      -9.949700      -270.7451
  14   2.0000      -9.931966      -270.2625
  15   2.0000      -9.926392      -270.1109
  16   2.0000      -9.918255      -269.8894
  17   2.0000      -9.888358      -269.0759
  18   2.0000      -9.884515      -268.9713
  19   2.0000      -7.677593      -208.9179
  20   2.0000      -7.609423      -207.0629
  21   2.0000      -6.412231      -174.4857
  22   2.0000      -5.706218      -155.2741
  23   2.0000      -5.701682      -155.1506
  24   2.0000      -5.694240      -154.9481
  25   2.0000      -5.638663      -153.4358
  26   2.0000      -5.630300      -153.2082
  27   2.0000      -5.628957      -153.1717
  28   2.0000      -4.634920      -126.1226
  29   2.0000      -4.634472      -126.1104
  30   2.0000      -4.632587      -126.0591
  31   2.0000      -1.023819       -27.8595
  32   2.0000      -1.018144       -27.7051
  33   2.0000      -0.968805       -26.3625
  34   2.0000      -0.932989       -25.3879
  35   2.0000      -0.924343       -25.1526
  36   2.0000      -0.921971       -25.0881
  37   2.0000      -0.765287       -20.8245
  38   2.0000      -0.717604       -19.5270
  39   2.0000      -0.702405       -19.1134
  40   2.0000      -0.687651       -18.7119
  41   2.0000      -0.654941       -17.8218
  42   2.0000      -0.621049       -16.8996
  43   2.0000      -0.614369       -16.7178
  44   2.0000      -0.607404       -16.5283
  45   2.0000      -0.603214       -16.4143
  46   2.0000      -0.569341       -15.4926
  47   2.0000      -0.507759       -13.8168
  48   2.0000      -0.505793       -13.7633
  49   2.0000      -0.493800       -13.4370
  50   2.0000      -0.489863       -13.3298
  51   2.0000      -0.468254       -12.7418
  52   2.0000      -0.458138       -12.4666
  53   2.0000      -0.445780       -12.1303
  54   2.0000      -0.439062       -11.9475
  55   2.0000      -0.436160       -11.8685
  56   2.0000      -0.427147       -11.6232
  57   2.0000      -0.414238       -11.2720
  58   2.0000      -0.409310       -11.1379
  59   2.0000      -0.402024       -10.9396
  60   2.0000      -0.398394       -10.8408
  61   2.0000      -0.394307       -10.7296
  62   2.0000      -0.386908       -10.5283
  63   2.0000      -0.383195       -10.4273
  64   2.0000      -0.380780       -10.3616
  65   2.0000      -0.379578       -10.3289
  66   2.0000      -0.358240        -9.7482
  67   2.0000      -0.356080        -9.6894
  68   2.0000      -0.346601        -9.4315
  69   2.0000      -0.339900        -9.2492
  70   2.0000      -0.333214        -9.0672
  71   2.0000      -0.329802        -8.9744
  72   2.0000      -0.327195        -8.9034
  73   2.0000      -0.303185        -8.2501
  74   2.0000      -0.299715        -8.1557
  75   2.0000      -0.298376        -8.1192
  76   2.0000      -0.287943        -7.8353
  77   2.0000      -0.279022        -7.5926
  78   2.0000      -0.271597        -7.3905
  79   2.0000      -0.264095        -7.1864
  80   2.0000      -0.255964        -6.9651
  81   2.0000      -0.246198        -6.6994
  82   2.0000      -0.241740        -6.5781
  83   2.0000      -0.233901        -6.3648
  84   2.0000      -0.214634        -5.8405
  85   2.0000      -0.183736        -4.9997
  86   2.0000      -0.173736        -4.7276
  87   0.0000      -0.046671        -1.2700
  88   0.0000      -0.044030        -1.1981
  89   0.0000      -0.019528        -0.5314
  90   0.0000      -0.002283        -0.0621
  91   0.0000       0.034725         0.9449

MULLIKEN ATOMIC CHARGES
-----------------------
   0 C :   -0.313779
   1 C :   -0.024296
   2 O :   -0.215414
   3 C :    0.163382
   4 O :   -0.229723
   5 C :   -0.047918
   6 C :   -0.315330
   7 H :    0.151644
   8 C :    0.209238
   9 O :   -0.199113
  10 O :   -0.213314
  11 C :   -0.011799
  12 C :   -0.314639
  13 S :   -0.100870
  14 P :    0.636347
  15 S :   -0.351339
  16 O :   -0.375363
  17 C :   -0.108734
  18 O :   -0.383243
  19 C :   -0.103716
  20 H :    0.114934
  21 H :    0.115122
  22 H :    0.137806
  23 H :    0.127520
  24 H :    0.106561
  25 H :    0.132776
  26 H :    0.122604
  27 H :    0.103384
  28 H :    0.105299
  29 H :    0.135387
  30 H :    0.127644
  31 H :    0.108910
  32 H :    0.135072
  33 H :    0.120194
  34 H :    0.116434
  35 H :    0.109174
  36 H :    0.117559
  37 H :    0.111595
Sum of atomic charges:   -0.0000000

LOEWDIN ATOMIC CHARGES
----------------------
   0 C :   -0.355854
   1 C :   -0.109317
   2 O :   -0.037146
   3 C :    0.055861
   4 O :   -0.165732
   5 C :   -0.249118
   6 C :   -0.264330
   7 H :    0.153137
   8 C :    0.018606
   9 O :   -0.161275
  10 O :   -0.047025
  11 C :   -0.104491
  12 C :   -0.358093
  13 S :    0.103309
  14 P :    0.588059
  15 S :   -0.346287
  16 O :   -0.241230
  17 C :   -0.214478
  18 O :   -0.266552
  19 C :   -0.223085
  20 H :    0.131655
  21 H :    0.125908
  22 H :    0.132089
  23 H :    0.124375
  24 H :    0.120255
  25 H :    0.151637
  26 H :    0.149194
  27 H :    0.117095
  28 H :    0.119810
  29 H :    0.132530
  30 H :    0.127965
  31 H :    0.128891
  32 H :    0.110823
  33 H :    0.109358
  34 H :    0.116215
  35 H :    0.104105
  36 H :    0.118507
  37 H :    0.104627

  Mayer bond orders larger than 0.100000
B(  0-C ,  1-C ) :   1.1703 B(  0-C , 20-H ) :   0.9437 B(  0-C , 21-H ) :   0.9473
B(  0-C , 22-H ) :   0.9419 B(  1-C ,  2-O ) :   0.9014 B(  1-C , 23-H ) :   0.9105
B(  1-C , 24-H ) :   0.9372 B(  2-O ,  3-C ) :   1.2880 B(  3-C ,  4-O ) :   1.8351
B(  3-C ,  5-C ) :   1.0223 B(  4-O , 14-P ) :   0.1426 B(  5-C ,  6-C ) :   1.0292
B(  5-C , 25-H ) :   0.8784 B(  5-C , 26-H ) :   0.8806 B(  6-C ,  7-H ) :   0.8727
B(  6-C ,  8-C ) :   0.8852 B(  6-C , 13-S ) :   1.0294 B(  8-C ,  9-O ) :   2.0388
B(  8-C , 10-O ) :   1.2705 B( 10-O , 11-C ) :   0.9159 B( 11-C , 12-C ) :   1.1787
B( 11-C , 27-H ) :   0.9194 B( 11-C , 28-H ) :   0.9373 B( 12-C , 29-H ) :   0.9392
B( 12-C , 30-H ) :   0.9385 B( 12-C , 31-H ) :   0.9399 B( 13-S , 14-P ) :   0.9574
B( 13-S , 15-S ) :   0.1040 B( 14-P , 15-S ) :   1.5610 B( 14-P , 16-O ) :   1.0998
B( 14-P , 18-O ) :   1.0525 B( 16-O , 17-C ) :   0.9232 B( 17-C , 32-H ) :   0.9374
B( 17-C , 33-H ) :   0.9269 B( 17-C , 34-H ) :   0.9538 B( 18-O , 19-C ) :   0.9497
B( 19-C , 35-H ) :   0.9479 B( 19-C , 36-H ) :   0.9600 B( 19-C , 37-H ) :   0.9265

Dispersion correction           -0.054828348
FINAL SINGLE POINT ENERGY     -1979.006334477485

DIPOLE MOMENT
-------------

Method             : SCF
Type of density    : Electron Density
Multiplicity       :   1
Irrep              :   0
Energy             : -1979.1367264288601291 Eh
Relativity type    :
Basis              : AO
                                X                 Y                 Z
Electronic contribution:     -9.090067504      -4.879010841     -10.800327023
Nuclear contribution   :     10.016957168       5.716238294      10.639935510
                        -----------------------------------------
Total Dipole Moment    :      0.926889664       0.837227453      -0.160391513
                        -----------------------------------------
Magnitude (a.u.)       :      1.259285391
Magnitude (Debye)      :      3.200849088

Rotational constants in cm-1:             0.010761             0.009970             0.007268
Rotational constants in MHz :           322.600303           298.879077           217.894223

                             ****ORCA TERMINATED NORMALLY****
TOTAL RUN TIME: 0 days 0 hours 0 minutes 32 seconds 307 msec
