                         Program Version 6.0.1  -  RELEASE   -
|  1> ! pbe def2-sv(p) def2/J RI DEFGRID1 loosescf d4 GCP(DFT/SV(P)) printgap
|  2> %output
|  3>     printlevel normal
|  4> end
|  5> * xyz 0 1
|  6> C 5.4035402432 -2.4133892381 -1.6170017312
|  7> C 4.9229785794 -1.2048845966 -0.829369971
|  8> O 3.6949704604 -1.496481318 -0.134257162
|  9> C 2.5575198036 -1.3449088982 -0.7808464097
| 10> O 2.4565534454 -0.9443051714 -1.9190337446
| 11> C 1.3756002861 -1.7444208324 0.0854609842
| 12> C 0.2473650311 -0.742168099 -0.1070386449
| 13> H 0.0522187095 -0.6084867965 -1.1798743979
| 14> C 0.55723447 0.6281629897 0.4563474051
| 15> O -0.314103428 1.3436344473 0.9132989251
| 16> O 1.8186331484 0.9428384963 0.368081327
| 17> C 2.245556435 2.2362812029 0.8552066591
| 18> C 2.5935355945 2.1604774451 2.3322662159
| 19> S -1.3020052568 -1.3111553721 0.6774315618
| 20> P -2.5571103094 0.2997562439 0.1105945767
| 21> S -2.1167673765 1.2719258341 -1.5437828655
| 22> O -3.9479659522 -0.4882674215 -0.0101476029
| 23> C -4.1677034354 -1.4487705616 -1.0462274482
| 24> O -3.0135912654 1.1194606835 1.3875197431
| 25> C -2.7476598413 2.5030236183 1.626985267
| 26> H 6.3628743704 -2.1879869781 -2.0709830979
| 27> H 5.5108155143 -3.2710023603 -0.95872257
| 28> H 4.6907657062 -2.655264733 -2.4020666861
| 29> H 4.752659947 -0.3530435522 -1.4936895745
| 30> H 5.6269773848 -0.940464098 -0.0404528739
| 31> H 1.6878908049 -1.8035682656 1.1265094538
| 32> H 1.0307155835 -2.7281515117 -0.2379790821
| 33> H 3.1186705639 2.4772836969 0.2489321844
| 34> H 1.4455010621 2.9582621331 0.6722805146
| 35> H 1.7106875434 1.9075468166 2.9148380765
| 36> H 3.3567114894 1.4055016337 2.4990494106
| 37> H 2.9662672105 3.1254072738 2.6592859769
| 38> H -3.8932055901 -1.0255385262 -2.014728627
| 39> H -5.23160255 -1.6696283741 -1.018201916
| 40> H -3.5844413408 -2.3500651843 -0.8549915239
| 41> H -2.43475827 2.9976465026 0.7058973617
| 42> H -1.9610635598 2.587583461 2.3740495375
| 43> H -3.6785922404 2.9332266363 1.9903347893
| 44> *
| 45>
| 46>                          ****END OF INPUT****

CARTESIAN COORDINATES (ANGSTROEM)
---------------------------------
  C      5.403540   -2.413389   -1.617002
  C      4.922979   -1.204885   -0.829370
  O      3.694970   -1.496481   -0.134257
  C      2.557520   -1.344909   -0.780846
  O      2.456553   -0.944305   -1.919034
  C      1.375600   -1.744421    0.085461
  C      0.247365   -0.742168   -0.107039
  H      0.052219   -0.608487   -1.179874
  C      0.557234    0.628163    0.456347
  O     -0.314103    1.343634    0.913299
  O      1.818633    0.942838    0.368081
  C      2.245556    2.236281    0.855207
  C      2.593536    2.160477    2.332266
  S     -1.302005   -1.311155    0.677432
  P     -2.557110    0.299756    0.110595
  S     -2.116767    1.271926   -1.543783
  O     -3.947966   -0.488267   -0.010148
  C     -4.167703   -1.448771   -1.046227
  O     -3.013591    1.119461    1.387520
  C     -2.747660    2.503024    1.626985
  H      6.362874   -2.187987   -2.070983
  H      5.510816   -3.271002   -0.958723
  H      4.690766   -2.655265   -2.402067
  H      4.752660   -0.353044   -1.493690
  H      5.626977   -0.940464   -0.040453
  H      1.687891   -1.803568    1.126509
  H      1.030716   -2.728152   -0.237979
  H      3.118671    2.477284    0.248932
  H      1.445501    2.958262    0.672281
  H      1.710688    1.907547    2.914838
  H      3.356711    1.405502    2.499049
  H      2.966267    3.125407    2.659286
  H     -3.893206   -1.025539   -2.014729
  H     -5.231603   -1.669628   -1.018202
  H     -3.584441   -2.350065   -0.854992
  H     -2.434758    2.997647    0.705897
  H     -1.961064    2.587583    2.374050
  H     -3.678592    2.933227    1.990335

 Total Charge           Charge          ....    0
 Multiplicity           Mult            ....    1
 Number of Electrons    NEL             ....  174
 Basis Dimension        Dim             ....  316

ORBITAL ENERGIES
----------------

  NO   OCC          E(Eh)            E(eV)
   0   2.0000     -88.034363     -2395.5368
   1   2.0000     -87.969870     -2393.7819
   2   2.0000     -76.415782     -2079.3792
   3   2.0000     -18.827701      -512.3278
   4   2.0000     -18.808898      -511.8161
   5   2.0000     -18.776940      -510.9465
   6   2.0000     -18.770986      -510.7845
   7   2.0000     -18.757406      -510.4150
   8   2.0000     -18.744064      -510.0519
   9   2.0000     -10.029175      -272.9077
  10   2.0000     -10.017451      -272.5887
  11   2.0000      -9.963698      -271.1260
  12   2.0000      -9.955022      -270.8899
  13   2.0000      -9.947158      -270.6759
  14   2.0000      -9.930758      -270.2297
  15   2.0000      -9.929200      -270.1873
  16   2.0000      -9.918924      -269.9076
  17   2.0000      -9.900381      -269.4031
  18   2.0000      -9.893095      -269.2048
  19   2.0000      -7.679443      -208.9683
  20   2.0000      -7.614951      -207.2133
  21   2.0000      -6.411570      -174.4677
  22   2.0000      -5.707318      -155.3040
  23   2.0000      -5.704138      -155.2175
  24   2.0000      -5.696261      -155.0032
  25   2.0000      -5.644052      -153.5825
  26   2.0000      -5.635779      -153.3573
  27   2.0000      -5.634726      -153.3287
  28   2.0000      -4.633873      -126.0941
  29   2.0000      -4.633732      -126.0902
  30   2.0000      -4.632201      -126.0486
  31   2.0000      -1.036159       -28.1953
  32   2.0000      -1.016637       -27.6641
  33   2.0000      -0.970090       -26.3975
  34   2.0000      -0.938110       -25.5273
  35   2.0000      -0.924306       -25.1516
  36   2.0000      -0.921794       -25.0833
  37   2.0000      -0.768219       -20.9043
  38   2.0000      -0.719193       -19.5702
  39   2.0000      -0.715689       -19.4749
  40   2.0000      -0.688801       -18.7432
  41   2.0000      -0.656422       -17.8622
  42   2.0000      -0.629996       -17.1431
  43   2.0000      -0.618243       -16.8232
  44   2.0000      -0.609091       -16.5742
  45   2.0000      -0.602609       -16.3978
  46   2.0000      -0.570655       -15.5283
  47   2.0000      -0.514633       -14.0039
  48   2.0000      -0.509973       -13.8771
  49   2.0000      -0.500360       -13.6155
  50   2.0000      -0.476602       -12.9690
  51   2.0000      -0.475061       -12.9271
  52   2.0000      -0.460510       -12.5311
  53   2.0000      -0.449480       -12.2310
  54   2.0000      -0.443786       -12.0760
  55   2.0000      -0.435692       -11.8558
  56   2.0000      -0.426498       -11.6056
  57   2.0000      -0.419985       -11.4284
  58   2.0000      -0.411715       -11.2033
  59   2.0000      -0.408717       -11.1217
  60   2.0000      -0.399057       -10.8589
  61   2.0000      -0.397968       -10.8293
  62   2.0000      -0.388653       -10.5758
  63   2.0000      -0.383454       -10.4343
  64   2.0000      -0.381680       -10.3860
  65   2.0000      -0.372138       -10.1264
  66   2.0000      -0.367622       -10.0035
  67   2.0000      -0.358853        -9.7649
  68   2.0000      -0.355918        -9.6850
  69   2.0000      -0.346210        -9.4208
  70   2.0000      -0.341794        -9.3007
  71   2.0000      -0.335993        -9.1428
  72   2.0000      -0.329226        -8.9587
  73   2.0000      -0.311831        -8.4853
  74   2.0000      -0.305546        -8.3143
  75   2.0000      -0.300343        -8.1727
  76   2.0000      -0.291068        -7.9204
  77   2.0000      -0.284128        -7.7315
  78   2.0000      -0.276716        -7.5298
  79   2.0000      -0.265343        -7.2203
  80   2.0000      -0.259352        -7.0573
  81   2.0000      -0.245605        -6.6833
  82   2.0000      -0.241631        -6.5751
  83   2.0000      -0.230846        -6.2816
  84   2.0000      -0.216578        -5.8934
  85   2.0000      -0.191909        -5.2221
  86   2.0000      -0.183700        -4.9987
  87   0.0000      -0.049179        -1.3382
  88   0.0000      -0.030983        -0.8431
  89   0.0000      -0.023719        -0.6454
  90   0.0000       0.013806         0.3757
  91   0.0000       0.024069         0.6549

MULLIKEN ATOMIC CHARGES
-----------------------
   0 C :   -0.306177
   1 C :   -0.014565
   2 O :   -0.230381
   3 C :    0.118329
   4 O :   -0.201791
   5 C :   -0.062294
   6 C :   -0.339857
   7 H :    0.177362
   8 C :    0.238413
   9 O :   -0.195141
  10 O :   -0.216844
  11 C :   -0.011430
  12 C :   -0.309114
  13 S :   -0.097891
  14 P :    0.627651
  15 S :   -0.350391
  16 O :   -0.373431
  17 C :   -0.098879
  18 O :   -0.367482
  19 C :   -0.083934
  20 H :    0.115161
  21 H :    0.115434
  22 H :    0.129464
  23 H :    0.110632
  24 H :    0.101848
  25 H :    0.106494
  26 H :    0.128284
  27 H :    0.112513
  28 H :    0.121008
  29 H :    0.129647
  30 H :    0.119634
  31 H :    0.119992
  32 H :    0.112255
  33 H :    0.120784
  34 H :    0.107677
  35 H :    0.116750
  36 H :    0.112488
  37 H :    0.117782
Sum of atomic charges:    0.0000000

LOEWDIN ATOMIC CHARGES
----------------------
   0 C :   -0.355771
   1 C :   -0.111067
   2 O :   -0.057122
   3 C :    0.028970
   4 O :   -0.166303
   5 C :   -0.248005
   6 C :   -0.272750
   7 H :    0.153195
   8 C :    0.032765
   9 O :   -0.155865
  10 O :   -0.027616
  11 C :   -0.104141
  12 C :   -0.355103
  13 S :    0.097467
  14 P :    0.586044
  15 S :   -0.341671
  16 O :   -0.258569
  17 C :   -0.221255
  18 O :   -0.237929
  19 C :   -0.207603
  20 H :    0.131783
  21 H :    0.125451
  22 H :    0.131681
  23 H :    0.120676
  24 H :    0.117291
  25 H :    0.134701
  26 H :    0.150343
  27 H :    0.122879
  28 H :    0.126354
  29 H :    0.131478
  30 H :    0.127362
  31 H :    0.134406
  32 H :    0.107670
  33 H :    0.120066
  34 H :    0.103037
  35 H :    0.109401
  36 H :    0.111399
  37 H :    0.116350

  Mayer bond orders larger than 0.100000
B(  0-C ,  1-C ) :   1.1744 B(  0-C , 20-H ) :   0.9439 B(  0-C , 21-H ) :   0.9488
B(  0-C , 22-H ) :   0.9460 B(  1-C ,  2-O ) :   0.9161 B(  1-C , 23-H ) :   0.9136
B(  1-C , 24-H ) :   0.9369 B(  2-O ,  3-C ) :   1.2377 B(  3-C ,  4-O ) :   2.0410
B(  3-C ,  5-C ) :   1.0014 B(  5-C ,  6-C ) :   1.0521 B(  5-C , 25-H ) :   0.9063
B(  5-C , 26-H ) :   0.8787 B(  6-C ,  7-H ) :   0.8273 B(  6-C ,  8-C ) :   0.9071
B(  6-C , 13-S ) :   1.0346 B(  8-C ,  9-O ) :   1.9472 B(  8-C , 10-O ) :   1.2784
B(  9-O , 14-P ) :   0.1018 B( 10-O , 11-C ) :   0.8959 B( 11-C , 12-C ) :   1.1743
B( 11-C , 27-H ) :   0.9354 B( 11-C , 28-H ) :   0.9147 B( 12-C , 29-H ) :   0.9456
B( 12-C , 30-H ) :   0.9476 B( 12-C , 31-H ) :   0.9431 B( 13-S , 14-P ) :   0.9278
B( 13-S , 15-S ) :   0.1158 B( 14-P , 15-S ) :   1.5787 B( 14-P , 16-O ) :   1.0872
B( 14-P , 18-O ) :   1.1381 B( 16-O , 17-C ) :   0.9449 B( 17-C , 32-H ) :   0.9338
B( 17-C , 33-H ) :   0.9596 B( 17-C , 34-H ) :   0.9439 B( 18-O , 19-C ) :   0.9271
B( 19-C , 35-H ) :   0.9333 B( 19-C , 36-H ) :   0.9550 B( 19-C , 37-H ) :   0.9543

Dispersion correction           -0.050490754
FINAL SINGLE POINT ENERGY     -1979.016075937433

DIPOLE MOMENT
-------------

Method             : SCF
Type of density    : Electron Density
Multiplicity       :   1
Irrep              :   0
Energy             : -1979.1483355296782065 Eh
Relativity type    :
Basis              : AO
                                X                 Y                 Z
Electronic contribution:    -20.658309485      -0.605062997      -1.732056970
Nuclear contribution   :     22.592026345       0.490204810       2.674208900
                        -----------------------------------------
Total Dipole Moment    :      1.933716860      -0.114858187       0.942151929
                        -----------------------------------------
Magnitude (a.u.)       :      2.154089960
Magnitude (Debye)      :      5.475261553

Rotational constants in cm-1:             0.016479             0.005676             0.004835
Rotational constants in MHz :           494.040016           170.152548           144.962665

                             ****ORCA TERMINATED NORMALLY****
TOTAL RUN TIME: 0 days 0 hours 0 minutes 36 seconds 538 msec
