                         Program Version 6.0.0  -   RELEASE  -
|  1> ! pbe def2-sv(p) def2/J RI DEFGRID1 loosescf d4 GCP(DFT/SV(P)) printgap
|  2> %output
|  3>     printlevel normal
|  4> end
|  5> * xyz 0 1
|  6> C 3.5807613063 -2.0372382453 -2.4308081566
|  7> C 3.8980131768 -2.1775410672 -0.956012903
|  8> O 2.7558745077 -1.8979735553 -0.1273024262
|  9> P 2.1359042903 -0.4432039017 0.0141338528
| 10> S 3.4331930889 1.0295358071 0.0801398601
| 11> O 1.2055315904 -0.6239761501 1.2824399649
| 12> C 1.6143774639 -0.2207565793 2.6026398447
| 13> C 2.7041741349 -1.1211029844 3.1453715061
| 14> S 0.673499905 -0.3496205255 -1.5125000539
| 15> C 0.3697558504 1.4289850289 -1.3806053465
| 16> S -0.3641249622 1.9022393851 0.2136291657
| 17> P -2.1778606401 0.8569520401 -0.0498978714
| 18> S -2.948974693 0.8388821249 -1.8531480751
| 19> O -2.971915307 1.6624509452 1.0621338818
| 20> C -4.4121449943 1.7385012757 1.0735896151
| 21> C -5.0534332626 0.3855410645 1.3054852275
| 22> O -1.9670330674 -0.5797276003 0.6049251604
| 23> C -2.1432078406 -1.8377492725 -0.081652274
| 24> C -1.1786956874 -2.8544242494 0.4925567667
| 25> H 2.7059268269 -2.6290359203 -2.6879312627
| 26> H 3.3797037815 -0.9942238398 -2.6718155017
| 27> H 4.4305121992 -2.3753978587 -3.0151395289
| 28> H 4.7066934866 -1.49717337 -0.6707758266
| 29> H 4.1643775826 -3.2028669199 -0.6963133268
| 30> H 1.9522839675 0.820017652 2.5599077514
| 31> H 0.6983741302 -0.283821758 3.1917756187
| 32> H 3.6067667428 -1.0077731865 2.5456837888
| 33> H 2.9249625874 -0.8427335961 4.1710196692
| 34> H 2.3866997014 -2.1598186638 3.1102472047
| 35> H -0.3101918976 1.6918995694 -2.1904352983
| 36> H 1.3126676623 1.9694236883 -1.4615435549
| 37> H -4.6287796526 2.4350256625 1.8846193256
| 38> H -4.7420829364 2.1627478422 0.1201932545
| 39> H -4.8663596258 -0.2620553368 0.4489598427
| 40> H -4.6421726216 -0.0772467242 2.1991038162
| 41> H -6.125423942 0.5103087352 1.4229813171
| 42> H -3.1781264738 -2.1509826106 0.0796191104
| 43> H -1.9799774183 -1.688093999 -1.1533199006
| 44> H -1.3307485651 -2.9455935469 1.5640940968
| 45> H -1.3579003675 -3.8139515931 0.0185449803
| 46> H -0.1503086535 -2.5533291538 0.3092927868
| 47> *
| 48>
| 49>                          ****END OF INPUT****

CARTESIAN COORDINATES (ANGSTROEM)
---------------------------------
  C      3.580761   -2.037238   -2.430808
  C      3.898013   -2.177541   -0.956013
  O      2.755875   -1.897974   -0.127302
  P      2.135904   -0.443204    0.014134
  S      3.433193    1.029536    0.080140
  O      1.205532   -0.623976    1.282440
  C      1.614377   -0.220757    2.602640
  C      2.704174   -1.121103    3.145372
  S      0.673500   -0.349621   -1.512500
  C      0.369756    1.428985   -1.380605
  S     -0.364125    1.902239    0.213629
  P     -2.177861    0.856952   -0.049898
  S     -2.948975    0.838882   -1.853148
  O     -2.971915    1.662451    1.062134
  C     -4.412145    1.738501    1.073590
  C     -5.053433    0.385541    1.305485
  O     -1.967033   -0.579728    0.604925
  C     -2.143208   -1.837749   -0.081652
  C     -1.178696   -2.854424    0.492557
  H      2.705927   -2.629036   -2.687931
  H      3.379704   -0.994224   -2.671816
  H      4.430512   -2.375398   -3.015140
  H      4.706693   -1.497173   -0.670776
  H      4.164378   -3.202867   -0.696313
  H      1.952284    0.820018    2.559908
  H      0.698374   -0.283822    3.191776
  H      3.606767   -1.007773    2.545684
  H      2.924963   -0.842734    4.171020
  H      2.386700   -2.159819    3.110247
  H     -0.310192    1.691900   -2.190435
  H      1.312668    1.969424   -1.461544
  H     -4.628780    2.435026    1.884619
  H     -4.742083    2.162748    0.120193
  H     -4.866360   -0.262055    0.448960
  H     -4.642173   -0.077247    2.199104
  H     -6.125424    0.510309    1.422981
  H     -3.178126   -2.150983    0.079619
  H     -1.979977   -1.688094   -1.153320
  H     -1.330749   -2.945594    1.564094
  H     -1.357900   -3.813952    0.018545
  H     -0.150309   -2.553329    0.309293

 Total Charge           Charge          ....    0
 Multiplicity           Mult            ....    1
 Number of Electrons    NEL             ....  202
 Basis Dimension        Dim             ....  334

ORBITAL ENERGIES
----------------

  NO   OCC          E(Eh)            E(eV)
   0   2.0000     -88.045398     -2395.8371
   1   2.0000     -88.037299     -2395.6167
   2   2.0000     -87.993051     -2394.4126
   3   2.0000     -87.988578     -2394.2909
   4   2.0000     -76.430183     -2079.7710
   5   2.0000     -76.424511     -2079.6167
   6   2.0000     -18.800124      -511.5774
   7   2.0000     -18.790274      -511.3093
   8   2.0000     -18.790230      -511.3082
   9   2.0000     -18.786515      -511.2071
  10   2.0000      -9.957001      -270.9438
  11   2.0000      -9.954241      -270.8687
  12   2.0000      -9.953027      -270.8356
  13   2.0000      -9.949786      -270.7474
  14   2.0000      -9.946687      -270.6631
  15   2.0000      -9.887473      -269.0518
  16   2.0000      -9.887364      -269.0489
  17   2.0000      -9.883888      -268.9543
  18   2.0000      -9.878478      -268.8070
  19   2.0000      -7.690116      -209.2587
  20   2.0000      -7.682636      -209.0551
  21   2.0000      -7.637880      -207.8373
  22   2.0000      -7.633551      -207.7195
  23   2.0000      -6.427489      -174.9009
  24   2.0000      -6.422098      -174.7542
  25   2.0000      -5.717916      -155.5924
  26   2.0000      -5.714757      -155.5065
  27   2.0000      -5.710585      -155.3929
  28   2.0000      -5.707393      -155.3061
  29   2.0000      -5.707053      -155.2968
  30   2.0000      -5.699205      -155.0832
  31   2.0000      -5.666683      -154.1983
  32   2.0000      -5.662356      -154.0805
  33   2.0000      -5.658501      -153.9756
  34   2.0000      -5.658194      -153.9673
  35   2.0000      -5.654508      -153.8670
  36   2.0000      -5.653502      -153.8396
  37   2.0000      -4.649901      -126.5303
  38   2.0000      -4.649237      -126.5122
  39   2.0000      -4.648115      -126.4816
  40   2.0000      -4.644407      -126.3807
  41   2.0000      -4.643739      -126.3626
  42   2.0000      -4.642931      -126.3406
  43   2.0000      -0.990960       -26.9654
  44   2.0000      -0.981543       -26.7091
  45   2.0000      -0.949407       -25.8347
  46   2.0000      -0.940875       -25.6025
  47   2.0000      -0.765563       -20.8320
  48   2.0000      -0.723351       -19.6834
  49   2.0000      -0.708453       -19.2780
  50   2.0000      -0.688637       -18.7388
  51   2.0000      -0.686451       -18.6793
  52   2.0000      -0.673079       -18.3154
  53   2.0000      -0.652137       -17.7456
  54   2.0000      -0.639711       -17.4074
  55   2.0000      -0.606281       -16.4977
  56   2.0000      -0.595710       -16.2101
  57   2.0000      -0.574039       -15.6204
  58   2.0000      -0.566463       -15.4142
  59   2.0000      -0.558359       -15.1937
  60   2.0000      -0.499183       -13.5835
  61   2.0000      -0.493698       -13.4342
  62   2.0000      -0.477403       -12.9908
  63   2.0000      -0.474603       -12.9146
  64   2.0000      -0.458187       -12.4679
  65   2.0000      -0.443658       -12.0726
  66   2.0000      -0.442604       -12.0439
  67   2.0000      -0.435181       -11.8419
  68   2.0000      -0.427422       -11.6308
  69   2.0000      -0.414693       -11.2844
  70   2.0000      -0.399776       -10.8785
  71   2.0000      -0.396226       -10.7819
  72   2.0000      -0.393011       -10.6944
  73   2.0000      -0.390478       -10.6254
  74   2.0000      -0.382871       -10.4184
  75   2.0000      -0.378673       -10.3042
  76   2.0000      -0.368599       -10.0301
  77   2.0000      -0.358947        -9.7674
  78   2.0000      -0.356441        -9.6992
  79   2.0000      -0.351087        -9.5536
  80   2.0000      -0.349627        -9.5138
  81   2.0000      -0.346383        -9.4256
  82   2.0000      -0.342994        -9.3333
  83   2.0000      -0.336109        -9.1460
  84   2.0000      -0.332646        -9.0517
  85   2.0000      -0.323150        -8.7934
  86   2.0000      -0.310212        -8.4413
  87   2.0000      -0.299523        -8.1504
  88   2.0000      -0.293690        -7.9917
  89   2.0000      -0.285769        -7.7762
  90   2.0000      -0.281162        -7.6508
  91   2.0000      -0.276459        -7.5228
  92   2.0000      -0.275063        -7.4848
  93   2.0000      -0.268943        -7.3183
  94   2.0000      -0.257456        -7.0057
  95   2.0000      -0.231877        -6.3097
  96   2.0000      -0.217842        -5.9278
  97   2.0000      -0.215196        -5.8558
  98   2.0000      -0.210203        -5.7199
  99   2.0000      -0.204206        -5.5567
 100   2.0000      -0.199198        -5.4205
 101   0.0000      -0.047369        -1.2890
 102   0.0000      -0.024494        -0.6665
 103   0.0000      -0.002497        -0.0680
 104   0.0000       0.008000         0.2177
 105   0.0000       0.011442         0.3114

MULLIKEN ATOMIC CHARGES
-----------------------
   0 C :   -0.315866
   1 C :   -0.006436
   2 O :   -0.376543
   3 P :    0.617967
   4 S :   -0.324662
   5 O :   -0.358039
   6 C :   -0.000401
   7 C :   -0.305999
   8 S :   -0.081595
   9 C :   -0.368087
  10 S :   -0.066106
  11 P :    0.630088
  12 S :   -0.340509
  13 O :   -0.380502
  14 C :    0.002313
  15 C :   -0.321620
  16 O :   -0.373899
  17 C :   -0.009895
  18 C :   -0.289296
  19 H :    0.118618
  20 H :    0.128651
  21 H :    0.115300
  22 H :    0.112491
  23 H :    0.107370
  24 H :    0.113127
  25 H :    0.107214
  26 H :    0.120235
  27 H :    0.112548
  28 H :    0.115599
  29 H :    0.194649
  30 H :    0.190463
  31 H :    0.107625
  32 H :    0.113648
  33 H :    0.127282
  34 H :    0.119290
  35 H :    0.114270
  36 H :    0.101367
  37 H :    0.111696
  38 H :    0.106855
  39 H :    0.102619
  40 H :    0.128172
Sum of atomic charges:   -0.0000000

LOEWDIN ATOMIC CHARGES
----------------------
   0 C :   -0.369244
   1 C :   -0.118490
   2 O :   -0.242044
   3 P :    0.574531
   4 S :   -0.319849
   5 O :   -0.228365
   6 C :   -0.117596
   7 C :   -0.364620
   8 S :    0.102598
   9 C :   -0.483278
  10 S :    0.097245
  11 P :    0.573869
  12 S :   -0.324286
  13 O :   -0.250172
  14 C :   -0.112791
  15 C :   -0.367010
  16 O :   -0.247587
  17 C :   -0.118797
  18 C :   -0.356189
  19 H :    0.124747
  20 H :    0.122095
  21 H :    0.132223
  22 H :    0.111667
  23 H :    0.119772
  24 H :    0.110576
  25 H :    0.119944
  26 H :    0.121363
  27 H :    0.130501
  28 H :    0.125732
  29 H :    0.130998
  30 H :    0.129926
  31 H :    0.120371
  32 H :    0.113204
  33 H :    0.121855
  34 H :    0.127021
  35 H :    0.131718
  36 H :    0.108085
  37 H :    0.102896
  38 H :    0.123429
  39 H :    0.127040
  40 H :    0.116911

  Mayer bond orders larger than 0.100000
B(  0-C ,  1-C ) :   1.1666 B(  0-C , 19-H ) :   0.9448 B(  0-C , 20-H ) :   0.9352
B(  0-C , 21-H ) :   0.9375 B(  1-C ,  2-O ) :   0.9069 B(  1-C , 22-H ) :   0.9166
B(  1-C , 23-H ) :   0.9336 B(  2-O ,  3-P ) :   1.0922 B(  3-P ,  4-S ) :   1.5883
B(  3-P ,  5-O ) :   1.1145 B(  3-P ,  8-S ) :   0.9563 B(  4-S ,  8-S ) :   0.1045
B(  5-O ,  6-C ) :   0.9001 B(  6-C ,  7-C ) :   1.1632 B(  6-C , 24-H ) :   0.9159
B(  6-C , 25-H ) :   0.9335 B(  7-C , 26-H ) :   0.9358 B(  7-C , 27-H ) :   0.9399
B(  7-C , 28-H ) :   0.9470 B(  8-S ,  9-C ) :   0.9960 B(  9-C , 10-S ) :   1.0130
B(  9-C , 29-H ) :   0.8814 B(  9-C , 30-H ) :   0.8824 B( 10-S , 11-P ) :   0.9565
B( 10-S , 12-S ) :   0.1038 B( 11-P , 12-S ) :   1.5933 B( 11-P , 13-O ) :   1.1219
B( 11-P , 16-O ) :   1.1145 B( 13-O , 14-C ) :   0.9134 B( 14-C , 15-C ) :   1.1606
B( 14-C , 31-H ) :   0.9355 B( 14-C , 32-H ) :   0.9207 B( 15-C , 33-H ) :   0.9298
B( 15-C , 34-H ) :   0.9458 B( 15-C , 35-H ) :   0.9371 B( 16-O , 17-C ) :   0.8978
B( 17-C , 18-C ) :   1.1646 B( 17-C , 36-H ) :   0.9287 B( 17-C , 37-H ) :   0.9048
B( 18-C , 38-H ) :   0.9482 B( 18-C , 39-H ) :   0.9392 B( 18-C , 40-H ) :   0.9350

Dispersion correction           -0.067538040
FINAL SINGLE POINT ENERGY     -2929.526655128399

DIPOLE MOMENT
-------------

Method             : SCF
Type of density    : Electron Density
Multiplicity       :   1
Irrep              :   0
Energy             : -2929.6451146105096086 Eh
Relativity type    :
Basis              : AO
                                X                 Y                 Z
Electronic contribution:      0.851598325      17.066900307      -7.976595590
Nuclear contribution   :     -0.978571981     -18.216482100       8.680119467
                        -----------------------------------------
Total Dipole Moment    :     -0.126973656      -1.149581793       0.703523877
                        -----------------------------------------
Magnitude (a.u.)       :      1.353737956
Magnitude (Debye)      :      3.440928429

Rotational constants in cm-1:             0.013390             0.004998             0.004875
Rotational constants in MHz :           401.424062           149.847452           146.134584

                             ****ORCA TERMINATED NORMALLY****
TOTAL RUN TIME: 0 days 0 hours 0 minutes 21 seconds 978 msec
