                         Program Version 6.0.0  -   RELEASE  -
|  1> ! pbe def2-sv(p) def2/J RI DEFGRID1 loosescf d4 GCP(DFT/SV(P)) printgap
|  2> %output
|  3>     printlevel normal
|  4> end
|  5> * xyz 0 1
|  6> C 3.4262658164 -1.1236296164 -2.9300069578
|  7> C 4.1592053954 -1.0481538075 -1.607729838
|  8> O 3.6021478677 -0.0670904461 -0.7109893976
|  9> P 2.0673868274 0.0467630202 -0.3171864386
| 10> S 0.9005553205 0.9512073531 -1.6015274256
| 11> O 2.1127411424 0.8831558043 1.0156363337
| 12> C 2.9122501998 0.5410202204 2.1739756313
| 13> C 4.1944518201 1.3470932152 2.1918453769
| 14> S 1.6199949671 -1.9615816738 0.2318991597
| 15> C -0.0357949947 -1.7484987418 0.9321735345
| 16> S -1.3296584195 -1.4204015109 -0.3005062956
| 17> P -1.9972446317 0.509576276 0.323014424
| 18> S -1.0130920739 1.2606856826 1.8405424037
| 19> O -3.5445973582 0.2568822882 0.6189673775
| 20> C -3.9675333976 -0.5553259359 1.7311669992
| 21> C -5.4618841688 -0.3704433466 1.9002152138
| 22> O -2.0836891276 1.5005824653 -0.8885282152
| 23> C -3.0146971575 1.4164796013 -1.9962908898
| 24> C -2.8120853059 0.1660349151 -2.8240183782
| 25> H 3.3916153846 -0.1442526199 -3.4016913324
| 26> H 3.93598715 -1.8226073477 -3.5851887602
| 27> H 2.4034016218 -1.4640999162 -2.7733031969
| 28> H 5.1902309483 -0.7161400801 -1.7419268934
| 29> H 4.1421612391 -2.0167609715 -1.1006599543
| 30> H 2.2722637714 0.7865272031 3.0246282238
| 31> H 3.1198677367 -0.5328556599 2.1604443721
| 32> H 3.9647501733 2.4090492924 2.1738476227
| 33> H 4.7469040843 1.114119404 3.0966682598
| 34> H 4.8026198752 1.1061349534 1.3238604842
| 35> H -0.031716083 -0.9236388799 1.6514338683
| 36> H -0.265467608 -2.6961649949 1.4122582795
| 37> H -3.7166161332 -1.5966487624 1.5088804605
| 38> H -3.4186575999 -0.2346234336 2.62288071
| 39> H -5.80240283 -0.9759311049 2.7335548
| 40> H -5.6880408892 0.673376229 2.0991161314
| 41> H -5.9796511759 -0.6775794948 0.9963103971
| 42> H -4.028015208 1.4696473824 -1.5936236679
| 43> H -2.7883876154 2.3161112154 -2.5706103664
| 44> H -1.7676261904 0.0833392792 -3.1179724094
| 45> H -3.0893416845 -0.7194873553 -2.2537327546
| 46> H -3.4317376981 0.2232102182 -3.7132936333
| 47> *
| 48>
| 49>                          ****END OF INPUT****

CARTESIAN COORDINATES (ANGSTROEM)
---------------------------------
  C      3.426266   -1.123630   -2.930007
  C      4.159205   -1.048154   -1.607730
  O      3.602148   -0.067090   -0.710989
  P      2.067387    0.046763   -0.317186
  S      0.900555    0.951207   -1.601527
  O      2.112741    0.883156    1.015636
  C      2.912250    0.541020    2.173976
  C      4.194452    1.347093    2.191845
  S      1.619995   -1.961582    0.231899
  C     -0.035795   -1.748499    0.932174
  S     -1.329658   -1.420402   -0.300506
  P     -1.997245    0.509576    0.323014
  S     -1.013092    1.260686    1.840542
  O     -3.544597    0.256882    0.618967
  C     -3.967533   -0.555326    1.731167
  C     -5.461884   -0.370443    1.900215
  O     -2.083689    1.500582   -0.888528
  C     -3.014697    1.416480   -1.996291
  C     -2.812085    0.166035   -2.824018
  H      3.391615   -0.144253   -3.401691
  H      3.935987   -1.822607   -3.585189
  H      2.403402   -1.464100   -2.773303
  H      5.190231   -0.716140   -1.741927
  H      4.142161   -2.016761   -1.100660
  H      2.272264    0.786527    3.024628
  H      3.119868   -0.532856    2.160444
  H      3.964750    2.409049    2.173848
  H      4.746904    1.114119    3.096668
  H      4.802620    1.106135    1.323860
  H     -0.031716   -0.923639    1.651434
  H     -0.265468   -2.696165    1.412258
  H     -3.716616   -1.596649    1.508880
  H     -3.418658   -0.234623    2.622881
  H     -5.802403   -0.975931    2.733555
  H     -5.688041    0.673376    2.099116
  H     -5.979651   -0.677579    0.996310
  H     -4.028015    1.469647   -1.593624
  H     -2.788388    2.316111   -2.570610
  H     -1.767626    0.083339   -3.117972
  H     -3.089342   -0.719487   -2.253733
  H     -3.431738    0.223210   -3.713294

 Total Charge           Charge          ....    0
 Multiplicity           Mult            ....    1
 Number of Electrons    NEL             ....  202
 Basis Dimension        Dim             ....  334

ORBITAL ENERGIES
----------------

  NO   OCC          E(Eh)            E(eV)
   0   2.0000     -88.041319     -2395.7261
   1   2.0000     -88.037052     -2395.6100
   2   2.0000     -87.977723     -2393.9956
   3   2.0000     -87.971136     -2393.8163
   4   2.0000     -76.420089     -2079.4964
   5   2.0000     -76.418316     -2079.4481
   6   2.0000     -18.788129      -511.2510
   7   2.0000     -18.785485      -511.1790
   8   2.0000     -18.784940      -511.1642
   9   2.0000     -18.780822      -511.0521
  10   2.0000      -9.957192      -270.9490
  11   2.0000      -9.953227      -270.8411
  12   2.0000      -9.952425      -270.8192
  13   2.0000      -9.948925      -270.7240
  14   2.0000      -9.947575      -270.6873
  15   2.0000      -9.887038      -269.0400
  16   2.0000      -9.883931      -268.9554
  17   2.0000      -9.880659      -268.8664
  18   2.0000      -9.880229      -268.8547
  19   2.0000      -7.686293      -209.1547
  20   2.0000      -7.681612      -209.0273
  21   2.0000      -7.622942      -207.4308
  22   2.0000      -7.616202      -207.2474
  23   2.0000      -6.417282      -174.6231
  24   2.0000      -6.415551      -174.5760
  25   2.0000      -5.713891      -155.4829
  26   2.0000      -5.710678      -155.3955
  27   2.0000      -5.709555      -155.3649
  28   2.0000      -5.706131      -155.2717
  29   2.0000      -5.703681      -155.2051
  30   2.0000      -5.698610      -155.0671
  31   2.0000      -5.651873      -153.7953
  32   2.0000      -5.645289      -153.6161
  33   2.0000      -5.643558      -153.5690
  34   2.0000      -5.643010      -153.5541
  35   2.0000      -5.636601      -153.3797
  36   2.0000      -5.636390      -153.3740
  37   2.0000      -4.640109      -126.2638
  38   2.0000      -4.638898      -126.2308
  39   2.0000      -4.638529      -126.2208
  40   2.0000      -4.637743      -126.1994
  41   2.0000      -4.637674      -126.1975
  42   2.0000      -4.635273      -126.1322
  43   2.0000      -0.982828       -26.7441
  44   2.0000      -0.981657       -26.7122
  45   2.0000      -0.938679       -25.5428
  46   2.0000      -0.937744       -25.5173
  47   2.0000      -0.757512       -20.6129
  48   2.0000      -0.716398       -19.4942
  49   2.0000      -0.708477       -19.2787
  50   2.0000      -0.689103       -18.7514
  51   2.0000      -0.687098       -18.6969
  52   2.0000      -0.673455       -18.3256
  53   2.0000      -0.645050       -17.5527
  54   2.0000      -0.630037       -17.1442
  55   2.0000      -0.590168       -16.0593
  56   2.0000      -0.582774       -15.8581
  57   2.0000      -0.569547       -15.4982
  58   2.0000      -0.568408       -15.4672
  59   2.0000      -0.563555       -15.3351
  60   2.0000      -0.502678       -13.6786
  61   2.0000      -0.496867       -13.5204
  62   2.0000      -0.469221       -12.7681
  63   2.0000      -0.468982       -12.7616
  64   2.0000      -0.449949       -12.2437
  65   2.0000      -0.446213       -12.1421
  66   2.0000      -0.440558       -11.9882
  67   2.0000      -0.431249       -11.7349
  68   2.0000      -0.430679       -11.7194
  69   2.0000      -0.422305       -11.4915
  70   2.0000      -0.407881       -11.0990
  71   2.0000      -0.394370       -10.7314
  72   2.0000      -0.393798       -10.7158
  73   2.0000      -0.382336       -10.4039
  74   2.0000      -0.378719       -10.3055
  75   2.0000      -0.363766        -9.8986
  76   2.0000      -0.354041        -9.6340
  77   2.0000      -0.353456        -9.6180
  78   2.0000      -0.350029        -9.5248
  79   2.0000      -0.347628        -9.4594
  80   2.0000      -0.343672        -9.3518
  81   2.0000      -0.341721        -9.2987
  82   2.0000      -0.338030        -9.1983
  83   2.0000      -0.335569        -9.1313
  84   2.0000      -0.333903        -9.0860
  85   2.0000      -0.316940        -8.6244
  86   2.0000      -0.308633        -8.3983
  87   2.0000      -0.298777        -8.1301
  88   2.0000      -0.293125        -7.9763
  89   2.0000      -0.286782        -7.8037
  90   2.0000      -0.281405        -7.6574
  91   2.0000      -0.271095        -7.3769
  92   2.0000      -0.268437        -7.3045
  93   2.0000      -0.257621        -7.0102
  94   2.0000      -0.251986        -6.8569
  95   2.0000      -0.237813        -6.4712
  96   2.0000      -0.218208        -5.9377
  97   2.0000      -0.196431        -5.3452
  98   2.0000      -0.195741        -5.3264
  99   2.0000      -0.181984        -4.9520
 100   2.0000      -0.181315        -4.9338
 101   0.0000      -0.035361        -0.9622
 102   0.0000      -0.028297        -0.7700
 103   0.0000      -0.011165        -0.3038
 104   0.0000       0.002593         0.0706
 105   0.0000       0.020893         0.5685

MULLIKEN ATOMIC CHARGES
-----------------------
   0 C :   -0.310889
   1 C :   -0.013115
   2 O :   -0.381047
   3 P :    0.590526
   4 S :   -0.294449
   5 O :   -0.338390
   6 C :   -0.013220
   7 C :   -0.284769
   8 S :   -0.131420
   9 C :   -0.327150
  10 S :   -0.109882
  11 P :    0.617809
  12 S :   -0.300827
  13 O :   -0.389616
  14 C :   -0.003002
  15 C :   -0.280130
  16 O :   -0.343507
  17 C :    0.004659
  18 C :   -0.335375
  19 H :    0.128437
  20 H :    0.109389
  21 H :    0.128353
  22 H :    0.109473
  23 H :    0.113296
  24 H :    0.110095
  25 H :    0.092549
  26 H :    0.122824
  27 H :    0.105706
  28 H :    0.117807
  29 H :    0.188668
  30 H :    0.176967
  31 H :    0.092688
  32 H :    0.098622
  33 H :    0.110070
  34 H :    0.120939
  35 H :    0.112896
  36 H :    0.109886
  37 H :    0.112861
  38 H :    0.143926
  39 H :    0.124156
  40 H :    0.114188
Sum of atomic charges:   -0.0000000

LOEWDIN ATOMIC CHARGES
----------------------
   0 C :   -0.371446
   1 C :   -0.115145
   2 O :   -0.248189
   3 P :    0.560003
   4 S :   -0.300038
   5 O :   -0.223504
   6 C :   -0.117326
   7 C :   -0.358197
   8 S :    0.056987
   9 C :   -0.484775
  10 S :    0.073460
  11 P :    0.573769
  12 S :   -0.294551
  13 O :   -0.257226
  14 C :   -0.124452
  15 C :   -0.350537
  16 O :   -0.219244
  17 C :   -0.106320
  18 C :   -0.371220
  19 H :    0.130818
  20 H :    0.129089
  21 H :    0.122014
  22 H :    0.121209
  23 H :    0.107468
  24 H :    0.119631
  25 H :    0.099526
  26 H :    0.130075
  27 H :    0.127572
  28 H :    0.125065
  29 H :    0.119524
  30 H :    0.135654
  31 H :    0.102128
  32 H :    0.106169
  33 H :    0.129905
  34 H :    0.128864
  35 H :    0.124901
  36 H :    0.113598
  37 H :    0.124685
  38 H :    0.133062
  39 H :    0.115061
  40 H :    0.131934

  Mayer bond orders larger than 0.100000
B(  0-C ,  1-C ) :   1.1676 B(  0-C , 19-H ) :   0.9413 B(  0-C , 20-H ) :   0.9338
B(  0-C , 21-H ) :   0.9313 B(  1-C ,  2-O ) :   0.9158 B(  1-C , 22-H ) :   0.9334
B(  1-C , 23-H ) :   0.9264 B(  2-O ,  3-P ) :   1.0711 B(  3-P ,  4-S ) :   1.6769
B(  3-P ,  5-O ) :   1.1404 B(  3-P ,  8-S ) :   0.9387 B(  4-S ,  8-S ) :   0.1145
B(  5-O ,  6-C ) :   0.8979 B(  6-C ,  7-C ) :   1.1665 B(  6-C , 24-H ) :   0.9308
B(  6-C , 25-H ) :   0.9095 B(  7-C , 26-H ) :   0.9473 B(  7-C , 27-H ) :   0.9404
B(  7-C , 28-H ) :   0.9434 B(  8-S ,  9-C ) :   0.9918 B(  9-C , 10-S ) :   1.0079
B(  9-C , 29-H ) :   0.8419 B(  9-C , 30-H ) :   0.9117 B( 10-S , 11-P ) :   0.9318
B( 10-S , 12-S ) :   0.1197 B( 11-P , 12-S ) :   1.6316 B( 11-P , 13-O ) :   1.0545
B( 11-P , 16-O ) :   1.1600 B( 12-S , 29-H ) :   0.1350 B( 13-O , 14-C ) :   0.9133
B( 14-C , 15-C ) :   1.1603 B( 14-C , 31-H ) :   0.9206 B( 14-C , 32-H ) :   0.9106
B( 15-C , 33-H ) :   0.9424 B( 15-C , 34-H ) :   0.9513 B( 15-C , 35-H ) :   0.9515
B( 16-O , 17-C ) :   0.8956 B( 17-C , 18-C ) :   1.1693 B( 17-C , 36-H ) :   0.9269
B( 17-C , 37-H ) :   0.9327 B( 18-C , 38-H ) :   0.9370 B( 18-C , 39-H ) :   0.9330
B( 18-C , 40-H ) :   0.9355

Dispersion correction           -0.066543168
FINAL SINGLE POINT ENERGY     -2929.508385023968

DIPOLE MOMENT
-------------

Method             : SCF
Type of density    : Electron Density
Multiplicity       :   1
Irrep              :   0
Energy             : -2929.6266981782287075 Eh
Relativity type    :
Basis              : AO
                                X                 Y                 Z
Electronic contribution:      1.906944281       3.182617168       1.098252327
Nuclear contribution   :     -1.978398171      -4.496092662      -0.992936675
                        -----------------------------------------
Total Dipole Moment    :     -0.071453890      -1.313475494       0.105315653
                        -----------------------------------------
Magnitude (a.u.)       :      1.319626810
Magnitude (Debye)      :      3.354224787

Rotational constants in cm-1:             0.012821             0.005186             0.004651
Rotational constants in MHz :           384.351525           155.457592           139.419013

                             ****ORCA TERMINATED NORMALLY****
TOTAL RUN TIME: 0 days 0 hours 0 minutes 21 seconds 334 msec
