                         Program Version 6.0.0  -   RELEASE  -
|  1> ! pbe def2-sv(p) def2/J RI DEFGRID1 loosescf d4 GCP(DFT/SV(P)) printgap
|  2> %output
|  3>     printlevel normal
|  4> end
|  5> * xyz 0 1
|  6> C 4.5097270637 -1.6336623676 -1.0637110442
|  7> C 4.6336163233 -0.20277113 -0.5819987264
|  8> O 3.5817822613 0.152702816 0.3304352999
|  9> P 2.0654324738 0.3011908832 -0.1342242139
| 10> S 1.8841106151 1.0579148257 -1.9398170748
| 11> O 1.4639722179 1.0557961012 1.1250434832
| 12> C 2.0042014044 2.2820577149 1.6664350392
| 13> C 1.7361118161 3.4694476721 0.764168426
| 14> S 1.2050871519 -1.6032955379 0.1724889436
| 15> C 0.1343549205 -1.7212887823 -1.2988133734
| 16> S -1.5962846709 -2.0750647099 -0.8985054972
| 17> P -2.0664925038 -0.3520831595 0.2125572716
| 18> S -1.3823232273 1.3872195957 -0.3965794107
| 19> O -1.5930950265 -0.8320059807 1.6455856263
| 20> C -1.369233404 0.0752396972 2.741844889
| 21> C -2.6530311067 0.7257368468 3.2121861141
| 22> O -3.6482224723 -0.4203167065 0.3526314133
| 23> C -4.5392037536 0.194689355 -0.5930840694
| 24> C -4.4988644772 -0.4885114436 -1.9447936862
| 25> H 4.4169415375 -2.3109194683 -0.2185762673
| 26> H 3.6283422874 -1.7352323945 -1.6954310624
| 27> H 5.3895901509 -1.8946713613 -1.6427618485
| 28> H 4.6046806389 0.4903527118 -1.4288828223
| 29> H 5.5454801078 -0.0484560984 -0.0035896591
| 30> H 1.4892799399 2.3876378318 2.6233998652
| 31> H 3.0747067996 2.1449405089 1.835265112
| 32> H 0.6769779728 3.5198682614 0.5181495039
| 33> H 2.033547123 4.3827087529 1.2693131699
| 34> H 2.2959900568 3.3765842319 -0.1647867897
| 35> H 0.4675123553 -2.5621179961 -1.9018898532
| 36> H 0.2106779758 -0.783107563 -1.8571009353
| 37> H -0.9244095216 -0.556346267 3.5122504893
| 38> H -0.6454072184 0.8298184506 2.418701045
| 39> H -2.4545569463 1.3115433643 4.1043338013
| 40> H -3.0413203345 1.3830143096 2.4348646259
| 41> H -3.39759528 -0.0342763576 3.4340332054
| 42> H -5.5200906624 0.1042554578 -0.1245262327
| 43> H -4.2664958875 1.2508899362 -0.6887052283
| 44> H -4.6543360258 -1.55844691 -1.8319474776
| 45> H -5.2748719952 -0.0740438458 -2.5803547267
| 46> H -3.5310861846 -0.3237295509 -2.41705173
| 47> *
| 48>
| 49>                          ****END OF INPUT****

CARTESIAN COORDINATES (ANGSTROEM)
---------------------------------
  C      4.509727   -1.633662   -1.063711
  C      4.633616   -0.202771   -0.581999
  O      3.581782    0.152703    0.330435
  P      2.065432    0.301191   -0.134224
  S      1.884111    1.057915   -1.939817
  O      1.463972    1.055796    1.125043
  C      2.004201    2.282058    1.666435
  C      1.736112    3.469448    0.764168
  S      1.205087   -1.603296    0.172489
  C      0.134355   -1.721289   -1.298813
  S     -1.596285   -2.075065   -0.898505
  P     -2.066493   -0.352083    0.212557
  S     -1.382323    1.387220   -0.396579
  O     -1.593095   -0.832006    1.645586
  C     -1.369233    0.075240    2.741845
  C     -2.653031    0.725737    3.212186
  O     -3.648222   -0.420317    0.352631
  C     -4.539204    0.194689   -0.593084
  C     -4.498864   -0.488511   -1.944794
  H      4.416942   -2.310919   -0.218576
  H      3.628342   -1.735232   -1.695431
  H      5.389590   -1.894671   -1.642762
  H      4.604681    0.490353   -1.428883
  H      5.545480   -0.048456   -0.003590
  H      1.489280    2.387638    2.623400
  H      3.074707    2.144941    1.835265
  H      0.676978    3.519868    0.518150
  H      2.033547    4.382709    1.269313
  H      2.295990    3.376584   -0.164787
  H      0.467512   -2.562118   -1.901890
  H      0.210678   -0.783108   -1.857101
  H     -0.924410   -0.556346    3.512250
  H     -0.645407    0.829818    2.418701
  H     -2.454557    1.311543    4.104334
  H     -3.041320    1.383014    2.434865
  H     -3.397595   -0.034276    3.434033
  H     -5.520091    0.104255   -0.124526
  H     -4.266496    1.250890   -0.688705
  H     -4.654336   -1.558447   -1.831947
  H     -5.274872   -0.074044   -2.580355
  H     -3.531086   -0.323730   -2.417052

 Total Charge           Charge          ....    0
 Multiplicity           Mult            ....    1
 Number of Electrons    NEL             ....  202
 Basis Dimension        Dim             ....  334

ORBITAL ENERGIES
----------------

  NO   OCC          E(Eh)            E(eV)
   0   2.0000     -88.040364     -2395.7001
   1   2.0000     -88.040309     -2395.6986
   2   2.0000     -87.985095     -2394.1961
   3   2.0000     -87.981541     -2394.0994
   4   2.0000     -76.425065     -2079.6317
   5   2.0000     -76.421585     -2079.5371
   6   2.0000     -18.792010      -511.3566
   7   2.0000     -18.789968      -511.3010
   8   2.0000     -18.787642      -511.2377
   9   2.0000     -18.782421      -511.0957
  10   2.0000      -9.952348      -270.8172
  11   2.0000      -9.952069      -270.8096
  12   2.0000      -9.950592      -270.7694
  13   2.0000      -9.949757      -270.7466
  14   2.0000      -9.944437      -270.6019
  15   2.0000      -9.882914      -268.9277
  16   2.0000      -9.881610      -268.8923
  17   2.0000      -9.879817      -268.8435
  18   2.0000      -9.876535      -268.7542
  19   2.0000      -7.685901      -209.1440
  20   2.0000      -7.685322      -209.1283
  21   2.0000      -7.629979      -207.6223
  22   2.0000      -7.626198      -207.5194
  23   2.0000      -6.422310      -174.7600
  24   2.0000      -6.419051      -174.6713
  25   2.0000      -5.713906      -155.4833
  26   2.0000      -5.713212      -155.4644
  27   2.0000      -5.710303      -155.3853
  28   2.0000      -5.709929      -155.3751
  29   2.0000      -5.702751      -155.1797
  30   2.0000      -5.702162      -155.1637
  31   2.0000      -5.658808      -153.9840
  32   2.0000      -5.654958      -153.8792
  33   2.0000      -5.650861      -153.7677
  34   2.0000      -5.649953      -153.7430
  35   2.0000      -5.646950      -153.6613
  36   2.0000      -5.646417      -153.6468
  37   2.0000      -4.645015      -126.3973
  38   2.0000      -4.643803      -126.3643
  39   2.0000      -4.642931      -126.3406
  40   2.0000      -4.641438      -126.2999
  41   2.0000      -4.640836      -126.2836
  42   2.0000      -4.639676      -126.2520
  43   2.0000      -0.985907       -26.8279
  44   2.0000      -0.981896       -26.7187
  45   2.0000      -0.941390       -25.6165
  46   2.0000      -0.940539       -25.5934
  47   2.0000      -0.760347       -20.6901
  48   2.0000      -0.718802       -19.5596
  49   2.0000      -0.704601       -19.1732
  50   2.0000      -0.685628       -18.6569
  51   2.0000      -0.683364       -18.5953
  52   2.0000      -0.672303       -18.2943
  53   2.0000      -0.650598       -17.7037
  54   2.0000      -0.632471       -17.2104
  55   2.0000      -0.600250       -16.3336
  56   2.0000      -0.590429       -16.0664
  57   2.0000      -0.574830       -15.6419
  58   2.0000      -0.568756       -15.4766
  59   2.0000      -0.557044       -15.1579
  60   2.0000      -0.496480       -13.5099
  61   2.0000      -0.487308       -13.2603
  62   2.0000      -0.467693       -12.7266
  63   2.0000      -0.466983       -12.7073
  64   2.0000      -0.453154       -12.3309
  65   2.0000      -0.444538       -12.0965
  66   2.0000      -0.435614       -11.8537
  67   2.0000      -0.431975       -11.7546
  68   2.0000      -0.425287       -11.5726
  69   2.0000      -0.414337       -11.2747
  70   2.0000      -0.408444       -11.1143
  71   2.0000      -0.404886       -11.0175
  72   2.0000      -0.388855       -10.5813
  73   2.0000      -0.386700       -10.5226
  74   2.0000      -0.379148       -10.3171
  75   2.0000      -0.371608       -10.1120
  76   2.0000      -0.368564       -10.0291
  77   2.0000      -0.352437        -9.5903
  78   2.0000      -0.350888        -9.5482
  79   2.0000      -0.345614        -9.4046
  80   2.0000      -0.344186        -9.3658
  81   2.0000      -0.340714        -9.2713
  82   2.0000      -0.338468        -9.2102
  83   2.0000      -0.333067        -9.0632
  84   2.0000      -0.331399        -9.0178
  85   2.0000      -0.311448        -8.4749
  86   2.0000      -0.309883        -8.4323
  87   2.0000      -0.294684        -8.0188
  88   2.0000      -0.292117        -7.9489
  89   2.0000      -0.286857        -7.8058
  90   2.0000      -0.278271        -7.5721
  91   2.0000      -0.272396        -7.4123
  92   2.0000      -0.269342        -7.3292
  93   2.0000      -0.260721        -7.0946
  94   2.0000      -0.259965        -7.0740
  95   2.0000      -0.230728        -6.2784
  96   2.0000      -0.220362        -5.9964
  97   2.0000      -0.213913        -5.8209
  98   2.0000      -0.200285        -5.4500
  99   2.0000      -0.194316        -5.2876
 100   2.0000      -0.186225        -5.0674
 101   0.0000      -0.038251        -1.0409
 102   0.0000      -0.032691        -0.8896
 103   0.0000      -0.008660        -0.2357
 104   0.0000       0.013562         0.3690
 105   0.0000       0.016880         0.4593

MULLIKEN ATOMIC CHARGES
-----------------------
   0 C :   -0.308829
   1 C :   -0.002695
   2 O :   -0.381795
   3 P :    0.631385
   4 S :   -0.310823
   5 O :   -0.363264
   6 C :   -0.003644
   7 C :   -0.314866
   8 S :   -0.084811
   9 C :   -0.359817
  10 S :   -0.084351
  11 P :    0.606552
  12 S :   -0.318998
  13 O :   -0.358529
  14 C :   -0.024168
  15 C :   -0.306223
  16 O :   -0.372852
  17 C :   -0.003216
  18 C :   -0.317523
  19 H :    0.117998
  20 H :    0.118029
  21 H :    0.111717
  22 H :    0.109890
  23 H :    0.101846
  24 H :    0.103533
  25 H :    0.107651
  26 H :    0.132857
  27 H :    0.105328
  28 H :    0.126225
  29 H :    0.180276
  30 H :    0.208200
  31 H :    0.102459
  32 H :    0.136007
  33 H :    0.106912
  34 H :    0.119400
  35 H :    0.116219
  36 H :    0.104158
  37 H :    0.109162
  38 H :    0.118287
  39 H :    0.112818
  40 H :    0.129495
Sum of atomic charges:    0.0000000

LOEWDIN ATOMIC CHARGES
----------------------
   0 C :   -0.368189
   1 C :   -0.121518
   2 O :   -0.248027
   3 P :    0.573435
   4 S :   -0.296139
   5 O :   -0.236606
   6 C :   -0.110704
   7 C :   -0.367880
   8 S :    0.090850
   9 C :   -0.480821
  10 S :    0.092451
  11 P :    0.563861
  12 S :   -0.309797
  13 O :   -0.237384
  14 C :   -0.118637
  15 C :   -0.365640
  16 O :   -0.244737
  17 C :   -0.119968
  18 C :   -0.370025
  19 H :    0.124647
  20 H :    0.118820
  21 H :    0.130080
  22 H :    0.108861
  23 H :    0.116814
  24 H :    0.114835
  25 H :    0.110861
  26 H :    0.129577
  27 H :    0.126891
  28 H :    0.121756
  29 H :    0.135081
  30 H :    0.124689
  31 H :    0.118555
  32 H :    0.113858
  33 H :    0.127711
  34 H :    0.121256
  35 H :    0.125935
  36 H :    0.118200
  37 H :    0.109601
  38 H :    0.124076
  39 H :    0.130981
  40 H :    0.122387

  Mayer bond orders larger than 0.100000
B(  0-C ,  1-C ) :   1.1661 B(  0-C , 19-H ) :   0.9443 B(  0-C , 20-H ) :   0.9373
B(  0-C , 21-H ) :   0.9383 B(  1-C ,  2-O ) :   0.9133 B(  1-C , 22-H ) :   0.9125
B(  1-C , 23-H ) :   0.9331 B(  2-O ,  3-P ) :   1.0832 B(  3-P ,  4-S ) :   1.5983
B(  3-P ,  5-O ) :   1.1210 B(  3-P ,  8-S ) :   0.9686 B(  4-S ,  8-S ) :   0.1248
B(  5-O ,  6-C ) :   0.9027 B(  6-C ,  7-C ) :   1.1680 B(  6-C , 24-H ) :   0.9299
B(  6-C , 25-H ) :   0.9277 B(  7-C , 26-H ) :   0.9410 B(  7-C , 27-H ) :   0.9372
B(  7-C , 28-H ) :   0.9351 B(  8-S ,  9-C ) :   0.9989 B(  9-C , 10-S ) :   1.0013
B(  9-C , 29-H ) :   0.9112 B(  9-C , 30-H ) :   0.8479 B( 10-S , 11-P ) :   0.9580
B( 10-S , 12-S ) :   0.1109 B( 11-P , 12-S ) :   1.6152 B( 11-P , 13-O ) :   1.1313
B( 11-P , 16-O ) :   1.0993 B( 13-O , 14-C ) :   0.9063 B( 14-C , 15-C ) :   1.1589
B( 14-C , 31-H ) :   0.9356 B( 14-C , 32-H ) :   0.9066 B( 15-C , 33-H ) :   0.9395
B( 15-C , 34-H ) :   0.9369 B( 15-C , 35-H ) :   0.9449 B( 16-O , 17-C ) :   0.9097
B( 17-C , 18-C ) :   1.1670 B( 17-C , 36-H ) :   0.9338 B( 17-C , 37-H ) :   0.9142
B( 18-C , 38-H ) :   0.9443 B( 18-C , 39-H ) :   0.9378 B( 18-C , 40-H ) :   0.9353

Dispersion correction           -0.068003856
FINAL SINGLE POINT ENERGY     -2929.520271729618

DIPOLE MOMENT
-------------

Method             : SCF
Type of density    : Electron Density
Multiplicity       :   1
Irrep              :   0
Energy             : -2929.6379538795258668 Eh
Relativity type    :
Basis              : AO
                                X                 Y                 Z
Electronic contribution:      0.149254705      -8.828694538      -4.603378208
Nuclear contribution   :      0.110767139       8.805769295       5.318602902
                        -----------------------------------------
Total Dipole Moment    :      0.260021844      -0.022925242       0.715224694
                        -----------------------------------------
Magnitude (a.u.)       :      0.761369351
Magnitude (Debye)      :      1.935247093

Rotational constants in cm-1:             0.012417             0.005537             0.004943
Rotational constants in MHz :           372.245567           165.997471           148.193994

                             ****ORCA TERMINATED NORMALLY****
TOTAL RUN TIME: 0 days 0 hours 0 minutes 21 seconds 798 msec
