                         Program Version 6.0.0  -   RELEASE  -
|  1> ! pbe def2-sv(p) def2/J RI DEFGRID1 loosescf d4 GCP(DFT/SV(P)) printgap
|  2> %output
|  3>     printlevel normal
|  4> end
|  5> * xyz 0 1
|  6> C 5.0832772969 -1.6353904131 -0.5302285317
|  7> C 4.5819472574 -0.6445555358 -1.5596195683
|  8> O 3.1768931301 -0.3585323805 -1.3953945604
|  9> P 2.6304195455 0.4275634833 -0.1281592595
| 10> S 3.8012704917 1.8148287002 0.6040980473
| 11> O 2.2873857188 -0.7698405899 0.8694765135
| 12> C 2.2024289486 -0.581161485 2.2902602469
| 13> C 1.0209307614 0.2805003065 2.6861368158
| 14> S 0.7833724644 1.0617324516 -0.9358721938
| 15> C 0.1564744533 -0.5538460475 -1.5016000822
| 16> S -0.6863079356 -1.4968590649 -0.2096922916
| 17> P -2.3711242942 -0.2309019131 -0.0572231986
| 18> S -3.0190219055 0.5248078013 -1.7532023384
| 19> O -1.8927918416 0.8229691773 1.0209338928
| 20> C -2.4261913888 2.1591853625 1.0783227948
| 21> C -3.8515834633 2.1563096911 1.5882656501
| 22> O -3.3881613528 -1.0962292233 0.8027411194
| 23> C -4.0241550208 -2.2899462416 0.3037268108
| 24> C -5.3383281814 -1.9680023467 -0.381467594
| 25> H 5.0528009169 -1.1857763518 0.4613522171
| 26> H 4.4637539522 -2.5284335547 -0.5319149966
| 27> H 6.1087342472 -1.9053059766 -0.7624352748
| 28> H 4.6489195911 -1.041719254 -2.5733421304
| 29> H 5.1354397099 0.2970823508 -1.490925492
| 30> H 2.1147531171 -1.5936557662 2.6859425941
| 31> H 3.1350167882 -0.1205536797 2.6323162788
| 32> H 0.0885168245 -0.1563646179 2.3368613227
| 33> H 0.9888594264 0.3741115959 3.7668519962
| 34> H 1.1286619193 1.2738386385 2.2486130551
| 35> H 0.9829050035 -1.1577574126 -1.8625769846
| 36> H -0.5548028739 -0.331006314 -2.2978260296
| 37> H -1.7501819976 2.686744588 1.7522632168
| 38> H -2.3685339411 2.6020946406 0.0785584877
| 39> H -3.9041761701 1.6559028929 2.5513933547
| 40> H -4.2031938492 3.1782262219 1.6887680854
| 41> H -4.4907203885 1.627922005 0.8814666424
| 42> H -3.3402726303 -2.8041785031 -0.3776079194
| 43> H -4.1805176151 -2.903224715 1.1930940756
| 44> H -5.1674208396 -1.3369042624 -1.2508397068
| 45> H -5.8096781683 -2.8912619902 -0.7025542695
| 46> H -6.0005701317 -1.4468164721 0.3042308143
| 47> *
| 48>
| 49>                          ****END OF INPUT****

CARTESIAN COORDINATES (ANGSTROEM)
---------------------------------
  C      5.083277   -1.635390   -0.530229
  C      4.581947   -0.644556   -1.559620
  O      3.176893   -0.358532   -1.395395
  P      2.630420    0.427563   -0.128159
  S      3.801270    1.814829    0.604098
  O      2.287386   -0.769841    0.869477
  C      2.202429   -0.581161    2.290260
  C      1.020931    0.280500    2.686137
  S      0.783372    1.061732   -0.935872
  C      0.156474   -0.553846   -1.501600
  S     -0.686308   -1.496859   -0.209692
  P     -2.371124   -0.230902   -0.057223
  S     -3.019022    0.524808   -1.753202
  O     -1.892792    0.822969    1.020934
  C     -2.426191    2.159185    1.078323
  C     -3.851583    2.156310    1.588266
  O     -3.388161   -1.096229    0.802741
  C     -4.024155   -2.289946    0.303727
  C     -5.338328   -1.968002   -0.381468
  H      5.052801   -1.185776    0.461352
  H      4.463754   -2.528434   -0.531915
  H      6.108734   -1.905306   -0.762435
  H      4.648920   -1.041719   -2.573342
  H      5.135440    0.297082   -1.490925
  H      2.114753   -1.593656    2.685943
  H      3.135017   -0.120554    2.632316
  H      0.088517   -0.156365    2.336861
  H      0.988859    0.374112    3.766852
  H      1.128662    1.273839    2.248613
  H      0.982905   -1.157757   -1.862577
  H     -0.554803   -0.331006   -2.297826
  H     -1.750182    2.686745    1.752263
  H     -2.368534    2.602095    0.078558
  H     -3.904176    1.655903    2.551393
  H     -4.203194    3.178226    1.688768
  H     -4.490720    1.627922    0.881467
  H     -3.340273   -2.804179   -0.377608
  H     -4.180518   -2.903225    1.193094
  H     -5.167421   -1.336904   -1.250840
  H     -5.809678   -2.891262   -0.702554
  H     -6.000570   -1.446816    0.304231

 Total Charge           Charge          ....    0
 Multiplicity           Mult            ....    1
 Number of Electrons    NEL             ....  202
 Basis Dimension        Dim             ....  334

ORBITAL ENERGIES
----------------

  NO   OCC          E(Eh)            E(eV)
   0   2.0000     -88.045770     -2395.8472
   1   2.0000     -88.039404     -2395.6740
   2   2.0000     -87.993996     -2394.4384
   3   2.0000     -87.988189     -2394.2803
   4   2.0000     -76.431446     -2079.8054
   5   2.0000     -76.425544     -2079.6448
   6   2.0000     -18.799394      -511.5575
   7   2.0000     -18.793929      -511.4088
   8   2.0000     -18.792520      -511.3705
   9   2.0000     -18.789653      -511.2925
  10   2.0000      -9.960350      -271.0349
  11   2.0000      -9.955758      -270.9100
  12   2.0000      -9.953758      -270.8555
  13   2.0000      -9.951452      -270.7928
  14   2.0000      -9.947425      -270.6832
  15   2.0000      -9.885690      -269.0033
  16   2.0000      -9.885419      -268.9959
  17   2.0000      -9.884381      -268.9677
  18   2.0000      -9.873617      -268.6748
  19   2.0000      -7.691071      -209.2847
  20   2.0000      -7.684661      -209.1103
  21   2.0000      -7.638788      -207.8620
  22   2.0000      -7.633331      -207.7135
  23   2.0000      -6.429022      -174.9426
  24   2.0000      -6.423315      -174.7873
  25   2.0000      -5.718788      -155.6161
  26   2.0000      -5.715595      -155.5292
  27   2.0000      -5.712924      -155.4566
  28   2.0000      -5.709081      -155.3520
  29   2.0000      -5.708107      -155.3255
  30   2.0000      -5.701310      -155.1405
  31   2.0000      -5.667521      -154.2211
  32   2.0000      -5.662268      -154.0781
  33   2.0000      -5.659424      -154.0008
  34   2.0000      -5.659153      -153.9934
  35   2.0000      -5.654030      -153.8540
  36   2.0000      -5.653406      -153.8370
  37   2.0000      -4.651443      -126.5722
  38   2.0000      -4.650817      -126.5552
  39   2.0000      -4.649581      -126.5215
  40   2.0000      -4.645692      -126.4157
  41   2.0000      -4.645233      -126.4032
  42   2.0000      -4.643813      -126.3646
  43   2.0000      -0.992319       -27.0024
  44   2.0000      -0.985825       -26.8257
  45   2.0000      -0.950912       -25.8756
  46   2.0000      -0.944764       -25.7083
  47   2.0000      -0.765146       -20.8207
  48   2.0000      -0.723781       -19.6951
  49   2.0000      -0.708308       -19.2740
  50   2.0000      -0.689080       -18.7508
  51   2.0000      -0.683595       -18.6016
  52   2.0000      -0.674610       -18.3571
  53   2.0000      -0.656781       -17.8719
  54   2.0000      -0.641240       -17.4490
  55   2.0000      -0.601906       -16.3787
  56   2.0000      -0.595546       -16.2056
  57   2.0000      -0.574052       -15.6208
  58   2.0000      -0.570659       -15.5284
  59   2.0000      -0.563219       -15.3260
  60   2.0000      -0.503443       -13.6994
  61   2.0000      -0.492584       -13.4039
  62   2.0000      -0.479092       -13.0367
  63   2.0000      -0.470171       -12.7940
  64   2.0000      -0.460778       -12.5384
  65   2.0000      -0.444934       -12.1073
  66   2.0000      -0.443083       -12.0569
  67   2.0000      -0.436828       -11.8867
  68   2.0000      -0.428956       -11.6725
  69   2.0000      -0.410626       -11.1737
  70   2.0000      -0.408358       -11.1120
  71   2.0000      -0.399979       -10.8840
  72   2.0000      -0.395337       -10.7577
  73   2.0000      -0.393730       -10.7140
  74   2.0000      -0.391507       -10.6535
  75   2.0000      -0.375334       -10.2134
  76   2.0000      -0.366871        -9.9831
  77   2.0000      -0.355767        -9.6809
  78   2.0000      -0.352294        -9.5864
  79   2.0000      -0.351091        -9.5537
  80   2.0000      -0.349956        -9.5228
  81   2.0000      -0.343588        -9.3495
  82   2.0000      -0.340081        -9.2541
  83   2.0000      -0.337518        -9.1843
  84   2.0000      -0.331391        -9.0176
  85   2.0000      -0.321679        -8.7533
  86   2.0000      -0.313430        -8.5289
  87   2.0000      -0.302159        -8.2222
  88   2.0000      -0.294829        -8.0227
  89   2.0000      -0.289627        -7.8811
  90   2.0000      -0.286314        -7.7910
  91   2.0000      -0.278367        -7.5747
  92   2.0000      -0.274177        -7.4607
  93   2.0000      -0.271307        -7.3826
  94   2.0000      -0.256636        -6.9834
  95   2.0000      -0.233325        -6.3491
  96   2.0000      -0.217494        -5.9183
  97   2.0000      -0.211527        -5.7560
  98   2.0000      -0.209180        -5.6921
  99   2.0000      -0.207232        -5.6391
 100   2.0000      -0.203270        -5.5313
 101   0.0000      -0.042140        -1.1467
 102   0.0000      -0.022730        -0.6185
 103   0.0000      -0.014370        -0.3910
 104   0.0000       0.002234         0.0608
 105   0.0000       0.011733         0.3193

MULLIKEN ATOMIC CHARGES
-----------------------
   0 C :   -0.308464
   1 C :   -0.003437
   2 O :   -0.384011
   3 P :    0.607730
   4 S :   -0.320510
   5 O :   -0.378088
   6 C :   -0.000975
   7 C :   -0.328474
   8 S :   -0.057107
   9 C :   -0.375769
  10 S :   -0.073375
  11 P :    0.612902
  12 S :   -0.331291
  13 O :   -0.353830
  14 C :   -0.005893
  15 C :   -0.306561
  16 O :   -0.370678
  17 C :   -0.013395
  18 C :   -0.297286
  19 H :    0.125049
  20 H :    0.115693
  21 H :    0.113072
  22 H :    0.105684
  23 H :    0.115191
  24 H :    0.101270
  25 H :    0.107466
  26 H :    0.139652
  27 H :    0.104402
  28 H :    0.120023
  29 H :    0.193494
  30 H :    0.198228
  31 H :    0.110641
  32 H :    0.116045
  33 H :    0.116113
  34 H :    0.113622
  35 H :    0.122755
  36 H :    0.103770
  37 H :    0.109738
  38 H :    0.131744
  39 H :    0.109404
  40 H :    0.115456
Sum of atomic charges:   -0.0000000

LOEWDIN ATOMIC CHARGES
----------------------
   0 C :   -0.365436
   1 C :   -0.115326
   2 O :   -0.249460
   3 P :    0.571758
   4 S :   -0.318868
   5 O :   -0.247804
   6 C :   -0.120117
   7 C :   -0.373657
   8 S :    0.094735
   9 C :   -0.483019
  10 S :    0.094703
  11 P :    0.570462
  12 S :   -0.314439
  13 O :   -0.228387
  14 C :   -0.117236
  15 C :   -0.364175
  16 O :   -0.243300
  17 C :   -0.115650
  18 C :   -0.364313
  19 H :    0.123346
  20 H :    0.125906
  21 H :    0.130927
  22 H :    0.118934
  23 H :    0.113089
  24 H :    0.117589
  25 H :    0.107153
  26 H :    0.120107
  27 H :    0.127621
  28 H :    0.118926
  29 H :    0.135750
  30 H :    0.130882
  31 H :    0.120792
  32 H :    0.111275
  33 H :    0.126161
  34 H :    0.131208
  35 H :    0.122083
  36 H :    0.106824
  37 H :    0.120161
  38 H :    0.124867
  39 H :    0.129760
  40 H :    0.126168

  Mayer bond orders larger than 0.100000
B(  0-C ,  1-C ) :   1.1624 B(  0-C , 19-H ) :   0.9358 B(  0-C , 20-H ) :   0.9461
B(  0-C , 21-H ) :   0.9380 B(  1-C ,  2-O ) :   0.9064 B(  1-C , 22-H ) :   0.9358
B(  1-C , 23-H ) :   0.9180 B(  2-O ,  3-P ) :   1.0921 B(  3-P ,  4-S ) :   1.6306
B(  3-P ,  5-O ) :   1.0869 B(  3-P ,  8-S ) :   0.9826 B(  5-O ,  6-C ) :   0.9041
B(  6-C ,  7-C ) :   1.1645 B(  6-C , 24-H ) :   0.9328 B(  6-C , 25-H ) :   0.9166
B(  7-C , 26-H ) :   0.9295 B(  7-C , 27-H ) :   0.9375 B(  7-C , 28-H ) :   0.9343
B(  8-S ,  9-C ) :   0.9839 B(  9-C , 10-S ) :   1.0017 B(  9-C , 29-H ) :   0.8892
B(  9-C , 30-H ) :   0.8720 B( 10-S , 11-P ) :   0.9667 B( 10-S , 12-S ) :   0.1111
B( 11-P , 12-S ) :   1.5941 B( 11-P , 13-O ) :   1.1286 B( 11-P , 16-O ) :   1.1150
B( 13-O , 14-C ) :   0.8995 B( 14-C , 15-C ) :   1.1634 B( 14-C , 31-H ) :   0.9325
B( 14-C , 32-H ) :   0.9147 B( 15-C , 33-H ) :   0.9465 B( 15-C , 34-H ) :   0.9395
B( 15-C , 35-H ) :   0.9354 B( 16-O , 17-C ) :   0.9052 B( 17-C , 18-C ) :   1.1672
B( 17-C , 36-H ) :   0.9164 B( 17-C , 37-H ) :   0.9357 B( 18-C , 38-H ) :   0.9314
B( 18-C , 39-H ) :   0.9390 B( 18-C , 40-H ) :   0.9469

Dispersion correction           -0.065074490
FINAL SINGLE POINT ENERGY     -2929.523878016717

DIPOLE MOMENT
-------------

Method             : SCF
Type of density    : Electron Density
Multiplicity       :   1
Irrep              :   0
Energy             : -2929.6449734995321705 Eh
Relativity type    :
Basis              : AO
                                X                 Y                 Z
Electronic contribution:      7.265995338       6.182342994      -9.775609402
Nuclear contribution   :     -7.686342439      -7.482130626      10.319452904
                        -----------------------------------------
Total Dipole Moment    :     -0.420347101      -1.299787632       0.543843502
                        -----------------------------------------
Magnitude (a.u.)       :      1.470341909
Magnitude (Debye)      :      3.737312123

Rotational constants in cm-1:             0.014709             0.004321             0.004099
Rotational constants in MHz :           440.962986           129.540185           122.897414

                             ****ORCA TERMINATED NORMALLY****
TOTAL RUN TIME: 0 days 0 hours 0 minutes 21 seconds 247 msec
