                         Program Version 6.0.0  -   RELEASE  -
|  1> ! wb97x-v def2-tzvp def2/J RIJCOSX DEFGRID2 scfconv7 GCP(DFT/TZ) printgap
|  2> %output
|  3>     printlevel normal
|  4> end
|  5> * xyz 0 1
|  6> C 2.8122978801932796 -8.416168653088205e-06 0.025408256199658235
|  7> N 1.406544274776015 -1.181054236342994e-05 -0.38400790483267006
|  8> C 0.7400205901167809 1.1904267559569666 0.16545890599272328
|  9> C -0.7400189169234237 1.1904275330920233 -0.16545609726621074
| 10> N -1.4065486094193742 -5.7438527963253424e-06 0.38401748712472605
| 11> C -0.7400198757740294 -1.1904456132158094 -0.16544256540991925
| 12> C 0.7400196216543009 -1.190443104599436 0.16547428193866517
| 13> C -2.8122961618455595 -6.074544821789402e-06 -0.025417068905089806
| 14> H 3.3167596711139367 -0.887003853982526 -0.37123272954779585
| 15> H 2.930541348292412 4.773739737981581e-05 1.1243255755067376
| 16> H 3.3167872498773185 0.8869304063449927 -0.3713262664490529
| 17> H 0.8734199832768273 1.2446866229173061 1.2632630494051473
| 18> H 1.2029815977194478 2.086391360638167 -0.26327751761078827
| 19> H -1.2029782151948567 2.0863952317703602 0.26327611924400673
| 20> H -0.8734175226659285 1.244682575184835 -1.2632604329535708
| 21> H -1.2029804711270906 -2.086408425346532 0.26329837311115367
| 22> H -0.8734160844718574 -1.2447127276336594 -1.263246861301396
| 23> H 0.87341785000015 -1.2446914119169332 1.2632792314183914
| 24> H 1.202979517673426 -2.0864129332781602 -0.263252559342151
| 25> H -3.3167791956507586 0.8869570746789809 0.37126791975863865
| 26> H -3.316776874110065 -0.8869756804969172 0.37125810639407736
| 27> H -2.9305235941912504 -2.511236171246924e-07 -1.1243357415186326
| 28> *
| 29>
| 30>                          ****END OF INPUT****

CARTESIAN COORDINATES (ANGSTROEM)
---------------------------------
  C      2.812298   -0.000008    0.025408
  N      1.406544   -0.000012   -0.384008
  C      0.740021    1.190427    0.165459
  C     -0.740019    1.190428   -0.165456
  N     -1.406549   -0.000006    0.384017
  C     -0.740020   -1.190446   -0.165443
  C      0.740020   -1.190443    0.165474
  C     -2.812296   -0.000006   -0.025417
  H      3.316760   -0.887004   -0.371233
  H      2.930541    0.000048    1.124326
  H      3.316787    0.886930   -0.371326
  H      0.873420    1.244687    1.263263
  H      1.202982    2.086391   -0.263278
  H     -1.202978    2.086395    0.263276
  H     -0.873418    1.244683   -1.263260
  H     -1.202980   -2.086408    0.263298
  H     -0.873416   -1.244713   -1.263247
  H      0.873418   -1.244691    1.263279
  H      1.202980   -2.086413   -0.263253
  H     -3.316779    0.886957    0.371268
  H     -3.316777   -0.886976    0.371258
  H     -2.930524   -0.000000   -1.124336

 Total Charge           Charge          ....    0
 Multiplicity           Mult            ....    1
 Number of Electrons    NEL             ....   64
 Basis Dimension        Dim             ....  332

ORBITAL ENERGIES
----------------

  NO   OCC          E(Eh)            E(eV)
   0   2.0000     -16.518527      -449.4920
   1   2.0000     -16.518399      -449.4885
   2   2.0000     -12.065019      -328.3059
   3   2.0000     -12.064640      -328.2955
   4   2.0000     -12.063655      -328.2687
   5   2.0000     -12.063589      -328.2669
   6   2.0000     -12.060127      -328.1727
   7   2.0000     -12.060013      -328.1696
   8   2.0000      -1.500789       -40.8385
   9   2.0000      -1.471432       -40.0397
  10   2.0000      -1.275242       -34.7011
  11   2.0000      -1.249204       -33.9926
  12   2.0000      -1.178231       -32.0613
  13   2.0000      -1.144052       -31.1312
  14   2.0000      -1.114214       -30.3193
  15   2.0000      -1.023522       -27.8514
  16   2.0000      -0.956068       -26.0159
  17   2.0000      -0.948207       -25.8020
  18   2.0000      -0.919383       -25.0177
  19   2.0000      -0.908516       -24.7220
  20   2.0000      -0.898509       -24.4497
  21   2.0000      -0.897745       -24.4289
  22   2.0000      -0.836043       -22.7499
  23   2.0000      -0.828159       -22.5354
  24   2.0000      -0.824679       -22.4407
  25   2.0000      -0.809022       -22.0146
  26   2.0000      -0.802926       -21.8487
  27   2.0000      -0.794792       -21.6274
  28   2.0000      -0.783834       -21.3292
  29   2.0000      -0.781947       -21.2779
  30   2.0000      -0.700576       -19.0636
  31   2.0000      -0.678956       -18.4753
  32   0.0000      -0.121680        -3.3111
  33   0.0000      -0.071736        -1.9520
  34   0.0000      -0.066642        -1.8134
  35   0.0000      -0.050722        -1.3802
  36   0.0000      -0.050645        -1.3781

MULLIKEN ATOMIC CHARGES
-----------------------
   0 C :   -0.280528
   1 N :   -0.146092
   2 C :   -0.129304
   3 C :   -0.129308
   4 N :   -0.146081
   5 C :   -0.129285
   6 C :   -0.129274
   7 C :   -0.280545
   8 H :    0.115684
   9 H :    0.095339
  10 H :    0.115682
  11 H :    0.079285
  12 H :    0.099966
  13 H :    0.099961
  14 H :    0.079296
  15 H :    0.099961
  16 H :    0.079284
  17 H :    0.079282
  18 H :    0.099963
  19 H :    0.115685
  20 H :    0.115685
  21 H :    0.095343
Sum of atomic charges:    0.0000000

LOEWDIN ATOMIC CHARGES
----------------------
   0 C :   -0.320357
   1 N :    0.057080
   2 C :   -0.281908
   3 C :   -0.281907
   4 N :    0.057079
   5 C :   -0.281907
   6 C :   -0.281908
   7 C :   -0.320358
   8 H :    0.112198
   9 H :    0.099114
  10 H :    0.112198
  11 H :    0.121029
  12 H :    0.130763
  13 H :    0.130762
  14 H :    0.121029
  15 H :    0.130762
  16 H :    0.121029
  17 H :    0.121029
  18 H :    0.130762
  19 H :    0.112198
  20 H :    0.112198
  21 H :    0.099114

  Mayer bond orders larger than 0.100000
B(  0-C ,  1-N ) :   0.9884 B(  0-C ,  8-H ) :   0.9799 B(  0-C ,  9-H ) :   0.9786
B(  0-C , 10-H ) :   0.9799 B(  1-N ,  2-C ) :   0.9934 B(  1-N ,  6-C ) :   0.9934
B(  2-C ,  3-C ) :   1.0315 B(  2-C , 11-H ) :   0.9650 B(  2-C , 12-H ) :   0.9626
B(  3-C ,  4-N ) :   0.9934 B(  3-C , 13-H ) :   0.9627 B(  3-C , 14-H ) :   0.9650
B(  4-N ,  5-C ) :   0.9934 B(  4-N ,  7-C ) :   0.9884 B(  5-C ,  6-C ) :   1.0315
B(  5-C , 15-H ) :   0.9627 B(  5-C , 16-H ) :   0.9650 B(  6-C , 17-H ) :   0.9650
B(  6-C , 18-H ) :   0.9627 B(  7-C , 19-H ) :   0.9799 B(  7-C , 20-H ) :   0.9799
B(  7-C , 21-H ) :   0.9786

FINAL SINGLE POINT ENERGY      -346.566576766280

DIPOLE MOMENT
-------------

Method             : SCF
Type of density    : Electron Density
Multiplicity       :   1
Irrep              :   0
Energy             :  -346.5827791246803713 Eh
Relativity type    :
Basis              : AO
                                X                 Y                 Z
Electronic contribution:     -0.000012135      -0.000002611       0.000017390
Nuclear contribution   :      0.000015174       0.000001899      -0.000021135
                        -----------------------------------------
Total Dipole Moment    :      0.000003039      -0.000000712      -0.000003745
                        -----------------------------------------
Magnitude (a.u.)       :      0.000004875
Magnitude (Debye)      :      0.000012392

Rotational constants in cm-1:             0.152816             0.047143             0.038542
Rotational constants in MHz :          4581.315965          1413.320481          1155.469371

                             ****ORCA TERMINATED NORMALLY****
TOTAL RUN TIME: 0 days 0 hours 3 minutes 30 seconds 377 msec
