                         Program Version 6.0.0  -   RELEASE  -
|  1> ! wb97x-v def2-tzvp def2/J RIJCOSX DEFGRID2 scfconv7 GCP(DFT/TZ) printgap
|  2> %output
|  3>     printlevel normal
|  4> end
|  5> %cpcm
|  6>     smd true
|  7>     smdsolvent "water"
|  8> end
|  9> * xyz 0 1
| 10> C 2.8122978801932796 -8.416168653088205e-06 0.025408256199658235
| 11> N 1.406544274776015 -1.181054236342994e-05 -0.38400790483267006
| 12> C 0.7400205901167809 1.1904267559569666 0.16545890599272328
| 13> C -0.7400189169234237 1.1904275330920233 -0.16545609726621074
| 14> N -1.4065486094193742 -5.7438527963253424e-06 0.38401748712472605
| 15> C -0.7400198757740294 -1.1904456132158094 -0.16544256540991925
| 16> C 0.7400196216543009 -1.190443104599436 0.16547428193866517
| 17> C -2.8122961618455595 -6.074544821789402e-06 -0.025417068905089806
| 18> H 3.3167596711139367 -0.887003853982526 -0.37123272954779585
| 19> H 2.930541348292412 4.773739737981581e-05 1.1243255755067376
| 20> H 3.3167872498773185 0.8869304063449927 -0.3713262664490529
| 21> H 0.8734199832768273 1.2446866229173061 1.2632630494051473
| 22> H 1.2029815977194478 2.086391360638167 -0.26327751761078827
| 23> H -1.2029782151948567 2.0863952317703602 0.26327611924400673
| 24> H -0.8734175226659285 1.244682575184835 -1.2632604329535708
| 25> H -1.2029804711270906 -2.086408425346532 0.26329837311115367
| 26> H -0.8734160844718574 -1.2447127276336594 -1.263246861301396
| 27> H 0.87341785000015 -1.2446914119169332 1.2632792314183914
| 28> H 1.202979517673426 -2.0864129332781602 -0.263252559342151
| 29> H -3.3167791956507586 0.8869570746789809 0.37126791975863865
| 30> H -3.316776874110065 -0.8869756804969172 0.37125810639407736
| 31> H -2.9305235941912504 -2.511236171246924e-07 -1.1243357415186326
| 32> *
| 33>
| 34>                          ****END OF INPUT****

CARTESIAN COORDINATES (ANGSTROEM)
---------------------------------
  C      2.812298   -0.000008    0.025408
  N      1.406544   -0.000012   -0.384008
  C      0.740021    1.190427    0.165459
  C     -0.740019    1.190428   -0.165456
  N     -1.406549   -0.000006    0.384017
  C     -0.740020   -1.190446   -0.165443
  C      0.740020   -1.190443    0.165474
  C     -2.812296   -0.000006   -0.025417
  H      3.316760   -0.887004   -0.371233
  H      2.930541    0.000048    1.124326
  H      3.316787    0.886930   -0.371326
  H      0.873420    1.244687    1.263263
  H      1.202982    2.086391   -0.263278
  H     -1.202978    2.086395    0.263276
  H     -0.873418    1.244683   -1.263260
  H     -1.202980   -2.086408    0.263298
  H     -0.873416   -1.244713   -1.263247
  H      0.873418   -1.244691    1.263279
  H      1.202980   -2.086413   -0.263253
  H     -3.316779    0.886957    0.371268
  H     -3.316777   -0.886976    0.371258
  H     -2.930524   -0.000000   -1.124336

 Total Charge           Charge          ....    0
 Multiplicity           Mult            ....    1
 Number of Electrons    NEL             ....   64
 Basis Dimension        Dim             ....  332

ORBITAL ENERGIES
----------------

  NO   OCC          E(Eh)            E(eV)
   0   2.0000     -16.516490      -449.4366
   1   2.0000     -16.516363      -449.4331
   2   2.0000     -12.058094      -328.1174
   3   2.0000     -12.057722      -328.1073
   4   2.0000     -12.056736      -328.0805
   5   2.0000     -12.056663      -328.0785
   6   2.0000     -12.051667      -327.9425
   7   2.0000     -12.051566      -327.9398
   8   2.0000      -1.497137       -40.7392
   9   2.0000      -1.467886       -39.9432
  10   2.0000      -1.269424       -34.5428
  11   2.0000      -1.243430       -33.8355
  12   2.0000      -1.171778       -31.8857
  13   2.0000      -1.138629       -30.9837
  14   2.0000      -1.107489       -30.1363
  15   2.0000      -1.017705       -27.6932
  16   2.0000      -0.950121       -25.8541
  17   2.0000      -0.943338       -25.6695
  18   2.0000      -0.914389       -24.8818
  19   2.0000      -0.903189       -24.5770
  20   2.0000      -0.893649       -24.3174
  21   2.0000      -0.891562       -24.2606
  22   2.0000      -0.829103       -22.5611
  23   2.0000      -0.820208       -22.3190
  24   2.0000      -0.817397       -22.2425
  25   2.0000      -0.802890       -21.8478
  26   2.0000      -0.794960       -21.6320
  27   2.0000      -0.787632       -21.4326
  28   2.0000      -0.777279       -21.1508
  29   2.0000      -0.774969       -21.0880
  30   2.0000      -0.698576       -19.0092
  31   2.0000      -0.676280       -18.4025
  32   0.0000      -0.115907        -3.1540
  33   0.0000      -0.065522        -1.7829
  34   0.0000      -0.061311        -1.6684
  35   0.0000      -0.044430        -1.2090
  36   0.0000      -0.043868        -1.1937

MULLIKEN ATOMIC CHARGES
-----------------------
   0 C :   -0.321536
   1 N :   -0.192800
   2 C :   -0.152203
   3 C :   -0.152203
   4 N :   -0.192789
   5 C :   -0.152181
   6 C :   -0.152171
   7 C :   -0.321553
   8 H :    0.136593
   9 H :    0.111577
  10 H :    0.136590
  11 H :    0.090453
  12 H :    0.126527
  13 H :    0.126521
  14 H :    0.090464
  15 H :    0.126522
  16 H :    0.090451
  17 H :    0.090448
  18 H :    0.126524
  19 H :    0.136593
  20 H :    0.136594
  21 H :    0.111580
Sum of atomic charges:    0.0000000

LOEWDIN ATOMIC CHARGES
----------------------
   0 C :   -0.324714
   1 N :    0.039239
   2 C :   -0.284617
   3 C :   -0.284616
   4 N :    0.039239
   5 C :   -0.284616
   6 C :   -0.284617
   7 C :   -0.324714
   8 H :    0.116004
   9 H :    0.103936
  10 H :    0.116003
  11 H :    0.122810
  12 H :    0.136572
  13 H :    0.136572
  14 H :    0.122811
  15 H :    0.136572
  16 H :    0.122811
  17 H :    0.122811
  18 H :    0.136572
  19 H :    0.116003
  20 H :    0.116004
  21 H :    0.103936

  Mayer bond orders larger than 0.100000
B(  0-C ,  1-N ) :   0.9837 B(  0-C ,  8-H ) :   0.9747 B(  0-C ,  9-H ) :   0.9804
B(  0-C , 10-H ) :   0.9747 B(  1-N ,  2-C ) :   0.9820 B(  1-N ,  6-C ) :   0.9820
B(  2-C ,  3-C ) :   1.0194 B(  2-C , 11-H ) :   0.9698 B(  2-C , 12-H ) :   0.9645
B(  3-C ,  4-N ) :   0.9820 B(  3-C , 13-H ) :   0.9645 B(  3-C , 14-H ) :   0.9698
B(  4-N ,  5-C ) :   0.9820 B(  4-N ,  7-C ) :   0.9836 B(  5-C ,  6-C ) :   1.0194
B(  5-C , 15-H ) :   0.9645 B(  5-C , 16-H ) :   0.9698 B(  6-C , 17-H ) :   0.9698
B(  6-C , 18-H ) :   0.9645 B(  7-C , 19-H ) :   0.9747 B(  7-C , 20-H ) :   0.9747
B(  7-C , 21-H ) :   0.9804

FINAL SINGLE POINT ENERGY      -346.580637146746

DIPOLE MOMENT
-------------

Method             : SCF
Type of density    : Electron Density
Multiplicity       :   1
Irrep              :   0
Energy             :  -346.5968395051463062 Eh
Relativity type    :
Basis              : AO
                                X                 Y                 Z
Electronic contribution:     -0.000010161      -0.000003770       0.000016256
Nuclear contribution   :      0.000015174       0.000001899      -0.000021135
                        -----------------------------------------
Total Dipole Moment    :      0.000005013      -0.000001871      -0.000004878
                        -----------------------------------------
Magnitude (a.u.)       :      0.000007241
Magnitude (Debye)      :      0.000018404

Rotational constants in cm-1:             0.152816             0.047143             0.038542
Rotational constants in MHz :          4581.315965          1413.320481          1155.469371

                             ****ORCA TERMINATED NORMALLY****
TOTAL RUN TIME: 0 days 0 hours 3 minutes 12 seconds 688 msec
