                         Program Version 6.0.0  -   RELEASE  -
|  1> ! pbe def2-sv(p) def2/J RI DEFGRID1 loosescf d4 GCP(DFT/SV(P)) printgap
|  2> %output
|  3>     printlevel normal
|  4> end
|  5> * xyz 0 1
|  6> C 4.0299871674 -1.3068829962 -2.3397732819
|  7> C 4.6125274501 -1.0868460879 -0.9584721524
|  8> O 3.6058359684 -1.0969872597 0.0684125448
|  9> P 2.4982409351 0.0371271019 0.1866277719
| 10> S 3.134066677 1.8460626473 -0.2042610461
| 11> O 2.0292831825 -0.0827495703 1.6869145482
| 12> C 1.2413033229 -1.1397162048 2.2849270133
| 13> C 1.8059958529 -2.5192465345 2.0241180094
| 14> S 0.8811974205 -0.6662452916 -1.0191279293
| 15> C 0.106340963 0.9432803029 -1.2761355824
| 16> S -0.7202869115 1.577460985 0.2118161351
| 17> P -2.4094585513 0.3194871007 0.0727861838
| 18> S -3.1308193338 -0.0341674126 -1.7192829366
| 19> O -3.4690165633 0.9204649533 1.0955070542
| 20> C -4.4566278329 1.8880988884 0.6997611369
| 21> C -3.8348373086 3.2263840942 0.3568622814
| 22> O -1.8779554382 -0.9306844159 0.8885965654
| 23> C -2.5385986349 -2.2196631144 0.8366364043
| 24> C -1.8066938049 -3.1471963735 -0.1121841442
| 25> H 3.4072284076 -2.197664049 -2.352667863
| 26> H 3.4246729216 -0.4495466006 -2.629961176
| 27> H 4.838542193 -1.4218174307 -3.0544960494
| 28> H 5.1424328939 -0.1302232883 -0.9134503245
| 29> H 5.2839651047 -1.8970770181 -0.6709551855
| 30> H 1.2595213806 -0.8896813736 3.3469531404
| 31> H 0.2183995852 -1.0554116354 1.9084443544
| 32> H 1.7646638263 -2.7489131258 0.9608474406
| 33> H 2.8409874929 -2.5704085353 2.3518685867
| 34> H 1.2188863976 -3.251140179 2.5708133225
| 35> H -0.6268201275 0.8231056855 -2.0742090768
| 36> H 0.8712882905 1.6746251321 -1.5391239611
| 37> H -5.0070083849 1.4890853751 -0.1584711804
| 38> H -5.1164894888 1.9590084937 1.5653463141
| 39> H -4.6201342618 3.9534491145 0.1766029451
| 40> H -3.2034509231 3.5705012344 1.1724278459
| 41> H -3.2254468239 3.1350803756 -0.5416820981
| 42> H -2.5110577396 -2.5876836989 1.8632879784
| 43> H -3.5768357922 -2.0787597492 0.5246214002
| 44> H -2.278094896 -4.1243127622 -0.0907792351
| 45> H -1.8467575254 -2.7543533328 -1.1259498906
| 46> H -0.765215378 -3.2405964316 0.1809300828
| 47> *
| 48>
| 49>                          ****END OF INPUT****

CARTESIAN COORDINATES (ANGSTROEM)
---------------------------------
  C      4.029987   -1.306883   -2.339773
  C      4.612527   -1.086846   -0.958472
  O      3.605836   -1.096987    0.068413
  P      2.498241    0.037127    0.186628
  S      3.134067    1.846063   -0.204261
  O      2.029283   -0.082750    1.686915
  C      1.241303   -1.139716    2.284927
  C      1.805996   -2.519247    2.024118
  S      0.881197   -0.666245   -1.019128
  C      0.106341    0.943280   -1.276136
  S     -0.720287    1.577461    0.211816
  P     -2.409459    0.319487    0.072786
  S     -3.130819   -0.034167   -1.719283
  O     -3.469017    0.920465    1.095507
  C     -4.456628    1.888099    0.699761
  C     -3.834837    3.226384    0.356862
  O     -1.877955   -0.930684    0.888597
  C     -2.538599   -2.219663    0.836636
  C     -1.806694   -3.147196   -0.112184
  H      3.407228   -2.197664   -2.352668
  H      3.424673   -0.449547   -2.629961
  H      4.838542   -1.421817   -3.054496
  H      5.142433   -0.130223   -0.913450
  H      5.283965   -1.897077   -0.670955
  H      1.259521   -0.889681    3.346953
  H      0.218400   -1.055412    1.908444
  H      1.764664   -2.748913    0.960847
  H      2.840987   -2.570409    2.351869
  H      1.218886   -3.251140    2.570813
  H     -0.626820    0.823106   -2.074209
  H      0.871288    1.674625   -1.539124
  H     -5.007008    1.489085   -0.158471
  H     -5.116489    1.959008    1.565346
  H     -4.620134    3.953449    0.176603
  H     -3.203451    3.570501    1.172428
  H     -3.225447    3.135080   -0.541682
  H     -2.511058   -2.587684    1.863288
  H     -3.576836   -2.078760    0.524621
  H     -2.278095   -4.124313   -0.090779
  H     -1.846758   -2.754353   -1.125950
  H     -0.765215   -3.240596    0.180930

 Total Charge           Charge          ....    0
 Multiplicity           Mult            ....    1
 Number of Electrons    NEL             ....  202
 Basis Dimension        Dim             ....  334

ORBITAL ENERGIES
----------------

  NO   OCC          E(Eh)            E(eV)
   0   2.0000     -88.045341     -2395.8355
   1   2.0000     -88.043361     -2395.7816
   2   2.0000     -87.994433     -2394.4503
   3   2.0000     -87.984012     -2394.1667
   4   2.0000     -76.430894     -2079.7904
   5   2.0000     -76.426099     -2079.6599
   6   2.0000     -18.797066      -511.4942
   7   2.0000     -18.796114      -511.4683
   8   2.0000     -18.794066      -511.4125
   9   2.0000     -18.788035      -511.2484
  10   2.0000      -9.959131      -271.0017
  11   2.0000      -9.954902      -270.8866
  12   2.0000      -9.952834      -270.8304
  13   2.0000      -9.952830      -270.8303
  14   2.0000      -9.949901      -270.7506
  15   2.0000      -9.887682      -269.0575
  16   2.0000      -9.885654      -269.0023
  17   2.0000      -9.885631      -269.0017
  18   2.0000      -9.883912      -268.9549
  19   2.0000      -7.690398      -209.2664
  20   2.0000      -7.687971      -209.2003
  21   2.0000      -7.639305      -207.8761
  22   2.0000      -7.629301      -207.6038
  23   2.0000      -6.428705      -174.9340
  24   2.0000      -6.423361      -174.7885
  25   2.0000      -5.718199      -155.6001
  26   2.0000      -5.715683      -155.5316
  27   2.0000      -5.715099      -155.5157
  28   2.0000      -5.712567      -155.4468
  29   2.0000      -5.707244      -155.3020
  30   2.0000      -5.705073      -155.2429
  31   2.0000      -5.668040      -154.2352
  32   2.0000      -5.660081      -154.0186
  33   2.0000      -5.659516      -154.0033
  34   2.0000      -5.658256      -153.9690
  35   2.0000      -5.649854      -153.7403
  36   2.0000      -5.649440      -153.7291
  37   2.0000      -4.651237      -126.5666
  38   2.0000      -4.650386      -126.5434
  39   2.0000      -4.649225      -126.5118
  40   2.0000      -4.646112      -126.4271
  41   2.0000      -4.645166      -126.4014
  42   2.0000      -4.643682      -126.3610
  43   2.0000      -0.991652       -26.9842
  44   2.0000      -0.985568       -26.8187
  45   2.0000      -0.950017       -25.8513
  46   2.0000      -0.943839       -25.6832
  47   2.0000      -0.766241       -20.8505
  48   2.0000      -0.723036       -19.6748
  49   2.0000      -0.710797       -19.3418
  50   2.0000      -0.689950       -18.7745
  51   2.0000      -0.689275       -18.7561
  52   2.0000      -0.678874       -18.4731
  53   2.0000      -0.653478       -17.7820
  54   2.0000      -0.639388       -17.3986
  55   2.0000      -0.603517       -16.4225
  56   2.0000      -0.595068       -16.1926
  57   2.0000      -0.578106       -15.7311
  58   2.0000      -0.575372       -15.6567
  59   2.0000      -0.559070       -15.2131
  60   2.0000      -0.506393       -13.7797
  61   2.0000      -0.491155       -13.3650
  62   2.0000      -0.474411       -12.9094
  63   2.0000      -0.469830       -12.7847
  64   2.0000      -0.462710       -12.5910
  65   2.0000      -0.445403       -12.1200
  66   2.0000      -0.442881       -12.0514
  67   2.0000      -0.439867       -11.9694
  68   2.0000      -0.431725       -11.7478
  69   2.0000      -0.422552       -11.4982
  70   2.0000      -0.410006       -11.1568
  71   2.0000      -0.399462       -10.8699
  72   2.0000      -0.396630       -10.7929
  73   2.0000      -0.385677       -10.4948
  74   2.0000      -0.381100       -10.3703
  75   2.0000      -0.377255       -10.2656
  76   2.0000      -0.368195       -10.0191
  77   2.0000      -0.364325        -9.9138
  78   2.0000      -0.356157        -9.6915
  79   2.0000      -0.353534        -9.6201
  80   2.0000      -0.351897        -9.5756
  81   2.0000      -0.346873        -9.4389
  82   2.0000      -0.344175        -9.3655
  83   2.0000      -0.340068        -9.2537
  84   2.0000      -0.336760        -9.1637
  85   2.0000      -0.319920        -8.7055
  86   2.0000      -0.310670        -8.4537
  87   2.0000      -0.299326        -8.1451
  88   2.0000      -0.293505        -7.9867
  89   2.0000      -0.291564        -7.9339
  90   2.0000      -0.290865        -7.9148
  91   2.0000      -0.282210        -7.6793
  92   2.0000      -0.269730        -7.3397
  93   2.0000      -0.265096        -7.2136
  94   2.0000      -0.261462        -7.1148
  95   2.0000      -0.236535        -6.4364
  96   2.0000      -0.219353        -5.9689
  97   2.0000      -0.215842        -5.8734
  98   2.0000      -0.207343        -5.6421
  99   2.0000      -0.202917        -5.5216
 100   2.0000      -0.200833        -5.4650
 101   0.0000      -0.046087        -1.2541
 102   0.0000      -0.028412        -0.7731
 103   0.0000      -0.006327        -0.1722
 104   0.0000      -0.001238        -0.0337
 105   0.0000       0.011651         0.3170

MULLIKEN ATOMIC CHARGES
-----------------------
   0 C :   -0.313790
   1 C :   -0.002367
   2 O :   -0.376137
   3 P :    0.603515
   4 S :   -0.317753
   5 O :   -0.354689
   6 C :   -0.034968
   7 C :   -0.318511
   8 S :   -0.099597
   9 C :   -0.374093
  10 S :   -0.055474
  11 P :    0.607382
  12 S :   -0.335662
  13 O :   -0.371353
  14 C :   -0.005473
  15 C :   -0.317444
  16 O :   -0.362624
  17 C :   -0.001404
  18 C :   -0.298649
  19 H :    0.115275
  20 H :    0.126197
  21 H :    0.113433
  22 H :    0.114839
  23 H :    0.104495
  24 H :    0.106774
  25 H :    0.145884
  26 H :    0.127223
  27 H :    0.122198
  28 H :    0.111093
  29 H :    0.192596
  30 H :    0.196506
  31 H :    0.112184
  32 H :    0.106410
  33 H :    0.114802
  34 H :    0.121136
  35 H :    0.127417
  36 H :    0.106939
  37 H :    0.107151
  38 H :    0.108603
  39 H :    0.126028
  40 H :    0.121911
Sum of atomic charges:    0.0000000

LOEWDIN ATOMIC CHARGES
----------------------
   0 C :   -0.370128
   1 C :   -0.117721
   2 O :   -0.242936
   3 P :    0.574389
   4 S :   -0.312149
   5 O :   -0.232479
   6 C :   -0.120884
   7 C :   -0.367365
   8 S :    0.081115
   9 C :   -0.489566
  10 S :    0.105755
  11 P :    0.573066
  12 S :   -0.321626
  13 O :   -0.245239
  14 C :   -0.119793
  15 C :   -0.368968
  16 O :   -0.239294
  17 C :   -0.112038
  18 C :   -0.361997
  19 H :    0.122757
  20 H :    0.121075
  21 H :    0.131231
  22 H :    0.113095
  23 H :    0.118453
  24 H :    0.122146
  25 H :    0.112475
  26 H :    0.116236
  27 H :    0.128354
  28 H :    0.129137
  29 H :    0.128008
  30 H :    0.128824
  31 H :    0.110454
  32 H :    0.119302
  33 H :    0.132006
  34 H :    0.126126
  35 H :    0.121601
  36 H :    0.117824
  37 H :    0.111304
  38 H :    0.128986
  39 H :    0.125428
  40 H :    0.123034

  Mayer bond orders larger than 0.100000
B(  0-C ,  1-C ) :   1.1654 B(  0-C , 19-H ) :   0.9450 B(  0-C , 20-H ) :   0.9349
B(  0-C , 21-H ) :   0.9374 B(  1-C ,  2-O ) :   0.9062 B(  1-C , 22-H ) :   0.9161
B(  1-C , 23-H ) :   0.9340 B(  2-O ,  3-P ) :   1.0902 B(  3-P ,  4-S ) :   1.6190
B(  3-P ,  5-O ) :   1.1560 B(  3-P ,  8-S ) :   0.9352 B(  4-S ,  8-S ) :   0.1084
B(  5-O ,  6-C ) :   0.8942 B(  6-C ,  7-C ) :   1.1727 B(  6-C , 24-H ) :   0.9328
B(  6-C , 25-H ) :   0.8981 B(  7-C , 26-H ) :   0.9293 B(  7-C , 27-H ) :   0.9411
B(  7-C , 28-H ) :   0.9357 B(  8-S ,  9-C ) :   1.0095 B(  9-C , 10-S ) :   1.0019
B(  9-C , 29-H ) :   0.8695 B(  9-C , 30-H ) :   0.8678 B( 10-S , 11-P ) :   0.9718
B( 10-S , 12-S ) :   0.1101 B( 11-P , 12-S ) :   1.5816 B( 11-P , 13-O ) :   1.1169
B( 11-P , 16-O ) :   1.1184 B( 13-O , 14-C ) :   0.9071 B( 14-C , 15-C ) :   1.1644
B( 14-C , 31-H ) :   0.9156 B( 14-C , 32-H ) :   0.9334 B( 15-C , 33-H ) :   0.9379
B( 15-C , 34-H ) :   0.9449 B( 15-C , 35-H ) :   0.9354 B( 16-O , 17-C ) :   0.8770
B( 17-C , 18-C ) :   1.1724 B( 17-C , 36-H ) :   0.9341 B( 17-C , 37-H ) :   0.9134
B( 18-C , 38-H ) :   0.9385 B( 18-C , 39-H ) :   0.9352 B( 18-C , 40-H ) :   0.9417

Dispersion correction           -0.066650791
FINAL SINGLE POINT ENERGY     -2929.523981659791

DIPOLE MOMENT
-------------

Method             : SCF
Type of density    : Electron Density
Multiplicity       :   1
Irrep              :   0
Energy             : -2929.6433840011427492 Eh
Relativity type    :
Basis              : AO
                                X                 Y                 Z
Electronic contribution:      1.874390428      13.061785610      -0.776896600
Nuclear contribution   :     -2.431548679     -14.293212391       1.282130075
                        -----------------------------------------
Total Dipole Moment    :     -0.557158250      -1.231426782       0.505233475
                        -----------------------------------------
Magnitude (a.u.)       :      1.442947712
Magnitude (Debye)      :      3.667681608

Rotational constants in cm-1:             0.012925             0.004957             0.004521
Rotational constants in MHz :           387.472000           148.601061           135.548475

                             ****ORCA TERMINATED NORMALLY****
TOTAL RUN TIME: 0 days 0 hours 0 minutes 21 seconds 503 msec
