                         Program Version 6.0.0  -   RELEASE  -
|  1> ! pbe def2-sv(p) def2/J RI DEFGRID1 loosescf d4 GCP(DFT/SV(P)) printgap
|  2> %output
|  3>     printlevel normal
|  4> end
|  5> * xyz 0 1
|  6> C 2.5394879761 0.2660015838 -2.9643782049
|  7> C 2.7257975588 1.1806126276 -1.7707802232
|  8> O 3.1417720394 0.4315683743 -0.6143008727
|  9> P 2.1863138037 -0.0829706372 0.539520756
| 10> S 1.052189182 1.2744167355 1.396862834
| 11> O 3.2195597535 -0.7599657792 1.5312281944
| 12> C 3.8721627314 -0.0338810229 2.592523776
| 13> C 4.8781640425 0.9637108144 2.0586689711
| 14> S 1.2818858969 -1.8328453497 -0.208535363
| 15> C -0.058324472 -1.9856682353 1.022957024
| 16> S -1.7017433355 -2.15734756 0.2777331335
| 17> P -2.0599399749 -0.1489013462 -0.2901150299
| 18> S -0.8323371315 0.6168662218 -1.6204098967
| 19> O -2.1665320774 0.5063896688 1.1432079639
| 20> C -2.8872379703 1.7208440246 1.4478547488
| 21> C -2.3762772845 2.908509205 0.6612328086
| 22> O -3.5717022836 -0.1717615222 -0.7690678045
| 23> C -3.962858454 -0.4703039013 -2.1238440543
| 24> C -5.219656331 0.3163389266 -2.4390250038
| 25> H 1.6963546863 -0.4018741279 -2.8011719522
| 26> H 2.3385772762 0.8689068319 -3.8437751165
| 27> H 3.4361216042 -0.3261312887 -3.1233905783
| 28> H 1.8017707675 1.7209797033 -1.5433529421
| 29> H 3.5344218583 1.8940063101 -1.9411232972
| 30> H 3.1051700689 0.4724809481 3.1878071225
| 31> H 4.3496822888 -0.8149169678 3.1854144731
| 32> H 4.3624308988 1.7510615105 1.5105575357
| 33> H 5.4209819658 1.407013331 2.8876386179
| 34> H 5.5764612829 0.4695705191 1.3885192575
| 35> H -0.0482552021 -1.1030262948 1.6654987591
| 36> H 0.1028218693 -2.8968344445 1.5922846375
| 37> H -3.9467356972 1.5425090275 1.2521254232
| 38> H -2.7172541533 1.8505453769 2.517927585
| 39> H -2.5500473109 2.7587411009 -0.403704199
| 40> H -2.8917607529 3.8069398042 0.9849922875
| 41> H -1.3064140533 3.0284717252 0.8227909152
| 42> H -3.1411678193 -0.1970371331 -2.7948722742
| 43> H -4.138043843 -1.5465374789 -2.187007601
| 44> H -5.549264318 0.0691846452 -3.4427431915
| 45> H -6.0032857466 0.0637452868 -1.7305724196
| 46> H -5.0210192414 1.3831898417 -2.3815365329
| 47> *
| 48>
| 49>                          ****END OF INPUT****

CARTESIAN COORDINATES (ANGSTROEM)
---------------------------------
  C      2.539488    0.266002   -2.964378
  C      2.725798    1.180613   -1.770780
  O      3.141772    0.431568   -0.614301
  P      2.186314   -0.082971    0.539521
  S      1.052189    1.274417    1.396863
  O      3.219560   -0.759966    1.531228
  C      3.872163   -0.033881    2.592524
  C      4.878164    0.963711    2.058669
  S      1.281886   -1.832845   -0.208535
  C     -0.058324   -1.985668    1.022957
  S     -1.701743   -2.157348    0.277733
  P     -2.059940   -0.148901   -0.290115
  S     -0.832337    0.616866   -1.620410
  O     -2.166532    0.506390    1.143208
  C     -2.887238    1.720844    1.447855
  C     -2.376277    2.908509    0.661233
  O     -3.571702   -0.171762   -0.769068
  C     -3.962858   -0.470304   -2.123844
  C     -5.219656    0.316339   -2.439025
  H      1.696355   -0.401874   -2.801172
  H      2.338577    0.868907   -3.843775
  H      3.436122   -0.326131   -3.123391
  H      1.801771    1.720980   -1.543353
  H      3.534422    1.894006   -1.941123
  H      3.105170    0.472481    3.187807
  H      4.349682   -0.814917    3.185414
  H      4.362431    1.751062    1.510558
  H      5.420982    1.407013    2.887639
  H      5.576461    0.469571    1.388519
  H     -0.048255   -1.103026    1.665499
  H      0.102822   -2.896834    1.592285
  H     -3.946736    1.542509    1.252125
  H     -2.717254    1.850545    2.517928
  H     -2.550047    2.758741   -0.403704
  H     -2.891761    3.806940    0.984992
  H     -1.306414    3.028472    0.822791
  H     -3.141168   -0.197037   -2.794872
  H     -4.138044   -1.546537   -2.187008
  H     -5.549264    0.069185   -3.442743
  H     -6.003286    0.063745   -1.730572
  H     -5.021019    1.383190   -2.381537

 Total Charge           Charge          ....    0
 Multiplicity           Mult            ....    1
 Number of Electrons    NEL             ....  202
 Basis Dimension        Dim             ....  334

ORBITAL ENERGIES
----------------

  NO   OCC          E(Eh)            E(eV)
   0   2.0000     -88.036358     -2395.5911
   1   2.0000     -88.034023     -2395.5276
   2   2.0000     -87.980699     -2394.0765
   3   2.0000     -87.980163     -2394.0619
   4   2.0000     -76.424352     -2079.6123
   5   2.0000     -76.420146     -2079.4979
   6   2.0000     -18.795218      -511.4439
   7   2.0000     -18.788820      -511.2698
   8   2.0000     -18.786072      -511.1950
   9   2.0000     -18.780533      -511.0443
  10   2.0000      -9.952957      -270.8337
  11   2.0000      -9.952555      -270.8228
  12   2.0000      -9.951546      -270.7953
  13   2.0000      -9.945608      -270.6337
  14   2.0000      -9.944858      -270.6133
  15   2.0000      -9.889734      -269.1133
  16   2.0000      -9.878919      -268.8191
  17   2.0000      -9.876228      -268.7458
  18   2.0000      -9.875258      -268.7194
  19   2.0000      -7.682117      -209.0410
  20   2.0000      -7.679407      -208.9673
  21   2.0000      -7.625553      -207.5018
  22   2.0000      -7.624952      -207.4855
  23   2.0000      -6.421618      -174.7411
  24   2.0000      -6.417771      -174.6364
  25   2.0000      -5.709952      -155.3757
  26   2.0000      -5.707378      -155.3056
  27   2.0000      -5.706840      -155.2910
  28   2.0000      -5.704070      -155.2156
  29   2.0000      -5.698820      -155.0728
  30   2.0000      -5.696057      -154.9976
  31   2.0000      -5.654267      -153.8604
  32   2.0000      -5.653679      -153.8444
  33   2.0000      -5.646437      -153.6474
  34   2.0000      -5.645651      -153.6260
  35   2.0000      -5.645617      -153.6251
  36   2.0000      -5.645203      -153.6138
  37   2.0000      -4.644689      -126.3884
  38   2.0000      -4.643267      -126.3497
  39   2.0000      -4.641771      -126.3090
  40   2.0000      -4.640236      -126.2672
  41   2.0000      -4.639526      -126.2479
  42   2.0000      -4.638326      -126.2153
  43   2.0000      -0.986787       -26.8518
  44   2.0000      -0.980494       -26.6806
  45   2.0000      -0.943313       -25.6688
  46   2.0000      -0.938871       -25.5480
  47   2.0000      -0.757367       -20.6090
  48   2.0000      -0.719747       -19.5853
  49   2.0000      -0.705658       -19.2019
  50   2.0000      -0.688263       -18.7286
  51   2.0000      -0.681880       -18.5549
  52   2.0000      -0.667121       -18.1533
  53   2.0000      -0.648979       -17.6596
  54   2.0000      -0.629720       -17.1355
  55   2.0000      -0.595695       -16.2097
  56   2.0000      -0.588211       -16.0060
  57   2.0000      -0.571780       -15.5589
  58   2.0000      -0.564057       -15.3488
  59   2.0000      -0.557612       -15.1734
  60   2.0000      -0.504121       -13.7178
  61   2.0000      -0.490856       -13.3569
  62   2.0000      -0.472311       -12.8522
  63   2.0000      -0.469797       -12.7838
  64   2.0000      -0.450446       -12.2573
  65   2.0000      -0.445575       -12.1247
  66   2.0000      -0.439509       -11.9596
  67   2.0000      -0.430210       -11.7066
  68   2.0000      -0.423331       -11.5194
  69   2.0000      -0.408028       -11.1030
  70   2.0000      -0.402765       -10.9598
  71   2.0000      -0.397955       -10.8289
  72   2.0000      -0.390373       -10.6226
  73   2.0000      -0.384619       -10.4660
  74   2.0000      -0.379511       -10.3270
  75   2.0000      -0.373011       -10.1501
  76   2.0000      -0.364143        -9.9088
  77   2.0000      -0.354351        -9.6424
  78   2.0000      -0.351438        -9.5631
  79   2.0000      -0.343067        -9.3353
  80   2.0000      -0.341219        -9.2850
  81   2.0000      -0.338641        -9.2149
  82   2.0000      -0.335703        -9.1350
  83   2.0000      -0.333915        -9.0863
  84   2.0000      -0.327873        -8.9219
  85   2.0000      -0.317656        -8.6439
  86   2.0000      -0.306820        -8.3490
  87   2.0000      -0.299550        -8.1512
  88   2.0000      -0.287614        -7.8264
  89   2.0000      -0.287067        -7.8115
  90   2.0000      -0.278399        -7.5756
  91   2.0000      -0.273572        -7.4443
  92   2.0000      -0.266811        -7.2603
  93   2.0000      -0.260480        -7.0880
  94   2.0000      -0.257211        -6.9991
  95   2.0000      -0.235844        -6.4177
  96   2.0000      -0.222776        -6.0621
  97   2.0000      -0.200663        -5.4603
  98   2.0000      -0.198027        -5.3886
  99   2.0000      -0.188229        -5.1220
 100   2.0000      -0.182010        -4.9527
 101   0.0000      -0.036833        -1.0023
 102   0.0000      -0.029866        -0.8127
 103   0.0000      -0.009004        -0.2450
 104   0.0000       0.005254         0.1430
 105   0.0000       0.023929         0.6511

MULLIKEN ATOMIC CHARGES
-----------------------
   0 C :   -0.309402
   1 C :   -0.012607
   2 O :   -0.372697
   3 P :    0.616921
   4 S :   -0.330007
   5 O :   -0.368441
   6 C :   -0.002756
   7 C :   -0.304357
   8 S :   -0.071253
   9 C :   -0.357208
  10 S :   -0.099795
  11 P :    0.643403
  12 S :   -0.325841
  13 O :   -0.368193
  14 C :    0.005309
  15 C :   -0.324883
  16 O :   -0.385712
  17 C :   -0.009667
  18 C :   -0.287360
  19 H :    0.141861
  20 H :    0.108555
  21 H :    0.111211
  22 H :    0.122675
  23 H :    0.101611
  24 H :    0.105774
  25 H :    0.101670
  26 H :    0.121052
  27 H :    0.108666
  28 H :    0.116156
  29 H :    0.197854
  30 H :    0.185118
  31 H :    0.105551
  32 H :    0.107737
  33 H :    0.121743
  34 H :    0.105763
  35 H :    0.140728
  36 H :    0.108211
  37 H :    0.104227
  38 H :    0.113352
  39 H :    0.116686
  40 H :    0.118345
Sum of atomic charges:   -0.0000000

LOEWDIN ATOMIC CHARGES
----------------------
   0 C :   -0.365547
   1 C :   -0.115967
   2 O :   -0.238354
   3 P :    0.570436
   4 S :   -0.314832
   5 O :   -0.247425
   6 C :   -0.119349
   7 C :   -0.364374
   8 S :    0.088277
   9 C :   -0.476092
  10 S :    0.069865
  11 P :    0.573505
  12 S :   -0.305819
  13 O :   -0.238921
  14 C :   -0.106247
  15 C :   -0.370688
  16 O :   -0.247604
  17 C :   -0.121105
  18 C :   -0.351957
  19 H :    0.122477
  20 H :    0.130201
  21 H :    0.123897
  22 H :    0.109652
  23 H :    0.116675
  24 H :    0.107307
  25 H :    0.117106
  26 H :    0.123018
  27 H :    0.128568
  28 H :    0.126165
  29 H :    0.125513
  30 H :    0.137672
  31 H :    0.111221
  32 H :    0.121729
  33 H :    0.118584
  34 H :    0.127145
  35 H :    0.129941
  36 H :    0.106783
  37 H :    0.113683
  38 H :    0.131666
  39 H :    0.126252
  40 H :    0.126942

  Mayer bond orders larger than 0.100000
B(  0-C ,  1-C ) :   1.1725 B(  0-C , 19-H ) :   0.9303 B(  0-C , 20-H ) :   0.9404
B(  0-C , 21-H ) :   0.9468 B(  1-C ,  2-O ) :   0.8985 B(  1-C , 22-H ) :   0.9058
B(  1-C , 23-H ) :   0.9340 B(  2-O ,  3-P ) :   1.1236 B(  3-P ,  4-S ) :   1.5916
B(  3-P ,  5-O ) :   1.1178 B(  3-P ,  8-S ) :   0.9703 B(  4-S ,  8-S ) :   0.1171
B(  5-O ,  6-C ) :   0.9147 B(  6-C ,  7-C ) :   1.1647 B(  6-C , 24-H ) :   0.9131
B(  6-C , 25-H ) :   0.9348 B(  7-C , 26-H ) :   0.9379 B(  7-C , 27-H ) :   0.9391
B(  7-C , 28-H ) :   0.9466 B(  8-S ,  9-C ) :   0.9870 B(  9-C , 10-S ) :   1.0040
B(  9-C , 29-H ) :   0.8600 B(  9-C , 30-H ) :   0.9118 B( 10-S , 11-P ) :   0.9608
B( 10-S , 12-S ) :   0.1197 B( 11-P , 12-S ) :   1.6334 B( 11-P , 13-O ) :   1.1237
B( 11-P , 16-O ) :   1.0889 B( 13-O , 14-C ) :   0.9019 B( 14-C , 15-C ) :   1.1681
B( 14-C , 31-H ) :   0.9315 B( 14-C , 32-H ) :   0.9346 B( 15-C , 33-H ) :   0.9335
B( 15-C , 34-H ) :   0.9350 B( 15-C , 35-H ) :   0.9368 B( 16-O , 17-C ) :   0.9030
B( 17-C , 18-C ) :   1.1601 B( 17-C , 36-H ) :   0.8997 B( 17-C , 37-H ) :   0.9327
B( 18-C , 38-H ) :   0.9416 B( 18-C , 39-H ) :   0.9507 B( 18-C , 40-H ) :   0.9509

Dispersion correction           -0.066042860
FINAL SINGLE POINT ENERGY     -2929.514692789772

DIPOLE MOMENT
-------------

Method             : SCF
Type of density    : Electron Density
Multiplicity       :   1
Irrep              :   0
Energy             : -2929.6327502596805061 Eh
Relativity type    :
Basis              : AO
                                X                 Y                 Z
Electronic contribution:      1.144867108     -14.820875339       5.113793069
Nuclear contribution   :     -1.588140268      15.092070340      -5.075585923
                        -----------------------------------------
Total Dipole Moment    :     -0.443273159       0.271195001       0.038207146
                        -----------------------------------------
Magnitude (a.u.)       :      0.521054324
Magnitude (Debye)      :      1.324414838

Rotational constants in cm-1:             0.013060             0.004893             0.004788
Rotational constants in MHz :           391.529640           146.680681           143.540860

                             ****ORCA TERMINATED NORMALLY****
TOTAL RUN TIME: 0 days 0 hours 0 minutes 21 seconds 50 msec
