                         Program Version 6.0.1  -  RELEASE   -
|  1> ! r2scan-3c def2/J RI DEFGRID2 scfconv6 printgap
|  2> %output
|  3>     printlevel normal
|  4> end
|  5> * xyz 0 1
|  6> C 5.3060844311 -2.3825388975 -0.8017611561
|  7> C 3.9909791864 -3.0820397291 -1.105772062
|  8> O 3.1008965715 -2.2086452197 -1.8301800839
|  9> C 2.334242274 -1.3884509508 -1.147462201
| 10> O 2.2857468638 -1.3319102974 0.0644896079
| 11> C 1.5075440615 -0.5008956177 -2.0540603218
| 12> C 0.4565563705 0.2288943792 -1.2284630289
| 13> H -0.0220786672 1.0155000527 -1.8207085414
| 14> C 1.1206968996 0.8889866187 -0.0290660814
| 15> O 2.1260329669 1.5525701095 -0.1394205215
| 16> O 0.4538449673 0.7026883116 1.0910143548
| 17> C 0.9813570301 1.285767228 2.300139088
| 18> C 0.4938179588 2.7122693004 2.4836183814
| 19> S -0.8515887658 -0.9386890047 -0.7072547109
| 20> P -2.1372034557 0.4685827943 0.1793165823
| 21> S -2.0067381724 2.3630342647 -0.2857161786
| 22> O -3.4893939952 -0.2365682544 -0.3441021269
| 23> C -4.7595421554 0.389335775 -0.1216279105
| 24> O -2.1710115086 0.2668030516 1.7644425658
| 25> C -2.1818892813 -1.0497383892 2.3412445792
| 26> H 5.9738189507 -3.0742880889 -0.2990987479
| 27> H 5.7701125789 -2.0398672123 -1.7223594091
| 28> H 5.1323304407 -1.5254083217 -0.1543847893
| 29> H 3.4956246689 -3.3960822402 -0.1828897145
| 30> H 4.136156266 -3.9330763802 -1.7708518035
| 31> H 1.0518619751 -1.0984994661 -2.8423847987
| 32> H 2.1816979573 0.2291959005 -2.5077983616
| 33> H 0.6183540831 0.6357360533 3.0964522926
| 34> H 2.072342125 1.2455152365 2.2393644169
| 35> H 0.8605040067 3.3420524237 1.6759499472
| 36> H -0.5933253925 2.7395190576 2.4773757692
| 37> H 0.8591932075 3.0965563361 3.4298545291
| 38> H -4.7425749732 1.4128203677 -0.499901726
| 39> H -5.0003952305 0.399240156 0.9418300888
| 40> H -5.4791588315 -0.2092607119 -0.6739770774
| 41> H -2.4856009 -0.9103703785 3.3757320868
| 42> H -1.1815970849 -1.478963396 2.2868101798
| 43> H -2.8855737952 -1.6941237312 1.8134966381
| 44> *
| 45>
| 46>                          ****END OF INPUT****

CARTESIAN COORDINATES (ANGSTROEM)
---------------------------------
  C      5.306084   -2.382539   -0.801761
  C      3.990979   -3.082040   -1.105772
  O      3.100897   -2.208645   -1.830180
  C      2.334242   -1.388451   -1.147462
  O      2.285747   -1.331910    0.064490
  C      1.507544   -0.500896   -2.054060
  C      0.456556    0.228894   -1.228463
  H     -0.022079    1.015500   -1.820709
  C      1.120697    0.888987   -0.029066
  O      2.126033    1.552570   -0.139421
  O      0.453845    0.702688    1.091014
  C      0.981357    1.285767    2.300139
  C      0.493818    2.712269    2.483618
  S     -0.851589   -0.938689   -0.707255
  P     -2.137203    0.468583    0.179317
  S     -2.006738    2.363034   -0.285716
  O     -3.489394   -0.236568   -0.344102
  C     -4.759542    0.389336   -0.121628
  O     -2.171012    0.266803    1.764443
  C     -2.181889   -1.049738    2.341245
  H      5.973819   -3.074288   -0.299099
  H      5.770113   -2.039867   -1.722359
  H      5.132330   -1.525408   -0.154385
  H      3.495625   -3.396082   -0.182890
  H      4.136156   -3.933076   -1.770852
  H      1.051862   -1.098499   -2.842385
  H      2.181698    0.229196   -2.507798
  H      0.618354    0.635736    3.096452
  H      2.072342    1.245515    2.239364
  H      0.860504    3.342052    1.675950
  H     -0.593325    2.739519    2.477376
  H      0.859193    3.096556    3.429855
  H     -4.742575    1.412820   -0.499902
  H     -5.000395    0.399240    0.941830
  H     -5.479159   -0.209261   -0.673977
  H     -2.485601   -0.910370    3.375732
  H     -1.181597   -1.478963    2.286810
  H     -2.885574   -1.694124    1.813497

 Total Charge           Charge          ....    0
 Multiplicity           Mult            ....    1
 Number of Electrons    NEL             ....  174
 Basis Dimension        Dim             ....  510

ORBITAL ENERGIES
----------------

  NO   OCC          E(Eh)            E(eV)
   0   2.0000     -88.571641     -2410.1569
   1   2.0000     -88.515717     -2408.6351
   2   2.0000     -76.910786     -2092.8489
   3   2.0000     -19.009843      -517.2841
   4   2.0000     -18.991969      -516.7978
   5   2.0000     -18.990880      -516.7681
   6   2.0000     -18.984292      -516.5889
   7   2.0000     -18.942660      -515.4560
   8   2.0000     -18.924912      -514.9730
   9   2.0000     -10.167218      -276.6641
  10   2.0000     -10.155237      -276.3380
  11   2.0000     -10.100204      -274.8405
  12   2.0000     -10.096413      -274.7374
  13   2.0000     -10.092572      -274.6329
  14   2.0000     -10.088307      -274.5168
  15   2.0000     -10.084084      -274.4019
  16   2.0000     -10.065946      -273.9083
  17   2.0000     -10.034105      -273.0419
  18   2.0000     -10.013262      -272.4747
  19   2.0000      -7.866125      -214.0481
  20   2.0000      -7.810550      -212.5359
  21   2.0000      -6.589038      -179.2969
  22   2.0000      -5.813079      -158.1819
  23   2.0000      -5.810263      -158.1053
  24   2.0000      -5.802819      -157.9027
  25   2.0000      -5.758508      -156.6970
  26   2.0000      -5.750948      -156.4913
  27   2.0000      -5.750108      -156.4684
  28   2.0000      -4.734805      -128.8406
  29   2.0000      -4.733957      -128.8175
  30   2.0000      -4.732594      -128.7804
  31   2.0000      -1.087471       -29.5916
  32   2.0000      -1.071251       -29.1502
  33   2.0000      -1.043119       -28.3847
  34   2.0000      -1.003172       -27.2977
  35   2.0000      -0.992226       -26.9998
  36   2.0000      -0.975850       -26.5542
  37   2.0000      -0.809854       -22.0373
  38   2.0000      -0.759525       -20.6677
  39   2.0000      -0.734566       -19.9886
  40   2.0000      -0.732076       -19.9208
  41   2.0000      -0.695891       -18.9362
  42   2.0000      -0.676321       -18.4036
  43   2.0000      -0.654300       -17.8044
  44   2.0000      -0.645584       -17.5672
  45   2.0000      -0.630283       -17.1509
  46   2.0000      -0.593221       -16.1424
  47   2.0000      -0.538894       -14.6640
  48   2.0000      -0.533277       -14.5112
  49   2.0000      -0.520666       -14.1681
  50   2.0000      -0.501474       -13.6458
  51   2.0000      -0.491988       -13.3877
  52   2.0000      -0.481437       -13.1006
  53   2.0000      -0.465455       -12.6657
  54   2.0000      -0.457339       -12.4448
  55   2.0000      -0.448713       -12.2101
  56   2.0000      -0.448237       -12.1971
  57   2.0000      -0.438446       -11.9307
  58   2.0000      -0.434586       -11.8257
  59   2.0000      -0.427038       -11.6203
  60   2.0000      -0.418909       -11.3991
  61   2.0000      -0.415580       -11.3085
  62   2.0000      -0.413124       -11.2417
  63   2.0000      -0.398135       -10.8338
  64   2.0000      -0.392526       -10.6812
  65   2.0000      -0.380064       -10.3421
  66   2.0000      -0.373798       -10.1715
  67   2.0000      -0.363790        -9.8992
  68   2.0000      -0.357825        -9.7369
  69   2.0000      -0.350212        -9.5297
  70   2.0000      -0.346184        -9.4201
  71   2.0000      -0.341213        -9.2849
  72   2.0000      -0.336864        -9.1665
  73   2.0000      -0.331607        -9.0235
  74   2.0000      -0.325722        -8.8633
  75   2.0000      -0.316716        -8.6183
  76   2.0000      -0.303776        -8.2662
  77   2.0000      -0.296131        -8.0581
  78   2.0000      -0.288180        -7.8418
  79   2.0000      -0.284938        -7.7535
  80   2.0000      -0.278444        -7.5769
  81   2.0000      -0.265765        -7.2318
  82   2.0000      -0.253637        -6.9018
  83   2.0000      -0.248040        -6.7495
  84   2.0000      -0.219083        -5.9615
  85   2.0000      -0.216761        -5.8984
  86   2.0000      -0.209268        -5.6945
  87   0.0000      -0.043862        -1.1935
  88   0.0000      -0.023656        -0.6437
  89   0.0000      -0.009473        -0.2578
  90   0.0000       0.008990         0.2446
  91   0.0000       0.023649         0.6435

MULLIKEN ATOMIC CHARGES
-----------------------
   0 C :   -0.463970
   1 C :   -0.136812
   2 O :   -0.162423
   3 C :    0.401548
   4 O :   -0.389993
   5 C :   -0.470065
   6 C :    0.023922
   7 H :    0.243190
   8 C :    0.228926
   9 O :   -0.382176
  10 O :   -0.125599
  11 C :   -0.123065
  12 C :   -0.483885
  13 S :   -0.176469
  14 P :    0.754124
  15 S :   -0.443511
  16 O :   -0.367157
  17 C :   -0.295952
  18 O :   -0.300802
  19 C :   -0.297833
  20 H :    0.148770
  21 H :    0.153738
  22 H :    0.175284
  23 H :    0.167599
  24 H :    0.151003
  25 H :    0.192896
  26 H :    0.201678
  27 H :    0.141939
  28 H :    0.170009
  29 H :    0.173925
  30 H :    0.173009
  31 H :    0.142260
  32 H :    0.177094
  33 H :    0.149730
  34 H :    0.151815
  35 H :    0.156200
  36 H :    0.179970
  37 H :    0.161083
Sum of atomic charges:   -0.0000000

LOEWDIN ATOMIC CHARGES
----------------------
   0 C :   -0.387186
   1 C :    0.031607
   2 O :   -0.573304
   3 C :    0.369070
   4 O :   -0.427357
   5 C :   -0.205624
   6 C :   -0.191058
   7 H :    0.207597
   8 C :    0.349212
   9 O :   -0.418692
  10 O :   -0.625366
  11 C :    0.037150
  12 C :   -0.394003
  13 S :    0.248733
  14 P :    0.401088
  15 S :   -0.083158
  16 O :   -0.706336
  17 C :   -0.058205
  18 O :   -0.669869
  19 C :   -0.060021
  20 H :    0.160189
  21 H :    0.158477
  22 H :    0.167408
  23 H :    0.188562
  24 H :    0.179425
  25 H :    0.191016
  26 H :    0.205627
  27 H :    0.178086
  28 H :    0.192592
  29 H :    0.167692
  30 H :    0.166467
  31 H :    0.155185
  32 H :    0.177718
  33 H :    0.163977
  34 H :    0.176583
  35 H :    0.178777
  36 H :    0.176720
  37 H :    0.171221

  Mayer bond orders larger than 0.100000
B(  0-C ,  1-C ) :   0.9439 B(  0-C , 20-H ) :   0.9643 B(  0-C , 21-H ) :   0.9721
B(  0-C , 22-H ) :   0.9686 B(  1-C ,  2-O ) :   0.7997 B(  1-C , 23-H ) :   0.9669
B(  1-C , 24-H ) :   0.9613 B(  2-O ,  3-C ) :   1.1329 B(  3-C ,  4-O ) :   1.7935
B(  3-C ,  5-C ) :   0.9730 B(  4-O ,  8-C ) :   0.1286 B(  5-C ,  6-C ) :   0.9248
B(  5-C ,  9-O ) :   0.1074 B(  5-C , 25-H ) :   0.9731 B(  5-C , 26-H ) :   0.9141
B(  6-C ,  7-H ) :   0.9148 B(  6-C ,  8-C ) :   0.8110 B(  6-C , 13-S ) :   0.8585
B(  8-C ,  9-O ) :   1.8975 B(  8-C , 10-O ) :   1.1407 B( 10-O , 11-C ) :   0.7784
B( 11-C , 12-C ) :   0.9214 B( 11-C , 27-H ) :   0.9636 B( 11-C , 28-H ) :   0.9662
B( 12-C , 29-H ) :   0.9702 B( 12-C , 30-H ) :   0.9640 B( 12-C , 31-H ) :   0.9690
B( 13-S , 14-P ) :   1.0622 B( 14-P , 15-S ) :   1.7899 B( 14-P , 16-O ) :   1.0690
B( 14-P , 18-O ) :   1.0606 B( 16-O , 17-C ) :   0.8366 B( 17-C , 32-H ) :   0.9551
B( 17-C , 33-H ) :   0.9629 B( 17-C , 34-H ) :   0.9668 B( 18-O , 19-C ) :   0.7990
B( 19-C , 35-H ) :   0.9648 B( 19-C , 36-H ) :   0.9553 B( 19-C , 37-H ) :   0.9614

Dispersion correction           -0.017752033
FINAL SINGLE POINT ENERGY     -1981.451969104892

DIPOLE MOMENT
-------------

Method             : SCF
Type of density    : Electron Density
Multiplicity       :   1
Irrep              :   0
Energy             : -1981.4718472915369603 Eh
Relativity type    :
Basis              : AO
                                X                 Y                 Z
Electronic contribution:    -11.200493858       3.729311326      -7.750182629
Nuclear contribution   :     11.184642674      -5.398089278       8.192056957
                        -----------------------------------------
Total Dipole Moment    :     -0.015851185      -1.668777952       0.441874328
                        -----------------------------------------
Magnitude (a.u.)       :      1.726361502
Magnitude (Debye)      :      4.388062213

Rotational constants in cm-1:             0.016891             0.006088             0.005470
Rotational constants in MHz :           506.372460           182.507308           163.993809

                             ****ORCA TERMINATED NORMALLY****
TOTAL RUN TIME: 0 days 0 hours 1 minutes 15 seconds 677 msec
