                         Program Version 6.0.1  -  RELEASE   -
|  1> ! r2scan-3c def2/J RI DEFGRID2 scfconv6 printgap
|  2> %output
|  3>     printlevel normal
|  4> end
|  5> %cpcm
|  6>     smd true
|  7>     smdsolvent "water"
|  8> end
|  9> * xyz 0 1
| 10> C 5.3060844311 -2.3825388975 -0.8017611561
| 11> C 3.9909791864 -3.0820397291 -1.105772062
| 12> O 3.1008965715 -2.2086452197 -1.8301800839
| 13> C 2.334242274 -1.3884509508 -1.147462201
| 14> O 2.2857468638 -1.3319102974 0.0644896079
| 15> C 1.5075440615 -0.5008956177 -2.0540603218
| 16> C 0.4565563705 0.2288943792 -1.2284630289
| 17> H -0.0220786672 1.0155000527 -1.8207085414
| 18> C 1.1206968996 0.8889866187 -0.0290660814
| 19> O 2.1260329669 1.5525701095 -0.1394205215
| 20> O 0.4538449673 0.7026883116 1.0910143548
| 21> C 0.9813570301 1.285767228 2.300139088
| 22> C 0.4938179588 2.7122693004 2.4836183814
| 23> S -0.8515887658 -0.9386890047 -0.7072547109
| 24> P -2.1372034557 0.4685827943 0.1793165823
| 25> S -2.0067381724 2.3630342647 -0.2857161786
| 26> O -3.4893939952 -0.2365682544 -0.3441021269
| 27> C -4.7595421554 0.389335775 -0.1216279105
| 28> O -2.1710115086 0.2668030516 1.7644425658
| 29> C -2.1818892813 -1.0497383892 2.3412445792
| 30> H 5.9738189507 -3.0742880889 -0.2990987479
| 31> H 5.7701125789 -2.0398672123 -1.7223594091
| 32> H 5.1323304407 -1.5254083217 -0.1543847893
| 33> H 3.4956246689 -3.3960822402 -0.1828897145
| 34> H 4.136156266 -3.9330763802 -1.7708518035
| 35> H 1.0518619751 -1.0984994661 -2.8423847987
| 36> H 2.1816979573 0.2291959005 -2.5077983616
| 37> H 0.6183540831 0.6357360533 3.0964522926
| 38> H 2.072342125 1.2455152365 2.2393644169
| 39> H 0.8605040067 3.3420524237 1.6759499472
| 40> H -0.5933253925 2.7395190576 2.4773757692
| 41> H 0.8591932075 3.0965563361 3.4298545291
| 42> H -4.7425749732 1.4128203677 -0.499901726
| 43> H -5.0003952305 0.399240156 0.9418300888
| 44> H -5.4791588315 -0.2092607119 -0.6739770774
| 45> H -2.4856009 -0.9103703785 3.3757320868
| 46> H -1.1815970849 -1.478963396 2.2868101798
| 47> H -2.8855737952 -1.6941237312 1.8134966381
| 48> *
| 49>
| 50>                          ****END OF INPUT****

CARTESIAN COORDINATES (ANGSTROEM)
---------------------------------
  C      5.306084   -2.382539   -0.801761
  C      3.990979   -3.082040   -1.105772
  O      3.100897   -2.208645   -1.830180
  C      2.334242   -1.388451   -1.147462
  O      2.285747   -1.331910    0.064490
  C      1.507544   -0.500896   -2.054060
  C      0.456556    0.228894   -1.228463
  H     -0.022079    1.015500   -1.820709
  C      1.120697    0.888987   -0.029066
  O      2.126033    1.552570   -0.139421
  O      0.453845    0.702688    1.091014
  C      0.981357    1.285767    2.300139
  C      0.493818    2.712269    2.483618
  S     -0.851589   -0.938689   -0.707255
  P     -2.137203    0.468583    0.179317
  S     -2.006738    2.363034   -0.285716
  O     -3.489394   -0.236568   -0.344102
  C     -4.759542    0.389336   -0.121628
  O     -2.171012    0.266803    1.764443
  C     -2.181889   -1.049738    2.341245
  H      5.973819   -3.074288   -0.299099
  H      5.770113   -2.039867   -1.722359
  H      5.132330   -1.525408   -0.154385
  H      3.495625   -3.396082   -0.182890
  H      4.136156   -3.933076   -1.770852
  H      1.051862   -1.098499   -2.842385
  H      2.181698    0.229196   -2.507798
  H      0.618354    0.635736    3.096452
  H      2.072342    1.245515    2.239364
  H      0.860504    3.342052    1.675950
  H     -0.593325    2.739519    2.477376
  H      0.859193    3.096556    3.429855
  H     -4.742575    1.412820   -0.499902
  H     -5.000395    0.399240    0.941830
  H     -5.479159   -0.209261   -0.673977
  H     -2.485601   -0.910370    3.375732
  H     -1.181597   -1.478963    2.286810
  H     -2.885574   -1.694124    1.813497

 Total Charge           Charge          ....    0
 Multiplicity           Mult            ....    1
 Number of Electrons    NEL             ....  174
 Basis Dimension        Dim             ....  510

ORBITAL ENERGIES
----------------

  NO   OCC          E(Eh)            E(eV)
   0   2.0000     -88.579554     -2410.3722
   1   2.0000     -88.527866     -2408.9657
   2   2.0000     -76.918853     -2093.0684
   3   2.0000     -19.010204      -517.2939
   4   2.0000     -19.006273      -517.1870
   5   2.0000     -18.993731      -516.8457
   6   2.0000     -18.988821      -516.7121
   7   2.0000     -18.952540      -515.7248
   8   2.0000     -18.947843      -515.5970
   9   2.0000     -10.173976      -276.8480
  10   2.0000     -10.173388      -276.8320
  11   2.0000     -10.097407      -274.7644
  12   2.0000     -10.087035      -274.4822
  13   2.0000     -10.086319      -274.4627
  14   2.0000     -10.082840      -274.3680
  15   2.0000     -10.079155      -274.2678
  16   2.0000     -10.061414      -273.7850
  17   2.0000     -10.019699      -272.6499
  18   2.0000     -10.017136      -272.5801
  19   2.0000      -7.874020      -214.2630
  20   2.0000      -7.823033      -212.8756
  21   2.0000      -6.597156      -179.5178
  22   2.0000      -5.820957      -158.3963
  23   2.0000      -5.818124      -158.3192
  24   2.0000      -5.810774      -158.1192
  25   2.0000      -5.770878      -157.0336
  26   2.0000      -5.763405      -156.8302
  27   2.0000      -5.762666      -156.8101
  28   2.0000      -4.742855      -129.0596
  29   2.0000      -4.742073      -129.0384
  30   2.0000      -4.740818      -129.0042
  31   2.0000      -1.091062       -29.6893
  32   2.0000      -1.085968       -29.5507
  33   2.0000      -1.046122       -28.4664
  34   2.0000      -1.006043       -27.3758
  35   2.0000      -1.001021       -27.2392
  36   2.0000      -0.995915       -27.1002
  37   2.0000      -0.814257       -22.1570
  38   2.0000      -0.754931       -20.5427
  39   2.0000      -0.738550       -20.0970
  40   2.0000      -0.731267       -19.8988
  41   2.0000      -0.694688       -18.9034
  42   2.0000      -0.672219       -18.2920
  43   2.0000      -0.656265       -17.8579
  44   2.0000      -0.648460       -17.6455
  45   2.0000      -0.628919       -17.1138
  46   2.0000      -0.593803       -16.1582
  47   2.0000      -0.539804       -14.6888
  48   2.0000      -0.529345       -14.4042
  49   2.0000      -0.524607       -14.2753
  50   2.0000      -0.506512       -13.7829
  51   2.0000      -0.490343       -13.3429
  52   2.0000      -0.482309       -13.1243
  53   2.0000      -0.468857       -12.7582
  54   2.0000      -0.462443       -12.5837
  55   2.0000      -0.457268       -12.4429
  56   2.0000      -0.448919       -12.2157
  57   2.0000      -0.444456       -12.0943
  58   2.0000      -0.437382       -11.9018
  59   2.0000      -0.423910       -11.5352
  60   2.0000      -0.418074       -11.3764
  61   2.0000      -0.413960       -11.2644
  62   2.0000      -0.411067       -11.1857
  63   2.0000      -0.401149       -10.9158
  64   2.0000      -0.390426       -10.6240
  65   2.0000      -0.384061       -10.4508
  66   2.0000      -0.369030       -10.0418
  67   2.0000      -0.366474        -9.9723
  68   2.0000      -0.357554        -9.7295
  69   2.0000      -0.352248        -9.5852
  70   2.0000      -0.344369        -9.3707
  71   2.0000      -0.341455        -9.2915
  72   2.0000      -0.338093        -9.2000
  73   2.0000      -0.336762        -9.1638
  74   2.0000      -0.328615        -8.9421
  75   2.0000      -0.309458        -8.4208
  76   2.0000      -0.308568        -8.3966
  77   2.0000      -0.301670        -8.2089
  78   2.0000      -0.288970        -7.8633
  79   2.0000      -0.288630        -7.8540
  80   2.0000      -0.282721        -7.6932
  81   2.0000      -0.278597        -7.5810
  82   2.0000      -0.267304        -7.2737
  83   2.0000      -0.260953        -7.1009
  84   2.0000      -0.232540        -6.3277
  85   2.0000      -0.229402        -6.2424
  86   2.0000      -0.222631        -6.0581
  87   0.0000      -0.051774        -1.4088
  88   0.0000      -0.028557        -0.7771
  89   0.0000      -0.025773        -0.7013
  90   0.0000       0.004944         0.1345
  91   0.0000       0.017854         0.4858

MULLIKEN ATOMIC CHARGES
-----------------------
   0 C :   -0.495005
   1 C :   -0.137787
   2 O :   -0.172933
   3 C :    0.435245
   4 O :   -0.455635
   5 C :   -0.507409
   6 C :    0.033778
   7 H :    0.270863
   8 C :    0.226901
   9 O :   -0.449273
  10 O :   -0.138431
  11 C :   -0.131724
  12 C :   -0.509028
  13 S :   -0.187820
  14 P :    0.774924
  15 S :   -0.492433
  16 O :   -0.391095
  17 C :   -0.315464
  18 O :   -0.331503
  19 C :   -0.301424
  20 H :    0.172421
  21 H :    0.167209
  22 H :    0.169903
  23 H :    0.175182
  24 H :    0.177348
  25 H :    0.227436
  26 H :    0.236759
  27 H :    0.180577
  28 H :    0.176403
  29 H :    0.171206
  30 H :    0.168941
  31 H :    0.171733
  32 H :    0.176963
  33 H :    0.177265
  34 H :    0.177305
  35 H :    0.183034
  36 H :    0.183417
  37 H :    0.182151
Sum of atomic charges:    0.0000000

LOEWDIN ATOMIC CHARGES
----------------------
   0 C :   -0.390693
   1 C :    0.037700
   2 O :   -0.572621
   3 C :    0.376550
   4 O :   -0.472895
   5 C :   -0.197425
   6 C :   -0.187416
   7 H :    0.216463
   8 C :    0.350089
   9 O :   -0.469307
  10 O :   -0.629336
  11 C :    0.040733
  12 C :   -0.396342
  13 S :    0.248024
  14 P :    0.402806
  15 S :   -0.119902
  16 O :   -0.718976
  17 C :   -0.054287
  18 O :   -0.683340
  19 C :   -0.050182
  20 H :    0.168969
  21 H :    0.162598
  22 H :    0.163381
  23 H :    0.191276
  24 H :    0.190972
  25 H :    0.205502
  26 H :    0.216479
  27 H :    0.192579
  28 H :    0.194695
  29 H :    0.163326
  30 H :    0.163695
  31 H :    0.166520
  32 H :    0.177231
  33 H :    0.175051
  34 H :    0.187537
  35 H :    0.191207
  36 H :    0.179358
  37 H :    0.179978

  Mayer bond orders larger than 0.100000
B(  0-C ,  1-C ) :   0.9373 B(  0-C , 20-H ) :   0.9589 B(  0-C , 21-H ) :   0.9689
B(  0-C , 22-H ) :   0.9689 B(  1-C ,  2-O ) :   0.7834 B(  1-C , 23-H ) :   0.9627
B(  1-C , 24-H ) :   0.9515 B(  2-O ,  3-C ) :   1.1482 B(  3-C ,  4-O ) :   1.7422
B(  3-C ,  5-C ) :   0.9487 B(  4-O ,  8-C ) :   0.1276 B(  5-C ,  6-C ) :   0.8967
B(  5-C , 25-H ) :   0.9624 B(  5-C , 26-H ) :   0.9205 B(  6-C ,  7-H ) :   0.9029
B(  6-C ,  8-C ) :   0.8171 B(  6-C , 13-S ) :   0.8559 B(  8-C ,  9-O ) :   1.8364
B(  8-C , 10-O ) :   1.1521 B( 10-O , 11-C ) :   0.7612 B( 11-C , 12-C ) :   0.9112
B( 11-C , 27-H ) :   0.9534 B( 11-C , 28-H ) :   0.9568 B( 12-C , 29-H ) :   0.9717
B( 12-C , 30-H ) :   0.9655 B( 12-C , 31-H ) :   0.9623 B( 13-S , 14-P ) :   1.0698
B( 14-P , 15-S ) :   1.7658 B( 14-P , 16-O ) :   1.0769 B( 14-P , 18-O ) :   1.0692
B( 16-O , 17-C ) :   0.8246 B( 17-C , 32-H ) :   0.9522 B( 17-C , 33-H ) :   0.9553
B( 17-C , 34-H ) :   0.9568 B( 18-O , 19-C ) :   0.7885 B( 19-C , 35-H ) :   0.9542
B( 19-C , 36-H ) :   0.9493 B( 19-C , 37-H ) :   0.9526

Dispersion correction           -0.017752033
FINAL SINGLE POINT ENERGY     -1981.467500603623

DIPOLE MOMENT
-------------

Method             : SCF
Type of density    : Electron Density
Multiplicity       :   1
Irrep              :   0
Energy             : -1981.4873787902674849 Eh
Relativity type    :
Basis              : AO
                                X                 Y                 Z
Electronic contribution:    -11.410704637       3.069557055      -7.708923291
Nuclear contribution   :     11.184642674      -5.398089278       8.192056957
                        -----------------------------------------
Total Dipole Moment    :     -0.226061964      -2.328532223       0.483133665
                        -----------------------------------------
Magnitude (a.u.)       :      2.388845843
Magnitude (Debye)      :      6.071963586

Rotational constants in cm-1:             0.016891             0.006088             0.005470
Rotational constants in MHz :           506.372460           182.507308           163.993809

                             ****ORCA TERMINATED NORMALLY****
TOTAL RUN TIME: 0 days 0 hours 2 minutes 1 seconds 324 msec
