                         Program Version 6.0.1  -  RELEASE   -
|  1> ! pbe def2-sv(p) def2/J RI DEFGRID1 loosescf d4 GCP(DFT/SV(P)) printgap
|  2> %output
|  3>     printlevel normal
|  4> end
|  5> * xyz 0 1
|  6> C 2.7084279315 -1.8667948185 1.4421553929
|  7> C 3.1212014514 -2.1041476261 -0.0020246205
|  8> O 2.7401782981 -0.9955435979 -0.8423249272
|  9> C 1.608550184 -1.0789228803 -1.5209983983
| 10> O 0.8632576923 -2.0321939797 -1.4946569693
| 11> C 1.3460807778 0.1791797715 -2.326811697
| 12> C 0.3330249311 1.0583625653 -1.5715678885
| 13> H 0.234013803 2.0282719654 -2.0594133506
| 14> C 0.8457694928 1.2102953247 -0.1581546552
| 15> O 0.487850442 0.46519369 0.7380397181
| 16> O 1.7195762503 2.1636365688 -0.0559328359
| 17> C 2.4302410997 2.3567798466 1.1881298374
| 18> C 3.9016601421 2.0520884018 0.9651554267
| 19> S -1.3213969057 0.2867220706 -1.5388446968
| 20> P -1.8364884046 -0.0799230252 0.5007992932
| 21> S -1.9599618168 1.4049360352 1.7830137803
| 22> O -3.3234874405 -0.6155254956 0.1660573951
| 23> C -4.3816142804 0.2660468612 -0.2105396133
| 24> O -1.2323364803 -1.4298846134 1.0679460863
| 25> C -1.4833064221 -2.7366107429 0.515021767
| 26> H 3.2424968052 -1.0182746696 1.8609753415
| 27> H 1.6397476938 -1.6642531648 1.502682108
| 28> H 2.9322054054 -2.7518100731 2.0284908448
| 29> H 2.6485998574 -3.0085527032 -0.3952201484
| 30> H 4.2055246053 -2.169653893 -0.1000251564
| 31> H 0.9217630474 -0.0972260195 -3.2916007517
| 32> H 2.2761156723 0.7327806572 -2.451918713
| 33> H 2.2741652227 3.4034823331 1.4541806292
| 34> H 1.986001346 1.711811329 1.950561792
| 35> H 4.3113020556 2.7251029159 0.2181397214
| 36> H 4.4385374708 2.1836615845 1.8986727317
| 37> H 4.0251026611 1.0282451927 0.620484274
| 38> H -4.360923055 1.1622754226 0.4128912
| 39> H -5.3016922714 -0.2890068246 -0.0447699883
| 40> H -4.2802062608 0.5397806651 -1.2603480904
| 41> H -2.5364983265 -2.8507551942 0.2692843382
| 42> H -1.1924474887 -3.430760463 1.2997260445
| 43> H -0.8666354288 -2.8778906648 -0.3726763157
| 44> *
| 45>
| 46>                          ****END OF INPUT****

CARTESIAN COORDINATES (ANGSTROEM)
---------------------------------
  C      2.708428   -1.866795    1.442155
  C      3.121201   -2.104148   -0.002025
  O      2.740178   -0.995544   -0.842325
  C      1.608550   -1.078923   -1.520998
  O      0.863258   -2.032194   -1.494657
  C      1.346081    0.179180   -2.326812
  C      0.333025    1.058363   -1.571568
  H      0.234014    2.028272   -2.059413
  C      0.845769    1.210295   -0.158155
  O      0.487850    0.465194    0.738040
  O      1.719576    2.163637   -0.055933
  C      2.430241    2.356780    1.188130
  C      3.901660    2.052088    0.965155
  S     -1.321397    0.286722   -1.538845
  P     -1.836488   -0.079923    0.500799
  S     -1.959962    1.404936    1.783014
  O     -3.323487   -0.615525    0.166057
  C     -4.381614    0.266047   -0.210540
  O     -1.232336   -1.429885    1.067946
  C     -1.483306   -2.736611    0.515022
  H      3.242497   -1.018275    1.860975
  H      1.639748   -1.664253    1.502682
  H      2.932205   -2.751810    2.028491
  H      2.648600   -3.008553   -0.395220
  H      4.205525   -2.169654   -0.100025
  H      0.921763   -0.097226   -3.291601
  H      2.276116    0.732781   -2.451919
  H      2.274165    3.403482    1.454181
  H      1.986001    1.711811    1.950562
  H      4.311302    2.725103    0.218140
  H      4.438537    2.183662    1.898673
  H      4.025103    1.028245    0.620484
  H     -4.360923    1.162275    0.412891
  H     -5.301692   -0.289007   -0.044770
  H     -4.280206    0.539781   -1.260348
  H     -2.536498   -2.850755    0.269284
  H     -1.192447   -3.430760    1.299726
  H     -0.866635   -2.877891   -0.372676

 Total Charge           Charge          ....    0
 Multiplicity           Mult            ....    1
 Number of Electrons    NEL             ....  174
 Basis Dimension        Dim             ....  316

ORBITAL ENERGIES
----------------

  NO   OCC          E(Eh)            E(eV)
   0   2.0000     -88.029862     -2395.4143
   1   2.0000     -87.957356     -2393.4413
   2   2.0000     -76.414140     -2079.3345
   3   2.0000     -18.826619      -512.2983
   4   2.0000     -18.813842      -511.9507
   5   2.0000     -18.772029      -510.8129
   6   2.0000     -18.770737      -510.7777
   7   2.0000     -18.765963      -510.6478
   8   2.0000     -18.747902      -510.1563
   9   2.0000     -10.032006      -272.9848
  10   2.0000     -10.021129      -272.6888
  11   2.0000      -9.959773      -271.0192
  12   2.0000      -9.957037      -270.9448
  13   2.0000      -9.952456      -270.8201
  14   2.0000      -9.927175      -270.1322
  15   2.0000      -9.924725      -270.0655
  16   2.0000      -9.924517      -270.0598
  17   2.0000      -9.898866      -269.3618
  18   2.0000      -9.885701      -269.0036
  19   2.0000      -7.674946      -208.8459
  20   2.0000      -7.602824      -206.8834
  21   2.0000      -6.409228      -174.4040
  22   2.0000      -5.703183      -155.1915
  23   2.0000      -5.699184      -155.0827
  24   2.0000      -5.691802      -154.8818
  25   2.0000      -5.632288      -153.2624
  26   2.0000      -5.623235      -153.0160
  27   2.0000      -5.622593      -152.9985
  28   2.0000      -4.632556      -126.0583
  29   2.0000      -4.631249      -126.0227
  30   2.0000      -4.629277      -125.9690
  31   2.0000      -1.037531       -28.2326
  32   2.0000      -1.019343       -27.7377
  33   2.0000      -0.966427       -26.2978
  34   2.0000      -0.943831       -25.6829
  35   2.0000      -0.925224       -25.1766
  36   2.0000      -0.919455       -25.0196
  37   2.0000      -0.772275       -21.0147
  38   2.0000      -0.720443       -19.6042
  39   2.0000      -0.711462       -19.3599
  40   2.0000      -0.685094       -18.6424
  41   2.0000      -0.654717       -17.8158
  42   2.0000      -0.627585       -17.0775
  43   2.0000      -0.618920       -16.8417
  44   2.0000      -0.601600       -16.3704
  45   2.0000      -0.597282       -16.2529
  46   2.0000      -0.568824       -15.4785
  47   2.0000      -0.519101       -14.1254
  48   2.0000      -0.509853       -13.8738
  49   2.0000      -0.500927       -13.6309
  50   2.0000      -0.488830       -13.3017
  51   2.0000      -0.470779       -12.8105
  52   2.0000      -0.459737       -12.5101
  53   2.0000      -0.457914       -12.4605
  54   2.0000      -0.446384       -12.1467
  55   2.0000      -0.434280       -11.8173
  56   2.0000      -0.424750       -11.5580
  57   2.0000      -0.417933       -11.3725
  58   2.0000      -0.411851       -11.2070
  59   2.0000      -0.403311       -10.9747
  60   2.0000      -0.402655       -10.9568
  61   2.0000      -0.393612       -10.7107
  62   2.0000      -0.391795       -10.6613
  63   2.0000      -0.383028       -10.4227
  64   2.0000      -0.379147       -10.3171
  65   2.0000      -0.370763       -10.0890
  66   2.0000      -0.367866       -10.0101
  67   2.0000      -0.357653        -9.7322
  68   2.0000      -0.352165        -9.5829
  69   2.0000      -0.349238        -9.5032
  70   2.0000      -0.336881        -9.1670
  71   2.0000      -0.329160        -8.9569
  72   2.0000      -0.327475        -8.9111
  73   2.0000      -0.313646        -8.5347
  74   2.0000      -0.304904        -8.2968
  75   2.0000      -0.297829        -8.1043
  76   2.0000      -0.289250        -7.8709
  77   2.0000      -0.280008        -7.6194
  78   2.0000      -0.274811        -7.4780
  79   2.0000      -0.270245        -7.3537
  80   2.0000      -0.260295        -7.0830
  81   2.0000      -0.242206        -6.5908
  82   2.0000      -0.239027        -6.5043
  83   2.0000      -0.237957        -6.4751
  84   2.0000      -0.214140        -5.8270
  85   2.0000      -0.175495        -4.7755
  86   2.0000      -0.170824        -4.6483
  87   0.0000      -0.053765        -1.4630
  88   0.0000      -0.037216        -1.0127
  89   0.0000      -0.022299        -0.6068
  90   0.0000       0.004116         0.1120
  91   0.0000       0.024724         0.6728

MULLIKEN ATOMIC CHARGES
-----------------------
   0 C :   -0.330289
   1 C :   -0.021903
   2 O :   -0.240886
   3 C :    0.092216
   4 O :   -0.177191
   5 C :   -0.042074
   6 C :   -0.254567
   7 H :    0.146651
   8 C :    0.195037
   9 O :   -0.197399
  10 O :   -0.208304
  11 C :   -0.031426
  12 C :   -0.307527
  13 S :   -0.114621
  14 P :    0.656239
  15 S :   -0.351524
  16 O :   -0.407110
  17 C :   -0.098759
  18 O :   -0.367973
  19 C :   -0.128699
  20 H :    0.111784
  21 H :    0.164065
  22 H :    0.110562
  23 H :    0.113027
  24 H :    0.103256
  25 H :    0.131405
  26 H :    0.115589
  27 H :    0.118724
  28 H :    0.137337
  29 H :    0.116394
  30 H :    0.118542
  31 H :    0.129187
  32 H :    0.114037
  33 H :    0.116022
  34 H :    0.109257
  35 H :    0.120826
  36 H :    0.114719
  37 H :    0.145377
Sum of atomic charges:    0.0000000

LOEWDIN ATOMIC CHARGES
----------------------
   0 C :   -0.360479
   1 C :   -0.112138
   2 O :   -0.060873
   3 C :    0.030831
   4 O :   -0.150289
   5 C :   -0.238480
   6 C :   -0.254366
   7 H :    0.142741
   8 C :    0.020914
   9 O :   -0.140930
  10 O :   -0.028198
  11 C :   -0.104380
  12 C :   -0.355814
  13 S :    0.087671
  14 P :    0.589916
  15 S :   -0.347422
  16 O :   -0.269892
  17 C :   -0.221564
  18 O :   -0.240627
  19 C :   -0.217322
  20 H :    0.120651
  21 H :    0.140228
  22 H :    0.130337
  23 H :    0.120689
  24 H :    0.116674
  25 H :    0.144731
  26 H :    0.138274
  27 H :    0.125553
  28 H :    0.129469
  29 H :    0.126991
  30 H :    0.133580
  31 H :    0.126014
  32 H :    0.106715
  33 H :    0.117681
  34 H :    0.104843
  35 H :    0.111862
  36 H :    0.118293
  37 H :    0.118116

  Mayer bond orders larger than 0.100000
B(  0-C ,  1-C ) :   1.1758 B(  0-C , 20-H ) :   0.9476 B(  0-C , 21-H ) :   0.9257
B(  0-C , 22-H ) :   0.9402 B(  1-C ,  2-O ) :   0.8989 B(  1-C , 23-H ) :   0.9093
B(  1-C , 24-H ) :   0.9363 B(  2-O ,  3-C ) :   1.1979 B(  3-C ,  4-O ) :   2.0129
B(  3-C ,  5-C ) :   1.0009 B(  5-C ,  6-C ) :   1.0294 B(  5-C , 25-H ) :   0.8988
B(  5-C , 26-H ) :   0.8901 B(  6-C ,  7-H ) :   0.8861 B(  6-C ,  8-C ) :   0.9094
B(  6-C , 13-S ) :   1.0256 B(  8-C ,  9-O ) :   1.8436 B(  8-C , 10-O ) :   1.2954
B(  9-O , 14-P ) :   0.1513 B( 10-O , 11-C ) :   0.8857 B( 11-C , 12-C ) :   1.1707
B( 11-C , 27-H ) :   0.9349 B( 11-C , 28-H ) :   0.9074 B( 12-C , 29-H ) :   0.9467
B( 12-C , 30-H ) :   0.9434 B( 12-C , 31-H ) :   0.9350 B( 13-S , 14-P ) :   0.9376
B( 13-S , 15-S ) :   0.1120 B( 14-P , 15-S ) :   1.5858 B( 14-P , 16-O ) :   1.0147
B( 14-P , 18-O ) :   1.1170 B( 16-O , 17-C ) :   0.9427 B( 17-C , 32-H ) :   0.9255
B( 17-C , 33-H ) :   0.9587 B( 17-C , 34-H ) :   0.9494 B( 18-O , 19-C ) :   0.9140
B( 19-C , 35-H ) :   0.9399 B( 19-C , 36-H ) :   0.9593 B( 19-C , 37-H ) :   0.9247

Dispersion correction           -0.055041298
FINAL SINGLE POINT ENERGY     -1979.001076300136

DIPOLE MOMENT
-------------

Method             : SCF
Type of density    : Electron Density
Multiplicity       :   1
Irrep              :   0
Energy             : -1979.1327312996386354 Eh
Relativity type    :
Basis              : AO
                                X                 Y                 Z
Electronic contribution:    -15.559373087       4.359830636      -3.661715441
Nuclear contribution   :     17.325484469      -4.369475468       2.860466826
                        -----------------------------------------
Total Dipole Moment    :      1.766111382      -0.009644833      -0.801248614
                        -----------------------------------------
Magnitude (a.u.)       :      1.939392115
Magnitude (Debye)      :      4.929543000

Rotational constants in cm-1:             0.014278             0.008088             0.007068
Rotational constants in MHz :           428.058457           242.457341           211.907570

                             ****ORCA TERMINATED NORMALLY****
TOTAL RUN TIME: 0 days 0 hours 0 minutes 41 seconds 17 msec
