                         Program Version 6.0.0  -   RELEASE  -
|  1> ! pbe def2-sv(p) def2/J RI DEFGRID1 loosescf d4 GCP(DFT/SV(P)) printgap
|  2> %output
|  3>     printlevel normal
|  4> end
|  5> * xyz 0 1
|  6> C 5.3905409023 0.5917190626 -1.9495266211
|  7> C 4.1230742575 -0.2379588879 -1.8935768502
|  8> O 3.6168605 -0.200727307 -0.5452074953
|  9> P 2.0702253395 -0.2159741242 -0.1947461021
| 10> S 0.9776175635 0.8319993643 -1.454093711
| 11> O 2.0644421135 0.1544540578 1.3393856137
| 12> C 2.7712355259 1.2706636595 1.9248652138
| 13> C 2.259972124 2.602218375 1.4184851043
| 14> S 1.613890477 -2.2738174902 -0.0585465043
| 15> C -0.0547207265 -2.1832854217 0.6481885938
| 16> S -1.3810526095 -1.9156563972 -0.5790037901
| 17> P -2.1188411375 -0.0271155995 0.028740467
| 18> S -1.189419017 0.8397272414 1.5259025011
| 19> O -3.670093638 -0.3176735705 0.2615794489
| 20> C -4.1735024781 -1.1968803343 1.2824298451
| 21> C -4.4042860159 -0.4634622521 2.5902778764
| 22> O -2.2110797929 0.7589695363 -1.3340923534
| 23> C -2.188155398 2.197654968 -1.4063829867
| 24> C -3.4448879429 2.8023546014 -0.8184764876
| 25> H 6.1148828692 0.211206474 -1.2352111612
| 26> H 5.807450355 0.5339425536 -2.9495654179
| 27> H 5.171774869 1.6297740225 -1.7138543506
| 28> H 4.317897898 -1.2834604605 -2.1425330422
| 29> H 3.356294797 0.1586216994 -2.5680644097
| 30> H 2.5821763741 1.152563525 2.992970615
| 31> H 3.83540369 1.1478071369 1.7132665343
| 32> H 2.4453868279 2.6956379131 0.3491558798
| 33> H 1.1880835317 2.6776534977 1.591570708
| 34> H 2.7657829754 3.4075125235 1.9412748665
| 35> H -0.089141093 -1.3804226491 1.3894461139
| 36> H -0.227064784 -3.1551901785 1.1019605884
| 37> H -5.1115535335 -1.574525193 0.8707501069
| 38> H -3.4752706905 -2.0298122632 1.4137788679
| 39> H -5.0885489569 0.3664185609 2.4369851263
| 40> H -4.8307491927 -1.1508135873 3.3136514007
| 41> H -3.4662588725 -0.0743755368 2.9797465809
| 42> H -1.294061153 2.5587373155 -0.887742932
| 43> H -2.0895426595 2.4016053214 -2.4732643038
| 44> H -3.4948003048 2.5800758284 0.2471775287
| 45> H -3.4259323009 3.8786823973 -0.9569123981
| 46> H -4.3226156172 2.385731524 -1.3053324823
| 47> *
| 48>
| 49>                          ****END OF INPUT****

CARTESIAN COORDINATES (ANGSTROEM)
---------------------------------
  C      5.390541    0.591719   -1.949527
  C      4.123074   -0.237959   -1.893577
  O      3.616861   -0.200727   -0.545207
  P      2.070225   -0.215974   -0.194746
  S      0.977618    0.831999   -1.454094
  O      2.064442    0.154454    1.339386
  C      2.771236    1.270664    1.924865
  C      2.259972    2.602218    1.418485
  S      1.613890   -2.273817   -0.058547
  C     -0.054721   -2.183285    0.648189
  S     -1.381053   -1.915656   -0.579004
  P     -2.118841   -0.027116    0.028740
  S     -1.189419    0.839727    1.525903
  O     -3.670094   -0.317674    0.261579
  C     -4.173502   -1.196880    1.282430
  C     -4.404286   -0.463462    2.590278
  O     -2.211080    0.758970   -1.334092
  C     -2.188155    2.197655   -1.406383
  C     -3.444888    2.802355   -0.818476
  H      6.114883    0.211206   -1.235211
  H      5.807450    0.533943   -2.949565
  H      5.171775    1.629774   -1.713854
  H      4.317898   -1.283460   -2.142533
  H      3.356295    0.158622   -2.568064
  H      2.582176    1.152564    2.992971
  H      3.835404    1.147807    1.713267
  H      2.445387    2.695638    0.349156
  H      1.188084    2.677653    1.591571
  H      2.765783    3.407513    1.941275
  H     -0.089141   -1.380423    1.389446
  H     -0.227065   -3.155190    1.101961
  H     -5.111554   -1.574525    0.870750
  H     -3.475271   -2.029812    1.413779
  H     -5.088549    0.366419    2.436985
  H     -4.830749   -1.150814    3.313651
  H     -3.466259   -0.074376    2.979747
  H     -1.294061    2.558737   -0.887743
  H     -2.089543    2.401605   -2.473264
  H     -3.494800    2.580076    0.247178
  H     -3.425932    3.878682   -0.956912
  H     -4.322616    2.385732   -1.305332

 Total Charge           Charge          ....    0
 Multiplicity           Mult            ....    1
 Number of Electrons    NEL             ....  202
 Basis Dimension        Dim             ....  334

ORBITAL ENERGIES
----------------

  NO   OCC          E(Eh)            E(eV)
   0   2.0000     -88.037168     -2395.6131
   1   2.0000     -88.034940     -2395.5525
   2   2.0000     -87.985405     -2394.2046
   3   2.0000     -87.978219     -2394.0091
   4   2.0000     -76.422902     -2079.5729
   5   2.0000     -76.422024     -2079.5490
   6   2.0000     -18.793600      -511.3998
   7   2.0000     -18.785933      -511.1912
   8   2.0000     -18.782681      -511.1027
   9   2.0000     -18.782431      -511.0959
  10   2.0000      -9.953206      -270.8405
  11   2.0000      -9.951952      -270.8064
  12   2.0000      -9.951879      -270.8044
  13   2.0000      -9.949392      -270.7367
  14   2.0000      -9.943348      -270.5723
  15   2.0000      -9.888900      -269.0906
  16   2.0000      -9.877364      -268.7767
  17   2.0000      -9.876822      -268.7620
  18   2.0000      -9.876127      -268.7431
  19   2.0000      -7.682448      -209.0500
  20   2.0000      -7.680873      -209.0072
  21   2.0000      -7.630161      -207.6272
  22   2.0000      -7.622924      -207.4303
  23   2.0000      -6.420321      -174.7058
  24   2.0000      -6.419304      -174.6782
  25   2.0000      -5.710319      -155.3857
  26   2.0000      -5.708749      -155.3430
  27   2.0000      -5.706982      -155.2949
  28   2.0000      -5.705496      -155.2544
  29   2.0000      -5.699361      -155.0875
  30   2.0000      -5.697594      -155.0394
  31   2.0000      -5.658855      -153.9853
  32   2.0000      -5.651726      -153.7913
  33   2.0000      -5.651356      -153.7812
  34   2.0000      -5.649907      -153.7418
  35   2.0000      -5.643645      -153.5714
  36   2.0000      -5.643123      -153.5572
  37   2.0000      -4.643396      -126.3532
  38   2.0000      -4.641992      -126.3150
  39   2.0000      -4.641539      -126.3027
  40   2.0000      -4.641050      -126.2894
  41   2.0000      -4.640399      -126.2717
  42   2.0000      -4.640144      -126.2647
  43   2.0000      -0.986145       -26.8344
  44   2.0000      -0.979948       -26.6657
  45   2.0000      -0.942917       -25.6581
  46   2.0000      -0.936923       -25.4950
  47   2.0000      -0.756535       -20.5864
  48   2.0000      -0.719058       -19.5666
  49   2.0000      -0.705340       -19.1933
  50   2.0000      -0.688006       -18.7216
  51   2.0000      -0.680230       -18.5100
  52   2.0000      -0.668760       -18.1979
  53   2.0000      -0.649643       -17.6777
  54   2.0000      -0.632155       -17.2018
  55   2.0000      -0.594872       -16.1873
  56   2.0000      -0.587124       -15.9765
  57   2.0000      -0.571707       -15.5569
  58   2.0000      -0.565038       -15.3755
  59   2.0000      -0.557645       -15.1743
  60   2.0000      -0.503847       -13.7104
  61   2.0000      -0.492616       -13.4048
  62   2.0000      -0.472318       -12.8524
  63   2.0000      -0.467495       -12.7212
  64   2.0000      -0.451111       -12.2754
  65   2.0000      -0.441625       -12.0172
  66   2.0000      -0.437987       -11.9182
  67   2.0000      -0.432395       -11.7661
  68   2.0000      -0.423031       -11.5113
  69   2.0000      -0.409214       -11.1353
  70   2.0000      -0.400841       -10.9074
  71   2.0000      -0.397733       -10.8229
  72   2.0000      -0.396698       -10.7947
  73   2.0000      -0.384266       -10.4564
  74   2.0000      -0.379256       -10.3201
  75   2.0000      -0.368891       -10.0380
  76   2.0000      -0.365292        -9.9401
  77   2.0000      -0.353777        -9.6268
  78   2.0000      -0.349139        -9.5005
  79   2.0000      -0.343074        -9.3355
  80   2.0000      -0.341480        -9.2921
  81   2.0000      -0.337523        -9.1845
  82   2.0000      -0.335322        -9.1246
  83   2.0000      -0.332008        -9.0344
  84   2.0000      -0.329591        -8.9686
  85   2.0000      -0.316558        -8.6140
  86   2.0000      -0.307330        -8.3629
  87   2.0000      -0.298137        -8.1127
  88   2.0000      -0.291169        -7.9231
  89   2.0000      -0.287315        -7.8182
  90   2.0000      -0.280137        -7.6229
  91   2.0000      -0.273744        -7.4490
  92   2.0000      -0.268079        -7.2948
  93   2.0000      -0.259031        -7.0486
  94   2.0000      -0.253697        -6.9035
  95   2.0000      -0.233060        -6.3419
  96   2.0000      -0.220025        -5.9872
  97   2.0000      -0.207711        -5.6521
  98   2.0000      -0.200276        -5.4498
  99   2.0000      -0.188651        -5.1335
 100   2.0000      -0.182731        -4.9724
 101   0.0000      -0.035169        -0.9570
 102   0.0000      -0.029997        -0.8163
 103   0.0000      -0.009439        -0.2568
 104   0.0000       0.004972         0.1353
 105   0.0000       0.022625         0.6157

MULLIKEN ATOMIC CHARGES
-----------------------
   0 C :   -0.287864
   1 C :   -0.009689
   2 O :   -0.385901
   3 P :    0.635214
   4 S :   -0.321843
   5 O :   -0.368247
   6 C :    0.003062
   7 C :   -0.323429
   8 S :   -0.095516
   9 C :   -0.364373
  10 S :   -0.072503
  11 P :    0.621649
  12 S :   -0.326924
  13 O :   -0.369416
  14 C :   -0.004537
  15 C :   -0.294840
  16 O :   -0.360116
  17 C :   -0.008870
  18 C :   -0.300378
  19 H :    0.116235
  20 H :    0.113285
  21 H :    0.117947
  22 H :    0.104179
  23 H :    0.109458
  24 H :    0.106831
  25 H :    0.106027
  26 H :    0.122129
  27 H :    0.138303
  28 H :    0.104909
  29 H :    0.203358
  30 H :    0.181056
  31 H :    0.105314
  32 H :    0.088864
  33 H :    0.112797
  34 H :    0.103888
  35 H :    0.125640
  36 H :    0.122731
  37 H :    0.105381
  38 H :    0.122868
  39 H :    0.108491
  40 H :    0.114828
Sum of atomic charges:   -0.0000000

LOEWDIN ATOMIC CHARGES
----------------------
   0 C :   -0.352304
   1 C :   -0.120959
   2 O :   -0.247713
   3 P :    0.569242
   4 S :   -0.305390
   5 O :   -0.239337
   6 C :   -0.106174
   7 C :   -0.370981
   8 S :    0.070025
   9 C :   -0.480545
  10 S :    0.088586
  11 P :    0.573947
  12 S :   -0.300951
  13 O :   -0.248089
  14 C :   -0.118133
  15 C :   -0.366500
  16 O :   -0.230357
  17 C :   -0.117242
  18 C :   -0.365223
  19 H :    0.125931
  20 H :    0.131630
  21 H :    0.126859
  22 H :    0.113823
  23 H :    0.107235
  24 H :    0.121115
  25 H :    0.111091
  26 H :    0.118992
  27 H :    0.128208
  28 H :    0.126665
  29 H :    0.123885
  30 H :    0.136132
  31 H :    0.118231
  32 H :    0.099516
  33 H :    0.125120
  34 H :    0.126736
  35 H :    0.121183
  36 H :    0.109646
  37 H :    0.119815
  38 H :    0.121575
  39 H :    0.129022
  40 H :    0.125686

  Mayer bond orders larger than 0.100000
B(  0-C ,  1-C ) :   1.1603 B(  0-C , 19-H ) :   0.9509 B(  0-C , 20-H ) :   0.9416
B(  0-C , 21-H ) :   0.9508 B(  1-C ,  2-O ) :   0.9042 B(  1-C , 22-H ) :   0.9330
B(  1-C , 23-H ) :   0.8991 B(  2-O ,  3-P ) :   1.0878 B(  3-P ,  4-S ) :   1.6353
B(  3-P ,  5-O ) :   1.1215 B(  3-P ,  8-S ) :   0.9650 B(  4-S ,  8-S ) :   0.1160
B(  5-O ,  6-C ) :   0.9025 B(  6-C ,  7-C ) :   1.1676 B(  6-C , 24-H ) :   0.9351
B(  6-C , 25-H ) :   0.9304 B(  7-C , 26-H ) :   0.9333 B(  7-C , 27-H ) :   0.9367
B(  7-C , 28-H ) :   0.9354 B(  8-S ,  9-C ) :   1.0021 B(  9-C , 10-S ) :   0.9976
B(  9-C , 29-H ) :   0.8514 B(  9-C , 30-H ) :   0.9124 B( 10-S , 11-P ) :   0.9589
B( 10-S , 12-S ) :   0.1187 B( 11-P , 12-S ) :   1.5803 B( 11-P , 13-O ) :   1.0936
B( 11-P , 16-O ) :   1.1525 B( 12-S , 29-H ) :   0.1025 B( 13-O , 14-C ) :   0.9200
B( 14-C , 15-C ) :   1.1625 B( 14-C , 31-H ) :   0.9372 B( 14-C , 32-H ) :   0.9128
B( 15-C , 33-H ) :   0.9471 B( 15-C , 34-H ) :   0.9395 B( 15-C , 35-H ) :   0.9298
B( 16-O , 17-C ) :   0.8971 B( 17-C , 18-C ) :   1.1627 B( 17-C , 36-H ) :   0.9127
B( 17-C , 37-H ) :   0.9354 B( 18-C , 38-H ) :   0.9346 B( 18-C , 39-H ) :   0.9389
B( 18-C , 40-H ) :   0.9454

Dispersion correction           -0.066252265
FINAL SINGLE POINT ENERGY     -2929.516164419133

DIPOLE MOMENT
-------------

Method             : SCF
Type of density    : Electron Density
Multiplicity       :   1
Irrep              :   0
Energy             : -2929.6340674363214021 Eh
Relativity type    :
Basis              : AO
                                X                 Y                 Z
Electronic contribution:     -0.266435721     -16.242917767      -5.499313527
Nuclear contribution   :      0.668064632      16.373731777       5.892111494
                        -----------------------------------------
Total Dipole Moment    :      0.401628911       0.130814010       0.392797967
                        -----------------------------------------
Magnitude (a.u.)       :      0.576808747
Magnitude (Debye)      :      1.466131319

Rotational constants in cm-1:             0.012900             0.005077             0.004733
Rotational constants in MHz :           386.721204           152.201695           141.887486

                             ****ORCA TERMINATED NORMALLY****
TOTAL RUN TIME: 0 days 0 hours 0 minutes 20 seconds 769 msec
