                         Program Version 6.0.0  -   RELEASE  -
|  1> ! pbe def2-sv(p) def2/J RI DEFGRID1 loosescf d4 GCP(DFT/SV(P)) printgap
|  2> %output
|  3>     printlevel normal
|  4> end
|  5> * xyz 0 1
|  6> C 0.6381462218 -1.9223616499 2.7393511997
|  7> C 1.5847886594 -0.7393937093 2.6877962981
|  8> O 1.3142476062 0.0691758007 1.5213571347
|  9> P 2.2038457113 -0.0003907913 0.2129682954
| 10> S 2.931639124 -1.7545368075 -0.2873551657
| 11> O 3.3173666294 1.0837002734 0.5621807782
| 12> C 4.5502274098 1.1878237891 -0.1712574423
| 13> C 4.3319675856 1.6947593231 -1.5821975223
| 14> S 0.9245267386 0.9672041258 -1.1506665463
| 15> C 0.1314941158 -0.5237646862 -1.8130339486
| 16> S -0.7943095259 -1.4616215712 -0.5668512021
| 17> P -2.2112442101 0.0288843983 -0.116372385
| 18> S -2.8088269349 1.2045042085 -1.5716636738
| 19> O -1.5061329957 0.7138301518 1.1253123824
| 20> C -1.9018154495 2.010683221 1.6245062076
| 21> C -0.9324149375 3.0755019699 1.150613474
| 22> O -3.394990534 -0.7465506926 0.6146531033
| 23> C -4.521582811 -1.2860152323 -0.0984252826
| 24> C -4.1325597642 -2.4604558588 -0.9729138287
| 25> H 0.8305484913 -2.5949919641 1.9058007363
| 26> H 0.7828701628 -2.458730563 3.6716029799
| 27> H -0.3910126443 -1.5770524205 2.6747548467
| 28> H 2.6264733746 -1.0724184695 2.6641927496
| 29> H 1.4333739545 -0.0684580354 3.5349401685
| 30> H 5.1488195656 1.8822908443 0.4196740662
| 31> H 5.0268935431 0.2023277801 -0.1858654271
| 32> H 3.7849084281 0.9539041759 -2.1637250055
| 33> H 3.759912399 2.6190829432 -1.5676576773
| 34> H 5.2935912531 1.8717558962 -2.0530908514
| 35> H 0.8884962165 -1.2033084416 -2.2026339873
| 36> H -0.543694744 -0.1844225058 -2.597710186
| 37> H -2.9199312356 2.2319566528 1.2913111992
| 38> H -1.8853260062 1.909486713 2.7108776462
| 39> H -0.9911686111 3.1837054651 0.0693681935
| 40> H -1.1814903512 4.0226378751 1.6181892429
| 41> H 0.084515552 2.7957830121 1.4155002025
| 42> H -5.2139074092 -1.581733028 0.6909120778
| 43> H -4.9625665431 -0.4861943986 -0.7020735907
| 44> H -3.5943075109 -3.2038187805 -0.390214098
| 45> H -5.0278294217 -2.9082979597 -1.3921063181
| 46> H -3.4920987334 -2.1230004807 -1.7867017005
| 47> *
| 48>
| 49>                          ****END OF INPUT****

CARTESIAN COORDINATES (ANGSTROEM)
---------------------------------
  C      0.638146   -1.922362    2.739351
  C      1.584789   -0.739394    2.687796
  O      1.314248    0.069176    1.521357
  P      2.203846   -0.000391    0.212968
  S      2.931639   -1.754537   -0.287355
  O      3.317367    1.083700    0.562181
  C      4.550227    1.187824   -0.171257
  C      4.331968    1.694759   -1.582198
  S      0.924527    0.967204   -1.150667
  C      0.131494   -0.523765   -1.813034
  S     -0.794310   -1.461622   -0.566851
  P     -2.211244    0.028884   -0.116372
  S     -2.808827    1.204504   -1.571664
  O     -1.506133    0.713830    1.125312
  C     -1.901815    2.010683    1.624506
  C     -0.932415    3.075502    1.150613
  O     -3.394991   -0.746551    0.614653
  C     -4.521583   -1.286015   -0.098425
  C     -4.132560   -2.460456   -0.972914
  H      0.830548   -2.594992    1.905801
  H      0.782870   -2.458731    3.671603
  H     -0.391013   -1.577052    2.674755
  H      2.626473   -1.072418    2.664193
  H      1.433374   -0.068458    3.534940
  H      5.148820    1.882291    0.419674
  H      5.026894    0.202328   -0.185865
  H      3.784908    0.953904   -2.163725
  H      3.759912    2.619083   -1.567658
  H      5.293591    1.871756   -2.053091
  H      0.888496   -1.203308   -2.202634
  H     -0.543695   -0.184423   -2.597710
  H     -2.919931    2.231957    1.291311
  H     -1.885326    1.909487    2.710878
  H     -0.991169    3.183705    0.069368
  H     -1.181490    4.022638    1.618189
  H      0.084516    2.795783    1.415500
  H     -5.213907   -1.581733    0.690912
  H     -4.962567   -0.486194   -0.702074
  H     -3.594308   -3.203819   -0.390214
  H     -5.027829   -2.908298   -1.392106
  H     -3.492099   -2.123000   -1.786702

 Total Charge           Charge          ....    0
 Multiplicity           Mult            ....    1
 Number of Electrons    NEL             ....  202
 Basis Dimension        Dim             ....  334

ORBITAL ENERGIES
----------------

  NO   OCC          E(Eh)            E(eV)
   0   2.0000     -88.043959     -2395.7979
   1   2.0000     -88.043930     -2395.7971
   2   2.0000     -87.989401     -2394.3133
   3   2.0000     -87.989382     -2394.3128
   4   2.0000     -76.426021     -2079.6578
   5   2.0000     -76.425959     -2079.6561
   6   2.0000     -18.792830      -511.3789
   7   2.0000     -18.792763      -511.3771
   8   2.0000     -18.785655      -511.1837
   9   2.0000     -18.785553      -511.1809
  10   2.0000      -9.956522      -270.9307
  11   2.0000      -9.951448      -270.7927
  12   2.0000      -9.951402      -270.7914
  13   2.0000      -9.949834      -270.7488
  14   2.0000      -9.949822      -270.7484
  15   2.0000      -9.883717      -268.9496
  16   2.0000      -9.883707      -268.9493
  17   2.0000      -9.875195      -268.7177
  18   2.0000      -9.875188      -268.7175
  19   2.0000      -7.688883      -209.2251
  20   2.0000      -7.688871      -209.2248
  21   2.0000      -7.634311      -207.7402
  22   2.0000      -7.634296      -207.7397
  23   2.0000      -6.423589      -174.7947
  24   2.0000      -6.423543      -174.7935
  25   2.0000      -5.716752      -155.5607
  26   2.0000      -5.716739      -155.5604
  27   2.0000      -5.713532      -155.4731
  28   2.0000      -5.713517      -155.4727
  29   2.0000      -5.705663      -155.2590
  30   2.0000      -5.705652      -155.2587
  31   2.0000      -5.663107      -154.1010
  32   2.0000      -5.663084      -154.1004
  33   2.0000      -5.655078      -153.8825
  34   2.0000      -5.655070      -153.8823
  35   2.0000      -5.654482      -153.8663
  36   2.0000      -5.654465      -153.8658
  37   2.0000      -4.646024      -126.4247
  38   2.0000      -4.645977      -126.4235
  39   2.0000      -4.645287      -126.4047
  40   2.0000      -4.645256      -126.4038
  41   2.0000      -4.644238      -126.3762
  42   2.0000      -4.644187      -126.3748
  43   2.0000      -0.985204       -26.8088
  44   2.0000      -0.984091       -26.7785
  45   2.0000      -0.943085       -25.6626
  46   2.0000      -0.941707       -25.6251
  47   2.0000      -0.767209       -20.8768
  48   2.0000      -0.720770       -19.6132
  49   2.0000      -0.706333       -19.2203
  50   2.0000      -0.684916       -18.6375
  51   2.0000      -0.682538       -18.5728
  52   2.0000      -0.672655       -18.3039
  53   2.0000      -0.651262       -17.7217
  54   2.0000      -0.640411       -17.4265
  55   2.0000      -0.602263       -16.3884
  56   2.0000      -0.590518       -16.0688
  57   2.0000      -0.573128       -15.5956
  58   2.0000      -0.569509       -15.4971
  59   2.0000      -0.555218       -15.1082
  60   2.0000      -0.499423       -13.5900
  61   2.0000      -0.498472       -13.5641
  62   2.0000      -0.468658       -12.7528
  63   2.0000      -0.468359       -12.7447
  64   2.0000      -0.459962       -12.5162
  65   2.0000      -0.439385       -11.9563
  66   2.0000      -0.437236       -11.8978
  67   2.0000      -0.436412       -11.8754
  68   2.0000      -0.426994       -11.6191
  69   2.0000      -0.415955       -11.3187
  70   2.0000      -0.408734       -11.1222
  71   2.0000      -0.396313       -10.7842
  72   2.0000      -0.391097       -10.6423
  73   2.0000      -0.379804       -10.3350
  74   2.0000      -0.378297       -10.2940
  75   2.0000      -0.378055       -10.2874
  76   2.0000      -0.368527       -10.0281
  77   2.0000      -0.355558        -9.6752
  78   2.0000      -0.349654        -9.5146
  79   2.0000      -0.348437        -9.4815
  80   2.0000      -0.348398        -9.4804
  81   2.0000      -0.341876        -9.3029
  82   2.0000      -0.340079        -9.2540
  83   2.0000      -0.336908        -9.1677
  84   2.0000      -0.333563        -9.0767
  85   2.0000      -0.315916        -8.5965
  86   2.0000      -0.301105        -8.1935
  87   2.0000      -0.296385        -8.0650
  88   2.0000      -0.295672        -8.0456
  89   2.0000      -0.290087        -7.8937
  90   2.0000      -0.279406        -7.6030
  91   2.0000      -0.277839        -7.5604
  92   2.0000      -0.264540        -7.1985
  93   2.0000      -0.264214        -7.1896
  94   2.0000      -0.263553        -7.1716
  95   2.0000      -0.231607        -6.3024
  96   2.0000      -0.217792        -5.9264
  97   2.0000      -0.215810        -5.8725
  98   2.0000      -0.207473        -5.6456
  99   2.0000      -0.202113        -5.4998
 100   2.0000      -0.201628        -5.4866
 101   0.0000      -0.046628        -1.2688
 102   0.0000      -0.026390        -0.7181
 103   0.0000      -0.001925        -0.0524
 104   0.0000       0.001209         0.0329
 105   0.0000       0.005906         0.1607

MULLIKEN ATOMIC CHARGES
-----------------------
   0 C :   -0.292683
   1 C :   -0.001801
   2 O :   -0.354858
   3 P :    0.615180
   4 S :   -0.339893
   5 O :   -0.375145
   6 C :   -0.004620
   7 C :   -0.314346
   8 S :   -0.066821
   9 C :   -0.360333
  10 S :   -0.066571
  11 P :    0.616094
  12 S :   -0.339737
  13 O :   -0.355268
  14 C :   -0.001390
  15 C :   -0.292048
  16 O :   -0.375549
  17 C :   -0.004076
  18 C :   -0.314822
  19 H :    0.126751
  20 H :    0.103095
  21 H :    0.119056
  22 H :    0.101108
  23 H :    0.102518
  24 H :    0.104680
  25 H :    0.111221
  26 H :    0.124443
  27 H :    0.118305
  28 H :    0.112957
  29 H :    0.190624
  30 H :    0.190574
  31 H :    0.100826
  32 H :    0.102424
  33 H :    0.126465
  34 H :    0.103143
  35 H :    0.118763
  36 H :    0.104618
  37 H :    0.111096
  38 H :    0.118313
  39 H :    0.113071
  40 H :    0.124638
Sum of atomic charges:    0.0000000

LOEWDIN ATOMIC CHARGES
----------------------
   0 C :   -0.362810
   1 C :   -0.110913
   2 O :   -0.234327
   3 P :    0.570283
   4 S :   -0.328422
   5 O :   -0.248549
   6 C :   -0.120371
   7 C :   -0.368979
   8 S :    0.111515
   9 C :   -0.480189
  10 S :    0.111979
  11 P :    0.570358
  12 S :   -0.328449
  13 O :   -0.234358
  14 C :   -0.110885
  15 C :   -0.362691
  16 O :   -0.248553
  17 C :   -0.120198
  18 C :   -0.369066
  19 H :    0.123273
  20 H :    0.125487
  21 H :    0.123533
  22 H :    0.107836
  23 H :    0.116798
  24 H :    0.118421
  25 H :    0.109894
  26 H :    0.120242
  27 H :    0.124712
  28 H :    0.130933
  29 H :    0.131293
  30 H :    0.131140
  31 H :    0.107784
  32 H :    0.116797
  33 H :    0.123222
  34 H :    0.125502
  35 H :    0.123451
  36 H :    0.118421
  37 H :    0.109933
  38 H :    0.124683
  39 H :    0.130963
  40 H :    0.120307

  Mayer bond orders larger than 0.100000
B(  0-C ,  1-C ) :   1.1720 B(  0-C , 19-H ) :   0.9377 B(  0-C , 20-H ) :   0.9394
B(  0-C , 21-H ) :   0.9426 B(  1-C ,  2-O ) :   0.8955 B(  1-C , 22-H ) :   0.9144
B(  1-C , 23-H ) :   0.9338 B(  2-O ,  3-P ) :   1.1324 B(  3-P ,  4-S ) :   1.5803
B(  3-P ,  5-O ) :   1.1064 B(  3-P ,  8-S ) :   0.9633 B(  4-S ,  8-S ) :   0.1089
B(  5-O ,  6-C ) :   0.9112 B(  6-C ,  7-C ) :   1.1646 B(  6-C , 24-H ) :   0.9338
B(  6-C , 25-H ) :   0.9149 B(  7-C , 26-H ) :   0.9359 B(  7-C , 27-H ) :   0.9450
B(  7-C , 28-H ) :   0.9381 B(  8-S ,  9-C ) :   1.0056 B(  9-C , 10-S ) :   1.0062
B(  9-C , 29-H ) :   0.8856 B(  9-C , 30-H ) :   0.8851 B( 10-S , 11-P ) :   0.9628
B( 10-S , 12-S ) :   0.1086 B( 11-P , 12-S ) :   1.5806 B( 11-P , 13-O ) :   1.1320
B( 11-P , 16-O ) :   1.1060 B( 13-O , 14-C ) :   0.8957 B( 14-C , 15-C ) :   1.1723
B( 14-C , 31-H ) :   0.9143 B( 14-C , 32-H ) :   0.9337 B( 15-C , 33-H ) :   0.9378
B( 15-C , 34-H ) :   0.9394 B( 15-C , 35-H ) :   0.9427 B( 16-O , 17-C ) :   0.9112
B( 17-C , 18-C ) :   1.1645 B( 17-C , 36-H ) :   0.9339 B( 17-C , 37-H ) :   0.9151
B( 18-C , 38-H ) :   0.9449 B( 18-C , 39-H ) :   0.9381 B( 18-C , 40-H ) :   0.9360

Dispersion correction           -0.068149481
FINAL SINGLE POINT ENERGY     -2929.527713057942

DIPOLE MOMENT
-------------

Method             : SCF
Type of density    : Electron Density
Multiplicity       :   1
Irrep              :   0
Energy             : -2929.6443337281120876 Eh
Relativity type    :
Basis              : AO
                                X                 Y                 Z
Electronic contribution:      0.462741468      -1.875389286      -6.469971894
Nuclear contribution   :     -0.514067259       2.095197287       7.227732635
                        -----------------------------------------
Total Dipole Moment    :     -0.051325792       0.219808001       0.757760741
                        -----------------------------------------
Magnitude (a.u.)       :      0.790665058
Magnitude (Debye)      :      2.009710864

Rotational constants in cm-1:             0.012750             0.005344             0.005086
Rotational constants in MHz :           382.228245           160.222172           152.487887

                             ****ORCA TERMINATED NORMALLY****
TOTAL RUN TIME: 0 days 0 hours 0 minutes 21 seconds 286 msec
