                         Program Version 6.0.0  -   RELEASE  -
|  1> ! pbe def2-sv(p) def2/J RI DEFGRID1 loosescf d4 GCP(DFT/SV(P)) printgap
|  2> %output
|  3>     printlevel normal
|  4> end
|  5> * xyz 0 1
|  6> C 2.8980050663 1.9001376069 -1.415282964
|  7> C 1.6622214424 1.9476923373 -0.544722962
|  8> O 1.834418519 1.2704868326 0.7223204057
|  9> P 2.2404002116 -0.2372402481 0.9518096308
| 10> S 1.8943643112 -0.795736025 2.7937396457
| 11> O 3.7723192123 -0.2583541484 0.5307990803
| 12> C 4.6791513973 -1.2848331256 0.9687240104
| 13> C 4.3451018746 -2.6391327971 0.3772130209
| 14> S 1.2595822991 -1.3518820775 -0.5817347295
| 15> C -0.2492073322 -1.7038188811 0.3606839412
| 16> S -1.100774353 -0.2199064355 0.9581091481
| 17> P -2.2214307015 0.1897068624 -0.8258250092
| 18> S -1.2401060267 0.1920247328 -2.5156458867
| 19> O -3.0013498421 1.5079330419 -0.4056213871
| 20> C -2.3537545678 2.7533164895 -0.0790842001
| 21> C -2.020218074 3.5543487734 -1.322310282
| 22> O -3.356308643 -0.9005292048 -0.8635759288
| 23> C -4.3401354032 -1.0797045695 0.1858251244
| 24> C -5.6240524392 -0.3536004324 -0.158949101
| 25> H 3.7601010177 2.2715829294 -0.8676934832
| 26> H 3.0932034523 0.8785202823 -1.7348705196
| 27> H 2.7315075221 2.5158175402 -2.2939138303
| 28> H 0.8112961583 1.4990271439 -1.0685030329
| 29> H 1.4157645503 2.9686002734 -0.248232846
| 30> H 5.6546268143 -0.92870957 0.6346968844
| 31> H 4.6513025569 -1.3264404623 2.0621484033
| 32> H 5.1286687129 -3.3449922408 0.63320711
| 33> H 3.4008711712 -2.9990853019 0.7830191013
| 34> H 4.259326448 -2.5709091283 -0.7044364258
| 35> H 0.0113052329 -2.2746672781 1.2511379616
| 36> H -0.9040883439 -2.268084814 -0.3003349942
| 37> H -3.0830789845 3.2754748417 0.5435222172
| 38> H -1.4579437516 2.5446182655 0.5131301924
| 39> H -1.5877267447 4.5055070334 -1.0292016161
| 40> H -1.3097867327 3.0153922694 -1.9449124798
| 41> H -2.9210721634 3.7335544153 -1.9027257707
| 42> H -4.4956231856 -2.1590386295 0.2338487274
| 43> H -3.9216470811 -0.7225865125 1.1307759538
| 44> H -5.4482225043 0.717122899 -0.2157134061
| 45> H -5.9990965916 -0.69785683 -1.1188317147
| 46> H -6.3638424321 -0.5563558665 0.6091740803
| 47> *
| 48>
| 49>                          ****END OF INPUT****

CARTESIAN COORDINATES (ANGSTROEM)
---------------------------------
  C      2.898005    1.900138   -1.415283
  C      1.662221    1.947692   -0.544723
  O      1.834419    1.270487    0.722320
  P      2.240400   -0.237240    0.951810
  S      1.894364   -0.795736    2.793740
  O      3.772319   -0.258354    0.530799
  C      4.679151   -1.284833    0.968724
  C      4.345102   -2.639133    0.377213
  S      1.259582   -1.351882   -0.581735
  C     -0.249207   -1.703819    0.360684
  S     -1.100774   -0.219906    0.958109
  P     -2.221431    0.189707   -0.825825
  S     -1.240106    0.192025   -2.515646
  O     -3.001350    1.507933   -0.405621
  C     -2.353755    2.753316   -0.079084
  C     -2.020218    3.554349   -1.322310
  O     -3.356309   -0.900529   -0.863576
  C     -4.340135   -1.079705    0.185825
  C     -5.624052   -0.353600   -0.158949
  H      3.760101    2.271583   -0.867693
  H      3.093203    0.878520   -1.734871
  H      2.731508    2.515818   -2.293914
  H      0.811296    1.499027   -1.068503
  H      1.415765    2.968600   -0.248233
  H      5.654627   -0.928710    0.634697
  H      4.651303   -1.326440    2.062148
  H      5.128669   -3.344992    0.633207
  H      3.400871   -2.999085    0.783019
  H      4.259326   -2.570909   -0.704436
  H      0.011305   -2.274667    1.251138
  H     -0.904088   -2.268085   -0.300335
  H     -3.083079    3.275475    0.543522
  H     -1.457944    2.544618    0.513130
  H     -1.587727    4.505507   -1.029202
  H     -1.309787    3.015392   -1.944912
  H     -2.921072    3.733554   -1.902726
  H     -4.495623   -2.159039    0.233849
  H     -3.921647   -0.722587    1.130776
  H     -5.448223    0.717123   -0.215713
  H     -5.999097   -0.697857   -1.118832
  H     -6.363842   -0.556356    0.609174

 Total Charge           Charge          ....    0
 Multiplicity           Mult            ....    1
 Number of Electrons    NEL             ....  202
 Basis Dimension        Dim             ....  334

ORBITAL ENERGIES
----------------

  NO   OCC          E(Eh)            E(eV)
   0   2.0000     -88.044476     -2395.8120
   1   2.0000     -88.039697     -2395.6819
   2   2.0000     -87.987930     -2394.2733
   3   2.0000     -87.982009     -2394.1122
   4   2.0000     -76.429820     -2079.7611
   5   2.0000     -76.423796     -2079.5972
   6   2.0000     -18.801244      -511.6079
   7   2.0000     -18.797397      -511.5032
   8   2.0000     -18.790743      -511.3221
   9   2.0000     -18.785112      -511.1689
  10   2.0000      -9.963418      -271.1184
  11   2.0000      -9.959454      -271.0105
  12   2.0000      -9.958127      -270.9744
  13   2.0000      -9.950844      -270.7762
  14   2.0000      -9.947001      -270.6717
  15   2.0000      -9.889316      -269.1020
  16   2.0000      -9.887389      -269.0495
  17   2.0000      -9.882233      -268.9092
  18   2.0000      -9.881346      -268.8851
  19   2.0000      -7.688680      -209.2196
  20   2.0000      -7.684269      -209.0996
  21   2.0000      -7.632955      -207.7033
  22   2.0000      -7.627324      -207.5500
  23   2.0000      -6.427147      -174.8916
  24   2.0000      -6.420848      -174.7202
  25   2.0000      -5.716371      -155.5504
  26   2.0000      -5.713253      -155.4655
  27   2.0000      -5.712078      -155.4335
  28   2.0000      -5.708897      -155.3470
  29   2.0000      -5.705908      -155.2657
  30   2.0000      -5.701263      -155.1392
  31   2.0000      -5.661954      -154.0696
  32   2.0000      -5.656245      -153.9143
  33   2.0000      -5.653453      -153.8383
  34   2.0000      -5.653141      -153.8298
  35   2.0000      -5.647867      -153.6863
  36   2.0000      -5.647515      -153.6767
  37   2.0000      -4.650209      -126.5386
  38   2.0000      -4.649061      -126.5074
  39   2.0000      -4.647024      -126.4520
  40   2.0000      -4.643599      -126.3587
  41   2.0000      -4.642705      -126.3344
  42   2.0000      -4.641166      -126.2925
  43   2.0000      -0.994999       -27.0753
  44   2.0000      -0.982875       -26.7454
  45   2.0000      -0.952361       -25.9151
  46   2.0000      -0.941205       -25.6115
  47   2.0000      -0.763410       -20.7734
  48   2.0000      -0.722742       -19.6668
  49   2.0000      -0.709916       -19.3178
  50   2.0000      -0.696369       -18.9492
  51   2.0000      -0.686718       -18.6865
  52   2.0000      -0.674268       -18.3478
  53   2.0000      -0.651952       -17.7405
  54   2.0000      -0.638841       -17.3837
  55   2.0000      -0.595505       -16.2045
  56   2.0000      -0.592115       -16.1123
  57   2.0000      -0.579547       -15.7703
  58   2.0000      -0.572973       -15.5914
  59   2.0000      -0.565503       -15.3881
  60   2.0000      -0.511466       -13.9177
  61   2.0000      -0.489050       -13.3077
  62   2.0000      -0.484787       -13.1917
  63   2.0000      -0.467953       -12.7337
  64   2.0000      -0.460104       -12.5201
  65   2.0000      -0.450212       -12.2509
  66   2.0000      -0.440839       -11.9958
  67   2.0000      -0.435157       -11.8412
  68   2.0000      -0.433023       -11.7832
  69   2.0000      -0.418405       -11.3854
  70   2.0000      -0.409943       -11.1551
  71   2.0000      -0.400042       -10.8857
  72   2.0000      -0.391726       -10.6594
  73   2.0000      -0.391379       -10.6500
  74   2.0000      -0.379755       -10.3337
  75   2.0000      -0.373150       -10.1539
  76   2.0000      -0.363315        -9.8863
  77   2.0000      -0.362462        -9.8631
  78   2.0000      -0.358522        -9.7559
  79   2.0000      -0.350104        -9.5268
  80   2.0000      -0.349250        -9.5036
  81   2.0000      -0.346717        -9.4346
  82   2.0000      -0.342807        -9.3282
  83   2.0000      -0.341299        -9.2872
  84   2.0000      -0.334760        -9.1093
  85   2.0000      -0.325689        -8.8624
  86   2.0000      -0.310533        -8.4500
  87   2.0000      -0.302690        -8.2366
  88   2.0000      -0.296612        -8.0712
  89   2.0000      -0.290690        -7.9101
  90   2.0000      -0.288086        -7.8392
  91   2.0000      -0.281441        -7.6584
  92   2.0000      -0.272108        -7.4044
  93   2.0000      -0.260488        -7.0882
  94   2.0000      -0.259446        -7.0599
  95   2.0000      -0.242050        -6.5865
  96   2.0000      -0.215178        -5.8553
  97   2.0000      -0.208941        -5.6856
  98   2.0000      -0.203154        -5.5281
  99   2.0000      -0.200003        -5.4424
 100   2.0000      -0.190828        -5.1927
 101   0.0000      -0.042621        -1.1598
 102   0.0000      -0.028918        -0.7869
 103   0.0000      -0.008362        -0.2275
 104   0.0000       0.002746         0.0747
 105   0.0000       0.014341         0.3902

MULLIKEN ATOMIC CHARGES
-----------------------
   0 C :   -0.293638
   1 C :   -0.041296
   2 O :   -0.356756
   3 P :    0.599273
   4 S :   -0.325932
   5 O :   -0.373319
   6 C :   -0.001318
   7 C :   -0.315191
   8 S :   -0.080727
   9 C :   -0.339966
  10 S :   -0.084104
  11 P :    0.586439
  12 S :   -0.296847
  13 O :   -0.380044
  14 C :   -0.029145
  15 C :   -0.301240
  16 O :   -0.358670
  17 C :   -0.010287
  18 C :   -0.291119
  19 H :    0.117370
  20 H :    0.117871
  21 H :    0.112351
  22 H :    0.129785
  23 H :    0.102434
  24 H :    0.104442
  25 H :    0.113540
  26 H :    0.112469
  27 H :    0.124976
  28 H :    0.117365
  29 H :    0.193324
  30 H :    0.183628
  31 H :    0.110354
  32 H :    0.126487
  33 H :    0.109806
  34 H :    0.134003
  35 H :    0.117475
  36 H :    0.108957
  37 H :    0.103008
  38 H :    0.122267
  39 H :    0.120832
  40 H :    0.111146
Sum of atomic charges:   -0.0000000

LOEWDIN ATOMIC CHARGES
----------------------
   0 C :   -0.362376
   1 C :   -0.126676
   2 O :   -0.234411
   3 P :    0.570200
   4 S :   -0.322495
   5 O :   -0.242036
   6 C :   -0.117837
   7 C :   -0.370474
   8 S :    0.086044
   9 C :   -0.477196
  10 S :    0.081639
  11 P :    0.559758
  12 S :   -0.297658
  13 O :   -0.244961
  14 C :   -0.115363
  15 C :   -0.365296
  16 O :   -0.237048
  17 C :   -0.115540
  18 C :   -0.358718
  19 H :    0.126055
  20 H :    0.119643
  21 H :    0.131478
  22 H :    0.099722
  23 H :    0.116745
  24 H :    0.118442
  25 H :    0.112382
  26 H :    0.130709
  27 H :    0.120369
  28 H :    0.123644
  29 H :    0.132422
  30 H :    0.133450
  31 H :    0.120733
  32 H :    0.111150
  33 H :    0.129535
  34 H :    0.123510
  35 H :    0.128814
  36 H :    0.120677
  37 H :    0.105136
  38 H :    0.126456
  39 H :    0.129159
  40 H :    0.130215

  Mayer bond orders larger than 0.100000
B(  0-C ,  1-C ) :   1.1758 B(  0-C , 19-H ) :   0.9450 B(  0-C , 20-H ) :   0.9381
B(  0-C , 21-H ) :   0.9362 B(  1-C ,  2-O ) :   0.8936 B(  1-C , 22-H ) :   0.8870
B(  1-C , 23-H ) :   0.9314 B(  2-O ,  3-P ) :   1.1465 B(  3-P ,  4-S ) :   1.6064
B(  3-P ,  5-O ) :   1.0949 B(  3-P ,  8-S ) :   0.9471 B(  4-S ,  8-S ) :   0.1083
B(  5-O ,  6-C ) :   0.9069 B(  6-C ,  7-C ) :   1.1649 B(  6-C , 24-H ) :   0.9341
B(  6-C , 25-H ) :   0.9163 B(  7-C , 26-H ) :   0.9375 B(  7-C , 27-H ) :   0.9348
B(  7-C , 28-H ) :   0.9447 B(  8-S ,  9-C ) :   1.0049 B(  9-C , 10-S ) :   0.9968
B(  9-C , 29-H ) :   0.8859 B(  9-C , 30-H ) :   0.8953 B( 10-S , 11-P ) :   0.9516
B( 10-S , 12-S ) :   0.1141 B( 11-P , 12-S ) :   1.6521 B( 11-P , 13-O ) :   1.0752
B( 11-P , 16-O ) :   1.1267 B( 13-O , 14-C ) :   0.9053 B( 14-C , 15-C ) :   1.1667
B( 14-C , 31-H ) :   0.9347 B( 14-C , 32-H ) :   0.9172 B( 15-C , 33-H ) :   0.9375
B( 15-C , 34-H ) :   0.9299 B( 15-C , 35-H ) :   0.9458 B( 16-O , 17-C ) :   0.8906
B( 17-C , 18-C ) :   1.1664 B( 17-C , 36-H ) :   0.9355 B( 17-C , 37-H ) :   0.9113
B( 18-C , 38-H ) :   0.9427 B( 18-C , 39-H ) :   0.9470 B( 18-C , 40-H ) :   0.9399

Dispersion correction           -0.066243613
FINAL SINGLE POINT ENERGY     -2929.519424496365

DIPOLE MOMENT
-------------

Method             : SCF
Type of density    : Electron Density
Multiplicity       :   1
Irrep              :   0
Energy             : -2929.6383071503705651 Eh
Relativity type    :
Basis              : AO
                                X                 Y                 Z
Electronic contribution:      1.956373751      -7.355200859       4.823472116
Nuclear contribution   :     -2.466606122       7.706568084      -4.855173520
                        -----------------------------------------
Total Dipole Moment    :     -0.510232371       0.351367225      -0.031701404
                        -----------------------------------------
Magnitude (a.u.)       :      0.620323285
Magnitude (Debye)      :      1.576736486

Rotational constants in cm-1:             0.013443             0.004857             0.004420
Rotational constants in MHz :           403.020332           145.615924           132.518792

                             ****ORCA TERMINATED NORMALLY****
TOTAL RUN TIME: 0 days 0 hours 0 minutes 21 seconds 87 msec
