                         Program Version 6.0.1  -  RELEASE   -
|  1> ! pbe def2-sv(p) def2/J RI DEFGRID1 loosescf d4 GCP(DFT/SV(P)) printgap
|  2> %output
|  3>     printlevel normal
|  4> end
|  5> * xyz 0 1
|  6> C 5.0631712964 -2.4480715039 -0.6190564582
|  7> C 3.7013676427 -2.9582867423 -1.0622252834
|  8> O 2.9485811605 -1.9133952517 -1.7105614541
|  9> C 2.2109925804 -1.1150053032 -0.9760361568
| 10> O 2.0787271175 -1.2021788757 0.2295182579
| 11> C 1.5292031225 -0.0466857396 -1.8046146948
| 12> C 0.3308583618 0.4928720639 -1.038493064
| 13> H -0.0669889226 1.3978437424 -1.5071368289
| 14> C 0.687845027 0.824745345 0.3986632348
| 15> O -0.014487316 0.4961912264 1.3371108377
| 16> O 1.7463083634 1.5824219075 0.4863532458
| 17> C 2.1515534504 2.0075933245 1.8046368496
| 18> C 3.2557983159 3.0331111871 1.6465529219
| 19> S -1.0099144119 -0.7456081252 -0.9898906476
| 20> P -2.354722894 0.2660589795 0.302546491
| 21> S -2.3088965329 2.2230019356 0.300640707
| 22> O -3.7440459907 -0.2903788283 -0.3000959282
| 23> C -4.2148975585 0.1114913259 -1.5887267067
| 24> O -2.4663632725 -0.4071656868 1.7291624105
| 25> C -2.2853401209 -1.8185821538 1.9372879379
| 26> H 4.9463484005 -1.6789770428 0.1411034648
| 27> H 5.635388486 -3.2698943265 -0.2014909529
| 28> H 5.6002181311 -2.0313428685 -1.4664363219
| 29> H 3.125620386 -3.3255426971 -0.2080527269
| 30> H 3.7950917948 -3.7353791011 -1.8206350975
| 31> H 1.229922233 -0.4608691984 -2.7664003524
| 32> H 2.2451252149 0.7608961987 -1.9721471177
| 33> H 1.2750403672 2.4201623048 2.3146869975
| 34> H 2.4860622829 1.1205966687 2.3516354025
| 35> H 4.102578591 2.5935457345 1.1287397466
| 36> H 2.8938479234 3.8832755723 1.0761985628
| 37> H 3.5709468676 3.369404935 2.6285707157
| 38> H -4.1550115212 1.1970919862 -1.6851044473
| 39> H -5.2495322323 -0.2176742468 -1.6385417475
| 40> H -3.6190718997 -0.3659679834 -2.3666260512
| 41> H -1.2288435867 -2.0660073321 1.8268768116
| 42> H -2.8868545774 -2.3868617855 1.2289288013
| 43> H -2.6133243619 -1.9985675967 2.9577329544
| 44> *
| 45>
| 46>                          ****END OF INPUT****

CARTESIAN COORDINATES (ANGSTROEM)
---------------------------------
  C      5.063171   -2.448072   -0.619056
  C      3.701368   -2.958287   -1.062225
  O      2.948581   -1.913395   -1.710561
  C      2.210993   -1.115005   -0.976036
  O      2.078727   -1.202179    0.229518
  C      1.529203   -0.046686   -1.804615
  C      0.330858    0.492872   -1.038493
  H     -0.066989    1.397844   -1.507137
  C      0.687845    0.824745    0.398663
  O     -0.014487    0.496191    1.337111
  O      1.746308    1.582422    0.486353
  C      2.151553    2.007593    1.804637
  C      3.255798    3.033111    1.646553
  S     -1.009914   -0.745608   -0.989891
  P     -2.354723    0.266059    0.302546
  S     -2.308897    2.223002    0.300641
  O     -3.744046   -0.290379   -0.300096
  C     -4.214898    0.111491   -1.588727
  O     -2.466363   -0.407166    1.729162
  C     -2.285340   -1.818582    1.937288
  H      4.946348   -1.678977    0.141103
  H      5.635388   -3.269894   -0.201491
  H      5.600218   -2.031343   -1.466436
  H      3.125620   -3.325543   -0.208053
  H      3.795092   -3.735379   -1.820635
  H      1.229922   -0.460869   -2.766400
  H      2.245125    0.760896   -1.972147
  H      1.275040    2.420162    2.314687
  H      2.486062    1.120597    2.351635
  H      4.102579    2.593546    1.128740
  H      2.893848    3.883276    1.076199
  H      3.570947    3.369405    2.628571
  H     -4.155012    1.197092   -1.685104
  H     -5.249532   -0.217674   -1.638542
  H     -3.619072   -0.365968   -2.366626
  H     -1.228844   -2.066007    1.826877
  H     -2.886855   -2.386862    1.228929
  H     -2.613324   -1.998568    2.957733

 Total Charge           Charge          ....    0
 Multiplicity           Mult            ....    1
 Number of Electrons    NEL             ....  174
 Basis Dimension        Dim             ....  316

ORBITAL ENERGIES
----------------

  NO   OCC          E(Eh)            E(eV)
   0   2.0000     -88.031850     -2395.4684
   1   2.0000     -87.963974     -2393.6214
   2   2.0000     -76.412615     -2079.2930
   3   2.0000     -18.818070      -512.0657
   4   2.0000     -18.806158      -511.7416
   5   2.0000     -18.773268      -510.8466
   6   2.0000     -18.770487      -510.7709
   7   2.0000     -18.754944      -510.3480
   8   2.0000     -18.733602      -509.7672
   9   2.0000     -10.025134      -272.7978
  10   2.0000     -10.012456      -272.4528
  11   2.0000      -9.960024      -271.0260
  12   2.0000      -9.946368      -270.6544
  13   2.0000      -9.944393      -270.6007
  14   2.0000      -9.934523      -270.3321
  15   2.0000      -9.927918      -270.1524
  16   2.0000      -9.923555      -270.0337
  17   2.0000      -9.898341      -269.3475
  18   2.0000      -9.889127      -269.0968
  19   2.0000      -7.676619      -208.8914
  20   2.0000      -7.609426      -207.0630
  21   2.0000      -6.408301      -174.3787
  22   2.0000      -5.704439      -155.2257
  23   2.0000      -5.701286      -155.1399
  24   2.0000      -5.693553      -154.9295
  25   2.0000      -5.638660      -153.4357
  26   2.0000      -5.630141      -153.2039
  27   2.0000      -5.629086      -153.1752
  28   2.0000      -4.630933      -126.0141
  29   2.0000      -4.630545      -126.0035
  30   2.0000      -4.628653      -125.9520
  31   2.0000      -1.027099       -27.9488
  32   2.0000      -1.014576       -27.6080
  33   2.0000      -0.966978       -26.3128
  34   2.0000      -0.931881       -25.3578
  35   2.0000      -0.922215       -25.0947
  36   2.0000      -0.914248       -24.8779
  37   2.0000      -0.765623       -20.8337
  38   2.0000      -0.721207       -19.6250
  39   2.0000      -0.707462       -19.2510
  40   2.0000      -0.686997       -18.6941
  41   2.0000      -0.657837       -17.9007
  42   2.0000      -0.623120       -16.9560
  43   2.0000      -0.616482       -16.7753
  44   2.0000      -0.604518       -16.4498
  45   2.0000      -0.599631       -16.3168
  46   2.0000      -0.559272       -15.2186
  47   2.0000      -0.512508       -13.9461
  48   2.0000      -0.510338       -13.8870
  49   2.0000      -0.497072       -13.5260
  50   2.0000      -0.486935       -13.2502
  51   2.0000      -0.464394       -12.6368
  52   2.0000      -0.456799       -12.4301
  53   2.0000      -0.451530       -12.2868
  54   2.0000      -0.442807       -12.0494
  55   2.0000      -0.432252       -11.7622
  56   2.0000      -0.424600       -11.5540
  57   2.0000      -0.415549       -11.3077
  58   2.0000      -0.406225       -11.0539
  59   2.0000      -0.404252       -11.0003
  60   2.0000      -0.398646       -10.8477
  61   2.0000      -0.395855       -10.7718
  62   2.0000      -0.390751       -10.6329
  63   2.0000      -0.385701       -10.4954
  64   2.0000      -0.374349       -10.1865
  65   2.0000      -0.366082        -9.9616
  66   2.0000      -0.363038        -9.8788
  67   2.0000      -0.356414        -9.6985
  68   2.0000      -0.352891        -9.6027
  69   2.0000      -0.345722        -9.4076
  70   2.0000      -0.338972        -9.2239
  71   2.0000      -0.327171        -8.9028
  72   2.0000      -0.317400        -8.6369
  73   2.0000      -0.309943        -8.4340
  74   2.0000      -0.306636        -8.3440
  75   2.0000      -0.302317        -8.2265
  76   2.0000      -0.282846        -7.6966
  77   2.0000      -0.280452        -7.6315
  78   2.0000      -0.275862        -7.5066
  79   2.0000      -0.261692        -7.1210
  80   2.0000      -0.254815        -6.9339
  81   2.0000      -0.242962        -6.6113
  82   2.0000      -0.239506        -6.5173
  83   2.0000      -0.224777        -6.1165
  84   2.0000      -0.213080        -5.7982
  85   2.0000      -0.186830        -5.0839
  86   2.0000      -0.177985        -4.8432
  87   0.0000      -0.041361        -1.1255
  88   0.0000      -0.027668        -0.7529
  89   0.0000      -0.017374        -0.4728
  90   0.0000       0.012268         0.3338
  91   0.0000       0.030409         0.8275

MULLIKEN ATOMIC CHARGES
-----------------------
   0 C :   -0.305922
   1 C :   -0.014949
   2 O :   -0.220685
   3 C :    0.118130
   4 O :   -0.196395
   5 C :   -0.098567
   6 C :   -0.282717
   7 H :    0.146669
   8 C :    0.231870
   9 O :   -0.197962
  10 O :   -0.235676
  11 C :   -0.025852
  12 C :   -0.275650
  13 S :   -0.106354
  14 P :    0.616679
  15 S :   -0.340955
  16 O :   -0.392217
  17 C :   -0.096355
  18 O :   -0.352978
  19 C :   -0.097913
  20 H :    0.125583
  21 H :    0.118456
  22 H :    0.117368
  23 H :    0.116211
  24 H :    0.108776
  25 H :    0.128571
  26 H :    0.140097
  27 H :    0.121956
  28 H :    0.109830
  29 H :    0.109679
  30 H :    0.118725
  31 H :    0.113311
  32 H :    0.111099
  33 H :    0.117748
  34 H :    0.104262
  35 H :    0.129727
  36 H :    0.110752
  37 H :    0.125648
Sum of atomic charges:    0.0000000

LOEWDIN ATOMIC CHARGES
----------------------
   0 C :   -0.355151
   1 C :   -0.108832
   2 O :   -0.050119
   3 C :    0.037399
   4 O :   -0.149054
   5 C :   -0.251491
   6 C :   -0.263209
   7 H :    0.143378
   8 C :    0.012068
   9 O :   -0.160271
  10 O :   -0.050491
  11 C :   -0.102283
  12 C :   -0.350935
  13 S :    0.088428
  14 P :    0.591424
  15 S :   -0.335513
  16 O :   -0.271548
  17 C :   -0.221863
  18 O :   -0.232095
  19 C :   -0.207700
  20 H :    0.129951
  21 H :    0.133408
  22 H :    0.126402
  23 H :    0.123241
  24 H :    0.120866
  25 H :    0.142957
  26 H :    0.155902
  27 H :    0.124700
  28 H :    0.119926
  29 H :    0.123778
  30 H :    0.128301
  31 H :    0.132080
  32 H :    0.107038
  33 H :    0.118420
  34 H :    0.101973
  35 H :    0.116748
  36 H :    0.108217
  37 H :    0.123950

  Mayer bond orders larger than 0.100000
B(  0-C ,  1-C ) :   1.1744 B(  0-C , 20-H ) :   0.9467 B(  0-C , 21-H ) :   0.9438
B(  0-C , 22-H ) :   0.9486 B(  1-C ,  2-O ) :   0.9074 B(  1-C , 23-H ) :   0.9143
B(  1-C , 24-H ) :   0.9367 B(  2-O ,  3-C ) :   1.2586 B(  3-C ,  4-O ) :   1.9831
B(  3-C ,  5-C ) :   0.9906 B(  4-O ,  8-C ) :   0.1026 B(  5-C ,  6-C ) :   1.0579
B(  5-C , 25-H ) :   0.9014 B(  5-C , 26-H ) :   0.8757 B(  6-C ,  7-H ) :   0.8558
B(  6-C ,  8-C ) :   0.8830 B(  6-C , 13-S ) :   1.0353 B(  8-C ,  9-O ) :   1.9654
B(  8-C , 10-O ) :   1.2482 B(  9-O , 14-P ) :   0.1097 B( 10-O , 11-C ) :   0.8992
B( 11-C , 12-C ) :   1.1530 B( 11-C , 27-H ) :   0.9273 B( 11-C , 28-H ) :   0.9315
B( 12-C , 29-H ) :   0.9499 B( 12-C , 30-H ) :   0.9503 B( 12-C , 31-H ) :   0.9435
B( 13-S , 14-P ) :   0.9349 B( 13-S , 15-S ) :   0.1095 B( 14-P , 15-S ) :   1.6105
B( 14-P , 16-O ) :   1.0504 B( 14-P , 18-O ) :   1.1318 B( 16-O , 17-C ) :   0.9444
B( 17-C , 32-H ) :   0.9320 B( 17-C , 33-H ) :   0.9592 B( 17-C , 34-H ) :   0.9455
B( 18-O , 19-C ) :   0.9241 B( 19-C , 35-H ) :   0.9433 B( 19-C , 36-H ) :   0.9452
B( 19-C , 37-H ) :   0.9595

Dispersion correction           -0.051119696
FINAL SINGLE POINT ENERGY     -1979.013399971763

DIPOLE MOMENT
-------------

Method             : SCF
Type of density    : Electron Density
Multiplicity       :   1
Irrep              :   0
Energy             : -1979.1442893337543865 Eh
Relativity type    :
Basis              : AO
                                X                 Y                 Z
Electronic contribution:    -20.054723047       3.632560784      -0.643903144
Nuclear contribution   :     21.990971422      -4.804026199      -0.203590790
                        -----------------------------------------
Total Dipole Moment    :      1.936248375      -1.171465415      -0.847493935
                        -----------------------------------------
Magnitude (a.u.)       :      2.416533666
Magnitude (Debye)      :      6.142340438

Rotational constants in cm-1:             0.014122             0.006417             0.005323
Rotational constants in MHz :           423.359590           192.383108           159.566925

                             ****ORCA TERMINATED NORMALLY****
TOTAL RUN TIME: 0 days 0 hours 0 minutes 33 seconds 87 msec
