                         Program Version 6.0.0  -   RELEASE  -
|  1> ! r2scan-3c def2/J RI DEFGRID2 scfconv6 printgap
|  2> %output
|  3>     printlevel normal
|  4> end
|  5> * xyz 0 1
|  6> C 2.3715419077 2.6795740435 -0.4074070124
|  7> C 2.6146634116 1.4123367488 -1.203442036
|  8> O 1.6975038355 0.3744292824 -0.796918992
|  9> P 2.0887198214 -0.7505090098 0.2477281007
| 10> S 3.0050545286 -0.1835428556 1.8897091904
| 11> O 2.9495986152 -1.7298995849 -0.6621837707
| 12> C 3.7875272585 -2.7592483707 -0.1045839876
| 13> C 2.9739111895 -3.8689945439 0.5287784653
| 14> S 0.2169274175 -1.679240188 0.4500142665
| 15> C -0.3839752225 -0.649699949 1.8203781808
| 16> S -0.538293458 1.1082546814 1.3857223074
| 17> P -1.8249060757 0.9516077989 -0.2775113774
| 18> S -1.2236264554 0.5358913624 -2.0997681803
| 19> O -2.3743597262 2.4355131812 -0.1098594303
| 20> C -3.0447543728 3.1317870374 -1.1763251968
| 21> C -4.4101193629 2.5391589677 -1.461307756
| 22> O -2.9696691961 -0.0064119526 0.2775925139
| 23> C -3.5481608718 -1.1220978414 -0.4286988093
| 24> C -3.3233022911 -2.4090229868 0.3396644981
| 25> H 2.5782549712 2.5099055128 0.6474347048
| 26> H 3.0205843818 3.4663640839 -0.7778260531
| 27> H 1.3337805957 2.9896514452 -0.5096184624
| 28> H 3.6407790581 1.0559866887 -1.0769254963
| 29> H 2.4044578848 1.5600099508 -2.2646354702
| 30> H 4.3656512272 -3.1159643779 -0.9579147658
| 31> H 4.4531607097 -2.2994332226 0.6331100424
| 32> H 2.4550597263 -3.4929219838 1.4096468308
| 33> H 2.2383048732 -4.2470835538 -0.1767424523
| 34> H 3.6369837728 -4.6745909391 0.8271521419
| 35> H 0.3296906604 -0.6887213301 2.6435643012
| 36> H -1.3523036393 -1.0460194125 2.1156519359
| 37> H -3.1149086529 4.1593811238 -0.8169755157
| 38> H -2.4140469214 3.0909778329 -2.0707264344
| 39> H -4.9920044853 2.4831757113 -0.5448905825
| 40> H -4.9301314862 3.1617211471 -2.1826022514
| 41> H -4.297507863 1.5375753201 -1.8750974465
| 42> H -4.6136423648 -0.8973049417 -0.5128739256
| 43> H -3.1040964059 -1.1758148154 -1.428801896
| 44> H -3.8527094785 -3.2122681901 -0.1624080411
| 45> H -2.2631079035 -2.6539119736 0.3737700547
| 46> H -3.7034942461 -2.3114314561 1.3527757456
| 47> *
| 48>
| 49>                          ****END OF INPUT****

CARTESIAN COORDINATES (ANGSTROEM)
---------------------------------
  C      2.371542    2.679574   -0.407407
  C      2.614663    1.412337   -1.203442
  O      1.697504    0.374429   -0.796919
  P      2.088720   -0.750509    0.247728
  S      3.005055   -0.183543    1.889709
  O      2.949599   -1.729900   -0.662184
  C      3.787527   -2.759248   -0.104584
  C      2.973911   -3.868995    0.528778
  S      0.216927   -1.679240    0.450014
  C     -0.383975   -0.649700    1.820378
  S     -0.538293    1.108255    1.385722
  P     -1.824906    0.951608   -0.277511
  S     -1.223626    0.535891   -2.099768
  O     -2.374360    2.435513   -0.109859
  C     -3.044754    3.131787   -1.176325
  C     -4.410119    2.539159   -1.461308
  O     -2.969669   -0.006412    0.277593
  C     -3.548161   -1.122098   -0.428699
  C     -3.323302   -2.409023    0.339664
  H      2.578255    2.509906    0.647435
  H      3.020584    3.466364   -0.777826
  H      1.333781    2.989651   -0.509618
  H      3.640779    1.055987   -1.076925
  H      2.404458    1.560010   -2.264635
  H      4.365651   -3.115964   -0.957915
  H      4.453161   -2.299433    0.633110
  H      2.455060   -3.492922    1.409647
  H      2.238305   -4.247084   -0.176742
  H      3.636984   -4.674591    0.827152
  H      0.329691   -0.688721    2.643564
  H     -1.352304   -1.046019    2.115652
  H     -3.114909    4.159381   -0.816976
  H     -2.414047    3.090978   -2.070726
  H     -4.992004    2.483176   -0.544891
  H     -4.930131    3.161721   -2.182602
  H     -4.297508    1.537575   -1.875097
  H     -4.613642   -0.897305   -0.512874
  H     -3.104096   -1.175815   -1.428802
  H     -3.852709   -3.212268   -0.162408
  H     -2.263108   -2.653912    0.373770
  H     -3.703494   -2.311431    1.352776

 Total Charge           Charge          ....    0
 Multiplicity           Mult            ....    1
 Number of Electrons    NEL             ....  202
 Basis Dimension        Dim             ....  539

ORBITAL ENERGIES
----------------

  NO   OCC          E(Eh)            E(eV)
   0   2.0000     -88.576351     -2410.2851
   1   2.0000     -88.571167     -2410.1440
   2   2.0000     -88.518077     -2408.6993
   3   2.0000     -88.514157     -2408.5927
   4   2.0000     -76.911351     -2092.8643
   5   2.0000     -76.910643     -2092.8450
   6   2.0000     -18.992221      -516.8046
   7   2.0000     -18.991008      -516.7716
   8   2.0000     -18.986400      -516.6462
   9   2.0000     -18.978622      -516.4346
  10   2.0000     -10.108621      -275.0695
  11   2.0000     -10.099140      -274.8116
  12   2.0000     -10.096399      -274.7370
  13   2.0000     -10.094914      -274.6966
  14   2.0000     -10.090357      -274.5726
  15   2.0000     -10.035867      -273.0898
  16   2.0000     -10.030155      -272.9344
  17   2.0000     -10.028189      -272.8809
  18   2.0000     -10.015610      -272.5386
  19   2.0000      -7.871128      -214.1843
  20   2.0000      -7.865450      -214.0298
  21   2.0000      -7.812932      -212.6007
  22   2.0000      -7.808934      -212.4919
  23   2.0000      -6.589830      -179.3184
  24   2.0000      -6.588822      -179.2910
  25   2.0000      -5.818004      -158.3159
  26   2.0000      -5.815033      -158.2351
  27   2.0000      -5.812713      -158.1720
  28   2.0000      -5.809217      -158.0768
  29   2.0000      -5.808089      -158.0461
  30   2.0000      -5.802245      -157.8871
  31   2.0000      -5.760511      -156.7515
  32   2.0000      -5.756641      -156.6462
  33   2.0000      -5.753403      -156.5581
  34   2.0000      -5.752801      -156.5417
  35   2.0000      -5.749142      -156.4421
  36   2.0000      -5.748948      -156.4368
  37   2.0000      -4.735347      -128.8553
  38   2.0000      -4.734664      -128.8368
  39   2.0000      -4.734450      -128.8309
  40   2.0000      -4.733757      -128.8121
  41   2.0000      -4.733659      -128.8094
  42   2.0000      -4.732421      -128.7757
  43   2.0000      -1.044910       -28.4335
  44   2.0000      -1.044559       -28.4239
  45   2.0000      -1.009612       -27.4729
  46   2.0000      -1.003736       -27.3130
  47   2.0000      -0.802429       -21.8352
  48   2.0000      -0.759264       -20.6606
  49   2.0000      -0.746017       -20.3001
  50   2.0000      -0.733724       -19.9656
  51   2.0000      -0.725266       -19.7355
  52   2.0000      -0.705246       -19.1907
  53   2.0000      -0.683663       -18.6034
  54   2.0000      -0.668725       -18.1969
  55   2.0000      -0.631233       -17.1767
  56   2.0000      -0.621512       -16.9122
  57   2.0000      -0.607948       -16.5431
  58   2.0000      -0.602527       -16.3956
  59   2.0000      -0.586898       -15.9703
  60   2.0000      -0.522738       -14.2244
  61   2.0000      -0.520146       -14.1539
  62   2.0000      -0.496488       -13.5101
  63   2.0000      -0.484831       -13.1929
  64   2.0000      -0.477653       -12.9976
  65   2.0000      -0.457933       -12.4610
  66   2.0000      -0.455073       -12.3832
  67   2.0000      -0.452081       -12.3018
  68   2.0000      -0.443510       -12.0685
  69   2.0000      -0.428707       -11.6657
  70   2.0000      -0.417472       -11.3600
  71   2.0000      -0.414839       -11.2883
  72   2.0000      -0.408440       -11.1142
  73   2.0000      -0.406097       -11.0505
  74   2.0000      -0.391795       -10.6613
  75   2.0000      -0.389065       -10.5870
  76   2.0000      -0.385614       -10.4931
  77   2.0000      -0.376573       -10.2471
  78   2.0000      -0.369790       -10.0625
  79   2.0000      -0.365389        -9.9427
  80   2.0000      -0.362229        -9.8568
  81   2.0000      -0.357305        -9.7228
  82   2.0000      -0.354008        -9.6330
  83   2.0000      -0.349929        -9.5220
  84   2.0000      -0.345254        -9.3948
  85   2.0000      -0.332879        -9.0581
  86   2.0000      -0.318803        -8.6751
  87   2.0000      -0.309082        -8.4106
  88   2.0000      -0.307114        -8.3570
  89   2.0000      -0.298121        -8.1123
  90   2.0000      -0.295478        -8.0404
  91   2.0000      -0.289907        -7.8888
  92   2.0000      -0.285382        -7.7656
  93   2.0000      -0.277838        -7.5604
  94   2.0000      -0.274612        -7.4726
  95   2.0000      -0.248206        -6.7540
  96   2.0000      -0.226637        -6.1671
  97   2.0000      -0.221143        -6.0176
  98   2.0000      -0.214160        -5.8276
  99   2.0000      -0.207647        -5.6504
 100   2.0000      -0.205562        -5.5936
 101   0.0000      -0.051495        -1.4012
 102   0.0000      -0.026248        -0.7142
 103   0.0000      -0.003881        -0.1056
 104   0.0000       0.005239         0.1426
 105   0.0000       0.017947         0.4884

MULLIKEN ATOMIC CHARGES
-----------------------
   0 C :   -0.452693
   1 C :   -0.136937
   2 O :   -0.248415
   3 P :    0.694603
   4 S :   -0.481377
   5 O :   -0.303746
   6 C :   -0.149522
   7 C :   -0.456540
   8 S :   -0.131810
   9 C :   -0.234533
  10 S :   -0.114629
  11 P :    0.716274
  12 S :   -0.470561
  13 O :   -0.302206
  14 C :   -0.151975
  15 C :   -0.450341
  16 O :   -0.306595
  17 C :   -0.119696
  18 C :   -0.487026
  19 H :    0.177964
  20 H :    0.140656
  21 H :    0.158625
  22 H :    0.145690
  23 H :    0.156527
  24 H :    0.148169
  25 H :    0.173989
  26 H :    0.175545
  27 H :    0.156377
  28 H :    0.147728
  29 H :    0.212504
  30 H :    0.192220
  31 H :    0.149115
  32 H :    0.174735
  33 H :    0.159276
  34 H :    0.148265
  35 H :    0.163993
  36 H :    0.147764
  37 H :    0.184584
  38 H :    0.150563
  39 H :    0.163655
  40 H :    0.159782
Sum of atomic charges:   -0.0000000

LOEWDIN ATOMIC CHARGES
----------------------
   0 C :   -0.403055
   1 C :    0.026945
   2 O :   -0.684059
   3 P :    0.375596
   4 S :   -0.132833
   5 O :   -0.657985
   6 C :    0.018751
   7 C :   -0.407132
   8 S :    0.164012
   9 C :   -0.410623
  10 S :    0.207474
  11 P :    0.389696
  12 S :   -0.103450
  13 O :   -0.683178
  14 C :    0.017548
  15 C :   -0.399913
  16 O :   -0.677360
  17 C :    0.013506
  18 C :   -0.398359
  19 H :    0.167473
  20 H :    0.155471
  21 H :    0.161397
  22 H :    0.173356
  23 H :    0.182369
  24 H :    0.179392
  25 H :    0.180200
  26 H :    0.164841
  27 H :    0.160029
  28 H :    0.159318
  29 H :    0.191785
  30 H :    0.182983
  31 H :    0.179326
  32 H :    0.180049
  33 H :    0.160688
  34 H :    0.159835
  35 H :    0.162180
  36 H :    0.174623
  37 H :    0.186082
  38 H :    0.162307
  39 H :    0.162295
  40 H :    0.158418

  Mayer bond orders larger than 0.100000
B(  0-C ,  1-C ) :   0.9400 B(  0-C , 19-H ) :   0.9600 B(  0-C , 20-H ) :   0.9652
B(  0-C , 21-H ) :   0.9709 B(  1-C ,  2-O ) :   0.7577 B(  1-C , 22-H ) :   0.9652
B(  1-C , 23-H ) :   0.9635 B(  2-O ,  3-P ) :   1.1716 B(  3-P ,  4-S ) :   1.7428
B(  3-P ,  5-O ) :   1.0670 B(  3-P ,  8-S ) :   1.0729 B(  5-O ,  6-C ) :   0.8180
B(  6-C ,  7-C ) :   0.9197 B(  6-C , 24-H ) :   0.9580 B(  6-C , 25-H ) :   0.9664
B(  7-C , 26-H ) :   0.9631 B(  7-C , 27-H ) :   0.9692 B(  7-C , 28-H ) :   0.9588
B(  8-S ,  9-C ) :   0.9104 B(  9-C , 10-S ) :   0.9015 B(  9-C , 29-H ) :   0.9119
B(  9-C , 30-H ) :   0.9096 B( 10-S , 11-P ) :   1.0897 B( 11-P , 12-S ) :   1.7517
B( 11-P , 13-O ) :   1.1477 B( 11-P , 16-O ) :   1.0882 B( 13-O , 14-C ) :   0.8100
B( 14-C , 15-C ) :   0.9143 B( 14-C , 31-H ) :   0.9598 B( 14-C , 32-H ) :   0.9650
B( 15-C , 33-H ) :   0.9716 B( 15-C , 34-H ) :   0.9624 B( 15-C , 35-H ) :   0.9618
B( 16-O , 17-C ) :   0.7549 B( 17-C , 18-C ) :   0.9352 B( 17-C , 36-H ) :   0.9569
B( 17-C , 37-H ) :   0.9513 B( 18-C , 38-H ) :   0.9600 B( 18-C , 39-H ) :   0.9630
B( 18-C , 40-H ) :   0.9757

Dispersion correction           -0.022232662
FINAL SINGLE POINT ENERGY     -2932.455187475474

DIPOLE MOMENT
-------------

Method             : SCF
Type of density    : Electron Density
Multiplicity       :   1
Irrep              :   0
Energy             : -2932.4797613800647014 Eh
Relativity type    :
Basis              : AO
                                X                 Y                 Z
Electronic contribution:      7.168815405       3.194160648       4.729401683
Nuclear contribution   :     -7.963719126      -3.723179098      -5.063420055
                        -----------------------------------------
Total Dipole Moment    :     -0.794903721      -0.529018450      -0.334018372
                        -----------------------------------------
Magnitude (a.u.)       :      1.011583273
Magnitude (Debye)      :      2.571240341

Rotational constants in cm-1:             0.012793             0.005481             0.004731
Rotational constants in MHz :           383.538944           164.305493           141.840930

                             ****ORCA TERMINATED NORMALLY****
TOTAL RUN TIME: 0 days 0 hours 1 minutes 24 seconds 534 msec
