                         Program Version 6.0.0  -   RELEASE  -
|  1> ! r2scan-3c def2/J RI DEFGRID2 scfconv6 printgap
|  2> %output
|  3>     printlevel normal
|  4> end
|  5> %cpcm
|  6>     smd true
|  7>     smdsolvent "water"
|  8> end
|  9> * xyz 0 1
| 10> C 2.3715419077 2.6795740435 -0.4074070124
| 11> C 2.6146634116 1.4123367488 -1.203442036
| 12> O 1.6975038355 0.3744292824 -0.796918992
| 13> P 2.0887198214 -0.7505090098 0.2477281007
| 14> S 3.0050545286 -0.1835428556 1.8897091904
| 15> O 2.9495986152 -1.7298995849 -0.6621837707
| 16> C 3.7875272585 -2.7592483707 -0.1045839876
| 17> C 2.9739111895 -3.8689945439 0.5287784653
| 18> S 0.2169274175 -1.679240188 0.4500142665
| 19> C -0.3839752225 -0.649699949 1.8203781808
| 20> S -0.538293458 1.1082546814 1.3857223074
| 21> P -1.8249060757 0.9516077989 -0.2775113774
| 22> S -1.2236264554 0.5358913624 -2.0997681803
| 23> O -2.3743597262 2.4355131812 -0.1098594303
| 24> C -3.0447543728 3.1317870374 -1.1763251968
| 25> C -4.4101193629 2.5391589677 -1.461307756
| 26> O -2.9696691961 -0.0064119526 0.2775925139
| 27> C -3.5481608718 -1.1220978414 -0.4286988093
| 28> C -3.3233022911 -2.4090229868 0.3396644981
| 29> H 2.5782549712 2.5099055128 0.6474347048
| 30> H 3.0205843818 3.4663640839 -0.7778260531
| 31> H 1.3337805957 2.9896514452 -0.5096184624
| 32> H 3.6407790581 1.0559866887 -1.0769254963
| 33> H 2.4044578848 1.5600099508 -2.2646354702
| 34> H 4.3656512272 -3.1159643779 -0.9579147658
| 35> H 4.4531607097 -2.2994332226 0.6331100424
| 36> H 2.4550597263 -3.4929219838 1.4096468308
| 37> H 2.2383048732 -4.2470835538 -0.1767424523
| 38> H 3.6369837728 -4.6745909391 0.8271521419
| 39> H 0.3296906604 -0.6887213301 2.6435643012
| 40> H -1.3523036393 -1.0460194125 2.1156519359
| 41> H -3.1149086529 4.1593811238 -0.8169755157
| 42> H -2.4140469214 3.0909778329 -2.0707264344
| 43> H -4.9920044853 2.4831757113 -0.5448905825
| 44> H -4.9301314862 3.1617211471 -2.1826022514
| 45> H -4.297507863 1.5375753201 -1.8750974465
| 46> H -4.6136423648 -0.8973049417 -0.5128739256
| 47> H -3.1040964059 -1.1758148154 -1.428801896
| 48> H -3.8527094785 -3.2122681901 -0.1624080411
| 49> H -2.2631079035 -2.6539119736 0.3737700547
| 50> H -3.7034942461 -2.3114314561 1.3527757456
| 51> *
| 52>
| 53>                          ****END OF INPUT****

CARTESIAN COORDINATES (ANGSTROEM)
---------------------------------
  C      2.371542    2.679574   -0.407407
  C      2.614663    1.412337   -1.203442
  O      1.697504    0.374429   -0.796919
  P      2.088720   -0.750509    0.247728
  S      3.005055   -0.183543    1.889709
  O      2.949599   -1.729900   -0.662184
  C      3.787527   -2.759248   -0.104584
  C      2.973911   -3.868995    0.528778
  S      0.216927   -1.679240    0.450014
  C     -0.383975   -0.649700    1.820378
  S     -0.538293    1.108255    1.385722
  P     -1.824906    0.951608   -0.277511
  S     -1.223626    0.535891   -2.099768
  O     -2.374360    2.435513   -0.109859
  C     -3.044754    3.131787   -1.176325
  C     -4.410119    2.539159   -1.461308
  O     -2.969669   -0.006412    0.277593
  C     -3.548161   -1.122098   -0.428699
  C     -3.323302   -2.409023    0.339664
  H      2.578255    2.509906    0.647435
  H      3.020584    3.466364   -0.777826
  H      1.333781    2.989651   -0.509618
  H      3.640779    1.055987   -1.076925
  H      2.404458    1.560010   -2.264635
  H      4.365651   -3.115964   -0.957915
  H      4.453161   -2.299433    0.633110
  H      2.455060   -3.492922    1.409647
  H      2.238305   -4.247084   -0.176742
  H      3.636984   -4.674591    0.827152
  H      0.329691   -0.688721    2.643564
  H     -1.352304   -1.046019    2.115652
  H     -3.114909    4.159381   -0.816976
  H     -2.414047    3.090978   -2.070726
  H     -4.992004    2.483176   -0.544891
  H     -4.930131    3.161721   -2.182602
  H     -4.297508    1.537575   -1.875097
  H     -4.613642   -0.897305   -0.512874
  H     -3.104096   -1.175815   -1.428802
  H     -3.852709   -3.212268   -0.162408
  H     -2.263108   -2.653912    0.373770
  H     -3.703494   -2.311431    1.352776

 Total Charge           Charge          ....    0
 Multiplicity           Mult            ....    1
 Number of Electrons    NEL             ....  202
 Basis Dimension        Dim             ....  539

ORBITAL ENERGIES
----------------

  NO   OCC          E(Eh)            E(eV)
   0   2.0000     -88.579359     -2410.3669
   1   2.0000     -88.576132     -2410.2791
   2   2.0000     -88.525646     -2408.9053
   3   2.0000     -88.521588     -2408.7949
   4   2.0000     -76.916853     -2093.0140
   5   2.0000     -76.916079     -2092.9929
   6   2.0000     -18.994785      -516.8744
   7   2.0000     -18.993122      -516.8291
   8   2.0000     -18.990725      -516.7639
   9   2.0000     -18.984109      -516.5839
  10   2.0000     -10.105992      -274.9980
  11   2.0000     -10.088637      -274.5258
  12   2.0000     -10.087930      -274.5065
  13   2.0000     -10.087881      -274.5052
  14   2.0000     -10.087009      -274.4815
  15   2.0000     -10.019968      -272.6572
  16   2.0000     -10.018468      -272.6164
  17   2.0000     -10.018199      -272.6091
  18   2.0000     -10.014540      -272.5095
  19   2.0000      -7.874062      -214.2641
  20   2.0000      -7.870512      -214.1675
  21   2.0000      -7.820781      -212.8143
  22   2.0000      -7.816658      -212.7021
  23   2.0000      -6.595431      -179.4708
  24   2.0000      -6.594283      -179.4396
  25   2.0000      -5.820950      -158.3961
  26   2.0000      -5.817958      -158.3147
  27   2.0000      -5.817703      -158.3077
  28   2.0000      -5.814217      -158.2129
  29   2.0000      -5.811039      -158.1264
  30   2.0000      -5.807447      -158.0287
  31   2.0000      -5.768299      -156.9634
  32   2.0000      -5.764315      -156.8550
  33   2.0000      -5.761235      -156.7712
  34   2.0000      -5.760675      -156.7559
  35   2.0000      -5.756819      -156.6510
  36   2.0000      -5.756715      -156.6482
  37   2.0000      -4.740929      -129.0072
  38   2.0000      -4.740246      -128.9886
  39   2.0000      -4.739825      -128.9772
  40   2.0000      -4.739310      -128.9632
  41   2.0000      -4.739235      -128.9611
  42   2.0000      -4.737984      -128.9271
  43   2.0000      -1.049104       -28.5476
  44   2.0000      -1.046821       -28.4855
  45   2.0000      -1.011098       -27.5134
  46   2.0000      -1.007881       -27.4258
  47   2.0000      -0.803741       -21.8709
  48   2.0000      -0.756202       -20.5773
  49   2.0000      -0.741770       -20.1846
  50   2.0000      -0.723660       -19.6918
  51   2.0000      -0.720987       -19.6190
  52   2.0000      -0.705320       -19.1927
  53   2.0000      -0.686927       -18.6922
  54   2.0000      -0.674894       -18.3648
  55   2.0000      -0.630523       -17.1574
  56   2.0000      -0.618434       -16.8284
  57   2.0000      -0.600951       -16.3527
  58   2.0000      -0.598772       -16.2934
  59   2.0000      -0.585478       -15.9317
  60   2.0000      -0.520196       -14.1553
  61   2.0000      -0.516490       -14.0544
  62   2.0000      -0.493358       -13.4249
  63   2.0000      -0.483957       -13.1691
  64   2.0000      -0.477162       -12.9842
  65   2.0000      -0.454256       -12.3609
  66   2.0000      -0.451449       -12.2846
  67   2.0000      -0.448756       -12.2113
  68   2.0000      -0.440641       -11.9905
  69   2.0000      -0.425659       -11.5828
  70   2.0000      -0.418267       -11.3816
  71   2.0000      -0.410348       -11.1661
  72   2.0000      -0.407957       -11.1011
  73   2.0000      -0.400445       -10.8967
  74   2.0000      -0.391083       -10.6419
  75   2.0000      -0.388092       -10.5605
  76   2.0000      -0.382954       -10.4207
  77   2.0000      -0.368164       -10.0183
  78   2.0000      -0.365345        -9.9415
  79   2.0000      -0.360409        -9.8072
  80   2.0000      -0.355007        -9.6602
  81   2.0000      -0.350402        -9.5349
  82   2.0000      -0.347580        -9.4581
  83   2.0000      -0.345299        -9.3961
  84   2.0000      -0.342116        -9.3094
  85   2.0000      -0.330137        -8.9835
  86   2.0000      -0.318117        -8.6564
  87   2.0000      -0.304965        -8.2985
  88   2.0000      -0.302091        -8.2203
  89   2.0000      -0.299578        -8.1519
  90   2.0000      -0.297587        -8.0978
  91   2.0000      -0.289278        -7.8717
  92   2.0000      -0.287175        -7.8144
  93   2.0000      -0.279241        -7.5985
  94   2.0000      -0.274758        -7.4765
  95   2.0000      -0.252356        -6.8670
  96   2.0000      -0.232685        -6.3317
  97   2.0000      -0.229073        -6.2334
  98   2.0000      -0.222464        -6.0535
  99   2.0000      -0.215026        -5.8512
 100   2.0000      -0.212731        -5.7887
 101   0.0000      -0.056078        -1.5260
 102   0.0000      -0.031539        -0.8582
 103   0.0000      -0.007865        -0.2140
 104   0.0000       0.001834         0.0499
 105   0.0000       0.015014         0.4086

MULLIKEN ATOMIC CHARGES
-----------------------
   0 C :   -0.477720
   1 C :   -0.156327
   2 O :   -0.267104
   3 P :    0.722926
   4 S :   -0.531701
   5 O :   -0.329695
   6 C :   -0.150561
   7 C :   -0.489824
   8 S :   -0.134091
   9 C :   -0.246463
  10 S :   -0.148404
  11 P :    0.748594
  12 S :   -0.520953
  13 O :   -0.334154
  14 C :   -0.151577
  15 C :   -0.481878
  16 O :   -0.321963
  17 C :   -0.126342
  18 C :   -0.491158
  19 H :    0.170328
  20 H :    0.166645
  21 H :    0.162549
  22 H :    0.166698
  23 H :    0.176105
  24 H :    0.174451
  25 H :    0.177855
  26 H :    0.172277
  27 H :    0.170020
  28 H :    0.172605
  29 H :    0.232544
  30 H :    0.231761
  31 H :    0.173547
  32 H :    0.176172
  33 H :    0.169572
  34 H :    0.171954
  35 H :    0.169017
  36 H :    0.174033
  37 H :    0.179873
  38 H :    0.172443
  39 H :    0.155692
  40 H :    0.172255
Sum of atomic charges:    0.0000000

LOEWDIN ATOMIC CHARGES
----------------------
   0 C :   -0.406967
   1 C :    0.028149
   2 O :   -0.697907
   3 P :    0.379430
   4 S :   -0.163926
   5 O :   -0.672304
   6 C :    0.023735
   7 C :   -0.409673
   8 S :    0.166006
   9 C :   -0.400677
  10 S :    0.188248
  11 P :    0.393279
  12 S :   -0.135014
  13 O :   -0.700605
  14 C :    0.021445
  15 C :   -0.402126
  16 O :   -0.683429
  17 C :    0.020272
  18 C :   -0.396990
  19 H :    0.162703
  20 H :    0.164533
  21 H :    0.161149
  22 H :    0.180362
  23 H :    0.188965
  24 H :    0.190362
  25 H :    0.181436
  26 H :    0.161464
  27 H :    0.163678
  28 H :    0.168471
  29 H :    0.198032
  30 H :    0.197473
  31 H :    0.189278
  32 H :    0.180714
  33 H :    0.164127
  34 H :    0.168481
  35 H :    0.162774
  36 H :    0.185930
  37 H :    0.184814
  38 H :    0.170090
  39 H :    0.159859
  40 H :    0.164357

  Mayer bond orders larger than 0.100000
B(  0-C ,  1-C ) :   0.9306 B(  0-C , 19-H ) :   0.9634 B(  0-C , 20-H ) :   0.9612
B(  0-C , 21-H ) :   0.9685 B(  1-C ,  2-O ) :   0.7464 B(  1-C , 22-H ) :   0.9589
B(  1-C , 23-H ) :   0.9569 B(  2-O ,  3-P ) :   1.1760 B(  3-P ,  4-S ) :   1.6990
B(  3-P ,  5-O ) :   1.0728 B(  3-P ,  8-S ) :   1.0924 B(  5-O ,  6-C ) :   0.8060
B(  6-C ,  7-C ) :   0.9087 B(  6-C , 24-H ) :   0.9487 B(  6-C , 25-H ) :   0.9643
B(  7-C , 26-H ) :   0.9633 B(  7-C , 27-H ) :   0.9661 B(  7-C , 28-H ) :   0.9535
B(  8-S ,  9-C ) :   0.9095 B(  9-C , 10-S ) :   0.8890 B(  9-C , 29-H ) :   0.9066
B(  9-C , 30-H ) :   0.8994 B( 10-S , 11-P ) :   1.1027 B( 11-P , 12-S ) :   1.7119
B( 11-P , 13-O ) :   1.1511 B( 11-P , 16-O ) :   1.1037 B( 13-O , 14-C ) :   0.7986
B( 14-C , 15-C ) :   0.9076 B( 14-C , 31-H ) :   0.9513 B( 14-C , 32-H ) :   0.9614
B( 15-C , 33-H ) :   0.9691 B( 15-C , 34-H ) :   0.9571 B( 15-C , 35-H ) :   0.9594
B( 16-O , 17-C ) :   0.7450 B( 17-C , 18-C ) :   0.9422 B( 17-C , 36-H ) :   0.9477
B( 17-C , 37-H ) :   0.9524 B( 18-C , 38-H ) :   0.9562 B( 18-C , 39-H ) :   0.9600
B( 18-C , 40-H ) :   0.9696

Dispersion correction           -0.022232662
FINAL SINGLE POINT ENERGY     -2932.463476806788

DIPOLE MOMENT
-------------

Method             : SCF
Type of density    : Electron Density
Multiplicity       :   1
Irrep              :   0
Energy             : -2932.4880507113784915 Eh
Relativity type    :
Basis              : AO
                                X                 Y                 Z
Electronic contribution:      6.824619548       2.884514105       4.701035908
Nuclear contribution   :     -7.963719126      -3.723179098      -5.063420055
                        -----------------------------------------
Total Dipole Moment    :     -1.139099579      -0.838664993      -0.362384147
                        -----------------------------------------
Magnitude (a.u.)       :      1.460215426
Magnitude (Debye)      :      3.711572650

Rotational constants in cm-1:             0.012793             0.005481             0.004731
Rotational constants in MHz :           383.538944           164.305493           141.840930

                             ****ORCA TERMINATED NORMALLY****
TOTAL RUN TIME: 0 days 0 hours 1 minutes 47 seconds 304 msec
