                         Program Version 6.0.1  -  RELEASE   -
|  1> ! pbe def2-sv(p) def2/J RI DEFGRID1 loosescf d4 GCP(DFT/SV(P)) printgap
|  2> %output
|  3>     printlevel normal
|  4> end
|  5> * xyz 0 1
|  6> C 4.1688869752 -2.2134163485 1.1218882869
|  7> C 2.7265470271 -2.2294767127 0.6569131558
|  8> O 2.5709021096 -1.208931673 -0.3483165453
|  9> C 1.4672081316 -1.1912567149 -1.0601321567
| 10> O 0.5467142998 -1.9739454548 -0.9243941552
| 11> C 1.4663366663 -0.0692330129 -2.0777472633
| 12> C 0.34330636 0.9255880398 -1.771616498
| 13> H 0.3061011836 1.6845022212 -2.5584556053
| 14> C 0.5264569654 1.6233953327 -0.4382600638
| 15> O -0.3946572721 1.7741752386 0.3444019944
| 16> O 1.751654329 2.0124984374 -0.2402247025
| 17> C 2.0749174672 2.6732877379 1.0034916317
| 18> C 1.7706166008 4.1594954594 0.923127798
| 19> S -1.3169605805 0.159885179 -1.7868374598
| 20> P -1.7249659582 -0.3215814452 0.2447040388
| 21> S -0.4763226849 -0.7563417644 1.7083300332
| 22> O -2.9057081838 0.6660233825 0.6454276917
| 23> C -2.8652377079 1.6254793734 1.7007494246
| 24> O -2.724899937 -1.5460275524 -0.0308929834
| 25> C -2.2962941667 -2.8559560194 -0.3976473086
| 26> H 4.3071775827 -2.9804467458 1.8762958879
| 27> H 4.8330857472 -2.4073007787 0.2849436183
| 28> H 4.410407352 -1.2452363342 1.5489900825
| 29> H 2.0301055196 -2.0122133823 1.4736399743
| 30> H 2.4475961672 -3.1911259135 0.2146392579
| 31> H 1.2850294045 -0.5004961824 -3.0623844947
| 32> H 2.4276692246 0.4421131303 -2.0492872625
| 33> H 1.5092652759 2.1952215382 1.8082562224
| 34> H 3.1417764869 2.490055707 1.12864591
| 35> H 0.7031708617 4.3199411364 0.790510383
| 36> H 2.084006501 4.6361379694 1.8458621412
| 37> H 2.3045877481 4.60633937 0.089291965
| 38> H -2.6204591364 2.6024715166 1.2876707837
| 39> H -2.1171627825 1.3427529397 2.4438603395
| 40> H -3.8587124709 1.6278394323 2.1435991293
| 41> H -1.5060565649 -3.1961271118 0.2733912564
| 42> H -1.9209270528 -2.8601217961 -1.4207432786
| 43> H -3.1772950905 -3.4861171551 -0.3047385956
| 44> *
| 45>
| 46>                          ****END OF INPUT****

CARTESIAN COORDINATES (ANGSTROEM)
---------------------------------
  C      4.168887   -2.213416    1.121888
  C      2.726547   -2.229477    0.656913
  O      2.570902   -1.208932   -0.348317
  C      1.467208   -1.191257   -1.060132
  O      0.546714   -1.973945   -0.924394
  C      1.466337   -0.069233   -2.077747
  C      0.343306    0.925588   -1.771616
  H      0.306101    1.684502   -2.558456
  C      0.526457    1.623395   -0.438260
  O     -0.394657    1.774175    0.344402
  O      1.751654    2.012498   -0.240225
  C      2.074917    2.673288    1.003492
  C      1.770617    4.159495    0.923128
  S     -1.316961    0.159885   -1.786837
  P     -1.724966   -0.321581    0.244704
  S     -0.476323   -0.756342    1.708330
  O     -2.905708    0.666023    0.645428
  C     -2.865238    1.625479    1.700749
  O     -2.724900   -1.546028   -0.030893
  C     -2.296294   -2.855956   -0.397647
  H      4.307178   -2.980447    1.876296
  H      4.833086   -2.407301    0.284944
  H      4.410407   -1.245236    1.548990
  H      2.030106   -2.012213    1.473640
  H      2.447596   -3.191126    0.214639
  H      1.285029   -0.500496   -3.062384
  H      2.427669    0.442113   -2.049287
  H      1.509265    2.195222    1.808256
  H      3.141776    2.490056    1.128646
  H      0.703171    4.319941    0.790510
  H      2.084007    4.636138    1.845862
  H      2.304588    4.606339    0.089292
  H     -2.620459    2.602472    1.287671
  H     -2.117163    1.342753    2.443860
  H     -3.858712    1.627839    2.143599
  H     -1.506057   -3.196127    0.273391
  H     -1.920927   -2.860122   -1.420743
  H     -3.177295   -3.486117   -0.304739

 Total Charge           Charge          ....    0
 Multiplicity           Mult            ....    1
 Number of Electrons    NEL             ....  174
 Basis Dimension        Dim             ....  316

ORBITAL ENERGIES
----------------

  NO   OCC          E(Eh)            E(eV)
   0   2.0000     -88.026522     -2395.3234
   1   2.0000     -87.964965     -2393.6484
   2   2.0000     -76.412599     -2079.2925
   3   2.0000     -18.827597      -512.3250
   4   2.0000     -18.803117      -511.6588
   5   2.0000     -18.765893      -510.6459
   6   2.0000     -18.763300      -510.5753
   7   2.0000     -18.762744      -510.5602
   8   2.0000     -18.734563      -509.7934
   9   2.0000     -10.032239      -272.9911
  10   2.0000     -10.008296      -272.3396
  11   2.0000      -9.961623      -271.0695
  12   2.0000      -9.956137      -270.9202
  13   2.0000      -9.941105      -270.5112
  14   2.0000      -9.923412      -270.0298
  15   2.0000      -9.916337      -269.8373
  16   2.0000      -9.914335      -269.7828
  17   2.0000      -9.898757      -269.3589
  18   2.0000      -9.887261      -269.0460
  19   2.0000      -7.671757      -208.7591
  20   2.0000      -7.610003      -207.0787
  21   2.0000      -6.407496      -174.3568
  22   2.0000      -5.700175      -155.1097
  23   2.0000      -5.696448      -155.0082
  24   2.0000      -5.687915      -154.7760
  25   2.0000      -5.639152      -153.4491
  26   2.0000      -5.630678      -153.2185
  27   2.0000      -5.629791      -153.1944
  28   2.0000      -4.630083      -125.9910
  29   2.0000      -4.629713      -125.9809
  30   2.0000      -4.628060      -125.9359
  31   2.0000      -1.037615       -28.2349
  32   2.0000      -1.009336       -27.4654
  33   2.0000      -0.960798       -26.1446
  34   2.0000      -0.941232       -25.6122
  35   2.0000      -0.914648       -24.8888
  36   2.0000      -0.911932       -24.8149
  37   2.0000      -0.767625       -20.8881
  38   2.0000      -0.717376       -19.5208
  39   2.0000      -0.709429       -19.3045
  40   2.0000      -0.682723       -18.5778
  41   2.0000      -0.650883       -17.7114
  42   2.0000      -0.629023       -17.1166
  43   2.0000      -0.613611       -16.6972
  44   2.0000      -0.599183       -16.3046
  45   2.0000      -0.591378       -16.0922
  46   2.0000      -0.566667       -15.4198
  47   2.0000      -0.516167       -14.0456
  48   2.0000      -0.507389       -13.8068
  49   2.0000      -0.498102       -13.5540
  50   2.0000      -0.485579       -13.2133
  51   2.0000      -0.460167       -12.5218
  52   2.0000      -0.454992       -12.3810
  53   2.0000      -0.449827       -12.2404
  54   2.0000      -0.438695       -11.9375
  55   2.0000      -0.429765       -11.6945
  56   2.0000      -0.424711       -11.5570
  57   2.0000      -0.414284       -11.2732
  58   2.0000      -0.404265       -11.0006
  59   2.0000      -0.402935       -10.9644
  60   2.0000      -0.396646       -10.7933
  61   2.0000      -0.388916       -10.5829
  62   2.0000      -0.382028       -10.3955
  63   2.0000      -0.377689       -10.2774
  64   2.0000      -0.375290       -10.2122
  65   2.0000      -0.368542       -10.0285
  66   2.0000      -0.360567        -9.8115
  67   2.0000      -0.355354        -9.6697
  68   2.0000      -0.352481        -9.5915
  69   2.0000      -0.347662        -9.4604
  70   2.0000      -0.338062        -9.1991
  71   2.0000      -0.336254        -9.1499
  72   2.0000      -0.314134        -8.5480
  73   2.0000      -0.312720        -8.5095
  74   2.0000      -0.299572        -8.1518
  75   2.0000      -0.296037        -8.0556
  76   2.0000      -0.287653        -7.8274
  77   2.0000      -0.279992        -7.6190
  78   2.0000      -0.266396        -7.2490
  79   2.0000      -0.262666        -7.1475
  80   2.0000      -0.253841        -6.9074
  81   2.0000      -0.241055        -6.5594
  82   2.0000      -0.236630        -6.4390
  83   2.0000      -0.227703        -6.1961
  84   2.0000      -0.196619        -5.3503
  85   2.0000      -0.180590        -4.9141
  86   2.0000      -0.176391        -4.7998
  87   0.0000      -0.051319        -1.3965
  88   0.0000      -0.038059        -1.0356
  89   0.0000      -0.027067        -0.7365
  90   0.0000       0.007868         0.2141
  91   0.0000       0.030666         0.8345

MULLIKEN ATOMIC CHARGES
-----------------------
   0 C :   -0.272749
   1 C :   -0.041052
   2 O :   -0.225517
   3 C :    0.083117
   4 O :   -0.193901
   5 C :   -0.015511
   6 C :   -0.323518
   7 H :    0.156574
   8 C :    0.217171
   9 O :   -0.194455
  10 O :   -0.213757
  11 C :   -0.013724
  12 C :   -0.311226
  13 S :   -0.080846
  14 P :    0.642823
  15 S :   -0.359477
  16 O :   -0.372302
  17 C :   -0.084132
  18 O :   -0.378828
  19 C :   -0.090286
  20 H :    0.112439
  21 H :    0.110525
  22 H :    0.110180
  23 H :    0.129571
  24 H :    0.103644
  25 H :    0.120513
  26 H :    0.111873
  27 H :    0.126628
  28 H :    0.109645
  29 H :    0.130261
  30 H :    0.120731
  31 H :    0.116540
  32 H :    0.106429
  33 H :    0.111159
  34 H :    0.114376
  35 H :    0.113462
  36 H :    0.112491
  37 H :    0.111128
Sum of atomic charges:    0.0000000

LOEWDIN ATOMIC CHARGES
----------------------
   0 C :   -0.350694
   1 C :   -0.112202
   2 O :   -0.052203
   3 C :    0.019258
   4 O :   -0.164607
   5 C :   -0.248819
   6 C :   -0.261723
   7 H :    0.152825
   8 C :    0.020569
   9 O :   -0.150663
  10 O :   -0.030801
  11 C :   -0.105839
  12 C :   -0.356025
  13 S :    0.110500
  14 P :    0.595445
  15 S :   -0.331588
  16 O :   -0.245688
  17 C :   -0.210825
  18 O :   -0.256173
  19 C :   -0.215315
  20 H :    0.131230
  21 H :    0.123984
  22 H :    0.124313
  23 H :    0.116824
  24 H :    0.116376
  25 H :    0.145437
  26 H :    0.137221
  27 H :    0.127693
  28 H :    0.121830
  29 H :    0.131275
  30 H :    0.134987
  31 H :    0.126141
  32 H :    0.107722
  33 H :    0.104677
  34 H :    0.115195
  35 H :    0.108200
  36 H :    0.107403
  37 H :    0.114059

  Mayer bond orders larger than 0.100000
B(  0-C ,  1-C ) :   1.1514 B(  0-C , 20-H ) :   0.9446 B(  0-C , 21-H ) :   0.9510
B(  0-C , 22-H ) :   0.9493 B(  1-C ,  2-O ) :   0.8971 B(  1-C , 23-H ) :   0.9185
B(  1-C , 24-H ) :   0.9263 B(  2-O ,  3-C ) :   1.2487 B(  3-C ,  4-O ) :   1.9941
B(  3-C ,  5-C ) :   1.0094 B(  5-C ,  6-C ) :   1.0241 B(  5-C , 25-H ) :   0.8890
B(  5-C , 26-H ) :   0.8839 B(  6-C ,  7-H ) :   0.8723 B(  6-C ,  8-C ) :   0.9047
B(  6-C , 13-S ) :   1.0476 B(  8-C ,  9-O ) :   1.9169 B(  8-C , 10-O ) :   1.2844
B(  9-O , 14-P ) :   0.1169 B( 10-O , 11-C ) :   0.8951 B( 11-C , 12-C ) :   1.1728
B( 11-C , 27-H ) :   0.9130 B( 11-C , 28-H ) :   0.9358 B( 12-C , 29-H ) :   0.9452
B( 12-C , 30-H ) :   0.9433 B( 12-C , 31-H ) :   0.9475 B( 13-S , 14-P ) :   0.9224
B( 13-S , 15-S ) :   0.1229 B( 14-P , 15-S ) :   1.5172 B( 14-P , 16-O ) :   1.1224
B( 14-P , 18-O ) :   1.0962 B( 16-O , 17-C ) :   0.9387 B( 17-C , 32-H ) :   0.9538
B( 17-C , 33-H ) :   0.9297 B( 17-C , 34-H ) :   0.9560 B( 18-O , 19-C ) :   0.9424
B( 19-C , 35-H ) :   0.9382 B( 19-C , 36-H ) :   0.9470 B( 19-C , 37-H ) :   0.9573

Dispersion correction           -0.055068279
FINAL SINGLE POINT ENERGY     -1979.001381032911

DIPOLE MOMENT
-------------

Method             : SCF
Type of density    : Electron Density
Multiplicity       :   1
Irrep              :   0
Energy             : -1979.1305004864320836 Eh
Relativity type    :
Basis              : AO
                                X                 Y                 Z
Electronic contribution:    -15.409641460      -3.103102523      -7.364599853
Nuclear contribution   :     17.139728603       4.117170012       7.106282399
                        -----------------------------------------
Total Dipole Moment    :      1.730087143       1.014067490      -0.258317454
                        -----------------------------------------
Magnitude (a.u.)       :      2.021945178
Magnitude (Debye)      :      5.139376209

Rotational constants in cm-1:             0.011418             0.009514             0.007171
Rotational constants in MHz :           342.314593           285.221056           214.980476

                             ****ORCA TERMINATED NORMALLY****
TOTAL RUN TIME: 0 days 0 hours 0 minutes 41 seconds 752 msec
