                         Program Version 6.0.0  -   RELEASE  -
|  1> ! r2scan-3c def2/J RI DEFGRID2 scfconv6 printgap
|  2> %output
|  3>     printlevel normal
|  4> end
|  5> * xyz 0 1
|  6> C 1.9297133685 -0.0139783264 -2.8085498029
|  7> C 2.289976343 -1.1575928995 -1.8814574675
|  8> O 1.4784483146 -1.1123819582 -0.6843219623
|  9> P 2.0543383882 -0.6088667114 0.7058826805
| 10> S 3.3034646548 0.9073753013 0.6791593088
| 11> O 2.6880821311 -1.9552779318 1.2645044529
| 12> C 3.4866791323 -1.9887528359 2.4658921689
| 13> C 4.3817145991 -3.2099357949 2.4007417403
| 14> S 0.282435231 -0.3993983267 1.8168852691
| 15> C -0.0251940254 1.3534473419 1.4465838827
| 16> S -0.0454734472 1.7319434533 -0.3303056543
| 17> P -1.9679005406 1.0111815232 -0.8280764392
| 18> S -2.3871022894 0.9696075817 -2.7393357295
| 19> O -2.8264971099 1.9792910654 0.0874764369
| 20> C -4.2311385477 2.2084143877 -0.1542297687
| 21> C -5.0560364877 0.9564743543 0.0560339098
| 22> O -2.135844072 -0.3798728525 -0.0737402849
| 23> C -1.8983111878 -1.6574663785 -0.6891022892
| 24> C -2.706532205 -2.6906453132 0.0695785887
| 25> H 2.4874092754 -0.1136748326 -3.7340453193
| 26> H 0.8646765827 -0.0249630249 -3.0312167921
| 27> H 2.1746941981 0.9398229084 -2.3451952118
| 28> H 3.3458247003 -1.1127509284 -1.6012787941
| 29> H 2.0698145082 -2.1253564685 -2.3348582893
| 30> H 4.0715621737 -1.0644367563 2.521676781
| 31> H 2.8066644866 -2.037402674 3.3198930189
| 32> H 5.0581795496 -3.1356100709 1.5538813221
| 33> H 4.9608895565 -3.2749141043 3.3160065471
| 34> H 3.7777229795 -4.1059489221 2.2916037871
| 35> H 0.7848169739 1.9525814372 1.8598110578
| 36> H -0.9816203097 1.6108333733 1.8930081893
| 37> H -4.4909590519 2.9922746515 0.5584700693
| 38> H -4.3474707748 2.5807554261 -1.1766329545
| 39> H -4.8554745943 0.5330824345 1.036813662
| 40> H -6.1101583191 1.2033615914 -0.0237277336
| 41> H -4.8075594986 0.2197863053 -0.706846977
| 42> H -2.194965653 -1.5985354298 -1.7420367081
| 43> H -0.8283893372 -1.8755908378 -0.6317938181
| 44> H -2.4128130336 -2.6878564666 1.1156290726
| 45> H -3.7672311469 -2.4672040205 -0.0018320972
| 46> H -2.5175237 -3.670936951 -0.355287063
| 47> *
| 48>
| 49>                          ****END OF INPUT****

CARTESIAN COORDINATES (ANGSTROEM)
---------------------------------
  C      1.929713   -0.013978   -2.808550
  C      2.289976   -1.157593   -1.881457
  O      1.478448   -1.112382   -0.684322
  P      2.054338   -0.608867    0.705883
  S      3.303465    0.907375    0.679159
  O      2.688082   -1.955278    1.264504
  C      3.486679   -1.988753    2.465892
  C      4.381715   -3.209936    2.400742
  S      0.282435   -0.399398    1.816885
  C     -0.025194    1.353447    1.446584
  S     -0.045473    1.731943   -0.330306
  P     -1.967901    1.011182   -0.828076
  S     -2.387102    0.969608   -2.739336
  O     -2.826497    1.979291    0.087476
  C     -4.231139    2.208414   -0.154230
  C     -5.056036    0.956474    0.056034
  O     -2.135844   -0.379873   -0.073740
  C     -1.898311   -1.657466   -0.689102
  C     -2.706532   -2.690645    0.069579
  H      2.487409   -0.113675   -3.734045
  H      0.864677   -0.024963   -3.031217
  H      2.174694    0.939823   -2.345195
  H      3.345825   -1.112751   -1.601279
  H      2.069815   -2.125356   -2.334858
  H      4.071562   -1.064437    2.521677
  H      2.806664   -2.037403    3.319893
  H      5.058180   -3.135610    1.553881
  H      4.960890   -3.274914    3.316007
  H      3.777723   -4.105949    2.291604
  H      0.784817    1.952581    1.859811
  H     -0.981620    1.610833    1.893008
  H     -4.490959    2.992275    0.558470
  H     -4.347471    2.580755   -1.176633
  H     -4.855475    0.533082    1.036814
  H     -6.110158    1.203362   -0.023728
  H     -4.807559    0.219786   -0.706847
  H     -2.194966   -1.598535   -1.742037
  H     -0.828389   -1.875591   -0.631794
  H     -2.412813   -2.687856    1.115629
  H     -3.767231   -2.467204   -0.001832
  H     -2.517524   -3.670937   -0.355287

 Total Charge           Charge          ....    0
 Multiplicity           Mult            ....    1
 Number of Electrons    NEL             ....  202
 Basis Dimension        Dim             ....  539

ORBITAL ENERGIES
----------------

  NO   OCC          E(Eh)            E(eV)
   0   2.0000     -88.578636     -2410.3472
   1   2.0000     -88.572372     -2410.1768
   2   2.0000     -88.522572     -2408.8217
   3   2.0000     -88.521387     -2408.7894
   4   2.0000     -76.916484     -2093.0039
   5   2.0000     -76.912745     -2092.9022
   6   2.0000     -18.994083      -516.8553
   7   2.0000     -18.990322      -516.7529
   8   2.0000     -18.990002      -516.7442
   9   2.0000     -18.989036      -516.7179
  10   2.0000     -10.110783      -275.1284
  11   2.0000     -10.099854      -274.8310
  12   2.0000     -10.099710      -274.8271
  13   2.0000     -10.097375      -274.7635
  14   2.0000     -10.090532      -274.5773
  15   2.0000     -10.034909      -273.0638
  16   2.0000     -10.031115      -272.9605
  17   2.0000     -10.029585      -272.9189
  18   2.0000     -10.018868      -272.6273
  19   2.0000      -7.873180      -214.2401
  20   2.0000      -7.866507      -214.0585
  21   2.0000      -7.817227      -212.7176
  22   2.0000      -7.816027      -212.6849
  23   2.0000      -6.594857      -179.4552
  24   2.0000      -6.591138      -179.3540
  25   2.0000      -5.820080      -158.3724
  26   2.0000      -5.816982      -158.2881
  27   2.0000      -5.813890      -158.2040
  28   2.0000      -5.810284      -158.1059
  29   2.0000      -5.810055      -158.0996
  30   2.0000      -5.803419      -157.9191
  31   2.0000      -5.764868      -156.8700
  32   2.0000      -5.763646      -156.8368
  33   2.0000      -5.757619      -156.6728
  34   2.0000      -5.757156      -156.6602
  35   2.0000      -5.756410      -156.6399
  36   2.0000      -5.755976      -156.6281
  37   2.0000      -4.740345      -128.9914
  38   2.0000      -4.739797      -128.9764
  39   2.0000      -4.738607      -128.9440
  40   2.0000      -4.736421      -128.8846
  41   2.0000      -4.736243      -128.8797
  42   2.0000      -4.734932      -128.8440
  43   2.0000      -1.050386       -28.5825
  44   2.0000      -1.048555       -28.5326
  45   2.0000      -1.010281       -27.4911
  46   2.0000      -1.009326       -27.4651
  47   2.0000      -0.803181       -21.8557
  48   2.0000      -0.761345       -20.7172
  49   2.0000      -0.749944       -20.4070
  50   2.0000      -0.732198       -19.9241
  51   2.0000      -0.730151       -19.8684
  52   2.0000      -0.708202       -19.2711
  53   2.0000      -0.687762       -18.7150
  54   2.0000      -0.669840       -18.2273
  55   2.0000      -0.629968       -17.1423
  56   2.0000      -0.623295       -16.9607
  57   2.0000      -0.605156       -16.4671
  58   2.0000      -0.598238       -16.2789
  59   2.0000      -0.591709       -16.1012
  60   2.0000      -0.534752       -14.5513
  61   2.0000      -0.525083       -14.2882
  62   2.0000      -0.496649       -13.5145
  63   2.0000      -0.495946       -13.4954
  64   2.0000      -0.479569       -13.0497
  65   2.0000      -0.464417       -12.6374
  66   2.0000      -0.454061       -12.3556
  67   2.0000      -0.452008       -12.2998
  68   2.0000      -0.445415       -12.1204
  69   2.0000      -0.432344       -11.7647
  70   2.0000      -0.428457       -11.6589
  71   2.0000      -0.418430       -11.3861
  72   2.0000      -0.403006       -10.9663
  73   2.0000      -0.398271       -10.8375
  74   2.0000      -0.395002       -10.7486
  75   2.0000      -0.392705       -10.6861
  76   2.0000      -0.380855       -10.3636
  77   2.0000      -0.372280       -10.1303
  78   2.0000      -0.370182       -10.0732
  79   2.0000      -0.369723       -10.0607
  80   2.0000      -0.362879        -9.8744
  81   2.0000      -0.361475        -9.8362
  82   2.0000      -0.357800        -9.7362
  83   2.0000      -0.352901        -9.6029
  84   2.0000      -0.346297        -9.4232
  85   2.0000      -0.333935        -9.0868
  86   2.0000      -0.319345        -8.6898
  87   2.0000      -0.317003        -8.6261
  88   2.0000      -0.309233        -8.4146
  89   2.0000      -0.305514        -8.3134
  90   2.0000      -0.301870        -8.2143
  91   2.0000      -0.292714        -7.9652
  92   2.0000      -0.290107        -7.8942
  93   2.0000      -0.280266        -7.6264
  94   2.0000      -0.270526        -7.3614
  95   2.0000      -0.245139        -6.6706
  96   2.0000      -0.230255        -6.2656
  97   2.0000      -0.222019        -6.0415
  98   2.0000      -0.220943        -6.0122
  99   2.0000      -0.217298        -5.9130
 100   2.0000      -0.214380        -5.8336
 101   0.0000      -0.048153        -1.3103
 102   0.0000      -0.017018        -0.4631
 103   0.0000      -0.009925        -0.2701
 104   0.0000       0.004544         0.1236
 105   0.0000       0.007593         0.2066

MULLIKEN ATOMIC CHARGES
-----------------------
   0 C :   -0.474257
   1 C :   -0.117702
   2 O :   -0.268463
   3 P :    0.665732
   4 S :   -0.468850
   5 O :   -0.282833
   6 C :   -0.147429
   7 C :   -0.443601
   8 S :   -0.121403
   9 C :   -0.252600
  10 S :   -0.106470
  11 P :    0.683070
  12 S :   -0.477965
  13 O :   -0.301701
  14 C :   -0.156916
  15 C :   -0.438577
  16 O :   -0.262076
  17 C :   -0.136229
  18 C :   -0.462788
  19 H :    0.142666
  20 H :    0.172577
  21 H :    0.177659
  22 H :    0.154494
  23 H :    0.148051
  24 H :    0.171193
  25 H :    0.149706
  26 H :    0.156638
  27 H :    0.147093
  28 H :    0.153311
  29 H :    0.212008
  30 H :    0.195923
  31 H :    0.148958
  32 H :    0.172349
  33 H :    0.155213
  34 H :    0.148342
  35 H :    0.168386
  36 H :    0.168029
  37 H :    0.173657
  38 H :    0.158732
  39 H :    0.149100
  40 H :    0.146975
Sum of atomic charges:   -0.0000000

LOEWDIN ATOMIC CHARGES
----------------------
   0 C :   -0.402649
   1 C :    0.025686
   2 O :   -0.688442
   3 P :    0.366777
   4 S :   -0.124914
   5 O :   -0.664972
   6 C :    0.019696
   7 C :   -0.386299
   8 S :    0.184070
   9 C :   -0.406001
  10 S :    0.196244
  11 P :    0.369802
  12 S :   -0.118251
  13 O :   -0.680024
  14 C :    0.024254
  15 C :   -0.401246
  16 O :   -0.686945
  17 C :    0.010317
  18 C :   -0.387183
  19 H :    0.157129
  20 H :    0.165955
  21 H :    0.167441
  22 H :    0.176849
  23 H :    0.176848
  24 H :    0.181394
  25 H :    0.171130
  26 H :    0.160493
  27 H :    0.160153
  28 H :    0.159636
  29 H :    0.191482
  30 H :    0.188835
  31 H :    0.179944
  32 H :    0.180246
  33 H :    0.160955
  34 H :    0.159638
  35 H :    0.164974
  36 H :    0.180887
  37 H :    0.188841
  38 H :    0.160646
  39 H :    0.157181
  40 H :    0.159424

  Mayer bond orders larger than 0.100000
B(  0-C ,  1-C ) :   0.9492 B(  0-C , 19-H ) :   0.9631 B(  0-C , 20-H ) :   0.9641
B(  0-C , 21-H ) :   0.9626 B(  1-C ,  2-O ) :   0.7520 B(  1-C , 22-H ) :   0.9623
B(  1-C , 23-H ) :   0.9597 B(  2-O ,  3-P ) :   1.1631 B(  3-P ,  4-S ) :   1.7513
B(  3-P ,  5-O ) :   1.0860 B(  3-P ,  8-S ) :   1.0853 B(  5-O ,  6-C ) :   0.7748
B(  6-C ,  7-C ) :   0.9598 B(  6-C , 24-H ) :   0.9507 B(  6-C , 25-H ) :   0.9456
B(  7-C , 26-H ) :   0.9720 B(  7-C , 27-H ) :   0.9644 B(  7-C , 28-H ) :   0.9717
B(  8-S ,  9-C ) :   0.9120 B(  9-C , 10-S ) :   0.9068 B(  9-C , 29-H ) :   0.9165
B(  9-C , 30-H ) :   0.9187 B( 10-S , 11-P ) :   1.0812 B( 11-P , 12-S ) :   1.7781
B( 11-P , 13-O ) :   1.1456 B( 11-P , 16-O ) :   1.0632 B( 13-O , 14-C ) :   0.8118
B( 14-C , 15-C ) :   0.9247 B( 14-C , 31-H ) :   0.9616 B( 14-C , 32-H ) :   0.9671
B( 15-C , 33-H ) :   0.9700 B( 15-C , 34-H ) :   0.9599 B( 15-C , 35-H ) :   0.9602
B( 16-O , 17-C ) :   0.7444 B( 17-C , 18-C ) :   0.9355 B( 17-C , 36-H ) :   0.9400
B( 17-C , 37-H ) :   0.9371 B( 18-C , 38-H ) :   0.9780 B( 18-C , 39-H ) :   0.9722
B( 18-C , 40-H ) :   0.9681

Dispersion correction           -0.021615972
FINAL SINGLE POINT ENERGY     -2932.464199509788

DIPOLE MOMENT
-------------

Method             : SCF
Type of density    : Electron Density
Multiplicity       :   1
Irrep              :   0
Energy             : -2932.4889310720491267 Eh
Relativity type    :
Basis              : AO
                                X                 Y                 Z
Electronic contribution:      4.305281847      15.462860304      -0.784037092
Nuclear contribution   :     -4.730620145     -16.669484997       1.806442096
                        -----------------------------------------
Total Dipole Moment    :     -0.425338298      -1.206624693       1.022405004
                        -----------------------------------------
Magnitude (a.u.)       :      1.637732520
Magnitude (Debye)      :      4.162785245

Rotational constants in cm-1:             0.013428             0.004768             0.004579
Rotational constants in MHz :           402.555575           142.948233           137.269672

                             ****ORCA TERMINATED NORMALLY****
TOTAL RUN TIME: 0 days 0 hours 1 minutes 20 seconds 753 msec
