                         Program Version 6.0.0  -   RELEASE  -
|  1> ! r2scan-3c def2/J RI DEFGRID2 scfconv6 printgap
|  2> %output
|  3>     printlevel normal
|  4> end
|  5> %cpcm
|  6>     smd true
|  7>     smdsolvent "water"
|  8> end
|  9> * xyz 0 1
| 10> C 1.9297133685 -0.0139783264 -2.8085498029
| 11> C 2.289976343 -1.1575928995 -1.8814574675
| 12> O 1.4784483146 -1.1123819582 -0.6843219623
| 13> P 2.0543383882 -0.6088667114 0.7058826805
| 14> S 3.3034646548 0.9073753013 0.6791593088
| 15> O 2.6880821311 -1.9552779318 1.2645044529
| 16> C 3.4866791323 -1.9887528359 2.4658921689
| 17> C 4.3817145991 -3.2099357949 2.4007417403
| 18> S 0.282435231 -0.3993983267 1.8168852691
| 19> C -0.0251940254 1.3534473419 1.4465838827
| 20> S -0.0454734472 1.7319434533 -0.3303056543
| 21> P -1.9679005406 1.0111815232 -0.8280764392
| 22> S -2.3871022894 0.9696075817 -2.7393357295
| 23> O -2.8264971099 1.9792910654 0.0874764369
| 24> C -4.2311385477 2.2084143877 -0.1542297687
| 25> C -5.0560364877 0.9564743543 0.0560339098
| 26> O -2.135844072 -0.3798728525 -0.0737402849
| 27> C -1.8983111878 -1.6574663785 -0.6891022892
| 28> C -2.706532205 -2.6906453132 0.0695785887
| 29> H 2.4874092754 -0.1136748326 -3.7340453193
| 30> H 0.8646765827 -0.0249630249 -3.0312167921
| 31> H 2.1746941981 0.9398229084 -2.3451952118
| 32> H 3.3458247003 -1.1127509284 -1.6012787941
| 33> H 2.0698145082 -2.1253564685 -2.3348582893
| 34> H 4.0715621737 -1.0644367563 2.521676781
| 35> H 2.8066644866 -2.037402674 3.3198930189
| 36> H 5.0581795496 -3.1356100709 1.5538813221
| 37> H 4.9608895565 -3.2749141043 3.3160065471
| 38> H 3.7777229795 -4.1059489221 2.2916037871
| 39> H 0.7848169739 1.9525814372 1.8598110578
| 40> H -0.9816203097 1.6108333733 1.8930081893
| 41> H -4.4909590519 2.9922746515 0.5584700693
| 42> H -4.3474707748 2.5807554261 -1.1766329545
| 43> H -4.8554745943 0.5330824345 1.036813662
| 44> H -6.1101583191 1.2033615914 -0.0237277336
| 45> H -4.8075594986 0.2197863053 -0.706846977
| 46> H -2.194965653 -1.5985354298 -1.7420367081
| 47> H -0.8283893372 -1.8755908378 -0.6317938181
| 48> H -2.4128130336 -2.6878564666 1.1156290726
| 49> H -3.7672311469 -2.4672040205 -0.0018320972
| 50> H -2.5175237 -3.670936951 -0.355287063
| 51> *
| 52>
| 53>                          ****END OF INPUT****

CARTESIAN COORDINATES (ANGSTROEM)
---------------------------------
  C      1.929713   -0.013978   -2.808550
  C      2.289976   -1.157593   -1.881457
  O      1.478448   -1.112382   -0.684322
  P      2.054338   -0.608867    0.705883
  S      3.303465    0.907375    0.679159
  O      2.688082   -1.955278    1.264504
  C      3.486679   -1.988753    2.465892
  C      4.381715   -3.209936    2.400742
  S      0.282435   -0.399398    1.816885
  C     -0.025194    1.353447    1.446584
  S     -0.045473    1.731943   -0.330306
  P     -1.967901    1.011182   -0.828076
  S     -2.387102    0.969608   -2.739336
  O     -2.826497    1.979291    0.087476
  C     -4.231139    2.208414   -0.154230
  C     -5.056036    0.956474    0.056034
  O     -2.135844   -0.379873   -0.073740
  C     -1.898311   -1.657466   -0.689102
  C     -2.706532   -2.690645    0.069579
  H      2.487409   -0.113675   -3.734045
  H      0.864677   -0.024963   -3.031217
  H      2.174694    0.939823   -2.345195
  H      3.345825   -1.112751   -1.601279
  H      2.069815   -2.125356   -2.334858
  H      4.071562   -1.064437    2.521677
  H      2.806664   -2.037403    3.319893
  H      5.058180   -3.135610    1.553881
  H      4.960890   -3.274914    3.316007
  H      3.777723   -4.105949    2.291604
  H      0.784817    1.952581    1.859811
  H     -0.981620    1.610833    1.893008
  H     -4.490959    2.992275    0.558470
  H     -4.347471    2.580755   -1.176633
  H     -4.855475    0.533082    1.036814
  H     -6.110158    1.203362   -0.023728
  H     -4.807559    0.219786   -0.706847
  H     -2.194966   -1.598535   -1.742037
  H     -0.828389   -1.875591   -0.631794
  H     -2.412813   -2.687856    1.115629
  H     -3.767231   -2.467204   -0.001832
  H     -2.517524   -3.670937   -0.355287

 Total Charge           Charge          ....    0
 Multiplicity           Mult            ....    1
 Number of Electrons    NEL             ....  202
 Basis Dimension        Dim             ....  539

ORBITAL ENERGIES
----------------

  NO   OCC          E(Eh)            E(eV)
   0   2.0000     -88.579929     -2410.3824
   1   2.0000     -88.577004     -2410.3028
   2   2.0000     -88.530123     -2409.0271
   3   2.0000     -88.528098     -2408.9720
   4   2.0000     -76.919353     -2093.0820
   5   2.0000     -76.918436     -2093.0570
   6   2.0000     -18.994469      -516.8658
   7   2.0000     -18.992043      -516.7998
   8   2.0000     -18.991851      -516.7945
   9   2.0000     -18.990876      -516.7680
  10   2.0000     -10.107533      -275.0400
  11   2.0000     -10.089898      -274.5601
  12   2.0000     -10.089553      -274.5507
  13   2.0000     -10.089067      -274.5375
  14   2.0000     -10.085443      -274.4389
  15   2.0000     -10.019353      -272.6405
  16   2.0000     -10.018662      -272.6216
  17   2.0000     -10.018178      -272.6085
  18   2.0000     -10.015736      -272.5420
  19   2.0000      -7.874401      -214.2733
  20   2.0000      -7.871266      -214.1880
  21   2.0000      -7.825105      -212.9319
  22   2.0000      -7.823068      -212.8765
  23   2.0000      -6.597777      -179.5346
  24   2.0000      -6.596866      -179.5098
  25   2.0000      -5.821307      -158.4058
  26   2.0000      -5.818568      -158.3313
  27   2.0000      -5.818206      -158.3214
  28   2.0000      -5.814749      -158.2274
  29   2.0000      -5.811516      -158.1394
  30   2.0000      -5.808318      -158.0524
  31   2.0000      -5.772634      -157.0813
  32   2.0000      -5.770631      -157.0269
  33   2.0000      -5.765453      -156.8859
  34   2.0000      -5.765117      -156.8768
  35   2.0000      -5.763449      -156.8314
  36   2.0000      -5.763028      -156.8200
  37   2.0000      -4.743227      -129.0698
  38   2.0000      -4.742705      -129.0556
  39   2.0000      -4.742091      -129.0389
  40   2.0000      -4.741953      -129.0351
  41   2.0000      -4.741605      -129.0256
  42   2.0000      -4.740769      -129.0029
  43   2.0000      -1.050939       -28.5975
  44   2.0000      -1.050343       -28.5813
  45   2.0000      -1.010886       -27.5076
  46   2.0000      -1.009968       -27.4826
  47   2.0000      -0.803406       -21.8618
  48   2.0000      -0.758240       -20.6328
  49   2.0000      -0.743657       -20.2359
  50   2.0000      -0.723599       -19.6901
  51   2.0000      -0.722405       -19.6576
  52   2.0000      -0.707284       -19.2462
  53   2.0000      -0.691139       -18.8069
  54   2.0000      -0.675168       -18.3723
  55   2.0000      -0.627351       -17.0711
  56   2.0000      -0.619445       -16.8560
  57   2.0000      -0.597825       -16.2676
  58   2.0000      -0.591376       -16.0921
  59   2.0000      -0.588882       -16.0243
  60   2.0000      -0.530584       -14.4379
  61   2.0000      -0.522209       -14.2100
  62   2.0000      -0.493582       -13.4311
  63   2.0000      -0.492377       -13.3983
  64   2.0000      -0.477522       -12.9940
  65   2.0000      -0.459688       -12.5087
  66   2.0000      -0.447632       -12.1807
  67   2.0000      -0.447094       -12.1660
  68   2.0000      -0.441119       -12.0035
  69   2.0000      -0.432931       -11.7806
  70   2.0000      -0.424814       -11.5598
  71   2.0000      -0.413232       -11.2446
  72   2.0000      -0.400651       -10.9023
  73   2.0000      -0.395824       -10.7709
  74   2.0000      -0.390663       -10.6305
  75   2.0000      -0.387766       -10.5516
  76   2.0000      -0.378044       -10.2871
  77   2.0000      -0.368108       -10.0167
  78   2.0000      -0.362124        -9.8539
  79   2.0000      -0.358337        -9.7508
  80   2.0000      -0.355504        -9.6737
  81   2.0000      -0.353507        -9.6194
  82   2.0000      -0.349414        -9.5081
  83   2.0000      -0.348549        -9.4845
  84   2.0000      -0.342906        -9.3309
  85   2.0000      -0.329885        -8.9766
  86   2.0000      -0.315980        -8.5983
  87   2.0000      -0.311991        -8.4897
  88   2.0000      -0.307288        -8.3617
  89   2.0000      -0.302275        -8.2253
  90   2.0000      -0.300928        -8.1887
  91   2.0000      -0.291680        -7.9370
  92   2.0000      -0.288148        -7.8409
  93   2.0000      -0.278611        -7.5814
  94   2.0000      -0.270609        -7.3637
  95   2.0000      -0.247730        -6.7411
  96   2.0000      -0.236223        -6.4279
  97   2.0000      -0.231809        -6.3078
  98   2.0000      -0.228432        -6.2160
  99   2.0000      -0.222659        -6.0589
 100   2.0000      -0.221226        -6.0199
 101   0.0000      -0.050513        -1.3745
 102   0.0000      -0.023437        -0.6377
 103   0.0000      -0.014012        -0.3813
 104   0.0000       0.001952         0.0531
 105   0.0000       0.005193         0.1413

MULLIKEN ATOMIC CHARGES
-----------------------
   0 C :   -0.503665
   1 C :   -0.120111
   2 O :   -0.286504
   3 P :    0.698748
   4 S :   -0.522298
   5 O :   -0.310045
   6 C :   -0.140401
   7 C :   -0.485342
   8 S :   -0.121455
   9 C :   -0.260256
  10 S :   -0.143550
  11 P :    0.707864
  12 S :   -0.529585
  13 O :   -0.325740
  14 C :   -0.149424
  15 C :   -0.478163
  16 O :   -0.277958
  17 C :   -0.120157
  18 C :   -0.502580
  19 H :    0.167876
  20 H :    0.165817
  21 H :    0.171492
  22 H :    0.169816
  23 H :    0.175335
  24 H :    0.170886
  25 H :    0.171490
  26 H :    0.166301
  27 H :    0.169485
  28 H :    0.165562
  29 H :    0.235091
  30 H :    0.230433
  31 H :    0.175148
  32 H :    0.175941
  33 H :    0.169428
  34 H :    0.172729
  35 H :    0.169585
  36 H :    0.169579
  37 H :    0.177271
  38 H :    0.166906
  39 H :    0.164508
  40 H :    0.169944
Sum of atomic charges:   -0.0000000

LOEWDIN ATOMIC CHARGES
----------------------
   0 C :   -0.407683
   1 C :    0.030800
   2 O :   -0.695580
   3 P :    0.371947
   4 S :   -0.159353
   5 O :   -0.677428
   6 C :    0.024249
   7 C :   -0.390402
   8 S :    0.188167
   9 C :   -0.396917
  10 S :    0.175708
  11 P :    0.372935
  12 S :   -0.154560
  13 O :   -0.689324
  14 C :    0.028782
  15 C :   -0.403664
  16 O :   -0.692370
  17 C :    0.015383
  18 C :   -0.390519
  19 H :    0.165553
  20 H :    0.161840
  21 H :    0.162554
  22 H :    0.181653
  23 H :    0.188259
  24 H :    0.181610
  25 H :    0.179818
  26 H :    0.162301
  27 H :    0.168870
  28 H :    0.163065
  29 H :    0.199279
  30 H :    0.201608
  31 H :    0.191034
  32 H :    0.181189
  33 H :    0.164530
  34 H :    0.168823
  35 H :    0.163072
  36 H :    0.182417
  37 H :    0.189831
  38 H :    0.162589
  39 H :    0.161805
  40 H :    0.168129

  Mayer bond orders larger than 0.100000
B(  0-C ,  1-C ) :   0.9382 B(  0-C , 19-H ) :   0.9590 B(  0-C , 20-H ) :   0.9660
B(  0-C , 21-H ) :   0.9657 B(  1-C ,  2-O ) :   0.7424 B(  1-C , 22-H ) :   0.9608
B(  1-C , 23-H ) :   0.9500 B(  2-O ,  3-P ) :   1.1691 B(  3-P ,  4-S ) :   1.7034
B(  3-P ,  5-O ) :   1.0918 B(  3-P ,  8-S ) :   1.1045 B(  5-O ,  6-C ) :   0.7677
B(  6-C ,  7-C ) :   0.9549 B(  6-C , 24-H ) :   0.9482 B(  6-C , 25-H ) :   0.9368
B(  7-C , 26-H ) :   0.9698 B(  7-C , 27-H ) :   0.9586 B(  7-C , 28-H ) :   0.9688
B(  8-S ,  9-C ) :   0.9078 B(  9-C , 10-S ) :   0.8999 B(  9-C , 29-H ) :   0.9076
B(  9-C , 30-H ) :   0.9075 B( 10-S , 11-P ) :   1.0934 B( 11-P , 12-S ) :   1.7459
B( 11-P , 13-O ) :   1.1526 B( 11-P , 16-O ) :   1.0706 B( 13-O , 14-C ) :   0.7998
B( 14-C , 15-C ) :   0.9131 B( 14-C , 31-H ) :   0.9509 B( 14-C , 32-H ) :   0.9631
B( 15-C , 33-H ) :   0.9690 B( 15-C , 34-H ) :   0.9541 B( 15-C , 35-H ) :   0.9589
B( 16-O , 17-C ) :   0.7391 B( 17-C , 18-C ) :   0.9336 B( 17-C , 36-H ) :   0.9376
B( 17-C , 37-H ) :   0.9328 B( 18-C , 38-H ) :   0.9744 B( 18-C , 39-H ) :   0.9691
B( 18-C , 40-H ) :   0.9619

Dispersion correction           -0.021615972
FINAL SINGLE POINT ENERGY     -2932.472223606801

DIPOLE MOMENT
-------------

Method             : SCF
Type of density    : Electron Density
Multiplicity       :   1
Irrep              :   0
Energy             : -2932.4969551690624030 Eh
Relativity type    :
Basis              : AO
                                X                 Y                 Z
Electronic contribution:      4.085019119      15.034675186      -0.310395775
Nuclear contribution   :     -4.730620145     -16.669484997       1.806442096
                        -----------------------------------------
Total Dipole Moment    :     -0.645601026      -1.634809811       1.496046321
                        -----------------------------------------
Magnitude (a.u.)       :      2.308150428
Magnitude (Debye)      :      5.866852141

Rotational constants in cm-1:             0.013428             0.004768             0.004579
Rotational constants in MHz :           402.555575           142.948233           137.269672

                             ****ORCA TERMINATED NORMALLY****
TOTAL RUN TIME: 0 days 0 hours 1 minutes 57 seconds 392 msec
