                         Program Version 6.0.0  -   RELEASE  -
|  1> ! pbe def2-sv(p) def2/J RI DEFGRID1 loosescf d4 GCP(DFT/SV(P)) printgap
|  2> %output
|  3>     printlevel normal
|  4> end
|  5> * xyz 0 1
|  6> C 0.6160492093 1.7005061544 -0.0603135606
|  7> C 1.3960234797 0.3982281868 -0.2678052638
|  8> H 1.6094151109 0.2731565949 -1.3440302917
|  9> C 0.5336900894 -0.7837589996 0.2005468378
| 10> H 0.3548401172 -0.7021179683 1.2780852307
| 11> C -0.811309417 -0.7351085023 -0.5307402308
| 12> H -0.6306742377 -0.7839634346 -1.6193259151
| 13> C -1.477897595 0.6230037805 -0.2437361484
| 14> H -2.3939267265 0.705478291 -0.8435830943
| 15> O -0.6506230788 1.6709397911 -0.6997577045
| 16> O -1.7395405609 0.7133379096 1.1155387399
| 17> O -1.6748140175 -1.7711636193 -0.1495720802
| 18> O 1.1844827889 -2.0183541352 0.015290173
| 19> O 2.5993102699 0.486590663 0.4527506358
| 20> H 1.1509466141 2.5416196239 -0.4990127821
| 21> H 0.4994163193 1.8630453296 1.0172145419
| 22> H -2.349675277 1.4442666852 1.2951674847
| 23> H -1.1404798433 -2.5254156284 0.1479933077
| 24> H 1.3596237234 -2.158747911 -0.9279536556
| 25> H 2.9466988946 -0.409122307 0.5895489994
| 26> *
| 27>
| 28>                          ****END OF INPUT****

CARTESIAN COORDINATES (ANGSTROEM)
---------------------------------
  C      0.616049    1.700506   -0.060314
  C      1.396023    0.398228   -0.267805
  H      1.609415    0.273157   -1.344030
  C      0.533690   -0.783759    0.200547
  H      0.354840   -0.702118    1.278085
  C     -0.811309   -0.735109   -0.530740
  H     -0.630674   -0.783963   -1.619326
  C     -1.477898    0.623004   -0.243736
  H     -2.393927    0.705478   -0.843583
  O     -0.650623    1.670940   -0.699758
  O     -1.739541    0.713338    1.115539
  O     -1.674814   -1.771164   -0.149572
  O      1.184483   -2.018354    0.015290
  O      2.599310    0.486591    0.452751
  H      1.150947    2.541620   -0.499013
  H      0.499416    1.863045    1.017215
  H     -2.349675    1.444267    1.295167
  H     -1.140480   -2.525416    0.147993
  H      1.359624   -2.158748   -0.927954
  H      2.946699   -0.409122    0.589549

 Total Charge           Charge          ....    0
 Multiplicity           Mult            ....    1
 Number of Electrons    NEL             ....   80
 Basis Dimension        Dim             ....  160

ORBITAL ENERGIES
----------------

  NO   OCC          E(Eh)            E(eV)
   0   2.0000     -18.776265      -510.9281
   1   2.0000     -18.765986      -510.6485
   2   2.0000     -18.765091      -510.6241
   3   2.0000     -18.750653      -510.2312
   4   2.0000     -18.746660      -510.1225
   5   2.0000      -9.985235      -271.7121
   6   2.0000      -9.945831      -270.6398
   7   2.0000      -9.943648      -270.5804
   8   2.0000      -9.942678      -270.5540
   9   2.0000      -9.931097      -270.2389
  10   2.0000      -0.981152       -26.6985
  11   2.0000      -0.957525       -26.0556
  12   2.0000      -0.928744       -25.2724
  13   2.0000      -0.917870       -24.9765
  14   2.0000      -0.910946       -24.7881
  15   2.0000      -0.703394       -19.1403
  16   2.0000      -0.679817       -18.4988
  17   2.0000      -0.594738       -16.1837
  18   2.0000      -0.569452       -15.4956
  19   2.0000      -0.541364       -14.7313
  20   2.0000      -0.505105       -13.7446
  21   2.0000      -0.478984       -13.0338
  22   2.0000      -0.466717       -12.7000
  23   2.0000      -0.455904       -12.4058
  24   2.0000      -0.428976       -11.6730
  25   2.0000      -0.419284       -11.4093
  26   2.0000      -0.408145       -11.1062
  27   2.0000      -0.374647       -10.1947
  28   2.0000      -0.365802        -9.9540
  29   2.0000      -0.357583        -9.7303
  30   2.0000      -0.326920        -8.8959
  31   2.0000      -0.320818        -8.7299
  32   2.0000      -0.304046        -8.2735
  33   2.0000      -0.288609        -7.8535
  34   2.0000      -0.262987        -7.1562
  35   2.0000      -0.252240        -6.8638
  36   2.0000      -0.245344        -6.6762
  37   2.0000      -0.233065        -6.3420
  38   2.0000      -0.219488        -5.9726
  39   2.0000      -0.209681        -5.7057
  40   0.0000       0.006106         0.1662
  41   0.0000       0.023019         0.6264
  42   0.0000       0.041345         1.1250
  43   0.0000       0.053272         1.4496
  44   0.0000       0.070397         1.9156

MULLIKEN ATOMIC CHARGES
-----------------------
   0 C :    0.097438
   1 C :    0.006040
   2 H :    0.042342
   3 C :   -0.021289
   4 H :    0.090045
   5 C :    0.082380
   6 H :    0.048669
   7 C :    0.146430
   8 H :    0.072838
   9 O :   -0.317091
  10 O :   -0.387451
  11 O :   -0.410886
  12 O :   -0.419395
  13 O :   -0.415322
  14 H :    0.100678
  15 H :    0.068786
  16 H :    0.310670
  17 H :    0.302154
  18 H :    0.301097
  19 H :    0.301868
Sum of atomic charges:    0.0000000

LOEWDIN ATOMIC CHARGES
----------------------
   0 C :   -0.116514
   1 C :   -0.083607
   2 H :    0.092624
   3 C :   -0.096194
   4 H :    0.125876
   5 C :   -0.088040
   6 H :    0.097324
   7 C :    0.000198
   8 H :    0.102281
   9 O :   -0.160522
  10 O :   -0.295427
  11 O :   -0.318303
  12 O :   -0.311196
  13 O :   -0.322457
  14 H :    0.120888
  15 H :    0.106878
  16 H :    0.294645
  17 H :    0.282633
  18 H :    0.286183
  19 H :    0.282730

  Mayer bond orders larger than 0.100000
B(  0-C ,  1-C ) :   1.0613 B(  0-C ,  9-O ) :   1.0066 B(  0-C , 14-H ) :   0.9249
B(  0-C , 15-H ) :   0.8882 B(  1-C ,  2-H ) :   0.8680 B(  1-C ,  3-C ) :   1.0352
B(  1-C , 13-O ) :   1.0861 B(  3-C ,  4-H ) :   0.8678 B(  3-C ,  5-C ) :   1.0061
B(  3-C , 12-O ) :   1.0149 B(  5-C ,  6-H ) :   0.8763 B(  5-C ,  7-C ) :   0.9758
B(  5-C , 11-O ) :   1.1130 B(  7-C ,  8-H ) :   0.9032 B(  7-C ,  9-O ) :   1.0516
B(  7-C , 10-O ) :   1.1258 B( 10-O , 16-H ) :   0.8409 B( 11-O , 17-H ) :   0.8324
B( 12-O , 18-H ) :   0.8455 B( 13-O , 19-H ) :   0.8347

Dispersion correction           -0.019216213
FINAL SINGLE POINT ENERGY      -571.417079737658

DIPOLE MOMENT
-------------

Method             : SCF
Type of density    : Electron Density
Multiplicity       :   1
Irrep              :   0
Energy             :  -571.5255576754724416 Eh
Relativity type    :
Basis              : AO
                                X                 Y                 Z
Electronic contribution:     -1.215654387      -0.471933312       0.484769610
Nuclear contribution   :      1.315074854       0.219243820      -0.839007184
                        -----------------------------------------
Total Dipole Moment    :      0.099420468      -0.252689492      -0.354237574
                        -----------------------------------------
Magnitude (a.u.)       :      0.446341425
Magnitude (Debye)      :      1.134509742

Rotational constants in cm-1:             0.056174             0.045315             0.029244
Rotational constants in MHz :          1684.049271          1358.501886           876.700213

                             ****ORCA TERMINATED NORMALLY****
TOTAL RUN TIME: 0 days 0 hours 0 minutes 10 seconds 997 msec
