                         Program Version 6.0.0  -   RELEASE  -
|  1> ! pbe def2-sv(p) def2/J RI DEFGRID1 loosescf d4 GCP(DFT/SV(P)) printgap
|  2> %output
|  3>     printlevel normal
|  4> end
|  5> * xyz 0 1
|  6> C 2.0317390645 -3.8596129215 -0.7574082272
|  7> C 1.4683903756 -2.5180103609 -0.3362032317
|  8> O 2.5317732188 -1.549009895 -0.4167006243
|  9> P 2.2531330032 0.0145056003 -0.3237582108
| 10> S 0.9141900143 0.7070225934 -1.580752147
| 11> O 3.6755533057 0.6198335831 -0.6028773725
| 12> C 4.9350384088 0.0361470505 -0.1790857618
| 13> C 5.0548900945 -0.0550058985 1.3265444942
| 14> S 1.8265941933 0.3770851881 1.7380755864
| 15> C 0.1119386312 0.9148620628 1.6371083486
| 16> S -1.0241575344 -0.4398255111 1.1892950445
| 17> P -2.343629213 0.6077064191 -0.1200677039
| 18> S -2.0942884523 2.5427485981 -0.2490088421
| 19> O -3.7716901949 0.0797083105 0.3564889864
| 20> C -4.2700638527 0.0968878675 1.7063005876
| 21> C -4.3461065042 1.4937223973 2.2871406086
| 22> O -2.2625660441 -0.0673078015 -1.5372310139
| 23> C -2.4081868929 -1.496650867 -1.7391542209
| 24> C -1.7322741727 -1.8494597366 -3.0477786094
| 25> H 2.3991654965 -3.8065647953 -1.7783030624
| 26> H 2.8500071209 -4.1413399075 -0.101562353
| 27> H 1.2488873751 -4.6081147441 -0.6961742015
| 28> H 1.0982888025 -2.5420714443 0.6934070731
| 29> H 0.6569699932 -2.1976766353 -0.9972977959
| 30> H 5.0247505238 -0.9478894707 -0.6416270408
| 31> H 5.6751507493 0.7167658668 -0.6024394527
| 32> H 4.3126943724 -0.7440608704 1.7257157196
| 33> H 6.0461941414 -0.4171841111 1.5809455294
| 34> H 4.9026118784 0.9206806408 1.7807086464
| 35> H 0.0007588489 1.7100159298 0.8953554534
| 36> H -0.1435948348 1.2682864641 2.6332088941
| 37> H -5.261413913 -0.3506865413 1.6164043679
| 38> H -3.6274268805 -0.5440218799 2.3168068247
| 39> H -4.800268801 1.4501001319 3.2717501604
| 40> H -3.3493419419 1.9238450747 2.3713556268
| 41> H -4.938735246 2.1394821562 1.6437570081
| 42> H -1.9461908547 -2.0167000748 -0.8934657362
| 43> H -3.476313995 -1.7210492719 -1.7612724668
| 44> H -1.774606251 -2.9232213605 -3.1977922266
| 45> H -2.2299628042 -1.3462675439 -3.8715378703
| 46> H -0.6950640472 -1.5222377464 -3.0293633954
| 47> *
| 48>
| 49>                          ****END OF INPUT****

CARTESIAN COORDINATES (ANGSTROEM)
---------------------------------
  C      2.031739   -3.859613   -0.757408
  C      1.468390   -2.518010   -0.336203
  O      2.531773   -1.549010   -0.416701
  P      2.253133    0.014506   -0.323758
  S      0.914190    0.707023   -1.580752
  O      3.675553    0.619834   -0.602877
  C      4.935038    0.036147   -0.179086
  C      5.054890   -0.055006    1.326544
  S      1.826594    0.377085    1.738076
  C      0.111939    0.914862    1.637108
  S     -1.024158   -0.439826    1.189295
  P     -2.343629    0.607706   -0.120068
  S     -2.094288    2.542749   -0.249009
  O     -3.771690    0.079708    0.356489
  C     -4.270064    0.096888    1.706301
  C     -4.346107    1.493722    2.287141
  O     -2.262566   -0.067308   -1.537231
  C     -2.408187   -1.496651   -1.739154
  C     -1.732274   -1.849460   -3.047779
  H      2.399165   -3.806565   -1.778303
  H      2.850007   -4.141340   -0.101562
  H      1.248887   -4.608115   -0.696174
  H      1.098289   -2.542071    0.693407
  H      0.656970   -2.197677   -0.997298
  H      5.024751   -0.947889   -0.641627
  H      5.675151    0.716766   -0.602439
  H      4.312694   -0.744061    1.725716
  H      6.046194   -0.417184    1.580946
  H      4.902612    0.920681    1.780709
  H      0.000759    1.710016    0.895355
  H     -0.143595    1.268286    2.633209
  H     -5.261414   -0.350687    1.616404
  H     -3.627427   -0.544022    2.316807
  H     -4.800269    1.450100    3.271750
  H     -3.349342    1.923845    2.371356
  H     -4.938735    2.139482    1.643757
  H     -1.946191   -2.016700   -0.893466
  H     -3.476314   -1.721049   -1.761272
  H     -1.774606   -2.923221   -3.197792
  H     -2.229963   -1.346268   -3.871538
  H     -0.695064   -1.522238   -3.029363

 Total Charge           Charge          ....    0
 Multiplicity           Mult            ....    1
 Number of Electrons    NEL             ....  202
 Basis Dimension        Dim             ....  334

ORBITAL ENERGIES
----------------

  NO   OCC          E(Eh)            E(eV)
   0   2.0000     -88.044460     -2395.8116
   1   2.0000     -88.041346     -2395.7268
   2   2.0000     -87.979667     -2394.0485
   3   2.0000     -87.977864     -2393.9994
   4   2.0000     -76.424245     -2079.6094
   5   2.0000     -76.421210     -2079.5268
   6   2.0000     -18.793429      -511.3952
   7   2.0000     -18.792804      -511.3782
   8   2.0000     -18.786421      -511.2045
   9   2.0000     -18.784723      -511.1583
  10   2.0000      -9.960211      -271.0311
  11   2.0000      -9.955141      -270.8932
  12   2.0000      -9.953865      -270.8584
  13   2.0000      -9.952483      -270.8208
  14   2.0000      -9.951903      -270.8051
  15   2.0000      -9.894253      -269.2363
  16   2.0000      -9.892510      -269.1889
  17   2.0000      -9.883183      -268.9351
  18   2.0000      -9.880137      -268.8522
  19   2.0000      -7.689284      -209.2361
  20   2.0000      -7.685726      -209.1392
  21   2.0000      -7.624353      -207.4692
  22   2.0000      -7.623162      -207.4368
  23   2.0000      -6.421805      -174.7462
  24   2.0000      -6.418183      -174.6476
  25   2.0000      -5.717297      -155.5756
  26   2.0000      -5.713515      -155.4727
  27   2.0000      -5.713497      -155.4722
  28   2.0000      -5.710224      -155.3831
  29   2.0000      -5.706502      -155.2818
  30   2.0000      -5.702923      -155.1844
  31   2.0000      -5.653510      -153.8398
  32   2.0000      -5.652328      -153.8077
  33   2.0000      -5.644730      -153.6009
  34   2.0000      -5.644557      -153.5962
  35   2.0000      -5.643685      -153.5725
  36   2.0000      -5.643112      -153.5569
  37   2.0000      -4.644725      -126.3894
  38   2.0000      -4.643483      -126.3556
  39   2.0000      -4.641975      -126.3146
  40   2.0000      -4.640846      -126.2838
  41   2.0000      -4.640221      -126.2668
  42   2.0000      -4.638402      -126.2173
  43   2.0000      -0.989921       -26.9371
  44   2.0000      -0.982714       -26.7410
  45   2.0000      -0.945725       -25.7345
  46   2.0000      -0.937574       -25.5127
  47   2.0000      -0.760155       -20.6849
  48   2.0000      -0.721547       -19.6343
  49   2.0000      -0.713008       -19.4019
  50   2.0000      -0.697287       -18.9741
  51   2.0000      -0.685961       -18.6660
  52   2.0000      -0.676529       -18.4093
  53   2.0000      -0.647967       -17.6321
  54   2.0000      -0.632294       -17.2056
  55   2.0000      -0.594340       -16.1728
  56   2.0000      -0.583551       -15.8792
  57   2.0000      -0.576679       -15.6922
  58   2.0000      -0.568510       -15.4699
  59   2.0000      -0.565122       -15.3778
  60   2.0000      -0.509580       -13.8664
  61   2.0000      -0.502381       -13.6705
  62   2.0000      -0.477455       -12.9922
  63   2.0000      -0.470734       -12.8093
  64   2.0000      -0.452806       -12.3215
  65   2.0000      -0.449122       -12.2212
  66   2.0000      -0.447435       -12.1753
  67   2.0000      -0.433998       -11.8097
  68   2.0000      -0.429866       -11.6973
  69   2.0000      -0.417822       -11.3695
  70   2.0000      -0.410128       -11.1601
  71   2.0000      -0.408657       -11.1201
  72   2.0000      -0.396668       -10.7939
  73   2.0000      -0.384084       -10.4514
  74   2.0000      -0.382613       -10.4114
  75   2.0000      -0.369317       -10.0496
  76   2.0000      -0.360951        -9.8220
  77   2.0000      -0.355556        -9.6752
  78   2.0000      -0.354451        -9.6451
  79   2.0000      -0.348278        -9.4771
  80   2.0000      -0.347218        -9.4483
  81   2.0000      -0.345740        -9.4081
  82   2.0000      -0.345570        -9.4034
  83   2.0000      -0.335852        -9.1390
  84   2.0000      -0.333749        -9.0818
  85   2.0000      -0.317934        -8.6514
  86   2.0000      -0.312785        -8.5113
  87   2.0000      -0.304465        -8.2849
  88   2.0000      -0.296695        -8.0735
  89   2.0000      -0.292194        -7.9510
  90   2.0000      -0.287627        -7.8267
  91   2.0000      -0.276677        -7.5288
  92   2.0000      -0.271154        -7.3785
  93   2.0000      -0.262299        -7.1375
  94   2.0000      -0.253847        -6.9075
  95   2.0000      -0.238248        -6.4831
  96   2.0000      -0.219443        -5.9714
  97   2.0000      -0.206951        -5.6314
  98   2.0000      -0.195628        -5.3233
  99   2.0000      -0.192589        -5.2406
 100   2.0000      -0.183927        -5.0049
 101   0.0000      -0.041815        -1.1379
 102   0.0000      -0.032305        -0.8791
 103   0.0000      -0.011567        -0.3147
 104   0.0000       0.005459         0.1485
 105   0.0000       0.012528         0.3409

MULLIKEN ATOMIC CHARGES
-----------------------
   0 C :   -0.272630
   1 C :   -0.041175
   2 O :   -0.387865
   3 P :    0.599624
   4 S :   -0.286903
   5 O :   -0.356277
   6 C :    0.005526
   7 C :   -0.336029
   8 S :   -0.134176
   9 C :   -0.318743
  10 S :   -0.148350
  11 P :    0.614583
  12 S :   -0.289093
  13 O :   -0.384592
  14 C :   -0.004312
  15 C :   -0.306686
  16 O :   -0.350262
  17 C :   -0.015739
  18 C :   -0.297956
  19 H :    0.119306
  20 H :    0.113804
  21 H :    0.109936
  22 H :    0.106358
  23 H :    0.126144
  24 H :    0.112116
  25 H :    0.114040
  26 H :    0.130551
  27 H :    0.119240
  28 H :    0.132051
  29 H :    0.210786
  30 H :    0.177487
  31 H :    0.103799
  32 H :    0.104070
  33 H :    0.107385
  34 H :    0.120096
  35 H :    0.124834
  36 H :    0.100263
  37 H :    0.107786
  38 H :    0.102858
  39 H :    0.121399
  40 H :    0.146746
Sum of atomic charges:   -0.0000000

LOEWDIN ATOMIC CHARGES
----------------------
   0 C :   -0.350153
   1 C :   -0.124404
   2 O :   -0.252312
   3 P :    0.561800
   4 S :   -0.286053
   5 O :   -0.233998
   6 C :   -0.107868
   7 C :   -0.372331
   8 S :    0.069105
   9 C :   -0.480152
  10 S :    0.053114
  11 P :    0.568791
  12 S :   -0.286541
  13 O :   -0.251434
  14 C :   -0.119092
  15 C :   -0.367948
  16 O :   -0.228306
  17 C :   -0.113198
  18 C :   -0.356398
  19 H :    0.128325
  20 H :    0.125487
  21 H :    0.130161
  22 H :    0.103879
  23 H :    0.109092
  24 H :    0.115553
  25 H :    0.124497
  26 H :    0.117448
  27 H :    0.134603
  28 H :    0.130241
  29 H :    0.126234
  30 H :    0.134012
  31 H :    0.118389
  32 H :    0.102648
  33 H :    0.127869
  34 H :    0.118799
  35 H :    0.130354
  36 H :    0.098702
  37 H :    0.115142
  38 H :    0.126373
  39 H :    0.131255
  40 H :    0.128314

  Mayer bond orders larger than 0.100000
B(  0-C ,  1-C ) :   1.1566 B(  0-C , 19-H ) :   0.9499 B(  0-C , 20-H ) :   0.9507
B(  0-C , 21-H ) :   0.9421 B(  1-C ,  2-O ) :   0.9062 B(  1-C , 22-H ) :   0.9202
B(  1-C , 23-H ) :   0.9046 B(  2-O ,  3-P ) :   1.0609 B(  3-P ,  4-S ) :   1.6747
B(  3-P ,  5-O ) :   1.1489 B(  3-P ,  8-S ) :   0.9269 B(  4-S ,  8-S ) :   0.1127
B(  5-O ,  6-C ) :   0.8972 B(  6-C ,  7-C ) :   1.1699 B(  6-C , 24-H ) :   0.9271
B(  6-C , 25-H ) :   0.9335 B(  7-C , 26-H ) :   0.9307 B(  7-C , 27-H ) :   0.9350
B(  7-C , 28-H ) :   0.9420 B(  8-S ,  9-C ) :   1.0115 B(  9-C , 10-S ) :   0.9822
B(  9-C , 29-H ) :   0.8461 B(  9-C , 30-H ) :   0.9074 B( 10-S , 11-P ) :   0.9320
B( 10-S , 12-S ) :   0.1165 B( 11-P , 12-S ) :   1.6525 B( 11-P , 13-O ) :   1.0719
B( 11-P , 16-O ) :   1.1371 B( 13-O , 14-C ) :   0.9221 B( 14-C , 15-C ) :   1.1646
B( 14-C , 31-H ) :   0.9337 B( 14-C , 32-H ) :   0.9198 B( 15-C , 33-H ) :   0.9360
B( 15-C , 34-H ) :   0.9337 B( 15-C , 35-H ) :   0.9450 B( 16-O , 17-C ) :   0.8939
B( 17-C , 18-C ) :   1.1636 B( 17-C , 36-H ) :   0.9111 B( 17-C , 37-H ) :   0.9302
B( 18-C , 38-H ) :   0.9413 B( 18-C , 39-H ) :   0.9467 B( 18-C , 40-H ) :   0.9315

Dispersion correction           -0.065498226
FINAL SINGLE POINT ENERGY     -2929.513278759071

DIPOLE MOMENT
-------------

Method             : SCF
Type of density    : Electron Density
Multiplicity       :   1
Irrep              :   0
Energy             : -2929.6324499177871985 Eh
Relativity type    :
Basis              : AO
                                X                 Y                 Z
Electronic contribution:     -1.463629857      17.050008559      -2.016523422
Nuclear contribution   :      1.944954250     -19.143683292       3.107856965
                        -----------------------------------------
Total Dipole Moment    :      0.481324393      -2.093674733       1.091333543
                        -----------------------------------------
Magnitude (a.u.)       :      2.409596639
Magnitude (Debye)      :      6.124707917

Rotational constants in cm-1:             0.012397             0.005076             0.004543
Rotational constants in MHz :           371.650349           152.186117           136.183346

                             ****ORCA TERMINATED NORMALLY****
TOTAL RUN TIME: 0 days 0 hours 0 minutes 21 seconds 150 msec
