                         Program Version 6.0.0  -   RELEASE  -
|  1> ! pbe def2-sv(p) def2/J RI DEFGRID1 loosescf d4 GCP(DFT/SV(P)) printgap
|  2> %output
|  3>     printlevel normal
|  4> end
|  5> * xyz 0 1
|  6> C 2.7640043459 -0.7825791617 -2.8418988373
|  7> C 3.5070153538 0.0045552678 -1.7811945797
|  8> O 2.5936023208 0.6590688554 -0.8678352632
|  9> P 2.0747122106 0.0242649878 0.4849049584
| 10> S 1.0944351998 1.3136079045 1.5798752433
| 11> O 3.3673690353 -0.5794200646 1.2204816546
| 12> C 4.1482564921 0.1858486086 2.1562804073
| 13> C 4.9719799647 1.2553447984 1.4669314084
| 14> S 1.156098453 -1.8273111888 0.0498998565
| 15> C -0.2021046281 -1.7625138017 1.2592720939
| 16> S -1.8470330139 -1.7537128606 0.4978354666
| 17> P -1.9079129765 0.185771358 -0.3889139983
| 18> S -0.5173406521 0.6668045915 -1.6782682203
| 19> O -2.0187694865 1.2204136646 0.7881046163
| 20> C -3.0074794183 1.1523447421 1.8465497298
| 21> C -4.203402237 2.0216515023 1.5189370045
| 22> O -3.3733013538 0.1676981419 -0.999836791
| 23> C -3.6832623124 -0.6058689516 -2.1782880576
| 24> C -4.9868604503 -0.0851014101 -2.7482544666
| 25> H 3.4627521698 -1.0820295311 -3.6164827769
| 26> H 2.3019758374 -1.6699127921 -2.4151048733
| 27> H 1.9821018649 -0.1644073569 -3.2773391386
| 28> H 4.0624714132 0.8331072999 -2.2243745323
| 29> H 4.1814239522 -0.6377781597 -1.2086542999
| 30> H 3.4678498667 0.637443188 2.8852352729
| 31> H 4.7770019578 -0.5593464645 2.6453791654
| 32> H 5.630975809 0.8118331061 0.7249149103
| 33> H 4.3113498328 1.9683485965 0.9734859975
| 34> H 5.566968014 1.7819021534 2.206542056
| 35> H -0.0785133259 -0.8681968284 1.8756136252
| 36> H -0.1655825453 -2.6693287285 1.8569453402
| 37> H -3.3034947371 0.1090815422 1.9888537428
| 38> H -2.476727321 1.514679339 2.7294830636
| 39> H -3.8812364078 3.0434567168 1.3374541005
| 40> H -4.7066137295 1.649177197 0.6307784441
| 41> H -4.8921726496 2.0055854442 2.3577884568
| 42> H -2.8595202223 -0.4963015896 -2.8912264806
| 43> H -3.7654637779 -1.6547539562 -1.8821931125
| 44> H -5.7814383268 -0.1873732694 -2.014910738
| 45> H -4.8848755736 0.962948291 -3.0158969556
| 46> H -5.2400451566 -0.6577278946 -3.6343015912
| 47> *
| 48>
| 49>                          ****END OF INPUT****

CARTESIAN COORDINATES (ANGSTROEM)
---------------------------------
  C      2.764004   -0.782579   -2.841899
  C      3.507015    0.004555   -1.781195
  O      2.593602    0.659069   -0.867835
  P      2.074712    0.024265    0.484905
  S      1.094435    1.313608    1.579875
  O      3.367369   -0.579420    1.220482
  C      4.148256    0.185849    2.156280
  C      4.971980    1.255345    1.466931
  S      1.156098   -1.827311    0.049900
  C     -0.202105   -1.762514    1.259272
  S     -1.847033   -1.753713    0.497835
  P     -1.907913    0.185771   -0.388914
  S     -0.517341    0.666805   -1.678268
  O     -2.018769    1.220414    0.788105
  C     -3.007479    1.152345    1.846550
  C     -4.203402    2.021652    1.518937
  O     -3.373301    0.167698   -0.999837
  C     -3.683262   -0.605869   -2.178288
  C     -4.986860   -0.085101   -2.748254
  H      3.462752   -1.082030   -3.616483
  H      2.301976   -1.669913   -2.415105
  H      1.982102   -0.164407   -3.277339
  H      4.062471    0.833107   -2.224375
  H      4.181424   -0.637778   -1.208654
  H      3.467850    0.637443    2.885235
  H      4.777002   -0.559346    2.645379
  H      5.630976    0.811833    0.724915
  H      4.311350    1.968349    0.973486
  H      5.566968    1.781902    2.206542
  H     -0.078513   -0.868197    1.875614
  H     -0.165583   -2.669329    1.856945
  H     -3.303495    0.109082    1.988854
  H     -2.476727    1.514679    2.729483
  H     -3.881236    3.043457    1.337454
  H     -4.706614    1.649177    0.630778
  H     -4.892173    2.005585    2.357788
  H     -2.859520   -0.496302   -2.891226
  H     -3.765464   -1.654754   -1.882193
  H     -5.781438   -0.187373   -2.014911
  H     -4.884876    0.962948   -3.015897
  H     -5.240045   -0.657728   -3.634302

 Total Charge           Charge          ....    0
 Multiplicity           Mult            ....    1
 Number of Electrons    NEL             ....  202
 Basis Dimension        Dim             ....  334

ORBITAL ENERGIES
----------------

  NO   OCC          E(Eh)            E(eV)
   0   2.0000     -88.038068     -2395.6376
   1   2.0000     -88.033851     -2395.5229
   2   2.0000     -87.979451     -2394.0426
   3   2.0000     -87.973185     -2393.8721
   4   2.0000     -76.418604     -2079.4559
   5   2.0000     -76.417916     -2079.4372
   6   2.0000     -18.787965      -511.2465
   7   2.0000     -18.786910      -511.2178
   8   2.0000     -18.784266      -511.1459
   9   2.0000     -18.779272      -511.0100
  10   2.0000      -9.953462      -270.8475
  11   2.0000      -9.953360      -270.8447
  12   2.0000      -9.950531      -270.7677
  13   2.0000      -9.949953      -270.7520
  14   2.0000      -9.944791      -270.6115
  15   2.0000      -9.887314      -269.0475
  16   2.0000      -9.881818      -268.8979
  17   2.0000      -9.881558      -268.8909
  18   2.0000      -9.880090      -268.8509
  19   2.0000      -7.683153      -209.0692
  20   2.0000      -7.679242      -208.9628
  21   2.0000      -7.624680      -207.4781
  22   2.0000      -7.618155      -207.3005
  23   2.0000      -6.416323      -174.5970
  24   2.0000      -6.415462      -174.5736
  25   2.0000      -5.710767      -155.3979
  26   2.0000      -5.707594      -155.3115
  27   2.0000      -5.707199      -155.3008
  28   2.0000      -5.704055      -155.2152
  29   2.0000      -5.700466      -155.1176
  30   2.0000      -5.695732      -154.9887
  31   2.0000      -5.653676      -153.8443
  32   2.0000      -5.647207      -153.6683
  33   2.0000      -5.645588      -153.6243
  34   2.0000      -5.644359      -153.5908
  35   2.0000      -5.638674      -153.4361
  36   2.0000      -5.638267      -153.4250
  37   2.0000      -4.639237      -126.2400
  38   2.0000      -4.638446      -126.2185
  39   2.0000      -4.637644      -126.1967
  40   2.0000      -4.637402      -126.1901
  41   2.0000      -4.636920      -126.1770
  42   2.0000      -4.635360      -126.1345
  43   2.0000      -0.983002       -26.7489
  44   2.0000      -0.977442       -26.5976
  45   2.0000      -0.940562       -25.5940
  46   2.0000      -0.935272       -25.4500
  47   2.0000      -0.756904       -20.5964
  48   2.0000      -0.716541       -19.4981
  49   2.0000      -0.707177       -19.2433
  50   2.0000      -0.688965       -18.7477
  51   2.0000      -0.686796       -18.6887
  52   2.0000      -0.668331       -18.1862
  53   2.0000      -0.644512       -17.5381
  54   2.0000      -0.629807       -17.1379
  55   2.0000      -0.589704       -16.0467
  56   2.0000      -0.582630       -15.8542
  57   2.0000      -0.573635       -15.6094
  58   2.0000      -0.565881       -15.3984
  59   2.0000      -0.558186       -15.1890
  60   2.0000      -0.504017       -13.7150
  61   2.0000      -0.492468       -13.4007
  62   2.0000      -0.477651       -12.9975
  63   2.0000      -0.471729       -12.8364
  64   2.0000      -0.447849       -12.1866
  65   2.0000      -0.442792       -12.0490
  66   2.0000      -0.438305       -11.9269
  67   2.0000      -0.433574       -11.7981
  68   2.0000      -0.427658       -11.6372
  69   2.0000      -0.414435       -11.2773
  70   2.0000      -0.401451       -10.9240
  71   2.0000      -0.392346       -10.6763
  72   2.0000      -0.385547       -10.4913
  73   2.0000      -0.379939       -10.3387
  74   2.0000      -0.379113       -10.3162
  75   2.0000      -0.366716        -9.9789
  76   2.0000      -0.360093        -9.7986
  77   2.0000      -0.352858        -9.6017
  78   2.0000      -0.350624        -9.5410
  79   2.0000      -0.347846        -9.4654
  80   2.0000      -0.344809        -9.3827
  81   2.0000      -0.341684        -9.2977
  82   2.0000      -0.340979        -9.2785
  83   2.0000      -0.335825        -9.1383
  84   2.0000      -0.333522        -9.0756
  85   2.0000      -0.315020        -8.5721
  86   2.0000      -0.309546        -8.4232
  87   2.0000      -0.298627        -8.1261
  88   2.0000      -0.295443        -8.0394
  89   2.0000      -0.286370        -7.7925
  90   2.0000      -0.271818        -7.3965
  91   2.0000      -0.268618        -7.3095
  92   2.0000      -0.265282        -7.2187
  93   2.0000      -0.262403        -7.1404
  94   2.0000      -0.253856        -6.9078
  95   2.0000      -0.234672        -6.3857
  96   2.0000      -0.215144        -5.8544
  97   2.0000      -0.202038        -5.4977
  98   2.0000      -0.198592        -5.4040
  99   2.0000      -0.181143        -4.9292
 100   2.0000      -0.180146        -4.9020
 101   0.0000      -0.036125        -0.9830
 102   0.0000      -0.027951        -0.7606
 103   0.0000      -0.006596        -0.1795
 104   0.0000       0.006329         0.1722
 105   0.0000       0.027897         0.7591

MULLIKEN ATOMIC CHARGES
-----------------------
   0 C :   -0.298974
   1 C :   -0.034645
   2 O :   -0.358715
   3 P :    0.632733
   4 S :   -0.299504
   5 O :   -0.389555
   6 C :   -0.003556
   7 C :   -0.317057
   8 S :   -0.091526
   9 C :   -0.337198
  10 S :   -0.124094
  11 P :    0.604162
  12 S :   -0.299383
  13 O :   -0.341033
  14 C :   -0.012028
  15 C :   -0.292084
  16 O :   -0.385416
  17 C :   -0.010652
  18 C :   -0.283939
  19 H :    0.107046
  20 H :    0.132153
  21 H :    0.137835
  22 H :    0.109977
  23 H :    0.106805
  24 H :    0.107154
  25 H :    0.100722
  26 H :    0.111615
  27 H :    0.131607
  28 H :    0.111565
  29 H :    0.186272
  30 H :    0.181444
  31 H :    0.097811
  32 H :    0.110224
  33 H :    0.121523
  34 H :    0.122152
  35 H :    0.107132
  36 H :    0.104806
  37 H :    0.103896
  38 H :    0.115383
  39 H :    0.123196
  40 H :    0.112148
Sum of atomic charges:   -0.0000000

LOEWDIN ATOMIC CHARGES
----------------------
   0 C :   -0.363337
   1 C :   -0.115645
   2 O :   -0.231533
   3 P :    0.575697
   4 S :   -0.289643
   5 O :   -0.264146
   6 C :   -0.122218
   7 C :   -0.366109
   8 S :    0.083688
   9 C :   -0.479684
  10 S :    0.055483
  11 P :    0.561130
  12 S :   -0.299701
  13 O :   -0.223289
  14 C :   -0.115342
  15 C :   -0.360091
  16 O :   -0.251672
  17 C :   -0.121014
  18 C :   -0.351137
  19 H :    0.128464
  20 H :    0.119756
  21 H :    0.132480
  22 H :    0.121307
  23 H :    0.107675
  24 H :    0.106882
  25 H :    0.116123
  26 H :    0.121392
  27 H :    0.126855
  28 H :    0.130243
  29 H :    0.120655
  30 H :    0.137245
  31 H :    0.101551
  32 H :    0.120797
  33 H :    0.129513
  34 H :    0.125377
  35 H :    0.128351
  36 H :    0.109034
  37 H :    0.108715
  38 H :    0.125152
  39 H :    0.130024
  40 H :    0.130971

  Mayer bond orders larger than 0.100000
B(  0-C ,  1-C ) :   1.1707 B(  0-C , 19-H ) :   0.9376 B(  0-C , 20-H ) :   0.9345
B(  0-C , 21-H ) :   0.9395 B(  1-C ,  2-O ) :   0.9060 B(  1-C , 22-H ) :   0.9344
B(  1-C , 23-H ) :   0.9154 B(  2-O ,  3-P ) :   1.1215 B(  3-P ,  4-S ) :   1.6115
B(  3-P ,  5-O ) :   1.0607 B(  3-P ,  8-S ) :   0.9509 B(  4-S ,  8-S ) :   0.1103
B(  4-S , 29-H ) :   0.1154 B(  5-O ,  6-C ) :   0.9211 B(  6-C ,  7-C ) :   1.1598
B(  6-C , 24-H ) :   0.9108 B(  6-C , 25-H ) :   0.9348 B(  7-C , 26-H ) :   0.9464
B(  7-C , 27-H ) :   0.9368 B(  7-C , 28-H ) :   0.9398 B(  8-S ,  9-C ) :   1.0091
B(  9-C , 10-S ) :   0.9897 B(  9-C , 29-H ) :   0.8536 B(  9-C , 30-H ) :   0.9118
B( 10-S , 11-P ) :   0.9473 B( 10-S , 12-S ) :   0.1168 B( 11-P , 12-S ) :   1.6697
B( 11-P , 13-O ) :   1.1456 B( 11-P , 16-O ) :   1.0697 B( 13-O , 14-C ) :   0.8970
B( 14-C , 15-C ) :   1.1660 B( 14-C , 31-H ) :   0.9085 B( 14-C , 32-H ) :   0.9331
B( 15-C , 33-H ) :   0.9471 B( 15-C , 34-H ) :   0.9411 B( 15-C , 35-H ) :   0.9397
B( 16-O , 17-C ) :   0.9065 B( 17-C , 18-C ) :   1.1595 B( 17-C , 36-H ) :   0.9064
B( 17-C , 37-H ) :   0.9290 B( 18-C , 38-H ) :   0.9510 B( 18-C , 39-H ) :   0.9507
B( 18-C , 40-H ) :   0.9419

Dispersion correction           -0.066176483
FINAL SINGLE POINT ENERGY     -2929.509769478112

DIPOLE MOMENT
-------------

Method             : SCF
Type of density    : Electron Density
Multiplicity       :   1
Irrep              :   0
Energy             : -2929.6280950252385082 Eh
Relativity type    :
Basis              : AO
                                X                 Y                 Z
Electronic contribution:      2.223695945      -4.968407556       4.012938134
Nuclear contribution   :     -2.286491282       4.262045944      -3.819364117
                        -----------------------------------------
Total Dipole Moment    :     -0.062795337      -0.706361612       0.193574016
                        -----------------------------------------
Magnitude (a.u.)       :      0.735092430
Magnitude (Debye)      :      1.868456469

Rotational constants in cm-1:             0.013350             0.005014             0.004500
Rotational constants in MHz :           400.237287           150.325379           134.896159

                             ****ORCA TERMINATED NORMALLY****
TOTAL RUN TIME: 0 days 0 hours 0 minutes 20 seconds 870 msec
