                         Program Version 6.0.0  -   RELEASE  -
|  1> ! r2scan-3c def2/J RI DEFGRID2 scfconv6 printgap
|  2> %output
|  3>     printlevel normal
|  4> end
|  5> * xyz 0 1
|  6> C 5.9113854414 -0.242066271 -0.4280358513
|  7> C 4.492392939 -0.581171035 -0.8364399659
|  8> O 3.6034668312 0.3073621024 -0.1289202399
|  9> P 2.0874459231 0.4907408286 -0.5816797386
| 10> S 1.8511129164 0.9188875759 -2.4735904193
| 11> O 1.6160366354 1.6065602045 0.4203236207
| 12> C 1.8588223412 1.5112687661 1.8496099908
| 13> C 0.8938465693 2.4461314044 2.5466083284
| 14> S 1.247813673 -1.3608817681 0.0563891037
| 15> C 0.045490656 -1.6803990684 -1.2741212064
| 16> S -1.6161882544 -1.9783774056 -0.638254194
| 17> P -1.9529300212 -0.0524913084 0.2026264306
| 18> S -1.3295058704 1.4572629223 -0.8849752162
| 19> O -1.3243191634 -0.0314273525 1.6435093673
| 20> C -1.2896493763 -1.1278134221 2.5969885161
| 21> C -2.6543177291 -1.7172093209 2.8739322856
| 22> O -3.5127038576 -0.053761877 0.4885777923
| 23> C -4.4709812675 0.071120664 -0.5803180513
| 24> C -5.7917511224 0.4992781801 0.0265385692
| 25> H 6.5972307224 -0.9047196574 -0.9452746208
| 26> H 6.1391713801 0.786845018 -0.6921323049
| 27> H 6.0294215088 -0.3659199633 0.6443930829
| 28> H 4.2323164105 -1.6080225821 -0.5651475646
| 29> H 4.337649197 -0.4424637804 -1.9115494089
| 30> H 1.707338093 0.4720506497 2.1581275112
| 31> H 2.8979172916 1.7947146094 2.0262035123
| 32> H -0.1306678237 2.1520758708 2.3309896987
| 33> H 1.0665915801 2.4048757045 3.6171240053
| 34> H 1.0414463546 3.462738819 2.1931949753
| 35> H 0.3422570447 -2.5880430251 -1.7933444172
| 36> H 0.0453310569 -0.8199450375 -1.9495792297
| 37> H -0.6028456888 -1.8871354537 2.2117411132
| 38> H -0.8642910917 -0.662610661 3.4875547024
| 39> H -3.3493143862 -0.9356083377 3.1689099698
| 40> H -3.0394736537 -2.2167905664 1.9876277925
| 41> H -2.5658291371 -2.4424658454 3.6769908173
| 42> H -4.0997496714 0.8101362097 -1.2986724626
| 43> H -4.5544101689 -0.8992632045 -1.0768258297
| 44> H -6.5317841004 0.5918642416 -0.76149765
| 45> H -6.1251742482 -0.2394093541 0.7492429649
| 46> H -5.6789573966 1.4572743159 0.5262739091
| 47> *
| 48>
| 49>                          ****END OF INPUT****

CARTESIAN COORDINATES (ANGSTROEM)
---------------------------------
  C      5.911385   -0.242066   -0.428036
  C      4.492393   -0.581171   -0.836440
  O      3.603467    0.307362   -0.128920
  P      2.087446    0.490741   -0.581680
  S      1.851113    0.918888   -2.473590
  O      1.616037    1.606560    0.420324
  C      1.858822    1.511269    1.849610
  C      0.893847    2.446131    2.546608
  S      1.247814   -1.360882    0.056389
  C      0.045491   -1.680399   -1.274121
  S     -1.616188   -1.978377   -0.638254
  P     -1.952930   -0.052491    0.202626
  S     -1.329506    1.457263   -0.884975
  O     -1.324319   -0.031427    1.643509
  C     -1.289649   -1.127813    2.596989
  C     -2.654318   -1.717209    2.873932
  O     -3.512704   -0.053762    0.488578
  C     -4.470981    0.071121   -0.580318
  C     -5.791751    0.499278    0.026539
  H      6.597231   -0.904720   -0.945275
  H      6.139171    0.786845   -0.692132
  H      6.029422   -0.365920    0.644393
  H      4.232316   -1.608023   -0.565148
  H      4.337649   -0.442464   -1.911549
  H      1.707338    0.472051    2.158128
  H      2.897917    1.794715    2.026204
  H     -0.130668    2.152076    2.330990
  H      1.066592    2.404876    3.617124
  H      1.041446    3.462739    2.193195
  H      0.342257   -2.588043   -1.793344
  H      0.045331   -0.819945   -1.949579
  H     -0.602846   -1.887135    2.211741
  H     -0.864291   -0.662611    3.487555
  H     -3.349314   -0.935608    3.168910
  H     -3.039474   -2.216791    1.987628
  H     -2.565829   -2.442466    3.676991
  H     -4.099750    0.810136   -1.298672
  H     -4.554410   -0.899263   -1.076826
  H     -6.531784    0.591864   -0.761498
  H     -6.125174   -0.239409    0.749243
  H     -5.678957    1.457274    0.526274

 Total Charge           Charge          ....    0
 Multiplicity           Mult            ....    1
 Number of Electrons    NEL             ....  202
 Basis Dimension        Dim             ....  539

ORBITAL ENERGIES
----------------

  NO   OCC          E(Eh)            E(eV)
   0   2.0000     -88.577144     -2410.3066
   1   2.0000     -88.572459     -2410.1792
   2   2.0000     -88.512174     -2408.5387
   3   2.0000     -88.508756     -2408.4457
   4   2.0000     -76.910915     -2092.8524
   5   2.0000     -76.907437     -2092.7578
   6   2.0000     -18.993904      -516.8504
   7   2.0000     -18.991208      -516.7770
   8   2.0000     -18.986108      -516.6383
   9   2.0000     -18.983675      -516.5720
  10   2.0000     -10.105858      -274.9944
  11   2.0000     -10.104382      -274.9542
  12   2.0000     -10.097626      -274.7704
  13   2.0000     -10.097374      -274.7635
  14   2.0000     -10.093695      -274.6634
  15   2.0000     -10.035643      -273.0837
  16   2.0000     -10.032744      -273.0048
  17   2.0000     -10.030543      -272.9449
  18   2.0000     -10.023457      -272.7521
  19   2.0000      -7.871583      -214.1967
  20   2.0000      -7.867017      -214.0724
  21   2.0000      -7.806939      -212.4376
  22   2.0000      -7.803315      -212.3390
  23   2.0000      -6.589264      -179.3030
  24   2.0000      -6.585908      -179.2117
  25   2.0000      -5.818441      -158.3278
  26   2.0000      -5.815192      -158.2394
  27   2.0000      -5.813778      -158.2009
  28   2.0000      -5.810756      -158.1187
  29   2.0000      -5.808954      -158.0697
  30   2.0000      -5.804318      -157.9435
  31   2.0000      -5.754739      -156.5944
  32   2.0000      -5.751143      -156.4966
  33   2.0000      -5.747198      -156.3892
  34   2.0000      -5.746802      -156.3784
  35   2.0000      -5.743556      -156.2901
  36   2.0000      -5.743224      -156.2811
  37   2.0000      -4.734997      -128.8458
  38   2.0000      -4.734483      -128.8318
  39   2.0000      -4.732480      -128.7773
  40   2.0000      -4.731629      -128.7542
  41   2.0000      -4.730928      -128.7351
  42   2.0000      -4.729363      -128.6925
  43   2.0000      -1.050902       -28.5965
  44   2.0000      -1.045525       -28.4502
  45   2.0000      -1.011941       -27.5363
  46   2.0000      -1.002496       -27.2793
  47   2.0000      -0.798786       -21.7361
  48   2.0000      -0.758749       -20.6466
  49   2.0000      -0.751489       -20.4491
  50   2.0000      -0.738341       -20.0913
  51   2.0000      -0.730833       -19.8870
  52   2.0000      -0.708762       -19.2864
  53   2.0000      -0.679899       -18.5010
  54   2.0000      -0.660979       -17.9862
  55   2.0000      -0.625191       -17.0123
  56   2.0000      -0.612460       -16.6659
  57   2.0000      -0.603577       -16.4242
  58   2.0000      -0.598485       -16.2856
  59   2.0000      -0.597037       -16.2462
  60   2.0000      -0.534139       -14.5347
  61   2.0000      -0.524945       -14.2845
  62   2.0000      -0.498107       -13.5542
  63   2.0000      -0.495826       -13.4921
  64   2.0000      -0.470888       -12.8135
  65   2.0000      -0.466601       -12.6968
  66   2.0000      -0.454663       -12.3720
  67   2.0000      -0.452222       -12.3056
  68   2.0000      -0.450354       -12.2548
  69   2.0000      -0.436846       -11.8872
  70   2.0000      -0.426177       -11.5969
  71   2.0000      -0.417368       -11.3572
  72   2.0000      -0.411105       -11.1867
  73   2.0000      -0.392674       -10.6852
  74   2.0000      -0.389164       -10.5897
  75   2.0000      -0.382144       -10.3987
  76   2.0000      -0.377376       -10.2689
  77   2.0000      -0.377160       -10.2631
  78   2.0000      -0.369140       -10.0448
  79   2.0000      -0.365011        -9.9325
  80   2.0000      -0.363560        -9.8930
  81   2.0000      -0.360505        -9.8098
  82   2.0000      -0.352369        -9.5884
  83   2.0000      -0.349747        -9.5171
  84   2.0000      -0.346289        -9.4230
  85   2.0000      -0.327973        -8.9246
  86   2.0000      -0.323498        -8.8028
  87   2.0000      -0.313906        -8.5418
  88   2.0000      -0.313270        -8.5245
  89   2.0000      -0.310349        -8.4450
  90   2.0000      -0.307470        -8.3667
  91   2.0000      -0.292623        -7.9627
  92   2.0000      -0.280137        -7.6229
  93   2.0000      -0.274509        -7.4698
  94   2.0000      -0.267950        -7.2913
  95   2.0000      -0.250085        -6.8052
  96   2.0000      -0.233832        -6.3629
  97   2.0000      -0.223310        -6.0766
  98   2.0000      -0.210464        -5.7270
  99   2.0000      -0.201493        -5.4829
 100   2.0000      -0.193917        -5.2768
 101   0.0000      -0.043336        -1.1792
 102   0.0000      -0.032032        -0.8716
 103   0.0000      -0.005090        -0.1385
 104   0.0000       0.014843         0.4039
 105   0.0000       0.020875         0.5680

MULLIKEN ATOMIC CHARGES
-----------------------
   0 C :   -0.442462
   1 C :   -0.155789
   2 O :   -0.276345
   3 P :    0.690947
   4 S :   -0.435850
   5 O :   -0.268971
   6 C :   -0.093723
   7 C :   -0.477702
   8 S :   -0.220979
   9 C :   -0.221372
  10 S :   -0.177583
  11 P :    0.645962
  12 S :   -0.404116
  13 O :   -0.250018
  14 C :   -0.143048
  15 C :   -0.445456
  16 O :   -0.274658
  17 C :   -0.160207
  18 C :   -0.441028
  19 H :    0.145528
  20 H :    0.159281
  21 H :    0.149319
  22 H :    0.151082
  23 H :    0.170707
  24 H :    0.143538
  25 H :    0.157256
  26 H :    0.185838
  27 H :    0.139577
  28 H :    0.155418
  29 H :    0.192008
  30 H :    0.225810
  31 H :    0.169167
  32 H :    0.151440
  33 H :    0.162787
  34 H :    0.162808
  35 H :    0.149553
  36 H :    0.176001
  37 H :    0.148271
  38 H :    0.147447
  39 H :    0.149502
  40 H :    0.160060
Sum of atomic charges:   -0.0000000

LOEWDIN ATOMIC CHARGES
----------------------
   0 C :   -0.386905
   1 C :    0.014884
   2 O :   -0.678163
   3 P :    0.371982
   4 S :   -0.098076
   5 O :   -0.647847
   6 C :    0.026213
   7 C :   -0.389599
   8 S :    0.123179
   9 C :   -0.416611
  10 S :    0.120856
  11 P :    0.373127
  12 S :   -0.059111
  13 O :   -0.667499
  14 C :    0.015881
  15 C :   -0.399714
  16 O :   -0.675323
  17 C :    0.018953
  18 C :   -0.385728
  19 H :    0.159403
  20 H :    0.161810
  21 H :    0.157744
  22 H :    0.171273
  23 H :    0.180796
  24 H :    0.172795
  25 H :    0.175037
  26 H :    0.175290
  27 H :    0.156876
  28 H :    0.163077
  29 H :    0.179422
  30 H :    0.203176
  31 H :    0.178258
  32 H :    0.181457
  33 H :    0.164956
  34 H :    0.164066
  35 H :    0.160011
  36 H :    0.183298
  37 H :    0.170458
  38 H :    0.160312
  39 H :    0.157703
  40 H :    0.162282

  Mayer bond orders larger than 0.100000
B(  0-C ,  1-C ) :   0.9539 B(  0-C , 19-H ) :   0.9648 B(  0-C , 20-H ) :   0.9720
B(  0-C , 21-H ) :   0.9720 B(  1-C ,  2-O ) :   0.7903 B(  1-C , 22-H ) :   0.9420
B(  1-C , 23-H ) :   0.9502 B(  2-O ,  3-P ) :   1.0502 B(  3-P ,  4-S ) :   1.8301
B(  3-P ,  5-O ) :   1.2002 B(  3-P ,  8-S ) :   0.9656 B(  5-O ,  6-C ) :   0.7253
B(  6-C ,  7-C ) :   0.9435 B(  6-C , 24-H ) :   0.9547 B(  6-C , 25-H ) :   0.9427
B(  7-C , 26-H ) :   0.9634 B(  7-C , 27-H ) :   0.9669 B(  7-C , 28-H ) :   0.9683
B(  8-S ,  9-C ) :   0.8988 B(  9-C , 10-S ) :   0.9214 B(  9-C , 29-H ) :   0.9149
B(  9-C , 30-H ) :   0.9042 B( 10-S , 11-P ) :   0.9708 B( 11-P , 12-S ) :   1.8604
B( 11-P , 13-O ) :   1.1444 B( 11-P , 16-O ) :   1.0625 B( 13-O , 14-C ) :   0.7912
B( 14-C , 15-C ) :   0.9244 B( 14-C , 31-H ) :   0.9591 B( 14-C , 32-H ) :   0.9567
B( 15-C , 33-H ) :   0.9699 B( 15-C , 34-H ) :   0.9624 B( 15-C , 35-H ) :   0.9569
B( 16-O , 17-C ) :   0.7794 B( 17-C , 18-C ) :   0.9563 B( 17-C , 36-H ) :   0.9497
B( 17-C , 37-H ) :   0.9433 B( 18-C , 38-H ) :   0.9641 B( 18-C , 39-H ) :   0.9722
B( 18-C , 40-H ) :   0.9717

Dispersion correction           -0.021779944
FINAL SINGLE POINT ENERGY     -2932.457195775882

DIPOLE MOMENT
-------------

Method             : SCF
Type of density    : Electron Density
Multiplicity       :   1
Irrep              :   0
Energy             : -2932.4818394625440305 Eh
Relativity type    :
Basis              : AO
                                X                 Y                 Z
Electronic contribution:      2.841616965       0.876650802     -15.516457733
Nuclear contribution   :     -3.032760785      -2.287845479      17.173419269
                        -----------------------------------------
Total Dipole Moment    :     -0.191143820      -1.411194676       1.656961536
                        -----------------------------------------
Magnitude (a.u.)       :      2.184840476
Magnitude (Debye)      :      5.553423153

Rotational constants in cm-1:             0.013577             0.004866             0.004711
Rotational constants in MHz :           407.035638           145.892201           141.229988

                             ****ORCA TERMINATED NORMALLY****
TOTAL RUN TIME: 0 days 0 hours 1 minutes 24 seconds 256 msec
