                         Program Version 6.0.0  -   RELEASE  -
|  1> ! r2scan-3c def2/J RI DEFGRID2 scfconv6 printgap
|  2> %output
|  3>     printlevel normal
|  4> end
|  5> %cpcm
|  6>     smd true
|  7>     smdsolvent "water"
|  8> end
|  9> * xyz 0 1
| 10> C 5.9113854414 -0.242066271 -0.4280358513
| 11> C 4.492392939 -0.581171035 -0.8364399659
| 12> O 3.6034668312 0.3073621024 -0.1289202399
| 13> P 2.0874459231 0.4907408286 -0.5816797386
| 14> S 1.8511129164 0.9188875759 -2.4735904193
| 15> O 1.6160366354 1.6065602045 0.4203236207
| 16> C 1.8588223412 1.5112687661 1.8496099908
| 17> C 0.8938465693 2.4461314044 2.5466083284
| 18> S 1.247813673 -1.3608817681 0.0563891037
| 19> C 0.045490656 -1.6803990684 -1.2741212064
| 20> S -1.6161882544 -1.9783774056 -0.638254194
| 21> P -1.9529300212 -0.0524913084 0.2026264306
| 22> S -1.3295058704 1.4572629223 -0.8849752162
| 23> O -1.3243191634 -0.0314273525 1.6435093673
| 24> C -1.2896493763 -1.1278134221 2.5969885161
| 25> C -2.6543177291 -1.7172093209 2.8739322856
| 26> O -3.5127038576 -0.053761877 0.4885777923
| 27> C -4.4709812675 0.071120664 -0.5803180513
| 28> C -5.7917511224 0.4992781801 0.0265385692
| 29> H 6.5972307224 -0.9047196574 -0.9452746208
| 30> H 6.1391713801 0.786845018 -0.6921323049
| 31> H 6.0294215088 -0.3659199633 0.6443930829
| 32> H 4.2323164105 -1.6080225821 -0.5651475646
| 33> H 4.337649197 -0.4424637804 -1.9115494089
| 34> H 1.707338093 0.4720506497 2.1581275112
| 35> H 2.8979172916 1.7947146094 2.0262035123
| 36> H -0.1306678237 2.1520758708 2.3309896987
| 37> H 1.0665915801 2.4048757045 3.6171240053
| 38> H 1.0414463546 3.462738819 2.1931949753
| 39> H 0.3422570447 -2.5880430251 -1.7933444172
| 40> H 0.0453310569 -0.8199450375 -1.9495792297
| 41> H -0.6028456888 -1.8871354537 2.2117411132
| 42> H -0.8642910917 -0.662610661 3.4875547024
| 43> H -3.3493143862 -0.9356083377 3.1689099698
| 44> H -3.0394736537 -2.2167905664 1.9876277925
| 45> H -2.5658291371 -2.4424658454 3.6769908173
| 46> H -4.0997496714 0.8101362097 -1.2986724626
| 47> H -4.5544101689 -0.8992632045 -1.0768258297
| 48> H -6.5317841004 0.5918642416 -0.76149765
| 49> H -6.1251742482 -0.2394093541 0.7492429649
| 50> H -5.6789573966 1.4572743159 0.5262739091
| 51> *
| 52>
| 53>                          ****END OF INPUT****

CARTESIAN COORDINATES (ANGSTROEM)
---------------------------------
  C      5.911385   -0.242066   -0.428036
  C      4.492393   -0.581171   -0.836440
  O      3.603467    0.307362   -0.128920
  P      2.087446    0.490741   -0.581680
  S      1.851113    0.918888   -2.473590
  O      1.616037    1.606560    0.420324
  C      1.858822    1.511269    1.849610
  C      0.893847    2.446131    2.546608
  S      1.247814   -1.360882    0.056389
  C      0.045491   -1.680399   -1.274121
  S     -1.616188   -1.978377   -0.638254
  P     -1.952930   -0.052491    0.202626
  S     -1.329506    1.457263   -0.884975
  O     -1.324319   -0.031427    1.643509
  C     -1.289649   -1.127813    2.596989
  C     -2.654318   -1.717209    2.873932
  O     -3.512704   -0.053762    0.488578
  C     -4.470981    0.071121   -0.580318
  C     -5.791751    0.499278    0.026539
  H      6.597231   -0.904720   -0.945275
  H      6.139171    0.786845   -0.692132
  H      6.029422   -0.365920    0.644393
  H      4.232316   -1.608023   -0.565148
  H      4.337649   -0.442464   -1.911549
  H      1.707338    0.472051    2.158128
  H      2.897917    1.794715    2.026204
  H     -0.130668    2.152076    2.330990
  H      1.066592    2.404876    3.617124
  H      1.041446    3.462739    2.193195
  H      0.342257   -2.588043   -1.793344
  H      0.045331   -0.819945   -1.949579
  H     -0.602846   -1.887135    2.211741
  H     -0.864291   -0.662611    3.487555
  H     -3.349314   -0.935608    3.168910
  H     -3.039474   -2.216791    1.987628
  H     -2.565829   -2.442466    3.676991
  H     -4.099750    0.810136   -1.298672
  H     -4.554410   -0.899263   -1.076826
  H     -6.531784    0.591864   -0.761498
  H     -6.125174   -0.239409    0.749243
  H     -5.678957    1.457274    0.526274

 Total Charge           Charge          ....    0
 Multiplicity           Mult            ....    1
 Number of Electrons    NEL             ....  202
 Basis Dimension        Dim             ....  539

ORBITAL ENERGIES
----------------

  NO   OCC          E(Eh)            E(eV)
   0   2.0000     -88.580270     -2410.3917
   1   2.0000     -88.576689     -2410.2942
   2   2.0000     -88.526968     -2408.9413
   3   2.0000     -88.521104     -2408.7817
   4   2.0000     -76.917841     -2093.0409
   5   2.0000     -76.917736     -2093.0380
   6   2.0000     -18.995285      -516.8880
   7   2.0000     -18.993910      -516.8506
   8   2.0000     -18.992490      -516.8119
   9   2.0000     -18.992003      -516.7987
  10   2.0000     -10.103908      -274.9413
  11   2.0000     -10.092920      -274.6423
  12   2.0000     -10.092848      -274.6404
  13   2.0000     -10.089754      -274.5562
  14   2.0000     -10.088177      -274.5132
  15   2.0000     -10.020358      -272.6678
  16   2.0000     -10.019495      -272.6443
  17   2.0000     -10.019111      -272.6339
  18   2.0000     -10.018743      -272.6239
  19   2.0000      -7.874622      -214.2793
  20   2.0000      -7.871124      -214.1842
  21   2.0000      -7.822143      -212.8513
  22   2.0000      -7.816150      -212.6882
  23   2.0000      -6.596354      -179.4959
  24   2.0000      -6.596119      -179.4895
  25   2.0000      -5.821509      -158.4113
  26   2.0000      -5.818253      -158.3227
  27   2.0000      -5.817924      -158.3138
  28   2.0000      -5.814906      -158.2316
  29   2.0000      -5.811955      -158.1513
  30   2.0000      -5.808356      -158.0534
  31   2.0000      -5.769801      -157.0043
  32   2.0000      -5.763825      -156.8416
  33   2.0000      -5.762463      -156.8046
  34   2.0000      -5.762006      -156.7922
  35   2.0000      -5.756443      -156.6408
  36   2.0000      -5.756067      -156.6305
  37   2.0000      -4.742046      -129.0376
  38   2.0000      -4.741788      -129.0306
  39   2.0000      -4.741312      -129.0177
  40   2.0000      -4.741279      -129.0168
  41   2.0000      -4.739971      -128.9812
  42   2.0000      -4.739495      -128.9682
  43   2.0000      -1.053088       -28.6560
  44   2.0000      -1.052505       -28.6401
  45   2.0000      -1.012956       -27.5639
  46   2.0000      -1.009093       -27.4588
  47   2.0000      -0.800899       -21.7936
  48   2.0000      -0.756098       -20.5745
  49   2.0000      -0.747997       -20.3540
  50   2.0000      -0.727858       -19.8060
  51   2.0000      -0.725615       -19.7450
  52   2.0000      -0.709798       -19.3146
  53   2.0000      -0.686230       -18.6733
  54   2.0000      -0.669275       -18.2119
  55   2.0000      -0.623200       -16.9581
  56   2.0000      -0.611884       -16.6502
  57   2.0000      -0.598986       -16.2992
  58   2.0000      -0.595748       -16.2111
  59   2.0000      -0.592969       -16.1355
  60   2.0000      -0.534229       -14.5371
  61   2.0000      -0.522986       -14.2312
  62   2.0000      -0.497505       -13.5378
  63   2.0000      -0.492293       -13.3960
  64   2.0000      -0.469624       -12.7791
  65   2.0000      -0.467231       -12.7140
  66   2.0000      -0.450789       -12.2666
  67   2.0000      -0.447842       -12.1864
  68   2.0000      -0.444751       -12.1023
  69   2.0000      -0.437218       -11.8973
  70   2.0000      -0.423420       -11.5219
  71   2.0000      -0.412873       -11.2349
  72   2.0000      -0.410878       -11.1806
  73   2.0000      -0.388743       -10.5782
  74   2.0000      -0.386809       -10.5256
  75   2.0000      -0.382545       -10.4096
  76   2.0000      -0.376276       -10.2390
  77   2.0000      -0.371534       -10.1100
  78   2.0000      -0.359801        -9.7907
  79   2.0000      -0.358034        -9.7426
  80   2.0000      -0.355617        -9.6768
  81   2.0000      -0.353066        -9.6074
  82   2.0000      -0.348882        -9.4936
  83   2.0000      -0.345532        -9.4024
  84   2.0000      -0.344150        -9.3648
  85   2.0000      -0.323369        -8.7993
  86   2.0000      -0.322064        -8.7638
  87   2.0000      -0.315476        -8.5845
  88   2.0000      -0.312110        -8.4929
  89   2.0000      -0.311210        -8.4685
  90   2.0000      -0.304427        -8.2839
  91   2.0000      -0.290110        -7.8943
  92   2.0000      -0.282418        -7.6850
  93   2.0000      -0.275912        -7.5079
  94   2.0000      -0.271886        -7.3984
  95   2.0000      -0.253432        -6.8962
  96   2.0000      -0.243772        -6.6334
  97   2.0000      -0.236667        -6.4400
  98   2.0000      -0.223207        -6.0738
  99   2.0000      -0.213942        -5.8216
 100   2.0000      -0.208557        -5.6751
 101   0.0000      -0.047178        -1.2838
 102   0.0000      -0.039518        -1.0753
 103   0.0000      -0.009969        -0.2713
 104   0.0000       0.008086         0.2200
 105   0.0000       0.017600         0.4789

MULLIKEN ATOMIC CHARGES
-----------------------
   0 C :   -0.482030
   1 C :   -0.142942
   2 O :   -0.300385
   3 P :    0.697258
   4 S :   -0.499794
   5 O :   -0.300882
   6 C :   -0.091122
   7 C :   -0.516880
   8 S :   -0.205391
   9 C :   -0.220697
  10 S :   -0.171071
  11 P :    0.670966
  12 S :   -0.481525
  13 O :   -0.277491
  14 C :   -0.131124
  15 C :   -0.483508
  16 O :   -0.294666
  17 C :   -0.152763
  18 C :   -0.481477
  19 H :    0.168897
  20 H :    0.165586
  21 H :    0.165145
  22 H :    0.169206
  23 H :    0.171198
  24 H :    0.169327
  25 H :    0.177115
  26 H :    0.173940
  27 H :    0.171300
  28 H :    0.167838
  29 H :    0.233690
  30 H :    0.216451
  31 H :    0.175453
  32 H :    0.181284
  33 H :    0.171481
  34 H :    0.166346
  35 H :    0.175972
  36 H :    0.173705
  37 H :    0.170068
  38 H :    0.169494
  39 H :    0.165570
  40 H :    0.166457
Sum of atomic charges:   -0.0000000

LOEWDIN ATOMIC CHARGES
----------------------
   0 C :   -0.389978
   1 C :    0.020255
   2 O :   -0.688162
   3 P :    0.372287
   4 S :   -0.147964
   5 O :   -0.673343
   6 C :    0.032219
   7 C :   -0.392864
   8 S :    0.139969
   9 C :   -0.411821
  10 S :    0.133687
  11 P :    0.378161
  12 S :   -0.116519
  13 O :   -0.679130
  14 C :    0.025472
  15 C :   -0.401337
  16 O :   -0.684309
  17 C :    0.022677
  18 C :   -0.389119
  19 H :    0.168642
  20 H :    0.162647
  21 H :    0.162740
  22 H :    0.179131
  23 H :    0.180902
  24 H :    0.182033
  25 H :    0.184228
  26 H :    0.168462
  27 H :    0.170394
  28 H :    0.164100
  29 H :    0.195747
  30 H :    0.199277
  31 H :    0.181851
  32 H :    0.194035
  33 H :    0.166301
  34 H :    0.163082
  35 H :    0.170347
  36 H :    0.181816
  37 H :    0.179341
  38 H :    0.168873
  39 H :    0.162826
  40 H :    0.163047

  Mayer bond orders larger than 0.100000
B(  0-C ,  1-C ) :   0.9518 B(  0-C , 19-H ) :   0.9586 B(  0-C , 20-H ) :   0.9701
B(  0-C , 21-H ) :   0.9683 B(  1-C ,  2-O ) :   0.7825 B(  1-C , 22-H ) :   0.9330
B(  1-C , 23-H ) :   0.9480 B(  2-O ,  3-P ) :   1.0582 B(  3-P ,  4-S ) :   1.7942
B(  3-P ,  5-O ) :   1.2026 B(  3-P ,  8-S ) :   0.9969 B(  5-O ,  6-C ) :   0.7163
B(  6-C ,  7-C ) :   0.9304 B(  6-C , 24-H ) :   0.9448 B(  6-C , 25-H ) :   0.9327
B(  7-C , 26-H ) :   0.9663 B(  7-C , 27-H ) :   0.9586 B(  7-C , 28-H ) :   0.9692
B(  8-S ,  9-C ) :   0.8903 B(  9-C , 10-S ) :   0.9141 B(  9-C , 29-H ) :   0.8991
B(  9-C , 30-H ) :   0.9088 B( 10-S , 11-P ) :   1.0001 B( 11-P , 12-S ) :   1.8072
B( 11-P , 13-O ) :   1.1577 B( 11-P , 16-O ) :   1.0717 B( 13-O , 14-C ) :   0.7806
B( 14-C , 15-C ) :   0.9117 B( 14-C , 31-H ) :   0.9534 B( 14-C , 32-H ) :   0.9456
B( 15-C , 33-H ) :   0.9692 B( 15-C , 34-H ) :   0.9604 B( 15-C , 35-H ) :   0.9505
B( 16-O , 17-C ) :   0.7712 B( 17-C , 18-C ) :   0.9544 B( 17-C , 36-H ) :   0.9480
B( 17-C , 37-H ) :   0.9339 B( 18-C , 38-H ) :   0.9583 B( 18-C , 39-H ) :   0.9688
B( 18-C , 40-H ) :   0.9696

Dispersion correction           -0.021779944
FINAL SINGLE POINT ENERGY     -2932.469210425594

DIPOLE MOMENT
-------------

Method             : SCF
Type of density    : Electron Density
Multiplicity       :   1
Irrep              :   0
Energy             : -2932.4938541122560309 Eh
Relativity type    :
Basis              : AO
                                X                 Y                 Z
Electronic contribution:      2.877636684      -0.163864509     -14.803110237
Nuclear contribution   :     -3.032760785      -2.287845479      17.173419269
                        -----------------------------------------
Total Dipole Moment    :     -0.155124100      -2.451709987       2.370309032
                        -----------------------------------------
Magnitude (a.u.)       :      3.413694517
Magnitude (Debye)      :      8.676921896

Rotational constants in cm-1:             0.013577             0.004866             0.004711
Rotational constants in MHz :           407.035638           145.892201           141.229988

                             ****ORCA TERMINATED NORMALLY****
TOTAL RUN TIME: 0 days 0 hours 1 minutes 50 seconds 439 msec
