                         Program Version 6.0.0  -   RELEASE  -
|  1> ! pbe def2-sv(p) def2/J RI DEFGRID1 loosescf d4 GCP(DFT/SV(P)) printgap
|  2> %output
|  3>     printlevel normal
|  4> end
|  5> * xyz 0 1
|  6> C 5.6406543357 0.3095183703 -0.826959769
|  7> C 4.1755350775 0.4146499986 -1.1980006797
|  8> O 3.3993463198 0.100472066 -0.0240911088
|  9> P 1.8336639633 0.3764414152 0.0122116626
| 10> S 1.3186278837 2.2129509062 -0.4019250391
| 11> O 1.4632573443 -0.0579324747 1.4794563823
| 12> C 1.9719125548 -1.2719288724 2.0897123685
| 13> C 3.1571938383 -0.960552364 2.9778356259
| 14> S 1.1083406622 -1.1191975632 -1.3355595299
| 15> C -0.1407481959 -0.1560797333 -2.2272585891
| 16> S -1.8421837942 -0.746729499 -2.0034204554
| 17> P -2.0574460784 -0.6483141724 0.0846551604
| 18> S -1.2833297631 -2.0010123359 1.2674581021
| 19> O -3.6249320084 -0.6814936353 0.310932459
| 20> C -4.6476616426 -0.1425987833 -0.5637172752
| 21> C -4.5957863218 1.3671965966 -0.6621346883
| 22> O -1.5262122819 0.8392754168 0.3503606765
| 23> C -1.5927111809 1.3815122419 1.6869725461
| 24> C -1.7451060703 2.8846698766 1.5856026264
| 25> H 5.865800538 -0.6950137281 -0.4804761852
| 26> H 6.2444700459 0.5314434208 -1.7005625396
| 27> H 5.8785328622 1.0175645811 -0.0381192774
| 28> H 3.9100653508 -0.2967754715 -1.9850518179
| 29> H 3.9149847548 1.4263386148 -1.5254461103
| 30> H 1.1287312238 -1.6695658821 2.6583736886
| 31> H 2.2333495336 -1.9825619554 1.3017158599
| 32> H 3.4728379232 -1.8731699023 3.4733185418
| 33> H 3.9793626155 -0.5680047974 2.3854306078
| 34> H 2.8776763354 -0.2239387 3.7259830808
| 35> H 0.0515696891 -0.2639480105 -3.2923030671
| 36> H -0.0664881048 0.8893363093 -1.9140087385
| 37> H -4.5353842176 -0.6049067671 -1.5469573774
| 38> H -5.5740787395 -0.4843002718 -0.0989750489
| 39> H -5.4155583535 1.707005903 -1.2874613018
| 40> H -4.6932424758 1.8132393503 0.3247662041
| 41> H -3.6567791262 1.6873163528 -1.1090488375
| 42> H -2.4353476452 0.9205021311 2.2129263057
| 43> H -0.6657990402 1.1097159876 2.2003453668
| 44> H -1.753242895 3.3058050844 2.5855930532
| 45> H -0.9097847494 3.2999264037 1.027456222
| 46> H -2.6690595513 3.1417407009 1.0763554149
| 47> *
| 48>
| 49>                          ****END OF INPUT****

CARTESIAN COORDINATES (ANGSTROEM)
---------------------------------
  C      5.640654    0.309518   -0.826960
  C      4.175535    0.414650   -1.198001
  O      3.399346    0.100472   -0.024091
  P      1.833664    0.376441    0.012212
  S      1.318628    2.212951   -0.401925
  O      1.463257   -0.057932    1.479456
  C      1.971913   -1.271929    2.089712
  C      3.157194   -0.960552    2.977836
  S      1.108341   -1.119198   -1.335560
  C     -0.140748   -0.156080   -2.227259
  S     -1.842184   -0.746729   -2.003420
  P     -2.057446   -0.648314    0.084655
  S     -1.283330   -2.001012    1.267458
  O     -3.624932   -0.681494    0.310932
  C     -4.647662   -0.142599   -0.563717
  C     -4.595786    1.367197   -0.662135
  O     -1.526212    0.839275    0.350361
  C     -1.592711    1.381512    1.686973
  C     -1.745106    2.884670    1.585603
  H      5.865801   -0.695014   -0.480476
  H      6.244470    0.531443   -1.700563
  H      5.878533    1.017565   -0.038119
  H      3.910065   -0.296775   -1.985052
  H      3.914985    1.426339   -1.525446
  H      1.128731   -1.669566    2.658374
  H      2.233350   -1.982562    1.301716
  H      3.472838   -1.873170    3.473319
  H      3.979363   -0.568005    2.385431
  H      2.877676   -0.223939    3.725983
  H      0.051570   -0.263948   -3.292303
  H     -0.066488    0.889336   -1.914009
  H     -4.535384   -0.604907   -1.546957
  H     -5.574079   -0.484300   -0.098975
  H     -5.415558    1.707006   -1.287461
  H     -4.693242    1.813239    0.324766
  H     -3.656779    1.687316   -1.109049
  H     -2.435348    0.920502    2.212926
  H     -0.665799    1.109716    2.200345
  H     -1.753243    3.305805    2.585593
  H     -0.909785    3.299926    1.027456
  H     -2.669060    3.141741    1.076355

 Total Charge           Charge          ....    0
 Multiplicity           Mult            ....    1
 Number of Electrons    NEL             ....  202
 Basis Dimension        Dim             ....  334

ORBITAL ENERGIES
----------------

  NO   OCC          E(Eh)            E(eV)
   0   2.0000     -88.043178     -2395.7767
   1   2.0000     -88.042873     -2395.7684
   2   2.0000     -87.989194     -2394.3077
   3   2.0000     -87.969867     -2393.7818
   4   2.0000     -76.427089     -2079.6868
   5   2.0000     -76.418741     -2079.4597
   6   2.0000     -18.795713      -511.4573
   7   2.0000     -18.791330      -511.3381
   8   2.0000     -18.789103      -511.2775
   9   2.0000     -18.781378      -511.0673
  10   2.0000      -9.957850      -270.9669
  11   2.0000      -9.956694      -270.9354
  12   2.0000      -9.954994      -270.8892
  13   2.0000      -9.949089      -270.7285
  14   2.0000      -9.939608      -270.4705
  15   2.0000      -9.891530      -269.1622
  16   2.0000      -9.889226      -269.0995
  17   2.0000      -9.882426      -268.9145
  18   2.0000      -9.874567      -268.7006
  19   2.0000      -7.688858      -209.2245
  20   2.0000      -7.687555      -209.1890
  21   2.0000      -7.634265      -207.7389
  22   2.0000      -7.615307      -207.2230
  23   2.0000      -6.424770      -174.8269
  24   2.0000      -6.416520      -174.6024
  25   2.0000      -5.716855      -155.5635
  26   2.0000      -5.715390      -155.5237
  27   2.0000      -5.713154      -155.4628
  28   2.0000      -5.712115      -155.4346
  29   2.0000      -5.705790      -155.2624
  30   2.0000      -5.704580      -155.2295
  31   2.0000      -5.663163      -154.1025
  32   2.0000      -5.654837      -153.8759
  33   2.0000      -5.654368      -153.8632
  34   2.0000      -5.644382      -153.5914
  35   2.0000      -5.636068      -153.3652
  36   2.0000      -5.635081      -153.3384
  37   2.0000      -4.647525      -126.4656
  38   2.0000      -4.646395      -126.4348
  39   2.0000      -4.645165      -126.4014
  40   2.0000      -4.639726      -126.2534
  41   2.0000      -4.638350      -126.2159
  42   2.0000      -4.636336      -126.1611
  43   2.0000      -0.990530       -26.9537
  44   2.0000      -0.977562       -26.6008
  45   2.0000      -0.945570       -25.7303
  46   2.0000      -0.937743       -25.5173
  47   2.0000      -0.762316       -20.7437
  48   2.0000      -0.721502       -19.6331
  49   2.0000      -0.710097       -19.3227
  50   2.0000      -0.692438       -18.8422
  51   2.0000      -0.687419       -18.7056
  52   2.0000      -0.671532       -18.2733
  53   2.0000      -0.646824       -17.6010
  54   2.0000      -0.635642       -17.2967
  55   2.0000      -0.591188       -16.0871
  56   2.0000      -0.582783       -15.8583
  57   2.0000      -0.576008       -15.6740
  58   2.0000      -0.568293       -15.4640
  59   2.0000      -0.556744       -15.1498
  60   2.0000      -0.511723       -13.9247
  61   2.0000      -0.496010       -13.4971
  62   2.0000      -0.480651       -13.0792
  63   2.0000      -0.476939       -12.9782
  64   2.0000      -0.449601       -12.2343
  65   2.0000      -0.446270       -12.1436
  66   2.0000      -0.441196       -12.0055
  67   2.0000      -0.435044       -11.8381
  68   2.0000      -0.429723       -11.6934
  69   2.0000      -0.416755       -11.3405
  70   2.0000      -0.400094       -10.8871
  71   2.0000      -0.399891       -10.8816
  72   2.0000      -0.389639       -10.6026
  73   2.0000      -0.386193       -10.5088
  74   2.0000      -0.379800       -10.3349
  75   2.0000      -0.367022        -9.9872
  76   2.0000      -0.359549        -9.7838
  77   2.0000      -0.357249        -9.7212
  78   2.0000      -0.353142        -9.6095
  79   2.0000      -0.350328        -9.5329
  80   2.0000      -0.346238        -9.4216
  81   2.0000      -0.344498        -9.3743
  82   2.0000      -0.342601        -9.3226
  83   2.0000      -0.337668        -9.1884
  84   2.0000      -0.327845        -8.9211
  85   2.0000      -0.316800        -8.6206
  86   2.0000      -0.314656        -8.5622
  87   2.0000      -0.303926        -8.2702
  88   2.0000      -0.300929        -8.1887
  89   2.0000      -0.292430        -7.9574
  90   2.0000      -0.276858        -7.5337
  91   2.0000      -0.273987        -7.4556
  92   2.0000      -0.267841        -7.2883
  93   2.0000      -0.260489        -7.0883
  94   2.0000      -0.256914        -6.9910
  95   2.0000      -0.239996        -6.5306
  96   2.0000      -0.224038        -6.0964
  97   2.0000      -0.205597        -5.5946
  98   2.0000      -0.203973        -5.5504
  99   2.0000      -0.187396        -5.0993
 100   2.0000      -0.182199        -4.9579
 101   0.0000      -0.044576        -1.2130
 102   0.0000      -0.033332        -0.9070
 103   0.0000      -0.011770        -0.3203
 104   0.0000       0.003289         0.0895
 105   0.0000       0.014895         0.4053

MULLIKEN ATOMIC CHARGES
-----------------------
   0 C :   -0.283129
   1 C :   -0.009552
   2 O :   -0.383907
   3 P :    0.611764
   4 S :   -0.303479
   5 O :   -0.349735
   6 C :   -0.015990
   7 C :   -0.284224
   8 S :   -0.096453
   9 C :   -0.340117
  10 S :   -0.116919
  11 P :    0.616242
  12 S :   -0.321738
  13 O :   -0.372780
  14 C :   -0.020118
  15 C :   -0.321260
  16 O :   -0.385030
  17 C :   -0.022807
  18 C :   -0.292004
  19 H :    0.117231
  20 H :    0.113552
  21 H :    0.122494
  22 H :    0.101056
  23 H :    0.104279
  24 H :    0.125009
  25 H :    0.102467
  26 H :    0.109793
  27 H :    0.119123
  28 H :    0.116789
  29 H :    0.180514
  30 H :    0.205746
  31 H :    0.120725
  32 H :    0.113022
  33 H :    0.113671
  34 H :    0.126226
  35 H :    0.134618
  36 H :    0.100504
  37 H :    0.121754
  38 H :    0.104362
  39 H :    0.132309
  40 H :    0.105991
Sum of atomic charges:   -0.0000000

LOEWDIN ATOMIC CHARGES
----------------------
   0 C :   -0.350668
   1 C :   -0.123187
   2 O :   -0.248239
   3 P :    0.573806
   4 S :   -0.285840
   5 O :   -0.222636
   6 C :   -0.116149
   7 C :   -0.359316
   8 S :    0.076060
   9 C :   -0.479022
  10 S :    0.077105
  11 P :    0.558523
  12 S :   -0.315870
  13 O :   -0.245564
  14 C :   -0.115173
  15 C :   -0.367369
  16 O :   -0.255543
  17 C :   -0.123129
  18 C :   -0.356702
  19 H :    0.126492
  20 H :    0.131701
  21 H :    0.128928
  22 H :    0.105923
  23 H :    0.108844
  24 H :    0.117497
  25 H :    0.107554
  26 H :    0.130061
  27 H :    0.123950
  28 H :    0.127652
  29 H :    0.137636
  30 H :    0.123670
  31 H :    0.109560
  32 H :    0.123290
  33 H :    0.132001
  34 H :    0.126261
  35 H :    0.125063
  36 H :    0.105234
  37 H :    0.115408
  38 H :    0.127924
  39 H :    0.125235
  40 H :    0.119030

  Mayer bond orders larger than 0.100000
B(  0-C ,  1-C ) :   1.1598 B(  0-C , 19-H ) :   0.9507 B(  0-C , 20-H ) :   0.9418
B(  0-C , 21-H ) :   0.9508 B(  1-C ,  2-O ) :   0.9072 B(  1-C , 22-H ) :   0.9218
B(  1-C , 23-H ) :   0.9121 B(  2-O ,  3-P ) :   1.0686 B(  3-P ,  4-S ) :   1.6290
B(  3-P ,  5-O ) :   1.1477 B(  3-P ,  8-S ) :   0.9525 B(  4-S ,  8-S ) :   0.1190
B(  4-S , 30-H ) :   0.1184 B(  5-O ,  6-C ) :   0.8754 B(  6-C ,  7-C ) :   1.1612
B(  6-C , 24-H ) :   0.9190 B(  6-C , 25-H ) :   0.9216 B(  7-C , 26-H ) :   0.9402
B(  7-C , 27-H ) :   0.9411 B(  7-C , 28-H ) :   0.9471 B(  8-S ,  9-C ) :   1.0161
B(  9-C , 10-S ) :   0.9897 B(  9-C , 29-H ) :   0.9126 B(  9-C , 30-H ) :   0.8456
B( 10-S , 11-P ) :   0.9639 B( 10-S , 12-S ) :   0.1107 B( 11-P , 12-S ) :   1.6664
B( 11-P , 13-O ) :   1.1074 B( 11-P , 16-O ) :   1.0787 B( 13-O , 14-C ) :   0.9063
B( 14-C , 15-C ) :   1.1620 B( 14-C , 31-H ) :   0.9225 B( 14-C , 32-H ) :   0.9344
B( 15-C , 33-H ) :   0.9355 B( 15-C , 34-H ) :   0.9385 B( 15-C , 35-H ) :   0.9343
B( 16-O , 17-C ) :   0.8829 B( 17-C , 18-C ) :   1.1600 B( 17-C , 36-H ) :   0.9177
B( 17-C , 37-H ) :   0.9163 B( 18-C , 38-H ) :   0.9408 B( 18-C , 39-H ) :   0.9351
B( 18-C , 40-H ) :   0.9458

Dispersion correction           -0.067231216
FINAL SINGLE POINT ENERGY     -2929.513682861322

DIPOLE MOMENT
-------------

Method             : SCF
Type of density    : Electron Density
Multiplicity       :   1
Irrep              :   0
Energy             : -2929.6339161620317100 Eh
Relativity type    :
Basis              : AO
                                X                 Y                 Z
Electronic contribution:     -6.625209676     -11.263617438      -7.990317903
Nuclear contribution   :      6.954425777      11.727967534       7.516004963
                        -----------------------------------------
Total Dipole Moment    :      0.329216101       0.464350096      -0.474312940
                        -----------------------------------------
Magnitude (a.u.)       :      0.740929834
Magnitude (Debye)      :      1.883293969

Rotational constants in cm-1:             0.012937             0.005217             0.005098
Rotational constants in MHz :           387.840632           156.390794           152.826766

                             ****ORCA TERMINATED NORMALLY****
TOTAL RUN TIME: 0 days 0 hours 0 minutes 21 seconds 635 msec
