                         Program Version 6.0.0  -   RELEASE  -
|  1> ! pbe def2-sv(p) def2/J RI DEFGRID1 loosescf d4 GCP(DFT/SV(P)) printgap
|  2> %output
|  3>     printlevel normal
|  4> end
|  5> * xyz 0 1
|  6> C 4.4974104376 -1.7371885152 -0.693831234
|  7> C 4.6065132846 -0.2917441189 -0.2525701085
|  8> O 3.4601630793 0.1382005476 0.5008173075
|  9> P 2.0188141279 0.3121161133 -0.1523601285
| 10> S 2.0432068033 1.0219189771 -1.9840669215
| 11> O 1.2894091516 1.1718471416 0.9607673474
| 12> C 1.312140078 2.6113577617 0.9669283074
| 13> C 2.7007182268 3.1615975989 1.2118907954
| 14> S 1.1344864065 -1.5674567664 0.1562766024
| 15> C -0.0358447482 -1.6243950799 -1.2477492607
| 16> S -1.748486329 -1.841155996 -0.7289264353
| 17> P -2.0218074547 0.0603044076 0.1832551172
| 18> S -1.4273919612 1.5704324736 -0.9162198022
| 19> O -1.287494786 0.0359016299 1.5789414202
| 20> C -1.7586249248 -0.609126446 2.7890247765
| 21> C -1.879435209 -2.1117402658 2.6480502868
| 22> O -3.5517425508 0.0780936146 0.6067816381
| 23> C -4.6045561094 0.4933443494 -0.2824633069
| 24> C -4.7763385748 -0.4489883262 -1.4556476251
| 25> H 5.4373896604 -2.0467446783 -1.1392350712
| 26> H 4.270281591 -2.3762082607 0.1556630621
| 27> H 3.7055099438 -1.8405618528 -1.4343462466
| 28> H 4.7140127053 0.3659617369 -1.1212702654
| 29> H 5.4405806724 -0.1415702025 0.4342167983
| 30> H 0.9113683054 2.9671314353 0.011304037
| 31> H 0.6190732052 2.8763433427 1.7671798644
| 32> H 3.3466598703 2.9278726487 0.3663520365
| 33> H 2.6424558027 4.239868905 1.3231357248
| 34> H 3.1238709833 2.7234353378 2.1121206626
| 35> H 0.2060519708 -2.494932413 -1.8517784906
| 36> H 0.0687581003 -0.702064873 -1.825972198
| 37> H -0.9965683604 -0.3365481431 3.5211620825
| 38> H -2.7163823785 -0.1608958661 3.0598029224
| 39> H -2.6764526231 -2.3669683332 1.9531885457
| 40> H -0.9448752821 -2.5349782977 2.2858339744
| 41> H -2.1089930271 -2.5361162812 3.6206160411
| 42> H -5.4888918783 0.507269107 0.3563661415
| 43> H -4.3807378891 1.5059127387 -0.632016232
| 44> H -3.914581217 -0.3821398704 -2.1176913413
| 45> H -4.87324167 -1.4745787644 -1.1089818118
| 46> H -5.6663234838 -0.1690721701 -2.0101164681
| 47> *
| 48>
| 49>                          ****END OF INPUT****

CARTESIAN COORDINATES (ANGSTROEM)
---------------------------------
  C      4.497410   -1.737189   -0.693831
  C      4.606513   -0.291744   -0.252570
  O      3.460163    0.138201    0.500817
  P      2.018814    0.312116   -0.152360
  S      2.043207    1.021919   -1.984067
  O      1.289409    1.171847    0.960767
  C      1.312140    2.611358    0.966928
  C      2.700718    3.161598    1.211891
  S      1.134486   -1.567457    0.156277
  C     -0.035845   -1.624395   -1.247749
  S     -1.748486   -1.841156   -0.728926
  P     -2.021807    0.060304    0.183255
  S     -1.427392    1.570432   -0.916220
  O     -1.287495    0.035902    1.578941
  C     -1.758625   -0.609126    2.789025
  C     -1.879435   -2.111740    2.648050
  O     -3.551743    0.078094    0.606782
  C     -4.604556    0.493344   -0.282463
  C     -4.776339   -0.448988   -1.455648
  H      5.437390   -2.046745   -1.139235
  H      4.270282   -2.376208    0.155663
  H      3.705510   -1.840562   -1.434346
  H      4.714013    0.365962   -1.121270
  H      5.440581   -0.141570    0.434217
  H      0.911368    2.967131    0.011304
  H      0.619073    2.876343    1.767180
  H      3.346660    2.927873    0.366352
  H      2.642456    4.239869    1.323136
  H      3.123871    2.723435    2.112121
  H      0.206052   -2.494932   -1.851778
  H      0.068758   -0.702065   -1.825972
  H     -0.996568   -0.336548    3.521162
  H     -2.716382   -0.160896    3.059803
  H     -2.676453   -2.366968    1.953189
  H     -0.944875   -2.534978    2.285834
  H     -2.108993   -2.536116    3.620616
  H     -5.488892    0.507269    0.356366
  H     -4.380738    1.505913   -0.632016
  H     -3.914581   -0.382140   -2.117691
  H     -4.873242   -1.474579   -1.108982
  H     -5.666323   -0.169072   -2.010116

 Total Charge           Charge          ....    0
 Multiplicity           Mult            ....    1
 Number of Electrons    NEL             ....  202
 Basis Dimension        Dim             ....  334

ORBITAL ENERGIES
----------------

  NO   OCC          E(Eh)            E(eV)
   0   2.0000     -88.041418     -2395.7288
   1   2.0000     -88.038669     -2395.6540
   2   2.0000     -87.981258     -2394.0917
   3   2.0000     -87.979450     -2394.0425
   4   2.0000     -76.424552     -2079.6178
   5   2.0000     -76.419237     -2079.4732
   6   2.0000     -18.797713      -511.5118
   7   2.0000     -18.786754      -511.2136
   8   2.0000     -18.786022      -511.1936
   9   2.0000     -18.776927      -510.9462
  10   2.0000      -9.955822      -270.9117
  11   2.0000      -9.953972      -270.8613
  12   2.0000      -9.952781      -270.8289
  13   2.0000      -9.947361      -270.6814
  14   2.0000      -9.936999      -270.3995
  15   2.0000      -9.885928      -269.0098
  16   2.0000      -9.884241      -268.9639
  17   2.0000      -9.880123      -268.8518
  18   2.0000      -9.874592      -268.7013
  19   2.0000      -7.686462      -209.1593
  20   2.0000      -7.683829      -209.0876
  21   2.0000      -7.626130      -207.5175
  22   2.0000      -7.624351      -207.4691
  23   2.0000      -6.421771      -174.7453
  24   2.0000      -6.416791      -174.6098
  25   2.0000      -5.714316      -155.4945
  26   2.0000      -5.711688      -155.4229
  27   2.0000      -5.710935      -155.4024
  28   2.0000      -5.708425      -155.3341
  29   2.0000      -5.703479      -155.1995
  30   2.0000      -5.700631      -155.1221
  31   2.0000      -5.655006      -153.8805
  32   2.0000      -5.653296      -153.8340
  33   2.0000      -5.646946      -153.6612
  34   2.0000      -5.646167      -153.6400
  35   2.0000      -5.645045      -153.6095
  36   2.0000      -5.644395      -153.5918
  37   2.0000      -4.644918      -126.3946
  38   2.0000      -4.643339      -126.3517
  39   2.0000      -4.641920      -126.3131
  40   2.0000      -4.639031      -126.2345
  41   2.0000      -4.638399      -126.2172
  42   2.0000      -4.637711      -126.1985
  43   2.0000      -0.988083       -26.8871
  44   2.0000      -0.978139       -26.6165
  45   2.0000      -0.943226       -25.6665
  46   2.0000      -0.935462       -25.4552
  47   2.0000      -0.760441       -20.6926
  48   2.0000      -0.717762       -19.5313
  49   2.0000      -0.705373       -19.1942
  50   2.0000      -0.691127       -18.8065
  51   2.0000      -0.681330       -18.5399
  52   2.0000      -0.671860       -18.2822
  53   2.0000      -0.648619       -17.6498
  54   2.0000      -0.630025       -17.1439
  55   2.0000      -0.599853       -16.3228
  56   2.0000      -0.590132       -16.0583
  57   2.0000      -0.578810       -15.7502
  58   2.0000      -0.564294       -15.3552
  59   2.0000      -0.556397       -15.1403
  60   2.0000      -0.495844       -13.4926
  61   2.0000      -0.484884       -13.1944
  62   2.0000      -0.469867       -12.7857
  63   2.0000      -0.463650       -12.6166
  64   2.0000      -0.451285       -12.2801
  65   2.0000      -0.443160       -12.0590
  66   2.0000      -0.441480       -12.0133
  67   2.0000      -0.432914       -11.7802
  68   2.0000      -0.426717       -11.6116
  69   2.0000      -0.416180       -11.3248
  70   2.0000      -0.410429       -11.1684
  71   2.0000      -0.399064       -10.8591
  72   2.0000      -0.384451       -10.4614
  73   2.0000      -0.383063       -10.4237
  74   2.0000      -0.377994       -10.2857
  75   2.0000      -0.375030       -10.2051
  76   2.0000      -0.366524        -9.9736
  77   2.0000      -0.356054        -9.6887
  78   2.0000      -0.350108        -9.5269
  79   2.0000      -0.349002        -9.4968
  80   2.0000      -0.342416        -9.3176
  81   2.0000      -0.341117        -9.2823
  82   2.0000      -0.337681        -9.1888
  83   2.0000      -0.332973        -9.0607
  84   2.0000      -0.329733        -8.9725
  85   2.0000      -0.319434        -8.6923
  86   2.0000      -0.305772        -8.3205
  87   2.0000      -0.296259        -8.0616
  88   2.0000      -0.294520        -8.0143
  89   2.0000      -0.289458        -7.8766
  90   2.0000      -0.273453        -7.4410
  91   2.0000      -0.268974        -7.3192
  92   2.0000      -0.262938        -7.1549
  93   2.0000      -0.260700        -7.0940
  94   2.0000      -0.255459        -6.9514
  95   2.0000      -0.231136        -6.2895
  96   2.0000      -0.216151        -5.8818
  97   2.0000      -0.213230        -5.8023
  98   2.0000      -0.200766        -5.4631
  99   2.0000      -0.190371        -5.1802
 100   2.0000      -0.185023        -5.0347
 101   0.0000      -0.039869        -1.0849
 102   0.0000      -0.029905        -0.8138
 103   0.0000      -0.008277        -0.2252
 104   0.0000       0.011267         0.3066
 105   0.0000       0.023131         0.6294

MULLIKEN ATOMIC CHARGES
-----------------------
   0 C :   -0.308086
   1 C :   -0.002845
   2 O :   -0.376096
   3 P :    0.612571
   4 S :   -0.321194
   5 O :   -0.352457
   6 C :   -0.001175
   7 C :   -0.301359
   8 S :   -0.092688
   9 C :   -0.357237
  10 S :   -0.106060
  11 P :    0.607553
  12 S :   -0.304138
  13 O :   -0.347929
  14 C :    0.009629
  15 C :   -0.320468
  16 O :   -0.385515
  17 C :    0.001383
  18 C :   -0.323658
  19 H :    0.110191
  20 H :    0.115950
  21 H :    0.120164
  22 H :    0.108629
  23 H :    0.102601
  24 H :    0.122011
  25 H :    0.099126
  26 H :    0.119030
  27 H :    0.108165
  28 H :    0.111465
  29 H :    0.181489
  30 H :    0.211208
  31 H :    0.109234
  32 H :    0.106448
  33 H :    0.120185
  34 H :    0.128710
  35 H :    0.110384
  36 H :    0.104056
  37 H :    0.113283
  38 H :    0.134541
  39 H :    0.117121
  40 H :    0.115777
Sum of atomic charges:    0.0000000

LOEWDIN ATOMIC CHARGES
----------------------
   0 C :   -0.369224
   1 C :   -0.120225
   2 O :   -0.246637
   3 P :    0.571889
   4 S :   -0.312752
   5 O :   -0.231051
   6 C :   -0.118630
   7 C :   -0.365990
   8 S :    0.086842
   9 C :   -0.479994
  10 S :    0.081086
  11 P :    0.567982
  12 S :   -0.296226
  13 O :   -0.230163
  14 C :   -0.106466
  15 C :   -0.371236
  16 O :   -0.248338
  17 C :   -0.116233
  18 C :   -0.372261
  19 H :    0.129346
  20 H :    0.123173
  21 H :    0.119444
  22 H :    0.109035
  23 H :    0.117323
  24 H :    0.109232
  25 H :    0.117161
  26 H :    0.120667
  27 H :    0.128530
  28 H :    0.123656
  29 H :    0.136755
  30 H :    0.126447
  31 H :    0.122495
  32 H :    0.113003
  33 H :    0.116509
  34 H :    0.123618
  35 H :    0.129596
  36 H :    0.118166
  37 H :    0.113713
  38 H :    0.124060
  39 H :    0.122921
  40 H :    0.132777

  Mayer bond orders larger than 0.100000
B(  0-C ,  1-C ) :   1.1675 B(  0-C , 19-H ) :   0.9381 B(  0-C , 20-H ) :   0.9441
B(  0-C , 21-H ) :   0.9371 B(  1-C ,  2-O ) :   0.9138 B(  1-C , 22-H ) :   0.9141
B(  1-C , 23-H ) :   0.9342 B(  2-O ,  3-P ) :   1.0939 B(  3-P ,  4-S ) :   1.5902
B(  3-P ,  5-O ) :   1.1485 B(  3-P ,  8-S ) :   0.9671 B(  4-S ,  8-S ) :   0.1144
B(  5-O ,  6-C ) :   0.9062 B(  6-C ,  7-C ) :   1.1570 B(  6-C , 24-H ) :   0.9135
B(  6-C , 25-H ) :   0.9362 B(  7-C , 26-H ) :   0.9376 B(  7-C , 27-H ) :   0.9394
B(  7-C , 28-H ) :   0.9449 B(  8-S ,  9-C ) :   0.9937 B(  9-C , 10-S ) :   1.0073
B(  9-C , 29-H ) :   0.9117 B(  9-C , 30-H ) :   0.8469 B( 10-S , 11-P ) :   0.9382
B( 10-S , 12-S ) :   0.1057 B( 11-P , 12-S ) :   1.6434 B( 11-P , 13-O ) :   1.1416
B( 11-P , 16-O ) :   1.0757 B( 13-O , 14-C ) :   0.8992 B( 14-C , 15-C ) :   1.1710
B( 14-C , 31-H ) :   0.9337 B( 14-C , 32-H ) :   0.9284 B( 15-C , 33-H ) :   0.9398
B( 15-C , 34-H ) :   0.9380 B( 15-C , 35-H ) :   0.9352 B( 16-O , 17-C ) :   0.9036
B( 17-C , 18-C ) :   1.1677 B( 17-C , 36-H ) :   0.9342 B( 17-C , 37-H ) :   0.9168
B( 18-C , 38-H ) :   0.9328 B( 18-C , 39-H ) :   0.9439 B( 18-C , 40-H ) :   0.9366

Dispersion correction           -0.068852530
FINAL SINGLE POINT ENERGY     -2929.516959519640

DIPOLE MOMENT
-------------

Method             : SCF
Type of density    : Electron Density
Multiplicity       :   1
Irrep              :   0
Energy             : -2929.6343109981726229 Eh
Relativity type    :
Basis              : AO
                                X                 Y                 Z
Electronic contribution:     -1.142298665       0.969289449      -6.338338171
Nuclear contribution   :      0.675806670      -1.648000353       7.374822374
                        -----------------------------------------
Total Dipole Moment    :     -0.466491995      -0.678710904       1.036484202
                        -----------------------------------------
Magnitude (a.u.)       :      1.323843939
Magnitude (Debye)      :      3.364943875

Rotational constants in cm-1:             0.012973             0.005383             0.005110
Rotational constants in MHz :           388.925930           161.387375           153.204505

                             ****ORCA TERMINATED NORMALLY****
TOTAL RUN TIME: 0 days 0 hours 0 minutes 24 seconds 406 msec
