                         Program Version 6.0.0  -   RELEASE  -
|  1> ! pbe def2-sv(p) def2/J RI DEFGRID1 loosescf d4 GCP(DFT/SV(P)) printgap
|  2> %output
|  3>     printlevel normal
|  4> end
|  5> * xyz 0 1
|  6> C 3.2341126114 -1.1400743235 -2.4145345436
|  7> C 3.3326102179 0.3546568142 -2.1992492453
|  8> O 2.2991336618 0.8558523806 -1.3184424309
|  9> P 2.0941721154 0.454572938 0.1885232851
| 10> S 1.0566007271 1.7774764779 1.1903603299
| 11> O 3.6110108622 0.3166453123 0.6689465954
| 12> C 4.0141805941 0.3904369556 2.0464868108
| 13> C 3.4994716928 -0.773536212 2.868785034
| 14> S 1.3320121623 -1.5380833353 0.252643764
| 15> C -0.0448372927 -1.3280882558 1.4187650283
| 16> S -1.6776226487 -1.6888966134 0.7147771449
| 17> P -1.9782910199 0.0292706746 -0.5010348965
| 18> S -0.7040769123 0.3497391842 -1.9507084621
| 19> O -2.1240554307 1.2595616293 0.4646640923
| 20> C -3.0805289851 1.3023926443 1.5582750271
| 21> C -2.5472109659 2.2571172083 2.6054099266
| 22> O -3.4749764419 -0.2031173009 -0.9828441081
| 23> C -3.8040952253 -1.2014999616 -1.9711519276
| 24> C -5.1821778436 -0.8817239412 -2.5132726641
| 25> H 3.4453390456 -1.6718625522 -1.4877133319
| 26> H 2.2334649749 -1.4026964737 -2.7512054038
| 27> H 3.9560577088 -1.4393944885 -3.1678052226
| 28> H 3.1521421833 0.90511374 -3.1240161094
| 29> H 4.3018389437 0.630941748 -1.7785655133
| 30> H 5.1040082347 0.394717096 1.9943442209
| 31> H 3.657456849 1.3396248615 2.4585116617
| 32> H 3.9582647286 -0.7436423651 3.8518320598
| 33> H 2.4194769783 -0.6984696229 2.9824817137
| 34> H 3.741407317 -1.7165506612 2.3855266482
| 35> H -0.028067687 -0.2981730594 1.7884049358
| 36> H 0.0817975915 -2.0486561675 2.2225091693
| 37> H -4.0302671484 1.6449443642 1.1445703527
| 38> H -3.2024663048 0.291197675 1.9573325291
| 39> H -3.2339942919 2.2865162469 3.4448016158
| 40> H -1.5670617669 1.9344728075 2.9478638074
| 41> H -2.4439798966 3.2530336538 2.1843654226
| 42> H -3.0436079933 -1.1743355939 -2.758531402
| 43> H -3.7821496422 -2.1796153127 -1.4836243334
| 44> H -5.9076700478 -0.8828023154 -1.7050804972
| 45> H -5.1798854682 0.0974125576 -2.9841980346
| 46> H -5.4581433239 -1.6319016554 -3.2468529632
| 47> *
| 48>
| 49>                          ****END OF INPUT****

CARTESIAN COORDINATES (ANGSTROEM)
---------------------------------
  C      3.234113   -1.140074   -2.414535
  C      3.332610    0.354657   -2.199249
  O      2.299134    0.855852   -1.318442
  P      2.094172    0.454573    0.188523
  S      1.056601    1.777476    1.190360
  O      3.611011    0.316645    0.668947
  C      4.014181    0.390437    2.046487
  C      3.499472   -0.773536    2.868785
  S      1.332012   -1.538083    0.252644
  C     -0.044837   -1.328088    1.418765
  S     -1.677623   -1.688897    0.714777
  P     -1.978291    0.029271   -0.501035
  S     -0.704077    0.349739   -1.950708
  O     -2.124055    1.259562    0.464664
  C     -3.080529    1.302393    1.558275
  C     -2.547211    2.257117    2.605410
  O     -3.474976   -0.203117   -0.982844
  C     -3.804095   -1.201500   -1.971152
  C     -5.182178   -0.881724   -2.513273
  H      3.445339   -1.671863   -1.487713
  H      2.233465   -1.402696   -2.751205
  H      3.956058   -1.439394   -3.167805
  H      3.152142    0.905114   -3.124016
  H      4.301839    0.630942   -1.778566
  H      5.104008    0.394717    1.994344
  H      3.657457    1.339625    2.458512
  H      3.958265   -0.743642    3.851832
  H      2.419477   -0.698470    2.982482
  H      3.741407   -1.716551    2.385527
  H     -0.028068   -0.298173    1.788405
  H      0.081798   -2.048656    2.222509
  H     -4.030267    1.644944    1.144570
  H     -3.202466    0.291198    1.957333
  H     -3.233994    2.286516    3.444802
  H     -1.567062    1.934473    2.947864
  H     -2.443980    3.253034    2.184365
  H     -3.043608   -1.174336   -2.758531
  H     -3.782150   -2.179615   -1.483624
  H     -5.907670   -0.882802   -1.705080
  H     -5.179885    0.097413   -2.984198
  H     -5.458143   -1.631902   -3.246853

 Total Charge           Charge          ....    0
 Multiplicity           Mult            ....    1
 Number of Electrons    NEL             ....  202
 Basis Dimension        Dim             ....  334

ORBITAL ENERGIES
----------------

  NO   OCC          E(Eh)            E(eV)
   0   2.0000     -88.037972     -2395.6350
   1   2.0000     -88.036062     -2395.5830
   2   2.0000     -87.980842     -2394.0804
   3   2.0000     -87.971927     -2393.8378
   4   2.0000     -76.421646     -2079.5387
   5   2.0000     -76.415911     -2079.3827
   6   2.0000     -18.785237      -511.1723
   7   2.0000     -18.785048      -511.1671
   8   2.0000     -18.783570      -511.1269
   9   2.0000     -18.783199      -511.1168
  10   2.0000      -9.952700      -270.8267
  11   2.0000      -9.951740      -270.8006
  12   2.0000      -9.951019      -270.7810
  13   2.0000      -9.949454      -270.7384
  14   2.0000      -9.949204      -270.7316
  15   2.0000      -9.885897      -269.0089
  16   2.0000      -9.885148      -268.9885
  17   2.0000      -9.884289      -268.9652
  18   2.0000      -9.881152      -268.8798
  19   2.0000      -7.683143      -209.0689
  20   2.0000      -7.680655      -209.0012
  21   2.0000      -7.626040      -207.5151
  22   2.0000      -7.616972      -207.2683
  23   2.0000      -6.418713      -174.6621
  24   2.0000      -6.413626      -174.5236
  25   2.0000      -5.710766      -155.3978
  26   2.0000      -5.708638      -155.3399
  27   2.0000      -5.707541      -155.3101
  28   2.0000      -5.705242      -155.2475
  29   2.0000      -5.700465      -155.1175
  30   2.0000      -5.697523      -155.0375
  31   2.0000      -5.654882      -153.8772
  32   2.0000      -5.646695      -153.6544
  33   2.0000      -5.646132      -153.6391
  34   2.0000      -5.645971      -153.6347
  35   2.0000      -5.637599      -153.4069
  36   2.0000      -5.637032      -153.3914
  37   2.0000      -4.641621      -126.3049
  38   2.0000      -4.640152      -126.2650
  39   2.0000      -4.639252      -126.2405
  40   2.0000      -4.636603      -126.1684
  41   2.0000      -4.635559      -126.1400
  42   2.0000      -4.633507      -126.0841
  43   2.0000      -0.981756       -26.7149
  44   2.0000      -0.981338       -26.7036
  45   2.0000      -0.938109       -25.5273
  46   2.0000      -0.936737       -25.4899
  47   2.0000      -0.756234       -20.5782
  48   2.0000      -0.716273       -19.4908
  49   2.0000      -0.708538       -19.2803
  50   2.0000      -0.687970       -18.7206
  51   2.0000      -0.687161       -18.6986
  52   2.0000      -0.673825       -18.3357
  53   2.0000      -0.644051       -17.5255
  54   2.0000      -0.628411       -17.0999
  55   2.0000      -0.594717       -16.1831
  56   2.0000      -0.577217       -15.7069
  57   2.0000      -0.576138       -15.6775
  58   2.0000      -0.565061       -15.3761
  59   2.0000      -0.559264       -15.2184
  60   2.0000      -0.505540       -13.7565
  61   2.0000      -0.491553       -13.3758
  62   2.0000      -0.477549       -12.9948
  63   2.0000      -0.464879       -12.6500
  64   2.0000      -0.450975       -12.2717
  65   2.0000      -0.445741       -12.1292
  66   2.0000      -0.441157       -12.0045
  67   2.0000      -0.433925       -11.8077
  68   2.0000      -0.424730       -11.5575
  69   2.0000      -0.422864       -11.5067
  70   2.0000      -0.404311       -11.0019
  71   2.0000      -0.396839       -10.7985
  72   2.0000      -0.388253       -10.5649
  73   2.0000      -0.382408       -10.4058
  74   2.0000      -0.372138       -10.1264
  75   2.0000      -0.366981        -9.9861
  76   2.0000      -0.359827        -9.7914
  77   2.0000      -0.353245        -9.6123
  78   2.0000      -0.353019        -9.6061
  79   2.0000      -0.349274        -9.5042
  80   2.0000      -0.345626        -9.4050
  81   2.0000      -0.340584        -9.2678
  82   2.0000      -0.338201        -9.2029
  83   2.0000      -0.335167        -9.1204
  84   2.0000      -0.331677        -9.0254
  85   2.0000      -0.310988        -8.4624
  86   2.0000      -0.306874        -8.3505
  87   2.0000      -0.296164        -8.0590
  88   2.0000      -0.292422        -7.9572
  89   2.0000      -0.291943        -7.9442
  90   2.0000      -0.289262        -7.8712
  91   2.0000      -0.268064        -7.2944
  92   2.0000      -0.265396        -7.2218
  93   2.0000      -0.257287        -7.0011
  94   2.0000      -0.251746        -6.8504
  95   2.0000      -0.234680        -6.3860
  96   2.0000      -0.216529        -5.8921
  97   2.0000      -0.200448        -5.4545
  98   2.0000      -0.197806        -5.3826
  99   2.0000      -0.184127        -5.0104
 100   2.0000      -0.181660        -4.9432
 101   0.0000      -0.034302        -0.9334
 102   0.0000      -0.028966        -0.7882
 103   0.0000      -0.008877        -0.2415
 104   0.0000       0.007610         0.2071
 105   0.0000       0.017403         0.4736

MULLIKEN ATOMIC CHARGES
-----------------------
   0 C :   -0.336593
   1 C :    0.008203
   2 O :   -0.348081
   3 P :    0.620328
   4 S :   -0.302231
   5 O :   -0.389366
   6 C :    0.006363
   7 C :   -0.319667
   8 S :   -0.098744
   9 C :   -0.357233
  10 S :   -0.116515
  11 P :    0.596692
  12 S :   -0.295831
  13 O :   -0.347356
  14 C :   -0.012923
  15 C :   -0.285338
  16 O :   -0.389256
  17 C :   -0.010537
  18 C :   -0.280440
  19 H :    0.125357
  20 H :    0.141270
  21 H :    0.114666
  22 H :    0.112523
  23 H :    0.107971
  24 H :    0.101822
  25 H :    0.109657
  26 H :    0.111329
  27 H :    0.121168
  28 H :    0.118989
  29 H :    0.196592
  30 H :    0.180542
  31 H :    0.107028
  32 H :    0.097706
  33 H :    0.106151
  34 H :    0.129556
  35 H :    0.122872
  36 H :    0.104078
  37 H :    0.102714
  38 H :    0.113275
  39 H :    0.122170
  40 H :    0.111088
Sum of atomic charges:    0.0000000

LOEWDIN ATOMIC CHARGES
----------------------
   0 C :   -0.372062
   1 C :   -0.106774
   2 O :   -0.223943
   3 P :    0.576982
   4 S :   -0.289989
   5 O :   -0.256173
   6 C :   -0.116348
   7 C :   -0.370361
   8 S :    0.078863
   9 C :   -0.488418
  10 S :    0.058250
  11 P :    0.557692
  12 S :   -0.303824
  13 O :   -0.227505
  14 C :   -0.115241
  15 C :   -0.352567
  16 O :   -0.255278
  17 C :   -0.120207
  18 C :   -0.350799
  19 H :    0.115821
  20 H :    0.133397
  21 H :    0.132180
  22 H :    0.124358
  23 H :    0.113173
  24 H :    0.117325
  25 H :    0.110621
  26 H :    0.129901
  27 H :    0.118940
  28 H :    0.124228
  29 H :    0.118434
  30 H :    0.134738
  31 H :    0.115778
  32 H :    0.100668
  33 H :    0.127687
  34 H :    0.126858
  35 H :    0.130928
  36 H :    0.108808
  37 H :    0.108268
  38 H :    0.125338
  39 H :    0.129843
  40 H :    0.130407

  Mayer bond orders larger than 0.100000
B(  0-C ,  1-C ) :   1.1704 B(  0-C , 19-H ) :   0.9321 B(  0-C , 20-H ) :   0.9390
B(  0-C , 21-H ) :   0.9355 B(  1-C ,  2-O ) :   0.9010 B(  1-C , 22-H ) :   0.9323
B(  1-C , 23-H ) :   0.9265 B(  2-O ,  3-P ) :   1.1479 B(  3-P ,  4-S ) :   1.6138
B(  3-P ,  5-O ) :   1.0530 B(  3-P ,  8-S ) :   0.9416 B(  4-S ,  8-S ) :   0.1172
B(  4-S , 29-H ) :   0.1222 B(  5-O ,  6-C ) :   0.9200 B(  6-C ,  7-C ) :   1.1644
B(  6-C , 24-H ) :   0.9348 B(  6-C , 25-H ) :   0.9166 B(  7-C , 26-H ) :   0.9367
B(  7-C , 27-H ) :   0.9374 B(  7-C , 28-H ) :   0.9419 B(  8-S ,  9-C ) :   1.0080
B(  9-C , 10-S ) :   0.9928 B(  9-C , 29-H ) :   0.8406 B(  9-C , 30-H ) :   0.9083
B( 10-S , 11-P ) :   0.9490 B( 10-S , 12-S ) :   0.1130 B( 11-P , 12-S ) :   1.6860
B( 11-P , 13-O ) :   1.1423 B( 11-P , 16-O ) :   1.0713 B( 13-O , 14-C ) :   0.8920
B( 14-C , 15-C ) :   1.1625 B( 14-C , 31-H ) :   0.9317 B( 14-C , 32-H ) :   0.9091
B( 15-C , 33-H ) :   0.9403 B( 15-C , 34-H ) :   0.9457 B( 15-C , 35-H ) :   0.9486
B( 16-O , 17-C ) :   0.9092 B( 17-C , 18-C ) :   1.1605 B( 17-C , 36-H ) :   0.9075
B( 17-C , 37-H ) :   0.9297 B( 18-C , 38-H ) :   0.9511 B( 18-C , 39-H ) :   0.9508
B( 18-C , 40-H ) :   0.9420

Dispersion correction           -0.066402596
FINAL SINGLE POINT ENERGY     -2929.511667547389

DIPOLE MOMENT
-------------

Method             : SCF
Type of density    : Electron Density
Multiplicity       :   1
Irrep              :   0
Energy             : -2929.6298144592619792 Eh
Relativity type    :
Basis              : AO
                                X                 Y                 Z
Electronic contribution:      1.893834645       2.346849211      -4.195823148
Nuclear contribution   :     -1.812271133      -3.285302736       4.829484857
                        -----------------------------------------
Total Dipole Moment    :      0.081563513      -0.938453525       0.633661709
                        -----------------------------------------
Magnitude (a.u.)       :      1.135286213
Magnitude (Debye)      :      2.885668227

Rotational constants in cm-1:             0.012102             0.005393             0.004700
Rotational constants in MHz :           362.808150           161.663569           140.896004

                             ****ORCA TERMINATED NORMALLY****
TOTAL RUN TIME: 0 days 0 hours 0 minutes 20 seconds 959 msec
