                         Program Version 6.0.0  -   RELEASE  -
|  1> ! pbe def2-sv(p) def2/J RI DEFGRID1 loosescf d4 GCP(DFT/SV(P)) printgap
|  2> %output
|  3>     printlevel normal
|  4> end
|  5> * xyz 0 1
|  6> C 2.0186210003 -0.7047903937 -3.1857001174
|  7> C 2.2671985588 0.5709237416 -2.4037228831
|  8> O 3.0787024969 0.3241848553 -1.2398170402
|  9> P 2.4782172499 0.0851393268 0.2040473968
| 10> S 1.1438521247 1.4098810667 0.7963199925
| 11> O 3.869229734 0.1183570921 0.9515199905
| 12> C 3.9774195951 0.3461596566 2.367683238
| 13> C 3.3502084801 -0.7667378318 3.1838928076
| 14> S 1.8826983982 -1.9569686774 0.2637044175
| 15> C 0.1089218268 -1.7834892095 0.5652358549
| 16> S -0.7980732396 -1.0802958484 -0.852615607
| 17> P -2.0721938393 0.3049913679 0.1559952853
| 18> S -2.0615258751 0.229165107 2.1084663596
| 19> O -3.4861302934 -0.0251853034 -0.5022328712
| 20> C -4.1827078934 -1.2474129502 -0.1909995965
| 21> C -5.6141627499 -1.1028885289 -0.6665162429
| 22> O -1.781297157 1.7332336115 -0.430308473
| 23> C -1.7337941601 2.0214513516 -1.8503608025
| 24> C -3.0542767538 2.5863491467 -2.3307653537
| 25> H 1.5358754517 -0.4553880924 -4.1250365469
| 26> H 2.9635382052 -1.2011072418 -3.3870585452
| 27> H 1.375210668 -1.3830143265 -2.6293236793
| 28> H 1.3272237091 1.0397789958 -2.0912966046
| 29> H 2.8468882104 1.2855991104 -2.9911780247
| 30> H 5.0530580029 0.4113538384 2.5374441846
| 31> H 3.506606938 1.3063557716 2.6023581016
| 32> H 3.7326127443 -1.7328262751 2.8640632284
| 33> H 3.5820160436 -0.6157243056 4.2335092952
| 34> H 2.2671026935 -0.7553389612 3.0620710262
| 35> H -0.0761902239 -1.1417266124 1.4304212562
| 36> H -0.2547664382 -2.7925763919 0.7411224912
| 37> H -3.6735142293 -2.0695803658 -0.701989221
| 38> H -4.1332556103 -1.4094869698 0.8909613854
| 39> H -5.6355832571 -0.9291753674 -1.7384231182
| 40> H -6.1574973415 -2.0141090017 -0.4394306532
| 41> H -6.0911349433 -0.2665779339 -0.1631257101
| 42> H -0.9268849773 2.7509508214 -1.9497369842
| 43> H -1.4745894118 1.1052575647 -2.3897628137
| 44> H -2.9638297011 2.8523649553 -3.3792468651
| 45> H -3.8439731126 1.8498517253 -2.2110748137
| 46> H -3.3103853507 3.4716148697 -1.7551975493
| 47> *
| 48>
| 49>                          ****END OF INPUT****

CARTESIAN COORDINATES (ANGSTROEM)
---------------------------------
  C      2.018621   -0.704790   -3.185700
  C      2.267199    0.570924   -2.403723
  O      3.078702    0.324185   -1.239817
  P      2.478217    0.085139    0.204047
  S      1.143852    1.409881    0.796320
  O      3.869230    0.118357    0.951520
  C      3.977420    0.346160    2.367683
  C      3.350208   -0.766738    3.183893
  S      1.882698   -1.956969    0.263704
  C      0.108922   -1.783489    0.565236
  S     -0.798073   -1.080296   -0.852616
  P     -2.072194    0.304991    0.155995
  S     -2.061526    0.229165    2.108466
  O     -3.486130   -0.025185   -0.502233
  C     -4.182708   -1.247413   -0.191000
  C     -5.614163   -1.102889   -0.666516
  O     -1.781297    1.733234   -0.430308
  C     -1.733794    2.021451   -1.850361
  C     -3.054277    2.586349   -2.330765
  H      1.535875   -0.455388   -4.125037
  H      2.963538   -1.201107   -3.387059
  H      1.375211   -1.383014   -2.629324
  H      1.327224    1.039779   -2.091297
  H      2.846888    1.285599   -2.991178
  H      5.053058    0.411354    2.537444
  H      3.506607    1.306356    2.602358
  H      3.732613   -1.732826    2.864063
  H      3.582016   -0.615724    4.233509
  H      2.267103   -0.755339    3.062071
  H     -0.076190   -1.141727    1.430421
  H     -0.254766   -2.792576    0.741122
  H     -3.673514   -2.069580   -0.701989
  H     -4.133256   -1.409487    0.890961
  H     -5.635583   -0.929175   -1.738423
  H     -6.157497   -2.014109   -0.439431
  H     -6.091135   -0.266578   -0.163126
  H     -0.926885    2.750951   -1.949737
  H     -1.474589    1.105258   -2.389763
  H     -2.963830    2.852365   -3.379247
  H     -3.843973    1.849852   -2.211075
  H     -3.310385    3.471615   -1.755198

 Total Charge           Charge          ....    0
 Multiplicity           Mult            ....    1
 Number of Electrons    NEL             ....  202
 Basis Dimension        Dim             ....  334

ORBITAL ENERGIES
----------------

  NO   OCC          E(Eh)            E(eV)
   0   2.0000     -88.045079     -2395.8284
   1   2.0000     -88.042537     -2395.7592
   2   2.0000     -87.984477     -2394.1793
   3   2.0000     -87.983492     -2394.1525
   4   2.0000     -76.425111     -2079.6330
   5   2.0000     -76.423870     -2079.5992
   6   2.0000     -18.792687      -511.3750
   7   2.0000     -18.790650      -511.3196
   8   2.0000     -18.786682      -511.2116
   9   2.0000     -18.784684      -511.1572
  10   2.0000      -9.959464      -271.0108
  11   2.0000      -9.954956      -270.8881
  12   2.0000      -9.951590      -270.7965
  13   2.0000      -9.951313      -270.7890
  14   2.0000      -9.950501      -270.7669
  15   2.0000      -9.889362      -269.1032
  16   2.0000      -9.887629      -269.0561
  17   2.0000      -9.881813      -268.8978
  18   2.0000      -9.881686      -268.8943
  19   2.0000      -7.689991      -209.2553
  20   2.0000      -7.686928      -209.1719
  21   2.0000      -7.628928      -207.5937
  22   2.0000      -7.628722      -207.5881
  23   2.0000      -6.422387      -174.7620
  24   2.0000      -6.421208      -174.7299
  25   2.0000      -5.717925      -155.5927
  26   2.0000      -5.714772      -155.5069
  27   2.0000      -5.714308      -155.4942
  28   2.0000      -5.711461      -155.4168
  29   2.0000      -5.707096      -155.2980
  30   2.0000      -5.704036      -155.2147
  31   2.0000      -5.657899      -153.9593
  32   2.0000      -5.657784      -153.9561
  33   2.0000      -5.649523      -153.7313
  34   2.0000      -5.649259      -153.7241
  35   2.0000      -5.649175      -153.7219
  36   2.0000      -5.648762      -153.7106
  37   2.0000      -4.645137      -126.4006
  38   2.0000      -4.644148      -126.3737
  39   2.0000      -4.643366      -126.3524
  40   2.0000      -4.643274      -126.3499
  41   2.0000      -4.642709      -126.3345
  42   2.0000      -4.641690      -126.3068
  43   2.0000      -0.988356       -26.8945
  44   2.0000      -0.985880       -26.8272
  45   2.0000      -0.944363       -25.6974
  46   2.0000      -0.941363       -25.6158
  47   2.0000      -0.760693       -20.6995
  48   2.0000      -0.721077       -19.6215
  49   2.0000      -0.711622       -19.3642
  50   2.0000      -0.692928       -18.8555
  51   2.0000      -0.681426       -18.5425
  52   2.0000      -0.676375       -18.4051
  53   2.0000      -0.648612       -17.6496
  54   2.0000      -0.634542       -17.2668
  55   2.0000      -0.600236       -16.3333
  56   2.0000      -0.589463       -16.0401
  57   2.0000      -0.570855       -15.5338
  58   2.0000      -0.565363       -15.3843
  59   2.0000      -0.563721       -15.3396
  60   2.0000      -0.509145       -13.8545
  61   2.0000      -0.494813       -13.4645
  62   2.0000      -0.483241       -13.1497
  63   2.0000      -0.466517       -12.6946
  64   2.0000      -0.450066       -12.2469
  65   2.0000      -0.447999       -12.1907
  66   2.0000      -0.443599       -12.0710
  67   2.0000      -0.435612       -11.8536
  68   2.0000      -0.428506       -11.6602
  69   2.0000      -0.419641       -11.4190
  70   2.0000      -0.411638       -11.2012
  71   2.0000      -0.392228       -10.6731
  72   2.0000      -0.391459       -10.6521
  73   2.0000      -0.388747       -10.5784
  74   2.0000      -0.382670       -10.4130
  75   2.0000      -0.370602       -10.0846
  76   2.0000      -0.364931        -9.9303
  77   2.0000      -0.357085        -9.7168
  78   2.0000      -0.355748        -9.6804
  79   2.0000      -0.351951        -9.5771
  80   2.0000      -0.349543        -9.5115
  81   2.0000      -0.345238        -9.3944
  82   2.0000      -0.340712        -9.2713
  83   2.0000      -0.336489        -9.1563
  84   2.0000      -0.335318        -9.1245
  85   2.0000      -0.316547        -8.6137
  86   2.0000      -0.314923        -8.5695
  87   2.0000      -0.299593        -8.1523
  88   2.0000      -0.296242        -8.0612
  89   2.0000      -0.291458        -7.9310
  90   2.0000      -0.286876        -7.8063
  91   2.0000      -0.275201        -7.4886
  92   2.0000      -0.267362        -7.2753
  93   2.0000      -0.260713        -7.0944
  94   2.0000      -0.256758        -6.9867
  95   2.0000      -0.236388        -6.4324
  96   2.0000      -0.220001        -5.9865
  97   2.0000      -0.213376        -5.8062
  98   2.0000      -0.201563        -5.4848
  99   2.0000      -0.197061        -5.3623
 100   2.0000      -0.187377        -5.0988
 101   0.0000      -0.045022        -1.2251
 102   0.0000      -0.035809        -0.9744
 103   0.0000      -0.013966        -0.3800
 104   0.0000       0.004789         0.1303
 105   0.0000       0.012274         0.3340

MULLIKEN ATOMIC CHARGES
-----------------------
   0 C :   -0.299163
   1 C :   -0.019575
   2 O :   -0.354027
   3 P :    0.590288
   4 S :   -0.309669
   5 O :   -0.357203
   6 C :    0.002863
   7 C :   -0.326174
   8 S :   -0.114670
   9 C :   -0.332937
  10 S :   -0.143819
  11 P :    0.615070
  12 S :   -0.294236
  13 O :   -0.384001
  14 C :   -0.007645
  15 C :   -0.282893
  16 O :   -0.347005
  17 C :   -0.037731
  18 C :   -0.276127
  19 H :    0.103474
  20 H :    0.114673
  21 H :    0.129227
  22 H :    0.113378
  23 H :    0.106137
  24 H :    0.106829
  25 H :    0.114194
  26 H :    0.119414
  27 H :    0.113756
  28 H :    0.134157
  29 H :    0.213721
  30 H :    0.176986
  31 H :    0.096789
  32 H :    0.102424
  33 H :    0.115024
  34 H :    0.112047
  35 H :    0.122428
  36 H :    0.123174
  37 H :    0.107395
  38 H :    0.107850
  39 H :    0.123542
  40 H :    0.122036
Sum of atomic charges:   -0.0000000

LOEWDIN ATOMIC CHARGES
----------------------
   0 C :   -0.365036
   1 C :   -0.117628
   2 O :   -0.236673
   3 P :    0.563916
   4 S :   -0.299715
   5 O :   -0.235415
   6 C :   -0.115170
   7 C :   -0.370853
   8 S :    0.080586
   9 C :   -0.478207
  10 S :    0.053582
  11 P :    0.571956
  12 S :   -0.291695
  13 O :   -0.253093
  14 C :   -0.124422
  15 C :   -0.350658
  16 O :   -0.225284
  17 C :   -0.112929
  18 C :   -0.358920
  19 H :    0.127000
  20 H :    0.126707
  21 H :    0.111177
  22 H :    0.103814
  23 H :    0.119233
  24 H :    0.119880
  25 H :    0.113146
  26 H :    0.123976
  27 H :    0.131335
  28 H :    0.122914
  29 H :    0.122418
  30 H :    0.134845
  31 H :    0.104743
  32 H :    0.107458
  33 H :    0.124811
  34 H :    0.130867
  35 H :    0.129436
  36 H :    0.123054
  37 H :    0.102676
  38 H :    0.128967
  39 H :    0.126536
  40 H :    0.130661

  Mayer bond orders larger than 0.100000
B(  0-C ,  1-C ) :   1.1686 B(  0-C , 19-H ) :   0.9400 B(  0-C , 20-H ) :   0.9453
B(  0-C , 21-H ) :   0.9296 B(  1-C ,  2-O ) :   0.9146 B(  1-C , 22-H ) :   0.9019
B(  1-C , 23-H ) :   0.9353 B(  2-O ,  3-P ) :   1.1277 B(  3-P ,  4-S ) :   1.6223
B(  3-P ,  5-O ) :   1.1313 B(  3-P ,  8-S ) :   0.9274 B(  4-S ,  8-S ) :   0.1194
B(  5-O ,  6-C ) :   0.9115 B(  6-C ,  7-C ) :   1.1639 B(  6-C , 24-H ) :   0.9346
B(  6-C , 25-H ) :   0.9191 B(  7-C , 26-H ) :   0.9426 B(  7-C , 27-H ) :   0.9369
B(  7-C , 28-H ) :   0.9350 B(  8-S ,  9-C ) :   1.0132 B(  9-C , 10-S ) :   0.9873
B(  9-C , 29-H ) :   0.8457 B(  9-C , 30-H ) :   0.9081 B( 10-S , 11-P ) :   0.9366
B( 10-S , 12-S ) :   0.1158 B( 11-P , 12-S ) :   1.6476 B( 11-P , 13-O ) :   1.0666
B( 11-P , 16-O ) :   1.1452 B( 12-S , 29-H ) :   0.1000 B( 13-O , 14-C ) :   0.9103
B( 14-C , 15-C ) :   1.1595 B( 14-C , 31-H ) :   0.9227 B( 14-C , 32-H ) :   0.9094
B( 15-C , 33-H ) :   0.9511 B( 15-C , 34-H ) :   0.9422 B( 15-C , 35-H ) :   0.9511
B( 16-O , 17-C ) :   0.8944 B( 17-C , 18-C ) :   1.1603 B( 17-C , 36-H ) :   0.9297
B( 17-C , 37-H ) :   0.9119 B( 18-C , 38-H ) :   0.9394 B( 18-C , 39-H ) :   0.9389
B( 18-C , 40-H ) :   0.9457

Dispersion correction           -0.065796917
FINAL SINGLE POINT ENERGY     -2929.518371197765

DIPOLE MOMENT
-------------

Method             : SCF
Type of density    : Electron Density
Multiplicity       :   1
Irrep              :   0
Energy             : -2929.6364416039327807 Eh
Relativity type    :
Basis              : AO
                                X                 Y                 Z
Electronic contribution:      9.740871702       0.333444510      10.115246246
Nuclear contribution   :    -10.054187189      -0.926884676     -11.280164728
                        -----------------------------------------
Total Dipole Moment    :     -0.313315487      -0.593440166      -1.164918482
                        -----------------------------------------
Magnitude (a.u.)       :      1.344385694
Magnitude (Debye)      :      3.417156868

Rotational constants in cm-1:             0.012295             0.005104             0.004662
Rotational constants in MHz :           368.592513           153.007751           139.770548

                             ****ORCA TERMINATED NORMALLY****
TOTAL RUN TIME: 0 days 0 hours 0 minutes 21 seconds 239 msec
