                         Program Version 6.0.0  -   RELEASE  -
|  1> ! pbe def2-sv(p) def2/J RI DEFGRID1 loosescf d4 GCP(DFT/SV(P)) printgap
|  2> %output
|  3>     printlevel normal
|  4> end
|  5> * xyz 0 1
|  6> C 1.5734998949 -2.6466238755 -2.1219181735
|  7> C 1.9076297383 -2.5792363821 -0.6448706245
|  8> O 2.8569468422 -1.5253465299 -0.3825715201
|  9> P 2.4191263205 -0.0486917721 0.0110274382
| 10> S 1.3172548332 0.9378845572 -1.269384532
| 11> O 3.8004038276 0.6687091413 0.2266853538
| 12> C 4.8254293772 0.1768520539 1.1281491789
| 13> C 5.8473616003 -0.6540348071 0.3801594508
| 14> S 1.6185386744 -0.3022220583 1.9881419511
| 15> C -0.011244691 0.4243810545 1.7663589614
| 16> S -1.0927679455 -0.6474554568 0.765687117
| 17> P -2.4295303302 0.8610239188 0.0750930465
| 18> S -1.7282481571 2.6880116196 0.0427425451
| 19> O -3.6799301543 0.7798801083 1.029244357
| 20> C -4.4423215399 -0.4361393196 1.242652658
| 21> C -5.6647908998 -0.4686377338 0.3489550774
| 22> O -2.9971997392 0.2784965358 -1.2856773015
| 23> C -2.1734108186 -0.003620919 -2.4371484855
| 24> C -2.0418297955 -1.5039479142 -2.6131579984
| 25> H 1.1184399876 -1.7128679765 -2.44404976
| 26> H 2.4769133689 -2.8103001321 -2.7025344627
| 27> H 0.8797080143 -3.4624129008 -2.2962630432
| 28> H 2.4084924359 -3.4882700924 -0.3068915524
| 29> H 1.0071890843 -2.4149746453 -0.0440698578
| 30> H 5.2743096222 1.0804506349 1.5443991343
| 31> H 4.3475695545 -0.3989537506 1.9256103562
| 32> H 6.636468493 -0.9455046106 1.0662316408
| 33> H 5.381713711 -1.5442346909 -0.0328506625
| 34> H 6.2747136188 -0.0730788909 -0.4325722961
| 35> H 0.06733767 1.3904567992 1.2601306862
| 36> H -0.4326775547 0.5342704095 2.7628158113
| 37> H -3.7924952339 -1.2971246631 1.0612539529
| 38> H -4.7217925052 -0.3986095249 2.2969748923
| 39> H -5.3682077611 -0.4826937774 -0.6962015653
| 40> H -6.2435925508 -1.3595205705 0.5717592914
| 41> H -6.2771828683 0.4114694274 0.5249610095
| 42> H -2.6912694102 0.4547127037 -3.2816908654
| 43> H -1.1969981903 0.4753357089 -2.316712095
| 44> H -1.5428196319 -1.9409475445 -1.7513580934
| 45> H -3.0250184025 -1.9531755968 -2.7190108371
| 46> H -1.4568353209 -1.7046286462 -3.5047011884
| 47> *
| 48>
| 49>                          ****END OF INPUT****

CARTESIAN COORDINATES (ANGSTROEM)
---------------------------------
  C      1.573500   -2.646624   -2.121918
  C      1.907630   -2.579236   -0.644871
  O      2.856947   -1.525347   -0.382572
  P      2.419126   -0.048692    0.011027
  S      1.317255    0.937885   -1.269385
  O      3.800404    0.668709    0.226685
  C      4.825429    0.176852    1.128149
  C      5.847362   -0.654035    0.380159
  S      1.618539   -0.302222    1.988142
  C     -0.011245    0.424381    1.766359
  S     -1.092768   -0.647455    0.765687
  P     -2.429530    0.861024    0.075093
  S     -1.728248    2.688012    0.042743
  O     -3.679930    0.779880    1.029244
  C     -4.442322   -0.436139    1.242653
  C     -5.664791   -0.468638    0.348955
  O     -2.997200    0.278497   -1.285677
  C     -2.173411   -0.003621   -2.437148
  C     -2.041830   -1.503948   -2.613158
  H      1.118440   -1.712868   -2.444050
  H      2.476913   -2.810300   -2.702534
  H      0.879708   -3.462413   -2.296263
  H      2.408492   -3.488270   -0.306892
  H      1.007189   -2.414975   -0.044070
  H      5.274310    1.080451    1.544399
  H      4.347570   -0.398954    1.925610
  H      6.636468   -0.945505    1.066232
  H      5.381714   -1.544235   -0.032851
  H      6.274714   -0.073079   -0.432572
  H      0.067338    1.390457    1.260131
  H     -0.432678    0.534270    2.762816
  H     -3.792495   -1.297125    1.061254
  H     -4.721793   -0.398610    2.296975
  H     -5.368208   -0.482694   -0.696202
  H     -6.243593   -1.359521    0.571759
  H     -6.277183    0.411469    0.524961
  H     -2.691269    0.454713   -3.281691
  H     -1.196998    0.475336   -2.316712
  H     -1.542820   -1.940948   -1.751358
  H     -3.025018   -1.953176   -2.719011
  H     -1.456835   -1.704629   -3.504701

 Total Charge           Charge          ....    0
 Multiplicity           Mult            ....    1
 Number of Electrons    NEL             ....  202
 Basis Dimension        Dim             ....  334

ORBITAL ENERGIES
----------------

  NO   OCC          E(Eh)            E(eV)
   0   2.0000     -88.046242     -2395.8601
   1   2.0000     -88.040413     -2395.7014
   2   2.0000     -87.984618     -2394.1832
   3   2.0000     -87.977186     -2393.9809
   4   2.0000     -76.427058     -2079.6860
   5   2.0000     -76.421474     -2079.5340
   6   2.0000     -18.794343      -511.4201
   7   2.0000     -18.793993      -511.4105
   8   2.0000     -18.792574      -511.3719
   9   2.0000     -18.787169      -511.2249
  10   2.0000      -9.961337      -271.0618
  11   2.0000      -9.956870      -270.9402
  12   2.0000      -9.954782      -270.8834
  13   2.0000      -9.951819      -270.8028
  14   2.0000      -9.951588      -270.7965
  15   2.0000      -9.889197      -269.0987
  16   2.0000      -9.888210      -269.0719
  17   2.0000      -9.885232      -268.9908
  18   2.0000      -9.884269      -268.9646
  19   2.0000      -7.691086      -209.2851
  20   2.0000      -7.684792      -209.1138
  21   2.0000      -7.629410      -207.6068
  22   2.0000      -7.622481      -207.4182
  23   2.0000      -6.424563      -174.8213
  24   2.0000      -6.419068      -174.6717
  25   2.0000      -5.718986      -155.6215
  26   2.0000      -5.715456      -155.5255
  27   2.0000      -5.712533      -155.4459
  28   2.0000      -5.709469      -155.3626
  29   2.0000      -5.708256      -155.3296
  30   2.0000      -5.701886      -155.1562
  31   2.0000      -5.658497      -153.9755
  32   2.0000      -5.651599      -153.7878
  33   2.0000      -5.649782      -153.7384
  34   2.0000      -5.649638      -153.7345
  35   2.0000      -5.642927      -153.5519
  36   2.0000      -5.642580      -153.5424
  37   2.0000      -4.647319      -126.4600
  38   2.0000      -4.646401      -126.4350
  39   2.0000      -4.644791      -126.3912
  40   2.0000      -4.641914      -126.3129
  41   2.0000      -4.640945      -126.2865
  42   2.0000      -4.639138      -126.2374
  43   2.0000      -0.991022       -26.9671
  44   2.0000      -0.986301       -26.8386
  45   2.0000      -0.947747       -25.7895
  46   2.0000      -0.942858       -25.6565
  47   2.0000      -0.761206       -20.7135
  48   2.0000      -0.721672       -19.6377
  49   2.0000      -0.713146       -19.4057
  50   2.0000      -0.693543       -18.8723
  51   2.0000      -0.690877       -18.7997
  52   2.0000      -0.674878       -18.3644
  53   2.0000      -0.649588       -17.6762
  54   2.0000      -0.632853       -17.2208
  55   2.0000      -0.592590       -16.1252
  56   2.0000      -0.587443       -15.9851
  57   2.0000      -0.576557       -15.6889
  58   2.0000      -0.571810       -15.5597
  59   2.0000      -0.565494       -15.3879
  60   2.0000      -0.510180       -13.8827
  61   2.0000      -0.499471       -13.5913
  62   2.0000      -0.483293       -13.1511
  63   2.0000      -0.479654       -13.0520
  64   2.0000      -0.452002       -12.2996
  65   2.0000      -0.448993       -12.2177
  66   2.0000      -0.441287       -12.0080
  67   2.0000      -0.439562       -11.9611
  68   2.0000      -0.431854       -11.7513
  69   2.0000      -0.417997       -11.3743
  70   2.0000      -0.408940       -11.1278
  71   2.0000      -0.395380       -10.7588
  72   2.0000      -0.392968       -10.6932
  73   2.0000      -0.387762       -10.5515
  74   2.0000      -0.386418       -10.5150
  75   2.0000      -0.370803       -10.0901
  76   2.0000      -0.362113        -9.8536
  77   2.0000      -0.359597        -9.7851
  78   2.0000      -0.355172        -9.6647
  79   2.0000      -0.354819        -9.6551
  80   2.0000      -0.351106        -9.5541
  81   2.0000      -0.347667        -9.4605
  82   2.0000      -0.344709        -9.3800
  83   2.0000      -0.337858        -9.1936
  84   2.0000      -0.335151        -9.1199
  85   2.0000      -0.320320        -8.7164
  86   2.0000      -0.317399        -8.6369
  87   2.0000      -0.297986        -8.1086
  88   2.0000      -0.295255        -8.0343
  89   2.0000      -0.292273        -7.9532
  90   2.0000      -0.288204        -7.8424
  91   2.0000      -0.279669        -7.6102
  92   2.0000      -0.274765        -7.4767
  93   2.0000      -0.264969        -7.2102
  94   2.0000      -0.258002        -7.0206
  95   2.0000      -0.239819        -6.5258
  96   2.0000      -0.220812        -6.0086
  97   2.0000      -0.208153        -5.6641
  98   2.0000      -0.195567        -5.3216
  99   2.0000      -0.193611        -5.2684
 100   2.0000      -0.186753        -5.0818
 101   0.0000      -0.046956        -1.2777
 102   0.0000      -0.031446        -0.8557
 103   0.0000      -0.014191        -0.3862
 104   0.0000       0.005544         0.1509
 105   0.0000       0.011441         0.3113

MULLIKEN ATOMIC CHARGES
-----------------------
   0 C :   -0.300777
   1 C :   -0.019710
   2 O :   -0.378828
   3 P :    0.594528
   4 S :   -0.288770
   5 O :   -0.351300
   6 C :   -0.018794
   7 C :   -0.289717
   8 S :   -0.131055
   9 C :   -0.324053
  10 S :   -0.143906
  11 P :    0.600120
  12 S :   -0.292329
  13 O :   -0.355316
  14 C :   -0.010660
  15 C :   -0.289536
  16 O :   -0.381403
  17 C :   -0.022253
  18 C :   -0.308733
  19 H :    0.135416
  20 H :    0.113288
  21 H :    0.108029
  22 H :    0.104135
  23 H :    0.114251
  24 H :    0.115972
  25 H :    0.108007
  26 H :    0.110405
  27 H :    0.123448
  28 H :    0.122884
  29 H :    0.212672
  30 H :    0.180606
  31 H :    0.096344
  32 H :    0.108388
  33 H :    0.122578
  34 H :    0.107303
  35 H :    0.120862
  36 H :    0.110132
  37 H :    0.139429
  38 H :    0.128431
  39 H :    0.112717
  40 H :    0.117194
Sum of atomic charges:   -0.0000000

LOEWDIN ATOMIC CHARGES
----------------------
   0 C :   -0.363692
   1 C :   -0.117428
   2 O :   -0.247970
   3 P :    0.563166
   4 S :   -0.280280
   5 O :   -0.232635
   6 C :   -0.111550
   7 C :   -0.359492
   8 S :    0.060031
   9 C :   -0.479141
  10 S :    0.052250
  11 P :    0.563462
  12 S :   -0.292017
  13 O :   -0.238627
  14 C :   -0.115366
  15 C :   -0.359971
  16 O :   -0.243936
  17 C :   -0.116632
  18 C :   -0.359807
  19 H :    0.123904
  20 H :    0.126091
  21 H :    0.127296
  22 H :    0.117292
  23 H :    0.099177
  24 H :    0.124215
  25 H :    0.104829
  26 H :    0.129784
  27 H :    0.126722
  28 H :    0.130640
  29 H :    0.124544
  30 H :    0.135282
  31 H :    0.100556
  32 H :    0.120623
  33 H :    0.125602
  34 H :    0.128149
  35 H :    0.129423
  36 H :    0.121348
  37 H :    0.110676
  38 H :    0.118284
  39 H :    0.123755
  40 H :    0.131443

  Mayer bond orders larger than 0.100000
B(  0-C ,  1-C ) :   1.1699 B(  0-C , 19-H ) :   0.9246 B(  0-C , 20-H ) :   0.9447
B(  0-C , 21-H ) :   0.9373 B(  1-C ,  2-O ) :   0.9023 B(  1-C , 22-H ) :   0.9353
B(  1-C , 23-H ) :   0.9035 B(  2-O ,  3-P ) :   1.0754 B(  3-P ,  4-S ) :   1.6682
B(  3-P ,  5-O ) :   1.1488 B(  3-P ,  8-S ) :   0.9287 B(  4-S ,  8-S ) :   0.1164
B(  5-O ,  6-C ) :   0.8919 B(  6-C ,  7-C ) :   1.1652 B(  6-C , 24-H ) :   0.9355
B(  6-C , 25-H ) :   0.9160 B(  7-C , 26-H ) :   0.9393 B(  7-C , 27-H ) :   0.9409
B(  7-C , 28-H ) :   0.9463 B(  8-S ,  9-C ) :   1.0146 B(  9-C , 10-S ) :   0.9774
B(  9-C , 29-H ) :   0.8476 B(  9-C , 30-H ) :   0.9085 B( 10-S , 11-P ) :   0.9345
B( 10-S , 12-S ) :   0.1173 B( 11-P , 12-S ) :   1.6753 B( 11-P , 13-O ) :   1.1341
B( 11-P , 16-O ) :   1.0912 B( 13-O , 14-C ) :   0.8978 B( 14-C , 15-C ) :   1.1631
B( 14-C , 31-H ) :   0.9118 B( 14-C , 32-H ) :   0.9366 B( 15-C , 33-H ) :   0.9410
B( 15-C , 34-H ) :   0.9400 B( 15-C , 35-H ) :   0.9467 B( 16-O , 17-C ) :   0.8877
B( 17-C , 18-C ) :   1.1673 B( 17-C , 36-H ) :   0.9330 B( 17-C , 37-H ) :   0.9002
B( 18-C , 38-H ) :   0.9355 B( 18-C , 39-H ) :   0.9457 B( 18-C , 40-H ) :   0.9372

Dispersion correction           -0.064731412
FINAL SINGLE POINT ENERGY     -2929.514100636777

DIPOLE MOMENT
-------------

Method             : SCF
Type of density    : Electron Density
Multiplicity       :   1
Irrep              :   0
Energy             : -2929.6343466344064836 Eh
Relativity type    :
Basis              : AO
                                X                 Y                 Z
Electronic contribution:      1.060416925      18.893968180       9.349905252
Nuclear contribution   :     -0.816189621     -21.102907288      -9.053751888
                        -----------------------------------------
Total Dipole Moment    :      0.244227304      -2.208939108       0.296153365
                        -----------------------------------------
Magnitude (a.u.)       :      2.242044998
Magnitude (Debye)      :      5.698825492

Rotational constants in cm-1:             0.014138             0.004553             0.004249
Rotational constants in MHz :           423.857679           136.504273           127.393785

                             ****ORCA TERMINATED NORMALLY****
TOTAL RUN TIME: 0 days 0 hours 0 minutes 21 seconds 72 msec
