                         Program Version 6.0.0  -   RELEASE  -
|  1> ! wb97x-v def2-tzvp def2/J RIJCOSX DEFGRID2 scfconv7 GCP(DFT/TZ) printgap
|  2> %output
|  3>     printlevel normal
|  4> end
|  5> * xyz 0 1
|  6> C -0.6691212505239654 -2.18784996083741 -2.9607271152291953e-06
|  7> C 0.20411904998619765 -0.9710442215039116 -4.540344785634639e-06
|  8> C 1.5995190640823336 -1.0824800321359531 -4.570098329940631e-06
|  9> C 2.42607855341028 0.03650560065047876 -6.784869102073559e-07
| 10> C 1.8693396660305437 1.3119747035382554 7.097148427659445e-07
| 11> C 0.48577991675656507 1.4626844772876768 7.739002283442987e-07
| 12> C -0.3151098941468113 0.3275798533028561 -5.819101959727551e-08
| 13> Cl -2.068033277660876 0.5506220948905067 8.224752772698466e-06
| 14> H -1.3202745035110848 -2.2094524134770115 0.8804955873841477
| 15> H -1.3203890491558499 -2.2093769056917947 -0.8804175090089735
| 16> H -0.05794490132461454 -3.0927235608066668 -7.912981578945581e-05
| 17> H 2.0359428983089747 -2.077153494274204 -7.501417024948861e-06
| 18> H 3.5039073125824314 -0.08905617529446368 4.2278404750658647e-07
| 19> H 2.50270723841898 2.193022372192813 1.6846880069611686e-06
| 20> H 0.03581523888484781 2.449168713733421 1.8062883631738067e-06
| 21> *
| 22>
| 23>                          ****END OF INPUT****

CARTESIAN COORDINATES (ANGSTROEM)
---------------------------------
  C     -0.669121   -2.187850   -0.000003
  C      0.204119   -0.971044   -0.000005
  C      1.599519   -1.082480   -0.000005
  C      2.426079    0.036506   -0.000001
  C      1.869340    1.311975    0.000001
  C      0.485780    1.462684    0.000001
  C     -0.315110    0.327580   -0.000000
  Cl    -2.068033    0.550622    0.000008
  H     -1.320275   -2.209452    0.880496
  H     -1.320389   -2.209377   -0.880418
  H     -0.057945   -3.092724   -0.000079
  H      2.035943   -2.077153   -0.000008
  H      3.503907   -0.089056    0.000000
  H      2.502707    2.193022    0.000002
  H      0.035815    2.449169    0.000002

 Total Charge           Charge          ....    0
 Multiplicity           Mult            ....    1
 Number of Electrons    NEL             ....   66
 Basis Dimension        Dim             ....  296

ORBITAL ENERGIES
----------------

  NO   OCC          E(Eh)            E(eV)
   0   2.0000    -107.141032     -2915.4557
   1   2.0000     -12.114611      -329.6553
   2   2.0000     -12.075329      -328.5864
   3   2.0000     -12.064631      -328.2953
   4   2.0000     -12.061685      -328.2151
   5   2.0000     -12.060833      -328.1919
   6   2.0000     -12.058669      -328.1331
   7   2.0000     -12.049736      -327.8900
   8   2.0000     -11.294177      -307.3302
   9   2.0000      -9.085715      -247.2349
  10   2.0000      -9.083097      -247.1636
  11   2.0000      -9.083062      -247.1627
  12   2.0000      -1.430670       -38.9305
  13   2.0000      -1.377441       -37.4821
  14   2.0000      -1.307498       -35.5788
  15   2.0000      -1.274076       -34.6694
  16   2.0000      -1.202704       -32.7272
  17   2.0000      -1.116769       -30.3888
  18   2.0000      -1.096947       -29.8494
  19   2.0000      -0.975019       -26.5316
  20   2.0000      -0.971541       -26.4370
  21   2.0000      -0.929380       -25.2897
  22   2.0000      -0.895787       -24.3756
  23   2.0000      -0.883976       -24.0542
  24   2.0000      -0.850754       -23.1502
  25   2.0000      -0.842621       -22.9289
  26   2.0000      -0.832457       -22.6523
  27   2.0000      -0.814650       -22.1677
  28   2.0000      -0.812610       -22.1122
  29   2.0000      -0.787371       -21.4254
  30   2.0000      -0.764697       -20.8085
  31   2.0000      -0.651064       -17.7164
  32   2.0000      -0.645401       -17.5623
  33   0.0000      -0.263205        -7.1622
  34   0.0000      -0.258210        -7.0263
  35   0.0000      -0.249037        -6.7766
  36   0.0000      -0.085234        -2.3193
  37   0.0000      -0.041177        -1.1205

MULLIKEN ATOMIC CHARGES
-----------------------
   0 C :   -0.344827
   1 C :    0.094129
   2 C :   -0.181124
   3 C :   -0.113025
   4 C :   -0.125344
   5 C :   -0.173144
   6 C :    0.072539
   7 Cl:   -0.103887
   8 H :    0.132782
   9 H :    0.132783
  10 H :    0.114080
  11 H :    0.118790
  12 H :    0.121311
  13 H :    0.122253
  14 H :    0.132684
Sum of atomic charges:   -0.0000000

LOEWDIN ATOMIC CHARGES
----------------------
   0 C :   -0.257762
   1 C :   -0.172860
   2 C :   -0.110835
   3 C :   -0.138788
   4 C :   -0.138406
   5 C :   -0.142672
   6 C :   -0.370620
   7 Cl:    0.367163
   8 H :    0.130005
   9 H :    0.130004
  10 H :    0.125137
  11 H :    0.145553
  12 H :    0.143355
  13 H :    0.143679
  14 H :    0.147047

  Mayer bond orders larger than 0.100000
B(  0-C ,  1-C ) :   0.9486 B(  0-C ,  8-H ) :   0.9674 B(  0-C ,  9-H ) :   0.9674
B(  0-C , 10-H ) :   0.9887 B(  1-C ,  2-C ) :   1.3913 B(  1-C ,  6-C ) :   1.3113
B(  2-C ,  3-C ) :   1.4447 B(  2-C , 11-H ) :   0.9612 B(  3-C ,  4-C ) :   1.4246
B(  3-C , 12-H ) :   0.9731 B(  4-C ,  5-C ) :   1.4146 B(  4-C , 13-H ) :   0.9709
B(  5-C ,  6-C ) :   1.4132 B(  5-C , 14-H ) :   0.9655 B(  6-C ,  7-Cl) :   1.0604

FINAL SINGLE POINT ENERGY      -731.121315939607

DIPOLE MOMENT
-------------

Method             : SCF
Type of density    : Electron Density
Multiplicity       :   1
Irrep              :   0
Energy             :  -731.1293733378068964 Eh
Relativity type    :
Basis              : AO
                                X                 Y                 Z
Electronic contribution:     -7.255829506       5.285406294       0.000023714
Nuclear contribution   :      7.848749629      -5.512904005      -0.000021620
                        -----------------------------------------
Total Dipole Moment    :      0.592920123      -0.227497710       0.000002093
                        -----------------------------------------
Magnitude (a.u.)       :      0.635066517
Magnitude (Debye)      :      1.614210802

Rotational constants in cm-1:             0.094921             0.050642             0.033227
Rotational constants in MHz :          2845.674673          1518.209501           996.118687

                             ****ORCA TERMINATED NORMALLY****
TOTAL RUN TIME: 0 days 0 hours 2 minutes 20 seconds 51 msec
