                         Program Version 6.0.0  -   RELEASE  -
|  1> ! wb97x-v def2-tzvp def2/J RIJCOSX DEFGRID2 scfconv7 GCP(DFT/TZ) printgap
|  2> %output
|  3>     printlevel normal
|  4> end
|  5> %cpcm
|  6>     smd true
|  7>     smdsolvent "water"
|  8> end
|  9> * xyz 0 1
| 10> C -0.6691212505239654 -2.18784996083741 -2.9607271152291953e-06
| 11> C 0.20411904998619765 -0.9710442215039116 -4.540344785634639e-06
| 12> C 1.5995190640823336 -1.0824800321359531 -4.570098329940631e-06
| 13> C 2.42607855341028 0.03650560065047876 -6.784869102073559e-07
| 14> C 1.8693396660305437 1.3119747035382554 7.097148427659445e-07
| 15> C 0.48577991675656507 1.4626844772876768 7.739002283442987e-07
| 16> C -0.3151098941468113 0.3275798533028561 -5.819101959727551e-08
| 17> Cl -2.068033277660876 0.5506220948905067 8.224752772698466e-06
| 18> H -1.3202745035110848 -2.2094524134770115 0.8804955873841477
| 19> H -1.3203890491558499 -2.2093769056917947 -0.8804175090089735
| 20> H -0.05794490132461454 -3.0927235608066668 -7.912981578945581e-05
| 21> H 2.0359428983089747 -2.077153494274204 -7.501417024948861e-06
| 22> H 3.5039073125824314 -0.08905617529446368 4.2278404750658647e-07
| 23> H 2.50270723841898 2.193022372192813 1.6846880069611686e-06
| 24> H 0.03581523888484781 2.449168713733421 1.8062883631738067e-06
| 25> *
| 26>
| 27>                          ****END OF INPUT****

CARTESIAN COORDINATES (ANGSTROEM)
---------------------------------
  C     -0.669121   -2.187850   -0.000003
  C      0.204119   -0.971044   -0.000005
  C      1.599519   -1.082480   -0.000005
  C      2.426079    0.036506   -0.000001
  C      1.869340    1.311975    0.000001
  C      0.485780    1.462684    0.000001
  C     -0.315110    0.327580   -0.000000
  Cl    -2.068033    0.550622    0.000008
  H     -1.320275   -2.209452    0.880496
  H     -1.320389   -2.209377   -0.880418
  H     -0.057945   -3.092724   -0.000079
  H      2.035943   -2.077153   -0.000008
  H      3.503907   -0.089056    0.000000
  H      2.502707    2.193022    0.000002
  H      0.035815    2.449169    0.000002

 Total Charge           Charge          ....    0
 Multiplicity           Mult            ....    1
 Number of Electrons    NEL             ....   66
 Basis Dimension        Dim             ....  296

ORBITAL ENERGIES
----------------

  NO   OCC          E(Eh)            E(eV)
   0   2.0000    -107.144360     -2915.5462
   1   2.0000     -12.112574      -329.5999
   2   2.0000     -12.071261      -328.4757
   3   2.0000     -12.059756      -328.1626
   4   2.0000     -12.054704      -328.0252
   5   2.0000     -12.053684      -327.9974
   6   2.0000     -12.051656      -327.9422
   7   2.0000     -12.038672      -327.5889
   8   2.0000     -11.297579      -307.4227
   9   2.0000      -9.089101      -247.3270
  10   2.0000      -9.086543      -247.2574
  11   2.0000      -9.086503      -247.2563
  12   2.0000      -1.431237       -38.9459
  13   2.0000      -1.375574       -37.4313
  14   2.0000      -1.301878       -35.4259
  15   2.0000      -1.270330       -34.5674
  16   2.0000      -1.194943       -32.5161
  17   2.0000      -1.111522       -30.2460
  18   2.0000      -1.091286       -29.6954
  19   2.0000      -0.969917       -26.3928
  20   2.0000      -0.966608       -26.3028
  21   2.0000      -0.924046       -25.1446
  22   2.0000      -0.889794       -24.2125
  23   2.0000      -0.876221       -23.8432
  24   2.0000      -0.844469       -22.9792
  25   2.0000      -0.834044       -22.6955
  26   2.0000      -0.825288       -22.4572
  27   2.0000      -0.812151       -22.0998
  28   2.0000      -0.805238       -21.9117
  29   2.0000      -0.789627       -21.4868
  30   2.0000      -0.762633       -20.7523
  31   2.0000      -0.648607       -17.6495
  32   2.0000      -0.641345       -17.4519
  33   0.0000      -0.263955        -7.1826
  34   0.0000      -0.255135        -6.9426
  35   0.0000      -0.244708        -6.6588
  36   0.0000      -0.080626        -2.1940
  37   0.0000      -0.030706        -0.8355

MULLIKEN ATOMIC CHARGES
-----------------------
   0 C :   -0.386997
   1 C :    0.092297
   2 C :   -0.223566
   3 C :   -0.148173
   4 C :   -0.174535
   5 C :   -0.208468
   6 C :    0.074006
   7 Cl:   -0.122703
   8 H :    0.145644
   9 H :    0.145642
  10 H :    0.145302
  11 H :    0.164441
  12 H :    0.164396
  13 H :    0.165197
  14 H :    0.167516
Sum of atomic charges:   -0.0000000

LOEWDIN ATOMIC CHARGES
----------------------
   0 C :   -0.259724
   1 C :   -0.177183
   2 C :   -0.113603
   3 C :   -0.143412
   4 C :   -0.144293
   5 C :   -0.149558
   6 C :   -0.381374
   7 Cl:    0.351472
   8 H :    0.132425
   9 H :    0.132423
  10 H :    0.133316
  11 H :    0.156801
  12 H :    0.153366
  13 H :    0.153877
  14 H :    0.155468

  Mayer bond orders larger than 0.100000
B(  0-C ,  1-C ) :   0.9434 B(  0-C ,  8-H ) :   0.9658 B(  0-C ,  9-H ) :   0.9658
B(  0-C , 10-H ) :   0.9826 B(  1-C ,  2-C ) :   1.3756 B(  1-C ,  6-C ) :   1.2957
B(  2-C ,  3-C ) :   1.4214 B(  2-C , 11-H ) :   0.9658 B(  3-C ,  4-C ) :   1.4009
B(  3-C , 12-H ) :   0.9754 B(  4-C ,  5-C ) :   1.4053 B(  4-C , 13-H ) :   0.9734
B(  5-C ,  6-C ) :   1.3817 B(  5-C , 14-H ) :   0.9717 B(  6-C ,  7-Cl) :   1.0476

FINAL SINGLE POINT ENERGY      -731.122914812828

DIPOLE MOMENT
-------------

Method             : SCF
Type of density    : Electron Density
Multiplicity       :   1
Irrep              :   0
Energy             :  -731.1309722110274834 Eh
Relativity type    :
Basis              : AO
                                X                 Y                 Z
Electronic contribution:     -7.017242047       5.185488705       0.000024938
Nuclear contribution   :      7.848749629      -5.512904005      -0.000021620
                        -----------------------------------------
Total Dipole Moment    :      0.831507582      -0.327415300       0.000003317
                        -----------------------------------------
Magnitude (a.u.)       :      0.893647378
Magnitude (Debye)      :      2.271471119

Rotational constants in cm-1:             0.094921             0.050642             0.033227
Rotational constants in MHz :          2845.674673          1518.209501           996.118687

                             ****ORCA TERMINATED NORMALLY****
TOTAL RUN TIME: 0 days 0 hours 2 minutes 24 seconds 520 msec
