                         Program Version 6.0.0  -   RELEASE  -
|  1> ! r2scan-3c def2/J RI DEFGRID2 scfconv6 printgap
|  2> %output
|  3>     printlevel normal
|  4> end
|  5> * xyz 0 1
|  6> C 3.9262472086 -1.4474415471 -2.5685554194
|  7> C 4.5169348896 -1.3699673214 -1.1759518342
|  8> O 3.5055493155 -1.3013690678 -0.153180682
|  9> P 2.514878601 -0.0663169332 -0.0022560822
| 10> S 3.2849777625 1.7049233216 -0.2976793051
| 11> O 1.9980935143 -0.2464063113 1.4755896977
| 12> C 1.5007041491 -1.5097715185 1.9863117289
| 13> C 0.5304604998 -1.210399234 3.1099422223
| 14> S 0.8634226721 -0.5844247655 -1.2541967512
| 15> C 0.1220983717 1.0624039925 -1.2603549233
| 16> S -0.6166705246 1.5130246692 0.3338804038
| 17> P -2.3582887144 0.3487020559 0.0953815011
| 18> S -3.2118338089 0.366931422 -1.674540337
| 19> O -3.3114764477 0.7695679471 1.2973051193
| 20> C -4.2797332744 1.8265078576 1.1795779421
| 21> C -3.6240604001 3.1841535369 1.0309944988
| 22> O -1.8312502531 -1.0587337424 0.5900007784
| 23> C -2.5421223286 -2.2885967146 0.3099397269
| 24> C -1.5296337432 -3.3997059731 0.1229925083
| 25> H 4.7219495515 -1.6263415369 -3.2845413777
| 26> H 3.1980025838 -2.2523374663 -2.6284835037
| 27> H 3.4342571755 -0.5084508207 -2.8177039762
| 28> H 5.1619298264 -0.4913636578 -1.0803991308
| 29> H 5.0764623967 -2.2719834165 -0.9241899091
| 30> H 1.0153429608 -2.0502942949 1.1685729112
| 31> H 2.3621884746 -2.0810069718 2.3371246812
| 32> H -0.3393361691 -0.6817969265 2.7269831572
| 33> H 0.2111483113 -2.1427221295 3.5648319345
| 34> H 1.0127701157 -0.589729544 3.8596587611
| 35> H -0.6497034587 1.0662113502 -2.0308115425
| 36> H 0.8961548553 1.802307905 -1.466400102
| 37> H -4.9202350316 1.6127286084 0.3179791584
| 38> H -4.8587219335 1.7558279437 2.101245954
| 39> H -3.101800425 3.2434684669 0.0766209004
| 40> H -4.3846087736 3.9576391049 1.063997254
| 41> H -2.9065548419 3.3478490409 1.8313762491
| 42> H -3.2040304409 -2.4842586216 1.156072663
| 43> H -3.143328868 -2.1456603322 -0.5945052629
| 44> H -0.8523635652 -3.1525672884 -0.6911558919
| 45> H -0.9565895906 -3.5427621516 1.0344441282
| 46> H -2.0551659162 -4.318348231 -0.1170803853
| 47> *
| 48>
| 49>                          ****END OF INPUT****

CARTESIAN COORDINATES (ANGSTROEM)
---------------------------------
  C      3.926247   -1.447442   -2.568555
  C      4.516935   -1.369967   -1.175952
  O      3.505549   -1.301369   -0.153181
  P      2.514879   -0.066317   -0.002256
  S      3.284978    1.704923   -0.297679
  O      1.998094   -0.246406    1.475590
  C      1.500704   -1.509772    1.986312
  C      0.530460   -1.210399    3.109942
  S      0.863423   -0.584425   -1.254197
  C      0.122098    1.062404   -1.260355
  S     -0.616671    1.513025    0.333880
  P     -2.358289    0.348702    0.095382
  S     -3.211834    0.366931   -1.674540
  O     -3.311476    0.769568    1.297305
  C     -4.279733    1.826508    1.179578
  C     -3.624060    3.184154    1.030994
  O     -1.831250   -1.058734    0.590001
  C     -2.542122   -2.288597    0.309940
  C     -1.529634   -3.399706    0.122993
  H      4.721950   -1.626342   -3.284541
  H      3.198003   -2.252337   -2.628484
  H      3.434257   -0.508451   -2.817704
  H      5.161930   -0.491364   -1.080399
  H      5.076462   -2.271983   -0.924190
  H      1.015343   -2.050294    1.168573
  H      2.362188   -2.081007    2.337125
  H     -0.339336   -0.681797    2.726983
  H      0.211148   -2.142722    3.564832
  H      1.012770   -0.589730    3.859659
  H     -0.649703    1.066211   -2.030812
  H      0.896155    1.802308   -1.466400
  H     -4.920235    1.612729    0.317979
  H     -4.858722    1.755828    2.101246
  H     -3.101800    3.243468    0.076621
  H     -4.384609    3.957639    1.063997
  H     -2.906555    3.347849    1.831376
  H     -3.204030   -2.484259    1.156073
  H     -3.143329   -2.145660   -0.594505
  H     -0.852364   -3.152567   -0.691156
  H     -0.956590   -3.542762    1.034444
  H     -2.055166   -4.318348   -0.117080

 Total Charge           Charge          ....    0
 Multiplicity           Mult            ....    1
 Number of Electrons    NEL             ....  202
 Basis Dimension        Dim             ....  539

ORBITAL ENERGIES
----------------

  NO   OCC          E(Eh)            E(eV)
   0   2.0000     -88.576425     -2410.2871
   1   2.0000     -88.573287     -2410.2017
   2   2.0000     -88.523166     -2408.8378
   3   2.0000     -88.520784     -2408.7730
   4   2.0000     -76.915961     -2092.9897
   5   2.0000     -76.913362     -2092.9190
   6   2.0000     -18.996017      -516.9079
   7   2.0000     -18.995186      -516.8853
   8   2.0000     -18.993371      -516.8359
   9   2.0000     -18.988252      -516.6966
  10   2.0000     -10.102661      -274.9074
  11   2.0000     -10.101284      -274.8699
  12   2.0000     -10.100952      -274.8609
  13   2.0000     -10.100244      -274.8416
  14   2.0000     -10.098940      -274.8061
  15   2.0000     -10.035876      -273.0901
  16   2.0000     -10.029919      -272.9280
  17   2.0000     -10.029519      -272.9171
  18   2.0000     -10.027449      -272.8608
  19   2.0000      -7.870662      -214.1716
  20   2.0000      -7.867751      -214.0924
  21   2.0000      -7.817975      -212.7379
  22   2.0000      -7.815546      -212.6718
  23   2.0000      -6.594681      -179.4504
  24   2.0000      -6.591918      -179.3752
  25   2.0000      -5.817583      -158.3045
  26   2.0000      -5.814571      -158.2225
  27   2.0000      -5.814542      -158.2217
  28   2.0000      -5.811633      -158.1426
  29   2.0000      -5.807687      -158.0352
  30   2.0000      -5.804901      -157.9594
  31   2.0000      -5.765466      -156.8863
  32   2.0000      -5.763231      -156.8255
  33   2.0000      -5.758264      -156.6903
  34   2.0000      -5.758107      -156.6861
  35   2.0000      -5.755776      -156.6226
  36   2.0000      -5.755565      -156.6169
  37   2.0000      -4.740205      -128.9875
  38   2.0000      -4.739526      -128.9691
  39   2.0000      -4.738411      -128.9387
  40   2.0000      -4.737788      -128.9218
  41   2.0000      -4.736754      -128.8936
  42   2.0000      -4.735414      -128.8572
  43   2.0000      -1.052860       -28.6498
  44   2.0000      -1.051280       -28.6068
  45   2.0000      -1.013792       -27.5867
  46   2.0000      -1.009536       -27.4709
  47   2.0000      -0.802620       -21.8404
  48   2.0000      -0.761083       -20.7101
  49   2.0000      -0.751942       -20.4614
  50   2.0000      -0.734001       -19.9732
  51   2.0000      -0.733683       -19.9645
  52   2.0000      -0.713352       -19.4113
  53   2.0000      -0.685825       -18.6623
  54   2.0000      -0.669335       -18.2135
  55   2.0000      -0.634059       -17.2536
  56   2.0000      -0.622970       -16.9519
  57   2.0000      -0.608525       -16.5588
  58   2.0000      -0.603374       -16.4186
  59   2.0000      -0.588128       -16.0038
  60   2.0000      -0.533509       -14.5175
  61   2.0000      -0.526862       -14.3366
  62   2.0000      -0.496043       -13.4980
  63   2.0000      -0.494035       -13.4434
  64   2.0000      -0.478952       -13.0329
  65   2.0000      -0.463541       -12.6136
  66   2.0000      -0.459193       -12.4953
  67   2.0000      -0.455732       -12.4011
  68   2.0000      -0.449544       -12.2327
  69   2.0000      -0.440328       -11.9819
  70   2.0000      -0.428521       -11.6607
  71   2.0000      -0.414404       -11.2765
  72   2.0000      -0.408192       -11.1075
  73   2.0000      -0.403553       -10.9812
  74   2.0000      -0.395011       -10.7488
  75   2.0000      -0.389533       -10.5997
  76   2.0000      -0.381314       -10.3761
  77   2.0000      -0.376209       -10.2372
  78   2.0000      -0.372697       -10.1416
  79   2.0000      -0.369341       -10.0503
  80   2.0000      -0.365902        -9.9567
  81   2.0000      -0.358520        -9.7558
  82   2.0000      -0.356337        -9.6964
  83   2.0000      -0.354156        -9.6371
  84   2.0000      -0.352097        -9.5811
  85   2.0000      -0.333186        -9.0664
  86   2.0000      -0.324913        -8.8413
  87   2.0000      -0.317104        -8.6288
  88   2.0000      -0.312819        -8.5122
  89   2.0000      -0.310899        -8.4600
  90   2.0000      -0.305738        -8.3195
  91   2.0000      -0.293864        -7.9964
  92   2.0000      -0.283645        -7.7184
  93   2.0000      -0.280558        -7.6344
  94   2.0000      -0.273385        -7.4392
  95   2.0000      -0.247385        -6.7317
  96   2.0000      -0.232542        -6.3278
  97   2.0000      -0.226861        -6.1732
  98   2.0000      -0.219275        -5.9668
  99   2.0000      -0.217258        -5.9119
 100   2.0000      -0.213811        -5.8181
 101   0.0000      -0.046246        -1.2584
 102   0.0000      -0.026371        -0.7176
 103   0.0000      -0.005065        -0.1378
 104   0.0000      -0.001002        -0.0273
 105   0.0000       0.014747         0.4013

MULLIKEN ATOMIC CHARGES
-----------------------
   0 C :   -0.445785
   1 C :   -0.164840
   2 O :   -0.289401
   3 P :    0.645392
   4 S :   -0.443734
   5 O :   -0.264047
   6 C :   -0.098677
   7 C :   -0.465830
   8 S :   -0.158366
   9 C :   -0.248988
  10 S :   -0.092681
  11 P :    0.680535
  12 S :   -0.495849
  13 O :   -0.316106
  14 C :   -0.146915
  15 C :   -0.457554
  16 O :   -0.259989
  17 C :   -0.115496
  18 C :   -0.482274
  19 H :    0.148269
  20 H :    0.152798
  21 H :    0.180656
  22 H :    0.174108
  23 H :    0.148076
  24 H :    0.155110
  25 H :    0.153954
  26 H :    0.178390
  27 H :    0.140704
  28 H :    0.155193
  29 H :    0.213979
  30 H :    0.221170
  31 H :    0.171823
  32 H :    0.147917
  33 H :    0.179156
  34 H :    0.148585
  35 H :    0.157752
  36 H :    0.149945
  37 H :    0.171065
  38 H :    0.172896
  39 H :    0.150633
  40 H :    0.148424
Sum of atomic charges:    0.0000000

LOEWDIN ATOMIC CHARGES
----------------------
   0 C :   -0.408661
   1 C :    0.022997
   2 O :   -0.665398
   3 P :    0.378170
   4 S :   -0.103277
   5 O :   -0.653503
   6 C :    0.022920
   7 C :   -0.391717
   8 S :    0.139890
   9 C :   -0.424111
  10 S :    0.188811
  11 P :    0.372357
  12 S :   -0.142818
  13 O :   -0.658416
  14 C :    0.020335
  15 C :   -0.406260
  16 O :   -0.679946
  17 C :    0.023438
  18 C :   -0.394601
  19 H :    0.159653
  20 H :    0.159578
  21 H :    0.166942
  22 H :    0.180323
  23 H :    0.179551
  24 H :    0.177011
  25 H :    0.173790
  26 H :    0.171261
  27 H :    0.158200
  28 H :    0.162461
  29 H :    0.193536
  30 H :    0.193816
  31 H :    0.179835
  32 H :    0.179575
  33 H :    0.166466
  34 H :    0.160002
  35 H :    0.160817
  36 H :    0.172096
  37 H :    0.183518
  38 H :    0.165424
  39 H :    0.155859
  40 H :    0.160076

  Mayer bond orders larger than 0.100000
B(  0-C ,  1-C ) :   0.9177 B(  0-C , 19-H ) :   0.9562 B(  0-C , 20-H ) :   0.9677
B(  0-C , 21-H ) :   0.9628 B(  1-C ,  2-O ) :   0.8195 B(  1-C , 22-H ) :   0.9693
B(  1-C , 23-H ) :   0.9613 B(  2-O ,  3-P ) :   1.0348 B(  3-P ,  4-S ) :   1.8386
B(  3-P ,  5-O ) :   1.1591 B(  3-P ,  8-S ) :   1.0030 B(  5-O ,  6-C ) :   0.7383
B(  6-C ,  7-C ) :   0.9439 B(  6-C , 24-H ) :   0.9484 B(  6-C , 25-H ) :   0.9484
B(  7-C , 26-H ) :   0.9622 B(  7-C , 27-H ) :   0.9675 B(  7-C , 28-H ) :   0.9697
B(  8-S ,  9-C ) :   0.9141 B(  9-C , 10-S ) :   0.9078 B(  9-C , 29-H ) :   0.9014
B(  9-C , 30-H ) :   0.9039 B( 10-S , 11-P ) :   1.1127 B( 11-P , 12-S ) :   1.7427
B( 11-P , 13-O ) :   1.0654 B( 11-P , 16-O ) :   1.1390 B( 13-O , 14-C ) :   0.8154
B( 14-C , 15-C ) :   0.9221 B( 14-C , 31-H ) :   0.9663 B( 14-C , 32-H ) :   0.9583
B( 15-C , 33-H ) :   0.9608 B( 15-C , 34-H ) :   0.9581 B( 15-C , 35-H ) :   0.9687
B( 16-O , 17-C ) :   0.7640 B( 17-C , 18-C ) :   0.9470 B( 17-C , 36-H ) :   0.9482
B( 17-C , 37-H ) :   0.9505 B( 18-C , 38-H ) :   0.9694 B( 18-C , 39-H ) :   0.9738
B( 18-C , 40-H ) :   0.9626

Dispersion correction           -0.021741076
FINAL SINGLE POINT ENERGY     -2932.464618499750

DIPOLE MOMENT
-------------

Method             : SCF
Type of density    : Electron Density
Multiplicity       :   1
Irrep              :   0
Energy             : -2932.4894823547829219 Eh
Relativity type    :
Basis              : AO
                                X                 Y                 Z
Electronic contribution:      3.736169476      11.662046568      -4.743741548
Nuclear contribution   :     -4.161298793     -13.081969773       5.305233278
                        -----------------------------------------
Total Dipole Moment    :     -0.425129317      -1.419923205       0.561491730
                        -----------------------------------------
Magnitude (a.u.)       :      1.584988898
Magnitude (Debye)      :      4.028721611

Rotational constants in cm-1:             0.012458             0.004941             0.004676
Rotational constants in MHz :           373.486220           148.117679           140.196370

                             ****ORCA TERMINATED NORMALLY****
TOTAL RUN TIME: 0 days 0 hours 1 minutes 24 seconds 471 msec
