                         Program Version 6.0.0  -   RELEASE  -
|  1> ! r2scan-3c def2/J RI DEFGRID2 scfconv6 printgap
|  2> %output
|  3>     printlevel normal
|  4> end
|  5> %cpcm
|  6>     smd true
|  7>     smdsolvent "water"
|  8> end
|  9> * xyz 0 1
| 10> C 3.9262472086 -1.4474415471 -2.5685554194
| 11> C 4.5169348896 -1.3699673214 -1.1759518342
| 12> O 3.5055493155 -1.3013690678 -0.153180682
| 13> P 2.514878601 -0.0663169332 -0.0022560822
| 14> S 3.2849777625 1.7049233216 -0.2976793051
| 15> O 1.9980935143 -0.2464063113 1.4755896977
| 16> C 1.5007041491 -1.5097715185 1.9863117289
| 17> C 0.5304604998 -1.210399234 3.1099422223
| 18> S 0.8634226721 -0.5844247655 -1.2541967512
| 19> C 0.1220983717 1.0624039925 -1.2603549233
| 20> S -0.6166705246 1.5130246692 0.3338804038
| 21> P -2.3582887144 0.3487020559 0.0953815011
| 22> S -3.2118338089 0.366931422 -1.674540337
| 23> O -3.3114764477 0.7695679471 1.2973051193
| 24> C -4.2797332744 1.8265078576 1.1795779421
| 25> C -3.6240604001 3.1841535369 1.0309944988
| 26> O -1.8312502531 -1.0587337424 0.5900007784
| 27> C -2.5421223286 -2.2885967146 0.3099397269
| 28> C -1.5296337432 -3.3997059731 0.1229925083
| 29> H 4.7219495515 -1.6263415369 -3.2845413777
| 30> H 3.1980025838 -2.2523374663 -2.6284835037
| 31> H 3.4342571755 -0.5084508207 -2.8177039762
| 32> H 5.1619298264 -0.4913636578 -1.0803991308
| 33> H 5.0764623967 -2.2719834165 -0.9241899091
| 34> H 1.0153429608 -2.0502942949 1.1685729112
| 35> H 2.3621884746 -2.0810069718 2.3371246812
| 36> H -0.3393361691 -0.6817969265 2.7269831572
| 37> H 0.2111483113 -2.1427221295 3.5648319345
| 38> H 1.0127701157 -0.589729544 3.8596587611
| 39> H -0.6497034587 1.0662113502 -2.0308115425
| 40> H 0.8961548553 1.802307905 -1.466400102
| 41> H -4.9202350316 1.6127286084 0.3179791584
| 42> H -4.8587219335 1.7558279437 2.101245954
| 43> H -3.101800425 3.2434684669 0.0766209004
| 44> H -4.3846087736 3.9576391049 1.063997254
| 45> H -2.9065548419 3.3478490409 1.8313762491
| 46> H -3.2040304409 -2.4842586216 1.156072663
| 47> H -3.143328868 -2.1456603322 -0.5945052629
| 48> H -0.8523635652 -3.1525672884 -0.6911558919
| 49> H -0.9565895906 -3.5427621516 1.0344441282
| 50> H -2.0551659162 -4.318348231 -0.1170803853
| 51> *
| 52>
| 53>                          ****END OF INPUT****

CARTESIAN COORDINATES (ANGSTROEM)
---------------------------------
  C      3.926247   -1.447442   -2.568555
  C      4.516935   -1.369967   -1.175952
  O      3.505549   -1.301369   -0.153181
  P      2.514879   -0.066317   -0.002256
  S      3.284978    1.704923   -0.297679
  O      1.998094   -0.246406    1.475590
  C      1.500704   -1.509772    1.986312
  C      0.530460   -1.210399    3.109942
  S      0.863423   -0.584425   -1.254197
  C      0.122098    1.062404   -1.260355
  S     -0.616671    1.513025    0.333880
  P     -2.358289    0.348702    0.095382
  S     -3.211834    0.366931   -1.674540
  O     -3.311476    0.769568    1.297305
  C     -4.279733    1.826508    1.179578
  C     -3.624060    3.184154    1.030994
  O     -1.831250   -1.058734    0.590001
  C     -2.542122   -2.288597    0.309940
  C     -1.529634   -3.399706    0.122993
  H      4.721950   -1.626342   -3.284541
  H      3.198003   -2.252337   -2.628484
  H      3.434257   -0.508451   -2.817704
  H      5.161930   -0.491364   -1.080399
  H      5.076462   -2.271983   -0.924190
  H      1.015343   -2.050294    1.168573
  H      2.362188   -2.081007    2.337125
  H     -0.339336   -0.681797    2.726983
  H      0.211148   -2.142722    3.564832
  H      1.012770   -0.589730    3.859659
  H     -0.649703    1.066211   -2.030812
  H      0.896155    1.802308   -1.466400
  H     -4.920235    1.612729    0.317979
  H     -4.858722    1.755828    2.101246
  H     -3.101800    3.243468    0.076621
  H     -4.384609    3.957639    1.063997
  H     -2.906555    3.347849    1.831376
  H     -3.204030   -2.484259    1.156073
  H     -3.143329   -2.145660   -0.594505
  H     -0.852364   -3.152567   -0.691156
  H     -0.956590   -3.542762    1.034444
  H     -2.055166   -4.318348   -0.117080

 Total Charge           Charge          ....    0
 Multiplicity           Mult            ....    1
 Number of Electrons    NEL             ....  202
 Basis Dimension        Dim             ....  539

ORBITAL ENERGIES
----------------

  NO   OCC          E(Eh)            E(eV)
   0   2.0000     -88.580425     -2410.3959
   1   2.0000     -88.576541     -2410.2902
   2   2.0000     -88.531566     -2409.0664
   3   2.0000     -88.528760     -2408.9900
   4   2.0000     -76.920190     -2093.1048
   5   2.0000     -76.919358     -2093.0821
   6   2.0000     -18.996956      -516.9335
   7   2.0000     -18.996785      -516.9288
   8   2.0000     -18.993819      -516.8481
   9   2.0000     -18.992384      -516.8090
  10   2.0000     -10.103606      -274.9331
  11   2.0000     -10.091424      -274.6016
  12   2.0000     -10.091121      -274.5934
  13   2.0000     -10.089869      -274.5593
  14   2.0000     -10.088517      -274.5225
  15   2.0000     -10.019015      -272.6313
  16   2.0000     -10.018776      -272.6248
  17   2.0000     -10.018635      -272.6209
  18   2.0000     -10.018380      -272.6140
  19   2.0000      -7.874766      -214.2833
  20   2.0000      -7.870949      -214.1794
  21   2.0000      -7.826684      -212.9749
  22   2.0000      -7.823855      -212.8979
  23   2.0000      -6.598791      -179.5622
  24   2.0000      -6.598071      -179.5426
  25   2.0000      -5.821653      -158.4152
  26   2.0000      -5.818661      -158.3338
  27   2.0000      -5.817773      -158.3097
  28   2.0000      -5.814849      -158.2301
  29   2.0000      -5.811837      -158.1481
  30   2.0000      -5.808050      -158.0451
  31   2.0000      -5.774252      -157.1254
  32   2.0000      -5.771292      -157.0448
  33   2.0000      -5.766884      -156.9249
  34   2.0000      -5.766781      -156.9221
  35   2.0000      -5.764147      -156.8504
  36   2.0000      -5.763984      -156.8460
  37   2.0000      -4.744611      -129.1074
  38   2.0000      -4.743583      -129.0795
  39   2.0000      -4.743522      -129.0778
  40   2.0000      -4.742919      -129.0614
  41   2.0000      -4.742413      -129.0476
  42   2.0000      -4.741910      -129.0339
  43   2.0000      -1.054556       -28.6959
  44   2.0000      -1.052457       -28.6388
  45   2.0000      -1.012629       -27.5550
  46   2.0000      -1.012356       -27.5476
  47   2.0000      -0.805122       -21.9085
  48   2.0000      -0.757417       -20.6104
  49   2.0000      -0.745840       -20.2953
  50   2.0000      -0.725567       -19.7437
  51   2.0000      -0.723236       -19.6803
  52   2.0000      -0.711779       -19.3685
  53   2.0000      -0.689582       -18.7645
  54   2.0000      -0.675258       -18.3747
  55   2.0000      -0.631385       -17.1809
  56   2.0000      -0.618168       -16.8212
  57   2.0000      -0.599481       -16.3127
  58   2.0000      -0.598956       -16.2984
  59   2.0000      -0.585743       -15.9389
  60   2.0000      -0.528921       -14.3927
  61   2.0000      -0.522375       -14.2146
  62   2.0000      -0.491480       -13.3738
  63   2.0000      -0.490012       -13.3339
  64   2.0000      -0.480408       -13.0726
  65   2.0000      -0.457543       -12.4504
  66   2.0000      -0.454748       -12.3743
  67   2.0000      -0.451460       -12.2849
  68   2.0000      -0.441945       -12.0259
  69   2.0000      -0.435943       -11.8626
  70   2.0000      -0.425287       -11.5726
  71   2.0000      -0.409569       -11.1450
  72   2.0000      -0.407274       -11.0825
  73   2.0000      -0.398634       -10.8474
  74   2.0000      -0.392543       -10.6816
  75   2.0000      -0.388774       -10.5791
  76   2.0000      -0.379553       -10.3282
  77   2.0000      -0.369901       -10.0655
  78   2.0000      -0.364650        -9.9226
  79   2.0000      -0.358486        -9.7549
  80   2.0000      -0.356061        -9.6889
  81   2.0000      -0.352109        -9.5814
  82   2.0000      -0.349078        -9.4989
  83   2.0000      -0.347503        -9.4560
  84   2.0000      -0.345885        -9.4120
  85   2.0000      -0.329062        -8.9542
  86   2.0000      -0.321270        -8.7422
  87   2.0000      -0.316118        -8.6020
  88   2.0000      -0.306543        -8.3415
  89   2.0000      -0.306250        -8.3335
  90   2.0000      -0.303690        -8.2638
  91   2.0000      -0.288902        -7.8614
  92   2.0000      -0.281841        -7.6693
  93   2.0000      -0.279760        -7.6126
  94   2.0000      -0.275299        -7.4913
  95   2.0000      -0.251223        -6.8361
  96   2.0000      -0.239725        -6.5233
  97   2.0000      -0.235547        -6.4096
  98   2.0000      -0.227920        -6.2020
  99   2.0000      -0.225530        -6.1370
 100   2.0000      -0.220220        -5.9925
 101   0.0000      -0.051585        -1.4037
 102   0.0000      -0.032540        -0.8855
 103   0.0000      -0.007943        -0.2161
 104   0.0000      -0.005835        -0.1588
 105   0.0000       0.014790         0.4024

MULLIKEN ATOMIC CHARGES
-----------------------
   0 C :   -0.483095
   1 C :   -0.157947
   2 O :   -0.308463
   3 P :    0.658341
   4 S :   -0.498541
   5 O :   -0.293733
   6 C :   -0.102029
   7 C :   -0.504459
   8 S :   -0.151177
   9 C :   -0.256644
  10 S :   -0.116886
  11 P :    0.717356
  12 S :   -0.540251
  13 O :   -0.340911
  14 C :   -0.146153
  15 C :   -0.493529
  16 O :   -0.280491
  17 C :   -0.114676
  18 C :   -0.509783
  19 H :    0.173032
  20 H :    0.168741
  21 H :    0.174228
  22 H :    0.179584
  23 H :    0.175992
  24 H :    0.173044
  25 H :    0.176846
  26 H :    0.171172
  27 H :    0.172053
  28 H :    0.166882
  29 H :    0.231085
  30 H :    0.235890
  31 H :    0.177685
  32 H :    0.175272
  33 H :    0.173280
  34 H :    0.173350
  35 H :    0.170902
  36 H :    0.173271
  37 H :    0.169825
  38 H :    0.170517
  39 H :    0.171020
  40 H :    0.169400
Sum of atomic charges:    0.0000000

LOEWDIN ATOMIC CHARGES
----------------------
   0 C :   -0.411145
   1 C :    0.028900
   2 O :   -0.671249
   3 P :    0.380261
   4 S :   -0.144661
   5 O :   -0.676587
   6 C :    0.028775
   7 C :   -0.395539
   8 S :    0.148202
   9 C :   -0.420320
  10 S :    0.173943
  11 P :    0.378454
  12 S :   -0.171115
  13 O :   -0.668484
  14 C :    0.025611
  15 C :   -0.409825
  16 O :   -0.687627
  17 C :    0.028889
  18 C :   -0.396254
  19 H :    0.168738
  20 H :    0.163726
  21 H :    0.161972
  22 H :    0.181761
  23 H :    0.191621
  24 H :    0.183491
  25 H :    0.183924
  26 H :    0.166463
  27 H :    0.170508
  28 H :    0.164648
  29 H :    0.198403
  30 H :    0.197803
  31 H :    0.181639
  32 H :    0.191114
  33 H :    0.161734
  34 H :    0.168917
  35 H :    0.163816
  36 H :    0.181748
  37 H :    0.183157
  38 H :    0.163714
  39 H :    0.162996
  40 H :    0.167878

  Mayer bond orders larger than 0.100000
B(  0-C ,  1-C ) :   0.9057 B(  0-C , 19-H ) :   0.9510 B(  0-C , 20-H ) :   0.9646
B(  0-C , 21-H ) :   0.9646 B(  1-C ,  2-O ) :   0.8068 B(  1-C , 22-H ) :   0.9677
B(  1-C , 23-H ) :   0.9504 B(  2-O ,  3-P ) :   1.0474 B(  3-P ,  4-S ) :   1.8150
B(  3-P ,  5-O ) :   1.1639 B(  3-P ,  8-S ) :   1.0155 B(  5-O ,  6-C ) :   0.7253
B(  6-C ,  7-C ) :   0.9327 B(  6-C , 24-H ) :   0.9428 B(  6-C , 25-H ) :   0.9378
B(  7-C , 26-H ) :   0.9640 B(  7-C , 27-H ) :   0.9602 B(  7-C , 28-H ) :   0.9688
B(  8-S ,  9-C ) :   0.9046 B(  9-C , 10-S ) :   0.8952 B(  9-C , 29-H ) :   0.8989
B(  9-C , 30-H ) :   0.9002 B( 10-S , 11-P ) :   1.1140 B( 11-P , 12-S ) :   1.7073
B( 11-P , 13-O ) :   1.0733 B( 11-P , 16-O ) :   1.1543 B( 13-O , 14-C ) :   0.8040
B( 14-C , 15-C ) :   0.9088 B( 14-C , 31-H ) :   0.9648 B( 14-C , 32-H ) :   0.9486
B( 15-C , 33-H ) :   0.9625 B( 15-C , 34-H ) :   0.9529 B( 15-C , 35-H ) :   0.9660
B( 16-O , 17-C ) :   0.7548 B( 17-C , 18-C ) :   0.9458 B( 17-C , 36-H ) :   0.9388
B( 17-C , 37-H ) :   0.9499 B( 18-C , 38-H ) :   0.9680 B( 18-C , 39-H ) :   0.9677
B( 18-C , 40-H ) :   0.9578

Dispersion correction           -0.021741076
FINAL SINGLE POINT ENERGY     -2932.473302111567

DIPOLE MOMENT
-------------

Method             : SCF
Type of density    : Electron Density
Multiplicity       :   1
Irrep              :   0
Energy             : -2932.4981659665995721 Eh
Relativity type    :
Basis              : AO
                                X                 Y                 Z
Electronic contribution:      3.550710109      10.988388627      -4.668233554
Nuclear contribution   :     -4.161298793     -13.081969773       5.305233278
                        -----------------------------------------
Total Dipole Moment    :     -0.610588684      -2.093581147       0.636999724
                        -----------------------------------------
Magnitude (a.u.)       :      2.271930722
Magnitude (Debye)      :      5.774788966

Rotational constants in cm-1:             0.012458             0.004941             0.004676
Rotational constants in MHz :           373.486220           148.117679           140.196370

                             ****ORCA TERMINATED NORMALLY****
TOTAL RUN TIME: 0 days 0 hours 1 minutes 51 seconds 301 msec
