                         Program Version 6.0.0  -   RELEASE  -
|  1> ! pbe def2-sv(p) def2/J RI DEFGRID1 loosescf d4 GCP(DFT/SV(P)) printgap
|  2> %output
|  3>     printlevel normal
|  4> end
|  5> * xyz 0 1
|  6> C 3.9574009737 1.4294365144 -1.1686334819
|  7> C 4.0487946039 1.1517748659 0.3179830172
|  8> O 3.2413075457 0.0324424053 0.70491606
|  9> P 1.644908903 0.0814542948 0.6434846118
| 10> S 0.9622256921 1.8095535672 1.2601564026
| 11> O 1.2490982912 -1.1423170235 1.563207152
| 12> C 2.0732344141 -2.3307855366 1.7077460167
| 13> C 2.9316461488 -2.2305790549 2.9517780658
| 14> S 1.3260504885 -0.6220760685 -1.369987711
| 15> C 0.1220029158 -1.9619024735 -1.1811811015
| 16> S -1.5437142092 -1.6101609816 -1.8458634492
| 17> P -2.0410246696 0.0995048078 -0.7202068412
| 18> S -3.9465152006 0.5128280775 -0.588897471
| 19> O -1.1279879441 1.1997948802 -1.4130821723
| 20> C -1.6113411636 2.5092330661 -1.7807475345
| 21> C -1.7193543237 3.4307692793 -0.5845963086
| 22> O -1.274665351 -0.1289839974 0.6659875458
| 23> C -1.9741991457 -0.540187257 1.8541951239
| 24> C -2.2669247113 -2.0270422427 1.8504101545
| 25> H 4.6310327248 2.2398169682 -1.4276903266
| 26> H 4.2185888859 0.5424434339 -1.739876709
| 27> H 2.9386933674 1.7220426504 -1.4253442161
| 28> H 3.7265842211 2.0265659442 0.8926664277
| 29> H 5.0591577539 0.8648276911 0.612616189
| 30> H 1.3624476922 -3.1559852175 1.7913321476
| 31> H 2.6877555254 -2.4554319215 0.8142472406
| 32> H 2.3076678328 -2.0580956284 3.8244878611
| 33> H 3.4789030652 -3.1593689369 3.0799084712
| 34> H 3.6367823704 -1.4091609555 2.8582667919
| 35> H 0.0316165636 -2.2236773266 -0.1318008223
| 36> H 0.4808860309 -2.7999916054 -1.7735478611
| 37> H -0.8728528117 2.8651574869 -2.5002149225
| 38> H -2.5848161711 2.3958735659 -2.2678762163
| 39> H -2.0011064796 4.4228627868 -0.9221369711
| 40> H -2.4783919629 3.0603656762 0.1030619451
| 41> H -0.7705393956 3.4822512026 -0.0562516104
| 42> H -1.3044444042 -0.2546544388 2.6675480942
| 43> H -2.903281935 0.0342528765 1.9214801177
| 44> H -1.3447308008 -2.6010114023 1.8128971649
| 45> H -2.8059667528 -2.2831496485 2.756954938
| 46> H -2.8846621691 -2.2802084354 0.9887981178
| 47> *
| 48>
| 49>                          ****END OF INPUT****

CARTESIAN COORDINATES (ANGSTROEM)
---------------------------------
  C      3.957401    1.429437   -1.168633
  C      4.048795    1.151775    0.317983
  O      3.241308    0.032442    0.704916
  P      1.644909    0.081454    0.643485
  S      0.962226    1.809554    1.260156
  O      1.249098   -1.142317    1.563207
  C      2.073234   -2.330786    1.707746
  C      2.931646   -2.230579    2.951778
  S      1.326050   -0.622076   -1.369988
  C      0.122003   -1.961902   -1.181181
  S     -1.543714   -1.610161   -1.845863
  P     -2.041025    0.099505   -0.720207
  S     -3.946515    0.512828   -0.588897
  O     -1.127988    1.199795   -1.413082
  C     -1.611341    2.509233   -1.780748
  C     -1.719354    3.430769   -0.584596
  O     -1.274665   -0.128984    0.665988
  C     -1.974199   -0.540187    1.854195
  C     -2.266925   -2.027042    1.850410
  H      4.631033    2.239817   -1.427690
  H      4.218589    0.542443   -1.739877
  H      2.938693    1.722043   -1.425344
  H      3.726584    2.026566    0.892666
  H      5.059158    0.864828    0.612616
  H      1.362448   -3.155985    1.791332
  H      2.687756   -2.455432    0.814247
  H      2.307668   -2.058096    3.824488
  H      3.478903   -3.159369    3.079908
  H      3.636782   -1.409161    2.858267
  H      0.031617   -2.223677   -0.131801
  H      0.480886   -2.799992   -1.773548
  H     -0.872853    2.865157   -2.500215
  H     -2.584816    2.395874   -2.267876
  H     -2.001106    4.422863   -0.922137
  H     -2.478392    3.060366    0.103062
  H     -0.770539    3.482251   -0.056252
  H     -1.304444   -0.254654    2.667548
  H     -2.903282    0.034253    1.921480
  H     -1.344731   -2.601011    1.812897
  H     -2.805967   -2.283150    2.756955
  H     -2.884662   -2.280208    0.988798

 Total Charge           Charge          ....    0
 Multiplicity           Mult            ....    1
 Number of Electrons    NEL             ....  202
 Basis Dimension        Dim             ....  334

ORBITAL ENERGIES
----------------

  NO   OCC          E(Eh)            E(eV)
   0   2.0000     -88.042187     -2395.7497
   1   2.0000     -88.037931     -2395.6339
   2   2.0000     -87.985364     -2394.2035
   3   2.0000     -87.983678     -2394.1576
   4   2.0000     -76.430722     -2079.7857
   5   2.0000     -76.421881     -2079.5451
   6   2.0000     -18.802843      -511.6514
   7   2.0000     -18.793942      -511.4092
   8   2.0000     -18.787459      -511.2327
   9   2.0000     -18.778740      -510.9955
  10   2.0000      -9.967785      -271.2372
  11   2.0000      -9.962911      -271.1046
  12   2.0000      -9.953960      -270.8610
  13   2.0000      -9.945041      -270.6183
  14   2.0000      -9.941257      -270.5154
  15   2.0000      -9.894222      -269.2355
  16   2.0000      -9.888016      -269.0666
  17   2.0000      -9.883883      -268.9541
  18   2.0000      -9.865657      -268.4582
  19   2.0000      -7.686798      -209.1684
  20   2.0000      -7.683777      -209.0862
  21   2.0000      -7.630547      -207.6377
  22   2.0000      -7.628787      -207.5898
  23   2.0000      -6.427582      -174.9034
  24   2.0000      -6.419611      -174.6865
  25   2.0000      -5.714980      -155.5125
  26   2.0000      -5.712067      -155.4333
  27   2.0000      -5.711273      -155.4116
  28   2.0000      -5.707967      -155.3217
  29   2.0000      -5.703559      -155.2017
  30   2.0000      -5.700549      -155.1198
  31   2.0000      -5.659477      -154.0022
  32   2.0000      -5.658018      -153.9625
  33   2.0000      -5.651080      -153.7737
  34   2.0000      -5.650749      -153.7647
  35   2.0000      -5.649565      -153.7325
  36   2.0000      -5.648421      -153.7014
  37   2.0000      -4.650927      -126.5582
  38   2.0000      -4.649384      -126.5162
  39   2.0000      -4.647396      -126.4621
  40   2.0000      -4.641810      -126.3101
  41   2.0000      -4.641548      -126.3030
  42   2.0000      -4.640244      -126.2675
  43   2.0000      -0.994637       -27.0655
  44   2.0000      -0.977225       -26.5916
  45   2.0000      -0.950237       -25.8573
  46   2.0000      -0.937065       -25.4988
  47   2.0000      -0.760042       -20.6818
  48   2.0000      -0.723125       -19.6772
  49   2.0000      -0.706540       -19.2259
  50   2.0000      -0.695181       -18.9168
  51   2.0000      -0.680002       -18.5038
  52   2.0000      -0.671479       -18.2719
  53   2.0000      -0.653739       -17.7891
  54   2.0000      -0.638828       -17.3834
  55   2.0000      -0.596453       -16.2303
  56   2.0000      -0.591753       -16.1024
  57   2.0000      -0.584178       -15.8963
  58   2.0000      -0.564550       -15.3622
  59   2.0000      -0.559473       -15.2240
  60   2.0000      -0.509645       -13.8681
  61   2.0000      -0.487666       -13.2701
  62   2.0000      -0.480263       -13.0686
  63   2.0000      -0.468107       -12.7378
  64   2.0000      -0.462353       -12.5813
  65   2.0000      -0.446768       -12.1572
  66   2.0000      -0.437797       -11.9130
  67   2.0000      -0.436046       -11.8654
  68   2.0000      -0.430247       -11.7076
  69   2.0000      -0.420591       -11.4449
  70   2.0000      -0.408525       -11.1165
  71   2.0000      -0.402945       -10.9647
  72   2.0000      -0.390481       -10.6255
  73   2.0000      -0.387790       -10.5523
  74   2.0000      -0.382426       -10.4063
  75   2.0000      -0.367882       -10.0106
  76   2.0000      -0.366344        -9.9687
  77   2.0000      -0.363850        -9.9009
  78   2.0000      -0.357210        -9.7202
  79   2.0000      -0.352695        -9.5973
  80   2.0000      -0.347788        -9.4638
  81   2.0000      -0.340109        -9.2548
  82   2.0000      -0.338969        -9.2238
  83   2.0000      -0.333933        -9.0868
  84   2.0000      -0.326122        -8.8742
  85   2.0000      -0.321520        -8.7490
  86   2.0000      -0.314886        -8.5685
  87   2.0000      -0.308319        -8.3898
  88   2.0000      -0.297232        -8.0881
  89   2.0000      -0.288007        -7.8371
  90   2.0000      -0.281543        -7.6612
  91   2.0000      -0.275335        -7.4922
  92   2.0000      -0.262369        -7.1394
  93   2.0000      -0.261530        -7.1166
  94   2.0000      -0.259147        -7.0517
  95   2.0000      -0.229296        -6.2395
  96   2.0000      -0.215001        -5.8505
  97   2.0000      -0.207597        -5.6490
  98   2.0000      -0.202999        -5.5239
  99   2.0000      -0.199219        -5.4210
 100   2.0000      -0.190381        -5.1805
 101   0.0000      -0.044058        -1.1989
 102   0.0000      -0.041163        -1.1201
 103   0.0000      -0.014604        -0.3974
 104   0.0000      -0.006064        -0.1650
 105   0.0000       0.010942         0.2977

MULLIKEN ATOMIC CHARGES
-----------------------
   0 C :   -0.326590
   1 C :   -0.002275
   2 O :   -0.386522
   3 P :    0.630955
   4 S :   -0.297284
   5 O :   -0.378062
   6 C :   -0.033545
   7 C :   -0.277941
   8 S :   -0.094597
   9 C :   -0.377483
  10 S :   -0.080726
  11 P :    0.626453
  12 S :   -0.322921
  13 O :   -0.363213
  14 C :   -0.001360
  15 C :   -0.307375
  16 O :   -0.380799
  17 C :    0.005695
  18 C :   -0.326577
  19 H :    0.117092
  20 H :    0.121740
  21 H :    0.130155
  22 H :    0.111896
  23 H :    0.102107
  24 H :    0.110909
  25 H :    0.109423
  26 H :    0.120338
  27 H :    0.111079
  28 H :    0.125627
  29 H :    0.216849
  30 H :    0.180947
  31 H :    0.100728
  32 H :    0.106728
  33 H :    0.101916
  34 H :    0.114985
  35 H :    0.133485
  36 H :    0.106771
  37 H :    0.114403
  38 H :    0.119846
  39 H :    0.112385
  40 H :    0.124759
Sum of atomic charges:    0.0000000

LOEWDIN ATOMIC CHARGES
----------------------
   0 C :   -0.371851
   1 C :   -0.123324
   2 O :   -0.251938
   3 P :    0.582585
   4 S :   -0.282219
   5 O :   -0.240242
   6 C :   -0.116820
   7 C :   -0.355484
   8 S :    0.080055
   9 C :   -0.478597
  10 S :    0.073372
  11 P :    0.572754
  12 S :   -0.311901
  13 O :   -0.243235
  14 C :   -0.111852
  15 C :   -0.371154
  16 O :   -0.242838
  17 C :   -0.121654
  18 C :   -0.365619
  19 H :    0.133194
  20 H :    0.124699
  21 H :    0.120126
  22 H :    0.109051
  23 H :    0.117140
  24 H :    0.114767
  25 H :    0.111871
  26 H :    0.129320
  27 H :    0.130938
  28 H :    0.129148
  29 H :    0.128701
  30 H :    0.138806
  31 H :    0.117631
  32 H :    0.107908
  33 H :    0.126161
  34 H :    0.119818
  35 H :    0.120022
  36 H :    0.117538
  37 H :    0.110025
  38 H :    0.117775
  39 H :    0.131792
  40 H :    0.123532

  Mayer bond orders larger than 0.100000
B(  0-C ,  1-C ) :   1.1649 B(  0-C , 19-H ) :   0.9379 B(  0-C , 20-H ) :   0.9422
B(  0-C , 21-H ) :   0.9300 B(  1-C ,  2-O ) :   0.9148 B(  1-C , 22-H ) :   0.9108
B(  1-C , 23-H ) :   0.9313 B(  2-O ,  3-P ) :   1.0407 B(  3-P ,  4-S ) :   1.6474
B(  3-P ,  5-O ) :   1.0957 B(  3-P ,  8-S ) :   0.9471 B(  4-S ,  8-S ) :   0.1073
B(  5-O ,  6-C ) :   0.8877 B(  6-C ,  7-C ) :   1.1775 B(  6-C , 24-H ) :   0.9235
B(  6-C , 25-H ) :   0.9149 B(  7-C , 26-H ) :   0.9474 B(  7-C , 27-H ) :   0.9387
B(  7-C , 28-H ) :   0.9425 B(  8-S ,  9-C ) :   1.0180 B(  9-C , 10-S ) :   0.9862
B(  9-C , 29-H ) :   0.8687 B(  9-C , 30-H ) :   0.9109 B( 10-S , 11-P ) :   0.9780
B( 11-P , 12-S ) :   1.6227 B( 11-P , 13-O ) :   1.1213 B( 11-P , 16-O ) :   1.0678
B( 13-O , 14-C ) :   0.9012 B( 14-C , 15-C ) :   1.1654 B( 14-C , 31-H ) :   0.9336
B( 14-C , 32-H ) :   0.9185 B( 15-C , 33-H ) :   0.9371 B( 15-C , 34-H ) :   0.9373
B( 15-C , 35-H ) :   0.9307 B( 16-O , 17-C ) :   0.8969 B( 17-C , 18-C ) :   1.1657
B( 17-C , 36-H ) :   0.9232 B( 17-C , 37-H ) :   0.9130 B( 18-C , 38-H ) :   0.9356
B( 18-C , 39-H ) :   0.9388 B( 18-C , 40-H ) :   0.9365

Dispersion correction           -0.069702846
FINAL SINGLE POINT ENERGY     -2929.505757389860

DIPOLE MOMENT
-------------

Method             : SCF
Type of density    : Electron Density
Multiplicity       :   1
Irrep              :   0
Energy             : -2929.6255076828983874 Eh
Relativity type    :
Basis              : AO
                                X                 Y                 Z
Electronic contribution:    -12.363818992       0.116274289     -10.894755143
Nuclear contribution   :     14.183594076      -1.125821939      11.309773415
                        -----------------------------------------
Total Dipole Moment    :      1.819775085      -1.009547650       0.415018272
                        -----------------------------------------
Magnitude (a.u.)       :      2.122029214
Magnitude (Debye)      :      5.393769611

Rotational constants in cm-1:             0.011372             0.006318             0.005531
Rotational constants in MHz :           340.919803           189.401407           165.823254

                             ****ORCA TERMINATED NORMALLY****
TOTAL RUN TIME: 0 days 0 hours 0 minutes 22 seconds 187 msec
