                         Program Version 6.0.0  -   RELEASE  -
|  1> ! pbe def2-sv(p) def2/J RI DEFGRID1 loosescf d4 GCP(DFT/SV(P)) printgap
|  2> %output
|  3>     printlevel normal
|  4> end
|  5> * xyz 0 1
|  6> C 3.2407040684 0.3521295952 3.3121148648
|  7> C 1.8956262015 -0.1146505884 2.7978444417
|  8> O 1.6382814329 0.4115956805 1.4797495086
|  9> P 2.3588322672 -0.1612329148 0.1896174588
| 10> S 2.9047489627 -2.042362786 0.3557555086
| 11> O 3.4963103775 0.9258258966 -0.0228319617
| 12> C 4.1730991559 1.2006482507 -1.2622721301
| 13> C 4.7374656477 -0.0438873516 -1.9158153831
| 14> S 0.9539233621 0.2726882184 -1.3346625492
| 15> C -0.0664387169 -1.1992854268 -1.0614911418
| 16> S -1.1514669489 -1.0423148341 0.3721042656
| 17> P -2.5142705007 0.3341208391 -0.5339885371
| 18> S -2.8773045963 -0.031315747 -2.4234292237
| 19> O -1.9163536821 1.7814445097 -0.3347593406
| 20> C -2.05010097 2.6066883383 0.8474038206
| 21> C -1.3638404865 2.0034289296 2.054262174
| 22> O -3.7755180548 0.3452934576 0.4302724405
| 23> C -4.8698791428 -0.5784935051 0.2796956381
| 24> C -4.463722775 -2.0074959187 0.5742308201
| 25> H 4.0309087434 -0.0403727398 2.6727101127
| 26> H 3.2916512813 1.4374505514 3.3035056218
| 27> H 3.3885341104 -0.0117370961 4.3238554878
| 28> H 1.070845539 0.2609486328 3.4043344571
| 29> H 1.8538145362 -1.2076415012 2.7522806563
| 30> H 3.4673340051 1.7019725288 -1.9308819028
| 31> H 4.9653205857 1.8938869705 -0.9734838464
| 32> H 5.3802675829 -0.5800617443 -1.2215096741
| 33> H 3.9293641006 -0.7076310416 -2.2213720271
| 34> H 5.3119167979 0.2382010487 -2.792346591
| 35> H 0.5818086225 -2.0588716539 -0.8844752994
| 36> H -0.6730050263 -1.3334274229 -1.9580659769
| 37> H -1.5834580904 3.5460920488 0.5466218927
| 38> H -3.1139217753 2.7614802801 1.0373611912
| 39> H -0.3197826087 1.7998349303 1.8285245522
| 40> H -1.4214495702 2.7038565661 2.8817304789
| 41> H -1.8519437723 1.0729275303 2.3388799875
| 42> H -5.6127799945 -0.2155936674 0.9914306162
| 43> H -5.2556805644 -0.4916342954 -0.7405902913
| 44> H -3.7760339987 -2.3650120351 -0.190561202
| 45> H -3.975004865 -2.0730028688 1.5429717074
| 46> H -5.347487095 -2.6373481319 0.5725240049
| 47> *
| 48>
| 49>                          ****END OF INPUT****

CARTESIAN COORDINATES (ANGSTROEM)
---------------------------------
  C      3.240704    0.352130    3.312115
  C      1.895626   -0.114651    2.797844
  O      1.638281    0.411596    1.479750
  P      2.358832   -0.161233    0.189617
  S      2.904749   -2.042363    0.355756
  O      3.496310    0.925826   -0.022832
  C      4.173099    1.200648   -1.262272
  C      4.737466   -0.043887   -1.915815
  S      0.953923    0.272688   -1.334663
  C     -0.066439   -1.199285   -1.061491
  S     -1.151467   -1.042315    0.372104
  P     -2.514271    0.334121   -0.533989
  S     -2.877305   -0.031316   -2.423429
  O     -1.916354    1.781445   -0.334759
  C     -2.050101    2.606688    0.847404
  C     -1.363840    2.003429    2.054262
  O     -3.775518    0.345293    0.430272
  C     -4.869879   -0.578494    0.279696
  C     -4.463723   -2.007496    0.574231
  H      4.030909   -0.040373    2.672710
  H      3.291651    1.437451    3.303506
  H      3.388534   -0.011737    4.323855
  H      1.070846    0.260949    3.404334
  H      1.853815   -1.207642    2.752281
  H      3.467334    1.701973   -1.930882
  H      4.965321    1.893887   -0.973484
  H      5.380268   -0.580062   -1.221510
  H      3.929364   -0.707631   -2.221372
  H      5.311917    0.238201   -2.792347
  H      0.581809   -2.058872   -0.884475
  H     -0.673005   -1.333427   -1.958066
  H     -1.583458    3.546092    0.546622
  H     -3.113922    2.761480    1.037361
  H     -0.319783    1.799835    1.828525
  H     -1.421450    2.703857    2.881730
  H     -1.851944    1.072928    2.338880
  H     -5.612780   -0.215594    0.991431
  H     -5.255681   -0.491634   -0.740590
  H     -3.776034   -2.365012   -0.190561
  H     -3.975005   -2.073003    1.542972
  H     -5.347487   -2.637348    0.572524

 Total Charge           Charge          ....    0
 Multiplicity           Mult            ....    1
 Number of Electrons    NEL             ....  202
 Basis Dimension        Dim             ....  334

ORBITAL ENERGIES
----------------

  NO   OCC          E(Eh)            E(eV)
   0   2.0000     -88.041984     -2395.7442
   1   2.0000     -88.039316     -2395.6716
   2   2.0000     -87.988616     -2394.2920
   3   2.0000     -87.984776     -2394.1875
   4   2.0000     -76.428486     -2079.7248
   5   2.0000     -76.427149     -2079.6885
   6   2.0000     -18.800214      -511.5798
   7   2.0000     -18.795869      -511.4616
   8   2.0000     -18.791368      -511.3391
   9   2.0000     -18.788245      -511.2541
  10   2.0000      -9.960101      -271.0281
  11   2.0000      -9.957138      -270.9475
  12   2.0000      -9.954577      -270.8778
  13   2.0000      -9.950438      -270.7652
  14   2.0000      -9.949363      -270.7359
  15   2.0000      -9.885999      -269.0117
  16   2.0000      -9.884346      -268.9667
  17   2.0000      -9.883812      -268.9522
  18   2.0000      -9.883142      -268.9340
  19   2.0000      -7.687159      -209.1782
  20   2.0000      -7.684178      -209.0971
  21   2.0000      -7.633511      -207.7184
  22   2.0000      -7.630037      -207.6239
  23   2.0000      -6.425929      -174.8584
  24   2.0000      -6.424484      -174.8191
  25   2.0000      -5.714896      -155.5102
  26   2.0000      -5.711882      -155.4282
  27   2.0000      -5.711766      -155.4251
  28   2.0000      -5.708918      -155.3476
  29   2.0000      -5.704165      -155.2182
  30   2.0000      -5.701129      -155.1356
  31   2.0000      -5.662317      -154.0795
  32   2.0000      -5.658977      -153.9886
  33   2.0000      -5.654245      -153.8598
  34   2.0000      -5.653685      -153.8446
  35   2.0000      -5.650749      -153.7647
  36   2.0000      -5.650044      -153.7455
  37   2.0000      -4.648452      -126.4908
  38   2.0000      -4.647829      -126.4739
  39   2.0000      -4.647687      -126.4700
  40   2.0000      -4.646308      -126.4325
  41   2.0000      -4.645887      -126.4210
  42   2.0000      -4.644730      -126.3895
  43   2.0000      -0.990333       -26.9483
  44   2.0000      -0.989035       -26.9130
  45   2.0000      -0.947976       -25.7957
  46   2.0000      -0.945285       -25.7225
  47   2.0000      -0.763686       -20.7809
  48   2.0000      -0.721572       -19.6350
  49   2.0000      -0.709955       -19.3189
  50   2.0000      -0.692074       -18.8323
  51   2.0000      -0.688698       -18.7404
  52   2.0000      -0.676828       -18.4174
  53   2.0000      -0.652131       -17.7454
  54   2.0000      -0.636765       -17.3273
  55   2.0000      -0.601062       -16.3557
  56   2.0000      -0.596097       -16.2206
  57   2.0000      -0.579617       -15.7722
  58   2.0000      -0.574813       -15.6415
  59   2.0000      -0.557803       -15.1786
  60   2.0000      -0.498656       -13.5691
  61   2.0000      -0.495266       -13.4769
  62   2.0000      -0.472306       -12.8521
  63   2.0000      -0.471708       -12.8358
  64   2.0000      -0.462308       -12.5800
  65   2.0000      -0.450077       -12.2472
  66   2.0000      -0.441290       -12.0081
  67   2.0000      -0.437653       -11.9092
  68   2.0000      -0.425891       -11.5891
  69   2.0000      -0.423126       -11.5138
  70   2.0000      -0.415206       -11.2983
  71   2.0000      -0.399689       -10.8761
  72   2.0000      -0.393415       -10.7054
  73   2.0000      -0.388639       -10.5754
  74   2.0000      -0.376664       -10.2496
  75   2.0000      -0.375699       -10.2233
  76   2.0000      -0.370399       -10.0791
  77   2.0000      -0.358622        -9.7586
  78   2.0000      -0.352963        -9.6046
  79   2.0000      -0.349358        -9.5065
  80   2.0000      -0.348222        -9.4756
  81   2.0000      -0.346188        -9.4203
  82   2.0000      -0.343682        -9.3521
  83   2.0000      -0.338375        -9.2076
  84   2.0000      -0.337282        -9.1779
  85   2.0000      -0.322090        -8.7645
  86   2.0000      -0.311756        -8.4833
  87   2.0000      -0.298858        -8.1323
  88   2.0000      -0.297801        -8.1036
  89   2.0000      -0.295414        -8.0386
  90   2.0000      -0.288300        -7.8450
  91   2.0000      -0.277204        -7.5431
  92   2.0000      -0.273968        -7.4550
  93   2.0000      -0.265343        -7.2203
  94   2.0000      -0.254401        -6.9226
  95   2.0000      -0.232927        -6.3383
  96   2.0000      -0.219044        -5.9605
  97   2.0000      -0.210854        -5.7376
  98   2.0000      -0.203490        -5.5372
  99   2.0000      -0.201786        -5.4909
 100   2.0000      -0.196602        -5.3498
 101   0.0000      -0.045383        -1.2349
 102   0.0000      -0.025349        -0.6898
 103   0.0000      -0.006354        -0.1729
 104   0.0000      -0.003143        -0.0855
 105   0.0000       0.017176         0.4674

MULLIKEN ATOMIC CHARGES
-----------------------
   0 C :   -0.300889
   1 C :   -0.008074
   2 O :   -0.355968
   3 P :    0.611538
   4 S :   -0.333106
   5 O :   -0.373842
   6 C :   -0.012652
   7 C :   -0.311888
   8 S :   -0.072443
   9 C :   -0.380294
  10 S :   -0.088614
  11 P :    0.618737
  12 S :   -0.319961
  13 O :   -0.357081
  14 C :    0.013632
  15 C :   -0.356105
  16 O :   -0.386873
  17 C :   -0.001371
  18 C :   -0.317487
  19 H :    0.122709
  20 H :    0.113719
  21 H :    0.111219
  22 H :    0.105729
  23 H :    0.114084
  24 H :    0.117514
  25 H :    0.110112
  26 H :    0.126110
  27 H :    0.127769
  28 H :    0.113044
  29 H :    0.192244
  30 H :    0.196844
  31 H :    0.108872
  32 H :    0.106343
  33 H :    0.157707
  34 H :    0.107519
  35 H :    0.117658
  36 H :    0.104973
  37 H :    0.115463
  38 H :    0.131311
  39 H :    0.116812
  40 H :    0.114987
Sum of atomic charges:   -0.0000000

LOEWDIN ATOMIC CHARGES
----------------------
   0 C :   -0.362271
   1 C :   -0.120599
   2 O :   -0.234525
   3 P :    0.575764
   4 S :   -0.316749
   5 O :   -0.243932
   6 C :   -0.113375
   7 C :   -0.369895
   8 S :    0.088151
   9 C :   -0.492031
  10 S :    0.080666
  11 P :    0.576986
  12 S :   -0.312874
  13 O :   -0.237340
  14 C :   -0.105506
  15 C :   -0.377025
  16 O :   -0.246332
  17 C :   -0.115772
  18 C :   -0.370641
  19 H :    0.123480
  20 H :    0.125194
  21 H :    0.130013
  22 H :    0.116058
  23 H :    0.108836
  24 H :    0.111636
  25 H :    0.121897
  26 H :    0.129429
  27 H :    0.122200
  28 H :    0.130862
  29 H :    0.127321
  30 H :    0.127783
  31 H :    0.122489
  32 H :    0.112574
  33 H :    0.131628
  34 H :    0.128334
  35 H :    0.116038
  36 H :    0.118546
  37 H :    0.114170
  38 H :    0.122982
  39 H :    0.123515
  40 H :    0.132314

  Mayer bond orders larger than 0.100000
B(  0-C ,  1-C ) :   1.1641 B(  0-C , 19-H ) :   0.9367 B(  0-C , 20-H ) :   0.9474
B(  0-C , 21-H ) :   0.9400 B(  1-C ,  2-O ) :   0.8959 B(  1-C , 22-H ) :   0.9304
B(  1-C , 23-H ) :   0.9101 B(  2-O ,  3-P ) :   1.1157 B(  3-P ,  4-S ) :   1.5898
B(  3-P ,  5-O ) :   1.1143 B(  3-P ,  8-S ) :   0.9627 B(  4-S ,  8-S ) :   0.1099
B(  5-O ,  6-C ) :   0.9119 B(  6-C ,  7-C ) :   1.1646 B(  6-C , 24-H ) :   0.9282
B(  6-C , 25-H ) :   0.9341 B(  7-C , 26-H ) :   0.9426 B(  7-C , 27-H ) :   0.9327
B(  7-C , 28-H ) :   0.9348 B(  8-S ,  9-C ) :   1.0052 B(  9-C , 10-S ) :   1.0111
B(  9-C , 29-H ) :   0.8650 B(  9-C , 30-H ) :   0.8648 B( 10-S , 11-P ) :   0.9396
B( 10-S , 12-S ) :   0.1126 B( 11-P , 12-S ) :   1.6293 B( 11-P , 13-O ) :   1.1396
B( 11-P , 16-O ) :   1.0793 B( 13-O , 14-C ) :   0.8999 B( 14-C , 15-C ) :   1.1708
B( 14-C , 31-H ) :   0.9337 B( 14-C , 32-H ) :   0.9283 B( 15-C , 33-H ) :   0.9193
B( 15-C , 34-H ) :   0.9351 B( 15-C , 35-H ) :   0.9398 B( 16-O , 17-C ) :   0.9013
B( 17-C , 18-C ) :   1.1671 B( 17-C , 36-H ) :   0.9341 B( 17-C , 37-H ) :   0.9175
B( 18-C , 38-H ) :   0.9333 B( 18-C , 39-H ) :   0.9445 B( 18-C , 40-H ) :   0.9366

Dispersion correction           -0.065676258
FINAL SINGLE POINT ENERGY     -2929.518380071473

DIPOLE MOMENT
-------------

Method             : SCF
Type of density    : Electron Density
Multiplicity       :   1
Irrep              :   0
Energy             : -2929.6386721612416295 Eh
Relativity type    :
Basis              : AO
                                X                 Y                 Z
Electronic contribution:     -4.264033964      -2.644210914     -13.512214316
Nuclear contribution   :      4.208364133       3.445038415      14.756902147
                        -----------------------------------------
Total Dipole Moment    :     -0.055669831       0.800827501       1.244687831
                        -----------------------------------------
Magnitude (a.u.)       :      1.481104863
Magnitude (Debye)      :      3.764669377

Rotational constants in cm-1:             0.013090             0.004717             0.004415
Rotational constants in MHz :           392.439382           141.408174           132.353951

                             ****ORCA TERMINATED NORMALLY****
TOTAL RUN TIME: 0 days 0 hours 0 minutes 21 seconds 383 msec
