                         Program Version 6.0.0  -   RELEASE  -
|  1> ! pbe def2-sv(p) def2/J RI DEFGRID1 loosescf d4 GCP(DFT/SV(P)) printgap
|  2> %output
|  3>     printlevel normal
|  4> end
|  5> * xyz 0 1
|  6> C 2.773424218 0.219785215 -3.065201028
|  7> C 2.3342045543 -1.1257043653 -2.5239594422
|  8> O 1.5471968894 -0.9952001377 -1.3209892
|  9> P 2.1304891402 -0.5817561155 0.093059969
| 10> S 2.8365249087 1.2268968625 0.4080027797
| 11> O 3.2282991478 -1.7208961426 0.2840463888
| 12> C 4.2536028657 -1.6433648269 1.2877757027
| 13> C 3.6884139915 -1.7739911711 2.6873334289
| 14> S 0.501660738 -1.1727542195 1.2916941193
| 15> C -0.0450334371 0.4474950227 1.942740384
| 16> S -1.827495251 0.6734159342 1.8226046047
| 17> P -2.0511735325 0.9788869184 -0.2787378434
| 18> S -0.4288628968 1.5718240061 -1.2027211388
| 19> O -3.2149714135 2.0226392738 -0.4308032063
| 20> C -4.6297576995 1.7477922765 -0.2623496071
| 21> C -4.9662101477 1.2570352256 1.1286777135
| 22> O -2.7227911377 -0.3463989712 -0.8540714157
| 23> C -1.9902769736 -1.5494623085 -1.1461007982
| 24> C -2.7613389402 -2.3187896374 -2.1998843328
| 25> H 3.4944176491 0.6850818017 -2.3955597751
| 26> H 3.2282792879 0.0877390434 -4.0415918521
| 27> H 1.9143201253 0.8827200077 -3.1514757919
| 28> H 3.1918653882 -1.7686633287 -2.3121408469
| 29> H 1.655735355 -1.6267818358 -3.2168528168
| 30> H 4.9229376195 -2.469182837 1.0431765912
| 31> H 4.777261961 -0.6888052521 1.173370152
| 32> H 3.0672948724 -2.662807897 2.7632770092
| 33> H 4.5043742144 -1.8394030351 3.399717275
| 34> H 3.0839453783 -0.8990791878 2.9233683702
| 35> H 0.477208922 1.2341065718 1.3913859479
| 36> H 0.1852467071 0.4907448489 3.0042097137
| 37> H -5.0923408734 2.7132305827 -0.4726183654
| 38> H -4.9256022648 1.0191973869 -1.0188222006
| 39> H -4.5105781088 0.2852838204 1.3087931449
| 40> H -4.6019193928 1.9557203483 1.8774301838
| 41> H -6.0440284914 1.1640867435 1.2198161655
| 42> H -0.9893845527 -1.2792714644 -1.4997416802
| 43> H -1.8953702092 -2.124847318 -0.2206937552
| 44> H -2.2382113466 -3.2443053593 -2.4165482164
| 45> H -3.7591161715 -2.5464312034 -1.8364428966
| 46> H -2.8415080478 -1.7298583664 -3.1095574416
| 47> *
| 48>
| 49>                          ****END OF INPUT****

CARTESIAN COORDINATES (ANGSTROEM)
---------------------------------
  C      2.773424    0.219785   -3.065201
  C      2.334205   -1.125704   -2.523959
  O      1.547197   -0.995200   -1.320989
  P      2.130489   -0.581756    0.093060
  S      2.836525    1.226897    0.408003
  O      3.228299   -1.720896    0.284046
  C      4.253603   -1.643365    1.287776
  C      3.688414   -1.773991    2.687333
  S      0.501661   -1.172754    1.291694
  C     -0.045033    0.447495    1.942740
  S     -1.827495    0.673416    1.822605
  P     -2.051174    0.978887   -0.278738
  S     -0.428863    1.571824   -1.202721
  O     -3.214971    2.022639   -0.430803
  C     -4.629758    1.747792   -0.262350
  C     -4.966210    1.257035    1.128678
  O     -2.722791   -0.346399   -0.854071
  C     -1.990277   -1.549462   -1.146101
  C     -2.761339   -2.318790   -2.199884
  H      3.494418    0.685082   -2.395560
  H      3.228279    0.087739   -4.041592
  H      1.914320    0.882720   -3.151476
  H      3.191865   -1.768663   -2.312141
  H      1.655735   -1.626782   -3.216853
  H      4.922938   -2.469183    1.043177
  H      4.777262   -0.688805    1.173370
  H      3.067295   -2.662808    2.763277
  H      4.504374   -1.839403    3.399717
  H      3.083945   -0.899079    2.923368
  H      0.477209    1.234107    1.391386
  H      0.185247    0.490745    3.004210
  H     -5.092341    2.713231   -0.472618
  H     -4.925602    1.019197   -1.018822
  H     -4.510578    0.285284    1.308793
  H     -4.601919    1.955720    1.877430
  H     -6.044028    1.164087    1.219816
  H     -0.989385   -1.279271   -1.499742
  H     -1.895370   -2.124847   -0.220694
  H     -2.238211   -3.244305   -2.416548
  H     -3.759116   -2.546431   -1.836443
  H     -2.841508   -1.729858   -3.109557

 Total Charge           Charge          ....    0
 Multiplicity           Mult            ....    1
 Number of Electrons    NEL             ....  202
 Basis Dimension        Dim             ....  334

ORBITAL ENERGIES
----------------

  NO   OCC          E(Eh)            E(eV)
   0   2.0000     -88.040447     -2395.7024
   1   2.0000     -88.040367     -2395.7002
   2   2.0000     -87.984474     -2394.1792
   3   2.0000     -87.976087     -2393.9510
   4   2.0000     -76.424938     -2079.6283
   5   2.0000     -76.421545     -2079.5360
   6   2.0000     -18.790546      -511.3167
   7   2.0000     -18.790213      -511.3077
   8   2.0000     -18.787836      -511.2430
   9   2.0000     -18.787068      -511.2221
  10   2.0000      -9.957614      -270.9604
  11   2.0000      -9.951172      -270.7852
  12   2.0000      -9.950693      -270.7721
  13   2.0000      -9.950210      -270.7590
  14   2.0000      -9.944571      -270.6055
  15   2.0000      -9.891322      -269.1566
  16   2.0000      -9.884918      -268.9823
  17   2.0000      -9.882961      -268.9290
  18   2.0000      -9.875133      -268.7160
  19   2.0000      -7.685424      -209.1310
  20   2.0000      -7.685293      -209.1275
  21   2.0000      -7.629320      -207.6044
  22   2.0000      -7.620993      -207.3778
  23   2.0000      -6.422074      -174.7535
  24   2.0000      -6.418942      -174.6683
  25   2.0000      -5.713481      -155.4717
  26   2.0000      -5.713148      -155.4627
  27   2.0000      -5.709884      -155.3738
  28   2.0000      -5.709636      -155.3671
  29   2.0000      -5.702579      -155.1751
  30   2.0000      -5.702176      -155.1641
  31   2.0000      -5.658204      -153.9676
  32   2.0000      -5.650122      -153.7476
  33   2.0000      -5.650022      -153.7449
  34   2.0000      -5.649341      -153.7264
  35   2.0000      -5.641362      -153.5093
  36   2.0000      -5.641273      -153.5068
  37   2.0000      -4.644723      -126.3893
  38   2.0000      -4.643632      -126.3597
  39   2.0000      -4.642711      -126.3346
  40   2.0000      -4.641879      -126.3120
  41   2.0000      -4.640571      -126.2763
  42   2.0000      -4.639200      -126.2390
  43   2.0000      -0.985371       -26.8133
  44   2.0000      -0.985117       -26.8064
  45   2.0000      -0.940991       -25.6057
  46   2.0000      -0.940548       -25.5936
  47   2.0000      -0.758947       -20.6520
  48   2.0000      -0.720297       -19.6003
  49   2.0000      -0.709192       -19.2981
  50   2.0000      -0.691552       -18.8181
  51   2.0000      -0.684777       -18.6337
  52   2.0000      -0.672874       -18.3098
  53   2.0000      -0.648467       -17.6457
  54   2.0000      -0.630682       -17.1617
  55   2.0000      -0.596373       -16.2281
  56   2.0000      -0.588449       -16.0125
  57   2.0000      -0.574229       -15.6256
  58   2.0000      -0.571337       -15.5469
  59   2.0000      -0.558095       -15.1865
  60   2.0000      -0.500664       -13.6238
  61   2.0000      -0.494180       -13.4473
  62   2.0000      -0.473700       -12.8900
  63   2.0000      -0.466105       -12.6834
  64   2.0000      -0.452148       -12.3036
  65   2.0000      -0.445310       -12.1175
  66   2.0000      -0.443588       -12.0706
  67   2.0000      -0.431812       -11.7502
  68   2.0000      -0.426411       -11.6032
  69   2.0000      -0.416011       -11.3202
  70   2.0000      -0.412194       -11.2164
  71   2.0000      -0.403971       -10.9926
  72   2.0000      -0.392680       -10.6854
  73   2.0000      -0.385238       -10.4829
  74   2.0000      -0.377208       -10.2643
  75   2.0000      -0.368481       -10.0269
  76   2.0000      -0.365001        -9.9322
  77   2.0000      -0.356944        -9.7129
  78   2.0000      -0.351338        -9.5604
  79   2.0000      -0.349797        -9.5184
  80   2.0000      -0.343935        -9.3589
  81   2.0000      -0.343233        -9.3398
  82   2.0000      -0.339288        -9.2325
  83   2.0000      -0.335696        -9.1347
  84   2.0000      -0.332092        -9.0367
  85   2.0000      -0.312301        -8.4981
  86   2.0000      -0.308072        -8.3831
  87   2.0000      -0.297998        -8.1089
  88   2.0000      -0.293524        -7.9872
  89   2.0000      -0.292493        -7.9592
  90   2.0000      -0.284520        -7.7422
  91   2.0000      -0.272479        -7.4145
  92   2.0000      -0.271735        -7.3943
  93   2.0000      -0.261726        -7.1219
  94   2.0000      -0.253168        -6.8890
  95   2.0000      -0.235726        -6.4144
  96   2.0000      -0.215347        -5.8599
  97   2.0000      -0.211221        -5.7476
  98   2.0000      -0.197764        -5.3814
  99   2.0000      -0.192591        -5.2407
 100   2.0000      -0.184624        -5.0239
 101   0.0000      -0.038145        -1.0380
 102   0.0000      -0.033136        -0.9017
 103   0.0000      -0.009909        -0.2696
 104   0.0000       0.009953         0.2708
 105   0.0000       0.015439         0.4201

MULLIKEN ATOMIC CHARGES
-----------------------
   0 C :   -0.317330
   1 C :    0.000875
   2 O :   -0.359439
   3 P :    0.635851
   4 S :   -0.312591
   5 O :   -0.380290
   6 C :   -0.002762
   7 C :   -0.309644
   8 S :   -0.108255
   9 C :   -0.338750
  10 S :   -0.128102
  11 P :    0.609594
  12 S :   -0.300017
  13 O :   -0.360816
  14 C :    0.008414
  15 C :   -0.338542
  16 O :   -0.390779
  17 C :   -0.038807
  18 C :   -0.273392
  19 H :    0.127052
  20 H :    0.105733
  21 H :    0.135513
  22 H :    0.103977
  23 H :    0.102836
  24 H :    0.101863
  25 H :    0.110069
  26 H :    0.117118
  27 H :    0.111748
  28 H :    0.118563
  29 H :    0.215456
  30 H :    0.178927
  31 H :    0.112209
  32 H :    0.111008
  33 H :    0.132133
  34 H :    0.131472
  35 H :    0.118731
  36 H :    0.131532
  37 H :    0.104605
  38 H :    0.109388
  39 H :    0.109450
  40 H :    0.115399
Sum of atomic charges:   -0.0000000

LOEWDIN ATOMIC CHARGES
----------------------
   0 C :   -0.368295
   1 C :   -0.109713
   2 O :   -0.234657
   3 P :    0.572765
   4 S :   -0.297741
   5 O :   -0.248570
   6 C :   -0.121452
   7 C :   -0.368370
   8 S :    0.084477
   9 C :   -0.480301
  10 S :    0.068353
  11 P :    0.562590
  12 S :   -0.294061
  13 O :   -0.235837
  14 C :   -0.107456
  15 C :   -0.374120
  16 O :   -0.253238
  17 C :   -0.127077
  18 C :   -0.351491
  19 H :    0.121854
  20 H :    0.127168
  21 H :    0.131155
  22 H :    0.110003
  23 H :    0.117299
  24 H :    0.116817
  25 H :    0.109100
  26 H :    0.124197
  27 H :    0.130045
  28 H :    0.118999
  29 H :    0.126921
  30 H :    0.134183
  31 H :    0.123511
  32 H :    0.115483
  33 H :    0.119411
  34 H :    0.128996
  35 H :    0.134408
  36 H :    0.110474
  37 H :    0.105055
  38 H :    0.129641
  39 H :    0.123081
  40 H :    0.126393

  Mayer bond orders larger than 0.100000
B(  0-C ,  1-C ) :   1.1656 B(  0-C , 19-H ) :   0.9354 B(  0-C , 20-H ) :   0.9375
B(  0-C , 21-H ) :   0.9409 B(  1-C ,  2-O ) :   0.9050 B(  1-C , 22-H ) :   0.9273
B(  1-C , 23-H ) :   0.9349 B(  2-O ,  3-P ) :   1.1214 B(  3-P ,  4-S ) :   1.6051
B(  3-P ,  5-O ) :   1.0852 B(  3-P ,  8-S ) :   0.9626 B(  4-S ,  8-S ) :   0.1208
B(  5-O ,  6-C ) :   0.9139 B(  6-C ,  7-C ) :   1.1656 B(  6-C , 24-H ) :   0.9333
B(  6-C , 25-H ) :   0.9127 B(  7-C , 26-H ) :   0.9445 B(  7-C , 27-H ) :   0.9383
B(  7-C , 28-H ) :   0.9368 B(  8-S ,  9-C ) :   0.9833 B(  9-C , 10-S ) :   1.0164
B(  9-C , 29-H ) :   0.8450 B(  9-C , 30-H ) :   0.9079 B( 10-S , 11-P ) :   0.9243
B( 10-S , 12-S ) :   0.1104 B( 11-P , 12-S ) :   1.6778 B( 11-P , 13-O ) :   1.1460
B( 11-P , 16-O ) :   1.0646 B( 13-O , 14-C ) :   0.8973 B( 14-C , 15-C ) :   1.1708
B( 14-C , 31-H ) :   0.9340 B( 14-C , 32-H ) :   0.9273 B( 15-C , 33-H ) :   0.9310
B( 15-C , 34-H ) :   0.9407 B( 15-C , 35-H ) :   0.9348 B( 16-O , 17-C ) :   0.9006
B( 17-C , 18-C ) :   1.1541 B( 17-C , 36-H ) :   0.9018 B( 17-C , 37-H ) :   0.9248
B( 18-C , 38-H ) :   0.9427 B( 18-C , 39-H ) :   0.9506 B( 18-C , 40-H ) :   0.9504

Dispersion correction           -0.066199361
FINAL SINGLE POINT ENERGY     -2929.516330935957

DIPOLE MOMENT
-------------

Method             : SCF
Type of density    : Electron Density
Multiplicity       :   1
Irrep              :   0
Energy             : -2929.6355320246452720 Eh
Relativity type    :
Basis              : AO
                                X                 Y                 Z
Electronic contribution:      1.819331219      10.601665374       5.264439187
Nuclear contribution   :     -2.366481037     -12.034034763      -5.177663808
                        -----------------------------------------
Total Dipole Moment    :     -0.547149818      -1.432369389       0.086775380
                        -----------------------------------------
Magnitude (a.u.)       :      1.535768523
Magnitude (Debye)      :      3.903613360

Rotational constants in cm-1:             0.012805             0.005074             0.004660
Rotational constants in MHz :           383.874866           152.105655           139.697118

                             ****ORCA TERMINATED NORMALLY****
TOTAL RUN TIME: 0 days 0 hours 0 minutes 21 seconds 84 msec
