                         Program Version 6.0.0  -   RELEASE  -
|  1> ! pbe def2-sv(p) def2/J RI DEFGRID1 loosescf d4 GCP(DFT/SV(P)) printgap
|  2> %output
|  3>     printlevel normal
|  4> end
|  5> * xyz 0 1
|  6> C 2.648269336 0.4723512123 -2.692630747
|  7> C 1.6491116036 -0.6343295646 -2.43440529
|  8> O 1.1380718816 -0.629105722 -1.0843742832
|  9> P 2.0206144463 -0.5483879181 0.2328424968
| 10> S 2.8853682848 1.1357703147 0.7632164774
| 11> O 3.0263907016 -1.7552750565 -0.0028454551
| 12> C 4.2169026906 -1.928846139 0.7850831184
| 13> C 3.8985889841 -2.3658792567 2.2000023604
| 14> S 0.6121038447 -1.2896109449 1.6136027524
| 15> C -0.2657762253 0.2525173928 2.0325554611
| 16> S -1.9857109105 0.2559898964 1.4880334437
| 17> P -1.779645964 1.0343082489 -0.4828830488
| 18> S -0.2240564247 2.1892570625 -0.7620600807
| 19> O -3.0645077179 1.903871831 -0.7692806453
| 20> C -4.4181298734 1.4088287767 -0.8913546106
| 21> C -5.0852292043 1.2457887226 0.4591804165
| 22> O -1.9285697176 -0.1853028042 -1.4978260067
| 23> C -1.8673743115 -1.6022540049 -1.226768214
| 24> C -3.2369329684 -2.1564330506 -0.8886790691
| 25> H 2.2112737531 1.4370733283 -2.4381924573
| 26> H 3.539835747 0.3268551439 -2.0834517233
| 27> H 2.9283620341 0.4708338878 -3.7413051076
| 28> H 2.092445202 -1.6159005379 -2.6173108806
| 29> H 0.7535433402 -0.5026686066 -3.0454946294
| 30> H 4.7809280805 -2.6893488427 0.2434697674
| 31> H 4.7691769282 -0.9835275216 0.7904081236
| 32> H 4.8216901844 -2.6057273013 2.7176671904
| 33> H 3.3951101236 -1.5599498263 2.7319833439
| 34> H 3.2504844321 -3.2383809012 2.1898093847
| 35> H 0.2647853296 1.0969095948 1.5820907071
| 36> H -0.2892690358 0.3331292021 3.1159318838
| 37> H -4.9157666259 2.17588858 -1.4873693756
| 38> H -4.3984722619 0.4686057257 -1.4454191228
| 39> H -5.0381519454 2.1791838014 1.0133294063
| 40> H -6.1246965363 0.971827018 0.3078604302
| 41> H -4.593855428 0.4717498903 1.0450658246
| 42> H -1.4778357677 -2.0346122705 -2.1500130546
| 43> H -1.1602634127 -1.79422061 -0.4166763477
| 44> H -3.1526996437 -3.2298314131 -0.7514554063
| 45> H -3.6090753248 -1.7135559932 0.0323217577
| 46> H -3.9372895074 -1.9570065322 -1.6952427225
| 47> *
| 48>
| 49>                          ****END OF INPUT****

CARTESIAN COORDINATES (ANGSTROEM)
---------------------------------
  C      2.648269    0.472351   -2.692631
  C      1.649112   -0.634330   -2.434405
  O      1.138072   -0.629106   -1.084374
  P      2.020614   -0.548388    0.232842
  S      2.885368    1.135770    0.763216
  O      3.026391   -1.755275   -0.002845
  C      4.216903   -1.928846    0.785083
  C      3.898589   -2.365879    2.200002
  S      0.612104   -1.289611    1.613603
  C     -0.265776    0.252517    2.032555
  S     -1.985711    0.255990    1.488033
  P     -1.779646    1.034308   -0.482883
  S     -0.224056    2.189257   -0.762060
  O     -3.064508    1.903872   -0.769281
  C     -4.418130    1.408829   -0.891355
  C     -5.085229    1.245789    0.459180
  O     -1.928570   -0.185303   -1.497826
  C     -1.867374   -1.602254   -1.226768
  C     -3.236933   -2.156433   -0.888679
  H      2.211274    1.437073   -2.438192
  H      3.539836    0.326855   -2.083452
  H      2.928362    0.470834   -3.741305
  H      2.092445   -1.615901   -2.617311
  H      0.753543   -0.502669   -3.045495
  H      4.780928   -2.689349    0.243470
  H      4.769177   -0.983528    0.790408
  H      4.821690   -2.605727    2.717667
  H      3.395110   -1.559950    2.731983
  H      3.250484   -3.238381    2.189809
  H      0.264785    1.096910    1.582091
  H     -0.289269    0.333129    3.115932
  H     -4.915767    2.175889   -1.487369
  H     -4.398472    0.468606   -1.445419
  H     -5.038152    2.179184    1.013329
  H     -6.124697    0.971827    0.307860
  H     -4.593855    0.471750    1.045066
  H     -1.477836   -2.034612   -2.150013
  H     -1.160263   -1.794221   -0.416676
  H     -3.152700   -3.229831   -0.751455
  H     -3.609075   -1.713556    0.032322
  H     -3.937290   -1.957007   -1.695243

 Total Charge           Charge          ....    0
 Multiplicity           Mult            ....    1
 Number of Electrons    NEL             ....  202
 Basis Dimension        Dim             ....  334

ORBITAL ENERGIES
----------------

  NO   OCC          E(Eh)            E(eV)
   0   2.0000     -88.045944     -2395.8519
   1   2.0000     -88.042134     -2395.7483
   2   2.0000     -87.981107     -2394.0876
   3   2.0000     -87.971266     -2393.8198
   4   2.0000     -76.424967     -2079.6291
   5   2.0000     -76.421678     -2079.5396
   6   2.0000     -18.795452      -511.4502
   7   2.0000     -18.788882      -511.2715
   8   2.0000     -18.788705      -511.2667
   9   2.0000     -18.783276      -511.1189
  10   2.0000      -9.957187      -270.9488
  11   2.0000      -9.954986      -270.8889
  12   2.0000      -9.952552      -270.8227
  13   2.0000      -9.952295      -270.8157
  14   2.0000      -9.948408      -270.7100
  15   2.0000      -9.892058      -269.1766
  16   2.0000      -9.891149      -269.1518
  17   2.0000      -9.884228      -268.9635
  18   2.0000      -9.873512      -268.6719
  19   2.0000      -7.690605      -209.2720
  20   2.0000      -7.687092      -209.1764
  21   2.0000      -7.626030      -207.5148
  22   2.0000      -7.616505      -207.2556
  23   2.0000      -6.422018      -174.7520
  24   2.0000      -6.418965      -174.6689
  25   2.0000      -5.718513      -155.6086
  26   2.0000      -5.714885      -155.5099
  27   2.0000      -5.714869      -155.5095
  28   2.0000      -5.711599      -155.4205
  29   2.0000      -5.707844      -155.3183
  30   2.0000      -5.704085      -155.2161
  31   2.0000      -5.654992      -153.8801
  32   2.0000      -5.646732      -153.6554
  33   2.0000      -5.646109      -153.6384
  34   2.0000      -5.645724      -153.6280
  35   2.0000      -5.637138      -153.3943
  36   2.0000      -5.636252      -153.3702
  37   2.0000      -4.644896      -126.3941
  38   2.0000      -4.643626      -126.3595
  39   2.0000      -4.642400      -126.3261
  40   2.0000      -4.641799      -126.3098
  41   2.0000      -4.641125      -126.2914
  42   2.0000      -4.638844      -126.2294
  43   2.0000      -0.986111       -26.8335
  44   2.0000      -0.982204       -26.7271
  45   2.0000      -0.941544       -25.6207
  46   2.0000      -0.939030       -25.5523
  47   2.0000      -0.762675       -20.7534
  48   2.0000      -0.722531       -19.6611
  49   2.0000      -0.710921       -19.3451
  50   2.0000      -0.692361       -18.8401
  51   2.0000      -0.686767       -18.6879
  52   2.0000      -0.675301       -18.3759
  53   2.0000      -0.649458       -17.6727
  54   2.0000      -0.630297       -17.1513
  55   2.0000      -0.596133       -16.2216
  56   2.0000      -0.585758       -15.9393
  57   2.0000      -0.580852       -15.8058
  58   2.0000      -0.573822       -15.6145
  59   2.0000      -0.562554       -15.3079
  60   2.0000      -0.498255       -13.5582
  61   2.0000      -0.492616       -13.4048
  62   2.0000      -0.478529       -13.0214
  63   2.0000      -0.467664       -12.7258
  64   2.0000      -0.453186       -12.3318
  65   2.0000      -0.451369       -12.2824
  66   2.0000      -0.441066       -12.0020
  67   2.0000      -0.433227       -11.7887
  68   2.0000      -0.427514       -11.6332
  69   2.0000      -0.416162       -11.3243
  70   2.0000      -0.412756       -11.2317
  71   2.0000      -0.409154       -11.1337
  72   2.0000      -0.395845       -10.7715
  73   2.0000      -0.385803       -10.4982
  74   2.0000      -0.383715       -10.4414
  75   2.0000      -0.369597       -10.0572
  76   2.0000      -0.364902        -9.9295
  77   2.0000      -0.360837        -9.8189
  78   2.0000      -0.354090        -9.6353
  79   2.0000      -0.352777        -9.5995
  80   2.0000      -0.347692        -9.4612
  81   2.0000      -0.342318        -9.3150
  82   2.0000      -0.338279        -9.2050
  83   2.0000      -0.337308        -9.1786
  84   2.0000      -0.329239        -8.9591
  85   2.0000      -0.315372        -8.5817
  86   2.0000      -0.308435        -8.3929
  87   2.0000      -0.296533        -8.0691
  88   2.0000      -0.291602        -7.9349
  89   2.0000      -0.290239        -7.8978
  90   2.0000      -0.283124        -7.7042
  91   2.0000      -0.278113        -7.5678
  92   2.0000      -0.274285        -7.4637
  93   2.0000      -0.259141        -7.0516
  94   2.0000      -0.258048        -7.0218
  95   2.0000      -0.239512        -6.5174
  96   2.0000      -0.219693        -5.9781
  97   2.0000      -0.209604        -5.7036
  98   2.0000      -0.193280        -5.2594
  99   2.0000      -0.186767        -5.0822
 100   2.0000      -0.179443        -4.8829
 101   0.0000      -0.039255        -1.0682
 102   0.0000      -0.031790        -0.8651
 103   0.0000      -0.015312        -0.4167
 104   0.0000       0.008063         0.2194
 105   0.0000       0.018692         0.5086

MULLIKEN ATOMIC CHARGES
-----------------------
   0 C :   -0.324035
   1 C :    0.007260
   2 O :   -0.367895
   3 P :    0.622373
   4 S :   -0.306134
   5 O :   -0.380000
   6 C :   -0.006442
   7 C :   -0.314272
   8 S :   -0.104433
   9 C :   -0.331391
  10 S :   -0.145840
  11 P :    0.619995
  12 S :   -0.293546
  13 O :   -0.353913
  14 C :   -0.022737
  15 C :   -0.320278
  16 O :   -0.387823
  17 C :   -0.018829
  18 C :   -0.311148
  19 H :    0.144598
  20 H :    0.120841
  21 H :    0.106234
  22 H :    0.101441
  23 H :    0.108174
  24 H :    0.102977
  25 H :    0.112498
  26 H :    0.113605
  27 H :    0.127341
  28 H :    0.115557
  29 H :    0.211121
  30 H :    0.185299
  31 H :    0.112672
  32 H :    0.108189
  33 H :    0.127358
  34 H :    0.113279
  35 H :    0.138596
  36 H :    0.102835
  37 H :    0.131686
  38 H :    0.113701
  39 H :    0.118363
  40 H :    0.122727
Sum of atomic charges:   -0.0000000

LOEWDIN ATOMIC CHARGES
----------------------
   0 C :   -0.371275
   1 C :   -0.109464
   2 O :   -0.240181
   3 P :    0.574807
   4 S :   -0.303356
   5 O :   -0.245268
   6 C :   -0.121861
   7 C :   -0.369319
   8 S :    0.082999
   9 C :   -0.477822
  10 S :    0.070482
  11 P :    0.563575
  12 S :   -0.288753
  13 O :   -0.234523
  14 C :   -0.116160
  15 C :   -0.364852
  16 O :   -0.248981
  17 C :   -0.121323
  18 C :   -0.364721
  19 H :    0.132301
  20 H :    0.118353
  21 H :    0.127803
  22 H :    0.109681
  23 H :    0.119636
  24 H :    0.117244
  25 H :    0.110352
  26 H :    0.131477
  27 H :    0.122104
  28 H :    0.123702
  29 H :    0.128956
  30 H :    0.139625
  31 H :    0.123933
  32 H :    0.108974
  33 H :    0.132717
  34 H :    0.131785
  35 H :    0.114696
  36 H :    0.118317
  37 H :    0.101956
  38 H :    0.133132
  39 H :    0.116755
  40 H :    0.122498

  Mayer bond orders larger than 0.100000
B(  0-C ,  1-C ) :   1.1720 B(  0-C , 19-H ) :   0.9362 B(  0-C , 20-H ) :   0.9349
B(  0-C , 21-H ) :   0.9343 B(  1-C ,  2-O ) :   0.8982 B(  1-C , 22-H ) :   0.9343
B(  1-C , 23-H ) :   0.9265 B(  2-O ,  3-P ) :   1.1207 B(  3-P ,  4-S ) :   1.6186
B(  3-P ,  5-O ) :   1.0894 B(  3-P ,  8-S ) :   0.9529 B(  4-S ,  8-S ) :   0.1144
B(  5-O ,  6-C ) :   0.9059 B(  6-C ,  7-C ) :   1.1679 B(  6-C , 24-H ) :   0.9328
B(  6-C , 25-H ) :   0.9113 B(  7-C , 26-H ) :   0.9384 B(  7-C , 27-H ) :   0.9345
B(  7-C , 28-H ) :   0.9454 B(  8-S ,  9-C ) :   0.9906 B(  9-C , 10-S ) :   1.0059
B(  9-C , 29-H ) :   0.8390 B(  9-C , 30-H ) :   0.9096 B( 10-S , 11-P ) :   0.9245
B( 10-S , 12-S ) :   0.1092 B( 11-P , 12-S ) :   1.6761 B( 11-P , 13-O ) :   1.1274
B( 11-P , 16-O ) :   1.0835 B( 13-O , 14-C ) :   0.9091 B( 14-C , 15-C ) :   1.1665
B( 14-C , 31-H ) :   0.9329 B( 14-C , 32-H ) :   0.9134 B( 15-C , 33-H ) :   0.9443
B( 15-C , 34-H ) :   0.9378 B( 15-C , 35-H ) :   0.9286 B( 16-O , 17-C ) :   0.9007
B( 17-C , 18-C ) :   1.1651 B( 17-C , 36-H ) :   0.9309 B( 17-C , 37-H ) :   0.8965
B( 18-C , 38-H ) :   0.9363 B( 18-C , 39-H ) :   0.9366 B( 18-C , 40-H ) :   0.9364

Dispersion correction           -0.068908476
FINAL SINGLE POINT ENERGY     -2929.509076719228

DIPOLE MOMENT
-------------

Method             : SCF
Type of density    : Electron Density
Multiplicity       :   1
Irrep              :   0
Energy             : -2929.6276870172882809 Eh
Relativity type    :
Basis              : AO
                                X                 Y                 Z
Electronic contribution:      4.948267576      11.770136770       5.396422103
Nuclear contribution   :     -5.790442314     -13.637895478      -5.640800760
                        -----------------------------------------
Total Dipole Moment    :     -0.842174737      -1.867758708      -0.244378657
                        -----------------------------------------
Magnitude (a.u.)       :      2.063371466
Magnitude (Debye)      :      5.244673466

Rotational constants in cm-1:             0.013740             0.005236             0.004961
Rotational constants in MHz :           411.912723           156.966852           148.731466

                             ****ORCA TERMINATED NORMALLY****
TOTAL RUN TIME: 0 days 0 hours 0 minutes 21 seconds 875 msec
