                         Program Version 6.0.1  -  RELEASE   -
|  1> ! pbe def2-sv(p) def2/J RI DEFGRID1 loosescf d4 GCP(DFT/SV(P)) printgap
|  2> %output
|  3>     printlevel normal
|  4> end
|  5> * xyz 0 1
|  6> C 2.9402050308 -3.7796965558 0.4664250928
|  7> C 2.7946106676 -2.2920654357 0.7141238612
|  8> O 2.343568227 -1.6813409834 -0.5100098111
|  9> C 2.112919826 -0.3891245029 -0.5142344589
| 10> O 2.2418599805 0.3417975562 0.4471101885
| 11> C 1.6832745075 0.1120655055 -1.8808298087
| 12> C 0.3362630075 0.8354996222 -1.7941659078
| 13> H 0.1749910941 1.4219207252 -2.7019369594
| 14> C 0.2755442628 1.7555874796 -0.5902444787
| 15> O -0.5196513813 1.5787242758 0.317600623
| 16> O 1.1036049345 2.7478523247 -0.6922891933
| 17> C 1.2501062493 3.6817092007 0.4022060202
| 18> C 2.6897503046 3.6533713492 0.8827210154
| 19> S -1.0675469717 -0.3250700943 -1.7261178912
| 20> P -1.628917651 -0.583223053 0.3168863914
| 21> S -0.4401755464 -0.9516356695 1.8297082781
| 22> O -2.8984523919 0.3638420083 0.5829746184
| 23> C -2.9716136381 1.4316527744 1.5243461301
| 24> O -2.4023641212 -1.9692325961 0.0868998249
| 25> C -3.4938715388 -2.1561963578 -0.8287605234
| 26> H 3.2962678237 -4.2582321205 1.372347094
| 27> H 1.978184332 -4.203730297 0.1940375008
| 28> H 3.6468361755 -3.9561777994 -0.3389808058
| 29> H 3.7448116166 -1.8275492952 0.9952872376
| 30> H 2.0601444052 -2.0765845388 1.4976691911
| 31> H 1.6153217445 -0.7243965459 -2.5744379348
| 32> H 2.4380111106 0.8238381059 -2.2212607654
| 33> H 0.9818079821 4.6587461271 -0.0048149736
| 34> H 0.5594213567 3.3997243837 1.2001971187
| 35> H 2.803396877 4.3403808846 1.714457825
| 36> H 2.9440170959 2.6480872107 1.21090107
| 37> H 3.3596341586 3.9437683613 0.0792908989
| 38> H -3.9625868817 1.3729799307 1.9702649961
| 39> H -2.8349201568 2.3792857459 1.0061717684
| 40> H -2.2033003003 1.3154163788 2.289918848
| 41> H -3.925078165 -3.1179325056 -0.561681314
| 42> H -3.1198311263 -2.1745392388 -1.8520116732
| 43> H -4.2267270565 -1.3602555469 -0.7096410048
| 44> *
| 45>
| 46>                          ****END OF INPUT****

CARTESIAN COORDINATES (ANGSTROEM)
---------------------------------
  C      2.940205   -3.779697    0.466425
  C      2.794611   -2.292065    0.714124
  O      2.343568   -1.681341   -0.510010
  C      2.112920   -0.389125   -0.514234
  O      2.241860    0.341798    0.447110
  C      1.683275    0.112066   -1.880830
  C      0.336263    0.835500   -1.794166
  H      0.174991    1.421921   -2.701937
  C      0.275544    1.755587   -0.590244
  O     -0.519651    1.578724    0.317601
  O      1.103605    2.747852   -0.692289
  C      1.250106    3.681709    0.402206
  C      2.689750    3.653371    0.882721
  S     -1.067547   -0.325070   -1.726118
  P     -1.628918   -0.583223    0.316886
  S     -0.440176   -0.951636    1.829708
  O     -2.898452    0.363842    0.582975
  C     -2.971614    1.431653    1.524346
  O     -2.402364   -1.969233    0.086900
  C     -3.493872   -2.156196   -0.828761
  H      3.296268   -4.258232    1.372347
  H      1.978184   -4.203730    0.194038
  H      3.646836   -3.956178   -0.338981
  H      3.744812   -1.827549    0.995287
  H      2.060144   -2.076585    1.497669
  H      1.615322   -0.724397   -2.574438
  H      2.438011    0.823838   -2.221261
  H      0.981808    4.658746   -0.004815
  H      0.559421    3.399724    1.200197
  H      2.803397    4.340381    1.714458
  H      2.944017    2.648087    1.210901
  H      3.359634    3.943768    0.079291
  H     -3.962587    1.372980    1.970265
  H     -2.834920    2.379286    1.006172
  H     -2.203300    1.315416    2.289919
  H     -3.925078   -3.117933   -0.561681
  H     -3.119831   -2.174539   -1.852012
  H     -4.226727   -1.360256   -0.709641

 Total Charge           Charge          ....    0
 Multiplicity           Mult            ....    1
 Number of Electrons    NEL             ....  174
 Basis Dimension        Dim             ....  316

ORBITAL ENERGIES
----------------

  NO   OCC          E(Eh)            E(eV)
   0   2.0000     -88.031532     -2395.4598
   1   2.0000     -87.958461     -2393.4714
   2   2.0000     -76.414206     -2079.3363
   3   2.0000     -18.819065      -512.0928
   4   2.0000     -18.801732      -511.6211
   5   2.0000     -18.771882      -510.8089
   6   2.0000     -18.764159      -510.5987
   7   2.0000     -18.762376      -510.5502
   8   2.0000     -18.738788      -509.9083
   9   2.0000     -10.032267      -272.9919
  10   2.0000     -10.011295      -272.4212
  11   2.0000      -9.956647      -270.9341
  12   2.0000      -9.954700      -270.8812
  13   2.0000      -9.936781      -270.3936
  14   2.0000      -9.931660      -270.2542
  15   2.0000      -9.928196      -270.1599
  16   2.0000      -9.916800      -269.8498
  17   2.0000      -9.885322      -268.9933
  18   2.0000      -9.880048      -268.8498
  19   2.0000      -7.676686      -208.8932
  20   2.0000      -7.603768      -206.9090
  21   2.0000      -6.408963      -174.3967
  22   2.0000      -5.704978      -155.2404
  23   2.0000      -5.700859      -155.1283
  24   2.0000      -5.693521      -154.9286
  25   2.0000      -5.633207      -153.2874
  26   2.0000      -5.624644      -153.0544
  27   2.0000      -5.623048      -153.0109
  28   2.0000      -4.632031      -126.0440
  29   2.0000      -4.630862      -126.0122
  30   2.0000      -4.629476      -125.9745
  31   2.0000      -1.031615       -28.0717
  32   2.0000      -1.009218       -27.4622
  33   2.0000      -0.962084       -26.1796
  34   2.0000      -0.938580       -25.5401
  35   2.0000      -0.916982       -24.9523
  36   2.0000      -0.915720       -24.9180
  37   2.0000      -0.767838       -20.8939
  38   2.0000      -0.713628       -19.4188
  39   2.0000      -0.705513       -19.1980
  40   2.0000      -0.684382       -18.6230
  41   2.0000      -0.653556       -17.7841
  42   2.0000      -0.622730       -16.9453
  43   2.0000      -0.621193       -16.9035
  44   2.0000      -0.598196       -16.2777
  45   2.0000      -0.586419       -15.9573
  46   2.0000      -0.560563       -15.2537
  47   2.0000      -0.514244       -13.9933
  48   2.0000      -0.504749       -13.7349
  49   2.0000      -0.501573       -13.6485
  50   2.0000      -0.489347       -13.3158
  51   2.0000      -0.465798       -12.6750
  52   2.0000      -0.460611       -12.5339
  53   2.0000      -0.444685       -12.1005
  54   2.0000      -0.442335       -12.0365
  55   2.0000      -0.427558       -11.6345
  56   2.0000      -0.420278       -11.4363
  57   2.0000      -0.415202       -11.2982
  58   2.0000      -0.409366       -11.1394
  59   2.0000      -0.406528       -11.0622
  60   2.0000      -0.400638       -10.9019
  61   2.0000      -0.389866       -10.6088
  62   2.0000      -0.384973       -10.4756
  63   2.0000      -0.379149       -10.3172
  64   2.0000      -0.369933       -10.0664
  65   2.0000      -0.361258        -9.8303
  66   2.0000      -0.359953        -9.7948
  67   2.0000      -0.351127        -9.5547
  68   2.0000      -0.347584        -9.4582
  69   2.0000      -0.339746        -9.2450
  70   2.0000      -0.331885        -9.0311
  71   2.0000      -0.328356        -8.9350
  72   2.0000      -0.311934        -8.4881
  73   2.0000      -0.305995        -8.3266
  74   2.0000      -0.297250        -8.0886
  75   2.0000      -0.296144        -8.0585
  76   2.0000      -0.286104        -7.7853
  77   2.0000      -0.281339        -7.6556
  78   2.0000      -0.275418        -7.4945
  79   2.0000      -0.257424        -7.0049
  80   2.0000      -0.255559        -6.9541
  81   2.0000      -0.246807        -6.7160
  82   2.0000      -0.240677        -6.5492
  83   2.0000      -0.224421        -6.1068
  84   2.0000      -0.211565        -5.7570
  85   2.0000      -0.180403        -4.9090
  86   2.0000      -0.168536        -4.5861
  87   0.0000      -0.043147        -1.1741
  88   0.0000      -0.032817        -0.8930
  89   0.0000      -0.026762        -0.7282
  90   0.0000      -0.001330        -0.0362
  91   0.0000       0.037429         1.0185

MULLIKEN ATOMIC CHARGES
-----------------------
   0 C :   -0.274288
   1 C :   -0.041365
   2 O :   -0.215681
   3 C :    0.102772
   4 O :   -0.203640
   5 C :   -0.026439
   6 C :   -0.287704
   7 H :    0.148466
   8 C :    0.226934
   9 O :   -0.202369
  10 O :   -0.218712
  11 C :   -0.024469
  12 C :   -0.302572
  13 S :   -0.131772
  14 P :    0.649830
  15 S :   -0.324485
  16 O :   -0.403705
  17 C :   -0.081204
  18 O :   -0.381644
  19 C :   -0.115966
  20 H :    0.110074
  21 H :    0.123883
  22 H :    0.107407
  23 H :    0.095806
  24 H :    0.136681
  25 H :    0.116632
  26 H :    0.121880
  27 H :    0.106870
  28 H :    0.126249
  29 H :    0.111035
  30 H :    0.148241
  31 H :    0.108287
  32 H :    0.112584
  33 H :    0.102858
  34 H :    0.118867
  35 H :    0.123912
  36 H :    0.119576
  37 H :    0.117175
Sum of atomic charges:   -0.0000000

LOEWDIN ATOMIC CHARGES
----------------------
   0 C :   -0.350083
   1 C :   -0.111988
   2 O :   -0.043315
   3 C :    0.028667
   4 O :   -0.157047
   5 C :   -0.246114
   6 C :   -0.257316
   7 H :    0.147862
   8 C :    0.030933
   9 O :   -0.146294
  10 O :   -0.033013
  11 C :   -0.102689
  12 C :   -0.356077
  13 S :    0.085513
  14 P :    0.579923
  15 S :   -0.317805
  16 O :   -0.262189
  17 C :   -0.210347
  18 O :   -0.263746
  19 C :   -0.218234
  20 H :    0.130622
  21 H :    0.131024
  22 H :    0.122426
  23 H :    0.112632
  24 H :    0.118666
  25 H :    0.136780
  26 H :    0.146492
  27 H :    0.118160
  28 H :    0.126398
  29 H :    0.130014
  30 H :    0.138597
  31 H :    0.122990
  32 H :    0.113827
  33 H :    0.106933
  34 H :    0.110630
  35 H :    0.121859
  36 H :    0.104576
  37 H :    0.110730

  Mayer bond orders larger than 0.100000
B(  0-C ,  1-C ) :   1.1573 B(  0-C , 20-H ) :   0.9440 B(  0-C , 21-H ) :   0.9485
B(  0-C , 22-H ) :   0.9506 B(  1-C ,  2-O ) :   0.8945 B(  1-C , 23-H ) :   0.9309
B(  1-C , 24-H ) :   0.9092 B(  2-O ,  3-C ) :   1.2727 B(  2-O ,  4-O ) :   0.1027
B(  3-C ,  4-O ) :   1.9434 B(  3-C ,  5-C ) :   1.0059 B(  5-C ,  6-C ) :   1.0266
B(  5-C , 25-H ) :   0.9034 B(  5-C , 26-H ) :   0.8766 B(  6-C ,  7-H ) :   0.8780
B(  6-C ,  8-C ) :   0.9076 B(  6-C , 13-S ) :   1.0478 B(  8-C ,  9-O ) :   1.8892
B(  8-C , 10-O ) :   1.2783 B(  9-O , 14-P ) :   0.1518 B( 10-O , 11-C ) :   0.8878
B( 11-C , 12-C ) :   1.1771 B( 11-C , 27-H ) :   0.9367 B( 11-C , 28-H ) :   0.9091
B( 12-C , 29-H ) :   0.9420 B( 12-C , 30-H ) :   0.9326 B( 12-C , 31-H ) :   0.9499
B( 13-S , 14-P ) :   0.9225 B( 13-S , 15-S ) :   0.1102 B( 14-P , 15-S ) :   1.5947
B( 14-P , 16-O ) :   1.0647 B( 14-P , 18-O ) :   1.0736 B( 16-O , 17-C ) :   0.9347
B( 17-C , 32-H ) :   0.9543 B( 17-C , 33-H ) :   0.9553 B( 17-C , 34-H ) :   0.9348
B( 18-O , 19-C ) :   0.9384 B( 19-C , 35-H ) :   0.9607 B( 19-C , 36-H ) :   0.9420
B( 19-C , 37-H ) :   0.9425

Dispersion correction           -0.053339560
FINAL SINGLE POINT ENERGY     -1979.003362412712

DIPOLE MOMENT
-------------

Method             : SCF
Type of density    : Electron Density
Multiplicity       :   1
Irrep              :   0
Energy             : -1979.1341703446742031 Eh
Relativity type    :
Basis              : AO
                                X                 Y                 Z
Electronic contribution:     -9.851328093      -1.956780024      -3.183524261
Nuclear contribution   :     10.250664201       3.022236609       2.124440652
                        -----------------------------------------
Total Dipole Moment    :      0.399336107       1.065456585      -1.059083609
                        -----------------------------------------
Magnitude (a.u.)       :      1.554453329
Magnitude (Debye)      :      3.951106364

Rotational constants in cm-1:             0.010988             0.009309             0.006711
Rotational constants in MHz :           329.421860           279.064071           201.186541

                             ****ORCA TERMINATED NORMALLY****
TOTAL RUN TIME: 0 days 0 hours 0 minutes 44 seconds 881 msec
