                         Program Version 6.0.0  -   RELEASE  -
|  1> ! r2scan-3c def2/J RI DEFGRID2 scfconv6 printgap
|  2> %output
|  3>     printlevel normal
|  4> end
|  5> * xyz 0 1
|  6> C 0.7321940697 -1.5211955106 3.1985202486
|  7> C 1.9953203011 -0.9687731726 2.5708302146
|  8> O 1.6350901361 -0.0152321908 1.5423945838
|  9> P 2.3456500867 0.0487762908 0.1342888055
| 10> S 3.1290992449 -1.6387279384 -0.4980685542
| 11> O 3.3448458749 1.2636182414 0.3647950729
| 12> C 4.2443225585 1.7338007851 -0.6596586158
| 13> C 5.6043225419 1.075860119 -0.5274996813
| 14> S 0.8615926375 0.8912437181 -1.11343902
| 15> C 0.0423920372 -0.6730199762 -1.5251625667
| 16> S -1.0254288725 -1.2705541641 -0.1977693546
| 17> P -2.5176725304 0.2405796513 -0.4295042385
| 18> S -2.8846357987 0.7995105423 -2.2656635216
| 19> O -2.0440151016 1.4424314182 0.4732848456
| 20> C -1.8485493058 1.3159504122 1.9055140236
| 21> C -0.7948575548 2.3190635081 2.326321557
| 22> O -3.7543498116 -0.3188135498 0.3990624074
| 23> C -4.7617021233 -1.1704030086 -0.1787158224
| 24> C -4.2089431508 -2.5163444791 -0.5996174834
| 25> H 0.1540301588 -0.7182892777 3.6466015716
| 26> H 0.1278277481 -2.0218487367 2.4456098835
| 27> H 1.0064971781 -2.2363161934 3.9673424722
| 28> H 2.592062471 -1.7666797529 2.1161958956
| 29> H 2.6040913554 -0.4315775905 3.3005258108
| 30> H 3.8060604527 1.5392634114 -1.6428266509
| 31> H 4.3057587766 2.8115541269 -0.497497379
| 32> H 6.2765324392 1.4921674187 -1.2707921873
| 33> H 6.009482619 1.2534801666 0.4646562806
| 34> H 5.5219260011 0.0028541302 -0.6858664525
| 35> H 0.7968029129 -1.4403255455 -1.7046874601
| 36> H -0.5602101029 -0.487252803 -2.4146627581
| 37> H -2.8099067736 1.5159294008 2.3822687339
| 38> H -1.5403519723 0.2901242642 2.1275191012
| 39> H -1.0837703754 3.315553843 2.0045634133
| 40> H -0.6978399207 2.3033575354 3.407246961
| 41> H 0.1642851949 2.0722587824 1.8770714873
| 42> H -5.5016200862 -1.2689775403 0.6168025719
| 43> H -5.2009174064 -0.6501185032 -1.0351013142
| 44> H -3.6725800563 -2.9814234019 0.2236555123
| 45> H -5.0282365864 -3.1589102935 -0.9056114887
| 46> H -3.5268910974 -2.3933380166 -1.4395814841
| 47> *
| 48>
| 49>                          ****END OF INPUT****

CARTESIAN COORDINATES (ANGSTROEM)
---------------------------------
  C      0.732194   -1.521196    3.198520
  C      1.995320   -0.968773    2.570830
  O      1.635090   -0.015232    1.542395
  P      2.345650    0.048776    0.134289
  S      3.129099   -1.638728   -0.498069
  O      3.344846    1.263618    0.364795
  C      4.244323    1.733801   -0.659659
  C      5.604323    1.075860   -0.527500
  S      0.861593    0.891244   -1.113439
  C      0.042392   -0.673020   -1.525163
  S     -1.025429   -1.270554   -0.197769
  P     -2.517673    0.240580   -0.429504
  S     -2.884636    0.799511   -2.265664
  O     -2.044015    1.442431    0.473285
  C     -1.848549    1.315950    1.905514
  C     -0.794858    2.319064    2.326322
  O     -3.754350   -0.318814    0.399062
  C     -4.761702   -1.170403   -0.178716
  C     -4.208943   -2.516344   -0.599617
  H      0.154030   -0.718289    3.646602
  H      0.127828   -2.021849    2.445610
  H      1.006497   -2.236316    3.967342
  H      2.592062   -1.766680    2.116196
  H      2.604091   -0.431578    3.300526
  H      3.806060    1.539263   -1.642827
  H      4.305759    2.811554   -0.497497
  H      6.276532    1.492167   -1.270792
  H      6.009483    1.253480    0.464656
  H      5.521926    0.002854   -0.685866
  H      0.796803   -1.440326   -1.704687
  H     -0.560210   -0.487253   -2.414663
  H     -2.809907    1.515929    2.382269
  H     -1.540352    0.290124    2.127519
  H     -1.083770    3.315554    2.004563
  H     -0.697840    2.303358    3.407247
  H      0.164285    2.072259    1.877071
  H     -5.501620   -1.268978    0.616803
  H     -5.200917   -0.650119   -1.035101
  H     -3.672580   -2.981423    0.223656
  H     -5.028237   -3.158910   -0.905611
  H     -3.526891   -2.393338   -1.439581

 Total Charge           Charge          ....    0
 Multiplicity           Mult            ....    1
 Number of Electrons    NEL             ....  202
 Basis Dimension        Dim             ....  539

ORBITAL ENERGIES
----------------

  NO   OCC          E(Eh)            E(eV)
   0   2.0000     -88.576171     -2410.2802
   1   2.0000     -88.574030     -2410.2219
   2   2.0000     -88.523206     -2408.8389
   3   2.0000     -88.521386     -2408.7894
   4   2.0000     -76.916770     -2093.0117
   5   2.0000     -76.913900     -2092.9336
   6   2.0000     -18.995618      -516.8970
   7   2.0000     -18.994857      -516.8763
   8   2.0000     -18.994681      -516.8716
   9   2.0000     -18.988531      -516.7042
  10   2.0000     -10.102333      -274.8985
  11   2.0000     -10.101977      -274.8888
  12   2.0000     -10.101719      -274.8818
  13   2.0000     -10.101287      -274.8700
  14   2.0000     -10.099611      -274.8244
  15   2.0000     -10.034845      -273.0620
  16   2.0000     -10.030339      -272.9394
  17   2.0000     -10.027197      -272.8539
  18   2.0000     -10.027064      -272.8503
  19   2.0000      -7.870272      -214.1610
  20   2.0000      -7.868527      -214.1135
  21   2.0000      -7.818113      -212.7417
  22   2.0000      -7.816127      -212.6876
  23   2.0000      -6.595262      -179.4662
  24   2.0000      -6.592459      -179.3899
  25   2.0000      -5.817171      -158.2933
  26   2.0000      -5.815301      -158.2424
  27   2.0000      -5.814093      -158.2095
  28   2.0000      -5.812400      -158.1634
  29   2.0000      -5.807440      -158.0285
  30   2.0000      -5.805698      -157.9811
  31   2.0000      -5.765623      -156.8906
  32   2.0000      -5.763813      -156.8413
  33   2.0000      -5.758329      -156.6921
  34   2.0000      -5.758287      -156.6910
  35   2.0000      -5.756344      -156.6381
  36   2.0000      -5.756158      -156.6330
  37   2.0000      -4.740767      -129.0028
  38   2.0000      -4.740197      -128.9873
  39   2.0000      -4.738957      -128.9536
  40   2.0000      -4.738328      -128.9365
  41   2.0000      -4.737294      -128.9083
  42   2.0000      -4.735954      -128.8719
  43   2.0000      -1.052999       -28.6536
  44   2.0000      -1.051768       -28.6201
  45   2.0000      -1.013617       -27.5819
  46   2.0000      -1.009835       -27.4790
  47   2.0000      -0.802340       -21.8328
  48   2.0000      -0.761499       -20.7215
  49   2.0000      -0.752311       -20.4714
  50   2.0000      -0.734099       -19.9758
  51   2.0000      -0.733366       -19.9559
  52   2.0000      -0.712408       -19.3856
  53   2.0000      -0.685921       -18.6649
  54   2.0000      -0.669793       -18.2260
  55   2.0000      -0.631355       -17.1800
  56   2.0000      -0.623513       -16.9667
  57   2.0000      -0.606802       -16.5119
  58   2.0000      -0.603685       -16.4271
  59   2.0000      -0.590105       -16.0576
  60   2.0000      -0.535632       -14.5753
  61   2.0000      -0.527209       -14.3461
  62   2.0000      -0.501659       -13.6508
  63   2.0000      -0.494628       -13.4595
  64   2.0000      -0.477514       -12.9938
  65   2.0000      -0.463014       -12.5992
  66   2.0000      -0.458466       -12.4755
  67   2.0000      -0.455358       -12.3909
  68   2.0000      -0.449243       -12.2245
  69   2.0000      -0.437831       -11.9140
  70   2.0000      -0.426783       -11.6134
  71   2.0000      -0.415891       -11.3170
  72   2.0000      -0.407703       -11.0942
  73   2.0000      -0.404143       -10.9973
  74   2.0000      -0.393327       -10.7030
  75   2.0000      -0.390599       -10.6287
  76   2.0000      -0.381907       -10.3922
  77   2.0000      -0.378668       -10.3041
  78   2.0000      -0.370573       -10.0838
  79   2.0000      -0.366787        -9.9808
  80   2.0000      -0.364750        -9.9254
  81   2.0000      -0.357905        -9.7391
  82   2.0000      -0.355873        -9.6838
  83   2.0000      -0.353827        -9.6281
  84   2.0000      -0.351084        -9.5535
  85   2.0000      -0.334884        -9.1127
  86   2.0000      -0.323436        -8.8011
  87   2.0000      -0.317700        -8.6451
  88   2.0000      -0.314687        -8.5631
  89   2.0000      -0.311258        -8.4698
  90   2.0000      -0.307684        -8.3725
  91   2.0000      -0.294666        -8.0183
  92   2.0000      -0.285326        -7.7641
  93   2.0000      -0.280794        -7.6408
  94   2.0000      -0.272250        -7.4083
  95   2.0000      -0.247661        -6.7392
  96   2.0000      -0.233818        -6.3625
  97   2.0000      -0.226298        -6.1579
  98   2.0000      -0.218294        -5.9401
  99   2.0000      -0.217074        -5.9069
 100   2.0000      -0.214521        -5.8374
 101   0.0000      -0.046687        -1.2704
 102   0.0000      -0.026159        -0.7118
 103   0.0000      -0.004652        -0.1266
 104   0.0000      -0.001999        -0.0544
 105   0.0000       0.014247         0.3877

MULLIKEN ATOMIC CHARGES
-----------------------
   0 C :   -0.480966
   1 C :   -0.108319
   2 O :   -0.257072
   3 P :    0.679528
   4 S :   -0.497418
   5 O :   -0.311518
   6 C :   -0.131702
   7 C :   -0.450168
   8 S :   -0.113617
   9 C :   -0.239480
  10 S :   -0.162617
  11 P :    0.646021
  12 S :   -0.442046
  13 O :   -0.264594
  14 C :   -0.096898
  15 C :   -0.467006
  16 O :   -0.287423
  17 C :   -0.165294
  18 C :   -0.444305
  19 H :    0.150315
  20 H :    0.173086
  21 H :    0.148084
  22 H :    0.172028
  23 H :    0.148826
  24 H :    0.154204
  25 H :    0.151435
  26 H :    0.145538
  27 H :    0.151143
  28 H :    0.180352
  29 H :    0.213996
  30 H :    0.221000
  31 H :    0.153899
  32 H :    0.151086
  33 H :    0.155075
  34 H :    0.141132
  35 H :    0.180388
  36 H :    0.148185
  37 H :    0.173960
  38 H :    0.152690
  39 H :    0.148376
  40 H :    0.180095
Sum of atomic charges:   -0.0000000

LOEWDIN ATOMIC CHARGES
----------------------
   0 C :   -0.397081
   1 C :    0.024647
   2 O :   -0.669856
   3 P :    0.373119
   4 S :   -0.142696
   5 O :   -0.658777
   6 C :    0.023309
   7 C :   -0.400454
   8 S :    0.178988
   9 C :   -0.425682
  10 S :    0.134587
  11 P :    0.378423
  12 S :   -0.101655
  13 O :   -0.653252
  14 C :    0.023708
  15 C :   -0.392113
  16 O :   -0.665862
  17 C :    0.023225
  18 C :   -0.408553
  19 H :    0.156011
  20 H :    0.165470
  21 H :    0.159930
  22 H :    0.184232
  23 H :    0.172730
  24 H :    0.176375
  25 H :    0.179185
  26 H :    0.158454
  27 H :    0.158267
  28 H :    0.168741
  29 H :    0.193824
  30 H :    0.192985
  31 H :    0.174178
  32 H :    0.175714
  33 H :    0.162562
  34 H :    0.158257
  35 H :    0.173003
  36 H :    0.179639
  37 H :    0.180328
  38 H :    0.159610
  39 H :    0.159689
  40 H :    0.166791

  Mayer bond orders larger than 0.100000
B(  0-C ,  1-C ) :   0.9491 B(  0-C , 19-H ) :   0.9733 B(  0-C , 20-H ) :   0.9663
B(  0-C , 21-H ) :   0.9631 B(  1-C ,  2-O ) :   0.7572 B(  1-C , 22-H ) :   0.9508
B(  1-C , 23-H ) :   0.9506 B(  2-O ,  3-P ) :   1.1480 B(  3-P ,  4-S ) :   1.7308
B(  3-P ,  5-O ) :   1.0801 B(  3-P ,  8-S ) :   1.1106 B(  5-O ,  6-C ) :   0.7756
B(  6-C ,  7-C ) :   0.9573 B(  6-C , 24-H ) :   0.9614 B(  6-C , 25-H ) :   0.9636
B(  7-C , 26-H ) :   0.9645 B(  7-C , 27-H ) :   0.9749 B(  7-C , 28-H ) :   0.9566
B(  8-S ,  9-C ) :   0.9061 B(  9-C , 10-S ) :   0.9109 B(  9-C , 29-H ) :   0.8995
B(  9-C , 30-H ) :   0.9051 B( 10-S , 11-P ) :   1.0013 B( 11-P , 12-S ) :   1.8380
B( 11-P , 13-O ) :   1.1579 B( 11-P , 16-O ) :   1.0352 B( 13-O , 14-C ) :   0.7390
B( 14-C , 15-C ) :   0.9469 B( 14-C , 31-H ) :   0.9493 B( 14-C , 32-H ) :   0.9490
B( 15-C , 33-H ) :   0.9693 B( 15-C , 34-H ) :   0.9672 B( 15-C , 35-H ) :   0.9606
B( 16-O , 17-C ) :   0.8195 B( 17-C , 18-C ) :   0.9181 B( 17-C , 36-H ) :   0.9614
B( 17-C , 37-H ) :   0.9692 B( 18-C , 38-H ) :   0.9676 B( 18-C , 39-H ) :   0.9562
B( 18-C , 40-H ) :   0.9629

Dispersion correction           -0.021569557
FINAL SINGLE POINT ENERGY     -2932.463924232798

DIPOLE MOMENT
-------------

Method             : SCF
Type of density    : Electron Density
Multiplicity       :   1
Irrep              :   0
Energy             : -2932.4889785621985538 Eh
Relativity type    :
Basis              : AO
                                X                 Y                 Z
Electronic contribution:     -3.600069470       2.788178270     -14.813091001
Nuclear contribution   :      3.650855844      -2.963733146      16.356277749
                        -----------------------------------------
Total Dipole Moment    :      0.050786374      -0.175554876       1.543186748
                        -----------------------------------------
Magnitude (a.u.)       :      1.553970433
Magnitude (Debye)      :      3.949878940

Rotational constants in cm-1:             0.013113             0.004705             0.004535
Rotational constants in MHz :           393.112228           141.043141           135.946036

                             ****ORCA TERMINATED NORMALLY****
TOTAL RUN TIME: 0 days 0 hours 1 minutes 20 seconds 370 msec
