                         Program Version 6.0.0  -   RELEASE  -
|  1> ! r2scan-3c def2/J RI DEFGRID2 scfconv6 printgap
|  2> %output
|  3>     printlevel normal
|  4> end
|  5> %cpcm
|  6>     smd true
|  7>     smdsolvent "water"
|  8> end
|  9> * xyz 0 1
| 10> C 0.7321940697 -1.5211955106 3.1985202486
| 11> C 1.9953203011 -0.9687731726 2.5708302146
| 12> O 1.6350901361 -0.0152321908 1.5423945838
| 13> P 2.3456500867 0.0487762908 0.1342888055
| 14> S 3.1290992449 -1.6387279384 -0.4980685542
| 15> O 3.3448458749 1.2636182414 0.3647950729
| 16> C 4.2443225585 1.7338007851 -0.6596586158
| 17> C 5.6043225419 1.075860119 -0.5274996813
| 18> S 0.8615926375 0.8912437181 -1.11343902
| 19> C 0.0423920372 -0.6730199762 -1.5251625667
| 20> S -1.0254288725 -1.2705541641 -0.1977693546
| 21> P -2.5176725304 0.2405796513 -0.4295042385
| 22> S -2.8846357987 0.7995105423 -2.2656635216
| 23> O -2.0440151016 1.4424314182 0.4732848456
| 24> C -1.8485493058 1.3159504122 1.9055140236
| 25> C -0.7948575548 2.3190635081 2.326321557
| 26> O -3.7543498116 -0.3188135498 0.3990624074
| 27> C -4.7617021233 -1.1704030086 -0.1787158224
| 28> C -4.2089431508 -2.5163444791 -0.5996174834
| 29> H 0.1540301588 -0.7182892777 3.6466015716
| 30> H 0.1278277481 -2.0218487367 2.4456098835
| 31> H 1.0064971781 -2.2363161934 3.9673424722
| 32> H 2.592062471 -1.7666797529 2.1161958956
| 33> H 2.6040913554 -0.4315775905 3.3005258108
| 34> H 3.8060604527 1.5392634114 -1.6428266509
| 35> H 4.3057587766 2.8115541269 -0.497497379
| 36> H 6.2765324392 1.4921674187 -1.2707921873
| 37> H 6.009482619 1.2534801666 0.4646562806
| 38> H 5.5219260011 0.0028541302 -0.6858664525
| 39> H 0.7968029129 -1.4403255455 -1.7046874601
| 40> H -0.5602101029 -0.487252803 -2.4146627581
| 41> H -2.8099067736 1.5159294008 2.3822687339
| 42> H -1.5403519723 0.2901242642 2.1275191012
| 43> H -1.0837703754 3.315553843 2.0045634133
| 44> H -0.6978399207 2.3033575354 3.407246961
| 45> H 0.1642851949 2.0722587824 1.8770714873
| 46> H -5.5016200862 -1.2689775403 0.6168025719
| 47> H -5.2009174064 -0.6501185032 -1.0351013142
| 48> H -3.6725800563 -2.9814234019 0.2236555123
| 49> H -5.0282365864 -3.1589102935 -0.9056114887
| 50> H -3.5268910974 -2.3933380166 -1.4395814841
| 51> *
| 52>
| 53>                          ****END OF INPUT****

CARTESIAN COORDINATES (ANGSTROEM)
---------------------------------
  C      0.732194   -1.521196    3.198520
  C      1.995320   -0.968773    2.570830
  O      1.635090   -0.015232    1.542395
  P      2.345650    0.048776    0.134289
  S      3.129099   -1.638728   -0.498069
  O      3.344846    1.263618    0.364795
  C      4.244323    1.733801   -0.659659
  C      5.604323    1.075860   -0.527500
  S      0.861593    0.891244   -1.113439
  C      0.042392   -0.673020   -1.525163
  S     -1.025429   -1.270554   -0.197769
  P     -2.517673    0.240580   -0.429504
  S     -2.884636    0.799511   -2.265664
  O     -2.044015    1.442431    0.473285
  C     -1.848549    1.315950    1.905514
  C     -0.794858    2.319064    2.326322
  O     -3.754350   -0.318814    0.399062
  C     -4.761702   -1.170403   -0.178716
  C     -4.208943   -2.516344   -0.599617
  H      0.154030   -0.718289    3.646602
  H      0.127828   -2.021849    2.445610
  H      1.006497   -2.236316    3.967342
  H      2.592062   -1.766680    2.116196
  H      2.604091   -0.431578    3.300526
  H      3.806060    1.539263   -1.642827
  H      4.305759    2.811554   -0.497497
  H      6.276532    1.492167   -1.270792
  H      6.009483    1.253480    0.464656
  H      5.521926    0.002854   -0.685866
  H      0.796803   -1.440326   -1.704687
  H     -0.560210   -0.487253   -2.414663
  H     -2.809907    1.515929    2.382269
  H     -1.540352    0.290124    2.127519
  H     -1.083770    3.315554    2.004563
  H     -0.697840    2.303358    3.407247
  H      0.164285    2.072259    1.877071
  H     -5.501620   -1.268978    0.616803
  H     -5.200917   -0.650119   -1.035101
  H     -3.672580   -2.981423    0.223656
  H     -5.028237   -3.158910   -0.905611
  H     -3.526891   -2.393338   -1.439581

 Total Charge           Charge          ....    0
 Multiplicity           Mult            ....    1
 Number of Electrons    NEL             ....  202
 Basis Dimension        Dim             ....  539

ORBITAL ENERGIES
----------------

  NO   OCC          E(Eh)            E(eV)
   0   2.0000     -88.580695     -2410.4033
   1   2.0000     -88.577066     -2410.3045
   2   2.0000     -88.531898     -2409.0754
   3   2.0000     -88.528993     -2408.9964
   4   2.0000     -76.920520     -2093.1138
   5   2.0000     -76.920457     -2093.1120
   6   2.0000     -18.997064      -516.9364
   7   2.0000     -18.996077      -516.9095
   8   2.0000     -18.994260      -516.8601
   9   2.0000     -18.993872      -516.8495
  10   2.0000     -10.103137      -274.9203
  11   2.0000     -10.091846      -274.6131
  12   2.0000     -10.091743      -274.6103
  13   2.0000     -10.091222      -274.5961
  14   2.0000     -10.089194      -274.5409
  15   2.0000     -10.018837      -272.6264
  16   2.0000     -10.018488      -272.6169
  17   2.0000     -10.018007      -272.6038
  18   2.0000     -10.016861      -272.5726
  19   2.0000      -7.874910      -214.2872
  20   2.0000      -7.871498      -214.1943
  21   2.0000      -7.826995      -212.9834
  22   2.0000      -7.824167      -212.9064
  23   2.0000      -6.599061      -179.5696
  24   2.0000      -6.599007      -179.5681
  25   2.0000      -5.821767      -158.4183
  26   2.0000      -5.818713      -158.3352
  27   2.0000      -5.818310      -158.3243
  28   2.0000      -5.815394      -158.2449
  29   2.0000      -5.812135      -158.1562
  30   2.0000      -5.808613      -158.0604
  31   2.0000      -5.774563      -157.1339
  32   2.0000      -5.771628      -157.0540
  33   2.0000      -5.767188      -156.9332
  34   2.0000      -5.767098      -156.9307
  35   2.0000      -5.764397      -156.8572
  36   2.0000      -5.764327      -156.8553
  37   2.0000      -4.744879      -129.1147
  38   2.0000      -4.744449      -129.1030
  39   2.0000      -4.743942      -129.0892
  40   2.0000      -4.743851      -129.0867
  41   2.0000      -4.742803      -129.0582
  42   2.0000      -4.742683      -129.0550
  43   2.0000      -1.054751       -28.7012
  44   2.0000      -1.053095       -28.6562
  45   2.0000      -1.012937       -27.5634
  46   2.0000      -1.012434       -27.5497
  47   2.0000      -0.805052       -21.9066
  48   2.0000      -0.757698       -20.6180
  49   2.0000      -0.746461       -20.3122
  50   2.0000      -0.725672       -19.7465
  51   2.0000      -0.722625       -19.6636
  52   2.0000      -0.711567       -19.3627
  53   2.0000      -0.689688       -18.7674
  54   2.0000      -0.675700       -18.3867
  55   2.0000      -0.628491       -17.1021
  56   2.0000      -0.617944       -16.8151
  57   2.0000      -0.599778       -16.3208
  58   2.0000      -0.598833       -16.2951
  59   2.0000      -0.587135       -15.9768
  60   2.0000      -0.530948       -14.4478
  61   2.0000      -0.523242       -14.2381
  62   2.0000      -0.496670       -13.5151
  63   2.0000      -0.491070       -13.3627
  64   2.0000      -0.478867       -13.0306
  65   2.0000      -0.457103       -12.4384
  66   2.0000      -0.453550       -12.3417
  67   2.0000      -0.451751       -12.2928
  68   2.0000      -0.440559       -11.9882
  69   2.0000      -0.434455       -11.8221
  70   2.0000      -0.424203       -11.5431
  71   2.0000      -0.413282       -11.2460
  72   2.0000      -0.406621       -11.0647
  73   2.0000      -0.397473       -10.8158
  74   2.0000      -0.390933       -10.6378
  75   2.0000      -0.388005       -10.5582
  76   2.0000      -0.380141       -10.3442
  77   2.0000      -0.370424       -10.0797
  78   2.0000      -0.363013        -9.8781
  79   2.0000      -0.358153        -9.7458
  80   2.0000      -0.356274        -9.6947
  81   2.0000      -0.352348        -9.5879
  82   2.0000      -0.348199        -9.4750
  83   2.0000      -0.347544        -9.4571
  84   2.0000      -0.344710        -9.3800
  85   2.0000      -0.331766        -9.0278
  86   2.0000      -0.320764        -8.7284
  87   2.0000      -0.316392        -8.6095
  88   2.0000      -0.307971        -8.3803
  89   2.0000      -0.306487        -8.3399
  90   2.0000      -0.304111        -8.2753
  91   2.0000      -0.290024        -7.8920
  92   2.0000      -0.284491        -7.7414
  93   2.0000      -0.280535        -7.6337
  94   2.0000      -0.273907        -7.4534
  95   2.0000      -0.251430        -6.8418
  96   2.0000      -0.240898        -6.5552
  97   2.0000      -0.235471        -6.4075
  98   2.0000      -0.225864        -6.1461
  99   2.0000      -0.225837        -6.1453
 100   2.0000      -0.220718        -6.0060
 101   0.0000      -0.051973        -1.4143
 102   0.0000      -0.032286        -0.8785
 103   0.0000      -0.007990        -0.2174
 104   0.0000      -0.006465        -0.1759
 105   0.0000       0.014099         0.3837

MULLIKEN ATOMIC CHARGES
-----------------------
   0 C :   -0.509325
   1 C :   -0.105406
   2 O :   -0.277040
   3 P :    0.708124
   4 S :   -0.536839
   5 O :   -0.338216
   6 C :   -0.124607
   7 C :   -0.490338
   8 S :   -0.139288
   9 C :   -0.246984
  10 S :   -0.153981
  11 P :    0.659772
  12 S :   -0.497153
  13 O :   -0.294780
  14 C :   -0.101831
  15 C :   -0.504988
  16 O :   -0.306464
  17 C :   -0.158471
  18 C :   -0.482020
  19 H :    0.171187
  20 H :    0.169689
  21 H :    0.169377
  22 H :    0.169922
  23 H :    0.172917
  24 H :    0.164085
  25 H :    0.177248
  26 H :    0.169770
  27 H :    0.167243
  28 H :    0.170842
  29 H :    0.230678
  30 H :    0.235941
  31 H :    0.176982
  32 H :    0.172028
  33 H :    0.166680
  34 H :    0.172024
  35 H :    0.171975
  36 H :    0.176122
  37 H :    0.179317
  38 H :    0.168799
  39 H :    0.173045
  40 H :    0.173966
Sum of atomic charges:    0.0000000

LOEWDIN ATOMIC CHARGES
----------------------
   0 C :   -0.398638
   1 C :    0.030238
   2 O :   -0.677628
   3 P :    0.378116
   4 S :   -0.168685
   5 O :   -0.670926
   6 C :    0.028270
   7 C :   -0.404913
   8 S :    0.163046
   9 C :   -0.421954
  10 S :    0.144178
  11 P :    0.380631
  12 S :   -0.143202
  13 O :   -0.676468
  14 C :    0.029440
  15 C :   -0.395847
  16 O :   -0.671481
  17 C :    0.029169
  18 C :   -0.411061
  19 H :    0.163201
  20 H :    0.163330
  21 H :    0.167886
  22 H :    0.183639
  23 H :    0.182800
  24 H :    0.180162
  25 H :    0.190190
  26 H :    0.167540
  27 H :    0.162550
  28 H :    0.162731
  29 H :    0.198468
  30 H :    0.197122
  31 H :    0.184258
  32 H :    0.183068
  33 H :    0.164589
  34 H :    0.170455
  35 H :    0.167827
  36 H :    0.191730
  37 H :    0.181708
  38 H :    0.163813
  39 H :    0.168735
  40 H :    0.161914

  Mayer bond orders larger than 0.100000
B(  0-C ,  1-C ) :   0.9475 B(  0-C , 19-H ) :   0.9676 B(  0-C , 20-H ) :   0.9652
B(  0-C , 21-H ) :   0.9583 B(  1-C ,  2-O ) :   0.7476 B(  1-C , 22-H ) :   0.9501
B(  1-C , 23-H ) :   0.9411 B(  2-O ,  3-P ) :   1.1619 B(  3-P ,  4-S ) :   1.7053
B(  3-P ,  5-O ) :   1.0839 B(  3-P ,  8-S ) :   1.1120 B(  5-O ,  6-C ) :   0.7637
B(  6-C ,  7-C ) :   0.9461 B(  6-C , 24-H ) :   0.9551 B(  6-C , 25-H ) :   0.9535
B(  7-C , 26-H ) :   0.9593 B(  7-C , 27-H ) :   0.9723 B(  7-C , 28-H ) :   0.9611
B(  8-S ,  9-C ) :   0.8943 B(  9-C , 10-S ) :   0.9025 B(  9-C , 29-H ) :   0.8973
B(  9-C , 30-H ) :   0.9011 B( 10-S , 11-P ) :   1.0131 B( 11-P , 12-S ) :   1.8140
B( 11-P , 13-O ) :   1.1627 B( 11-P , 16-O ) :   1.0478 B( 13-O , 14-C ) :   0.7261
B( 14-C , 15-C ) :   0.9354 B( 14-C , 31-H ) :   0.9386 B( 14-C , 32-H ) :   0.9428
B( 15-C , 33-H ) :   0.9686 B( 15-C , 34-H ) :   0.9599 B( 15-C , 35-H ) :   0.9628
B( 16-O , 17-C ) :   0.8069 B( 17-C , 18-C ) :   0.9061 B( 17-C , 36-H ) :   0.9504
B( 17-C , 37-H ) :   0.9677 B( 18-C , 38-H ) :   0.9645 B( 18-C , 39-H ) :   0.9509
B( 18-C , 40-H ) :   0.9647

Dispersion correction           -0.021569557
FINAL SINGLE POINT ENERGY     -2932.472548587701

DIPOLE MOMENT
-------------

Method             : SCF
Type of density    : Electron Density
Multiplicity       :   1
Irrep              :   0
Energy             : -2932.4976029171016307 Eh
Relativity type    :
Basis              : AO
                                X                 Y                 Z
Electronic contribution:     -3.629326849       2.551573894     -14.197327394
Nuclear contribution   :      3.650855844      -2.963733146      16.356277749
                        -----------------------------------------
Total Dipole Moment    :      0.021528994      -0.412159252       2.158950355
                        -----------------------------------------
Magnitude (a.u.)       :      2.198045810
Magnitude (Debye)      :      5.586988443

Rotational constants in cm-1:             0.013113             0.004705             0.004535
Rotational constants in MHz :           393.112228           141.043141           135.946036

                             ****ORCA TERMINATED NORMALLY****
TOTAL RUN TIME: 0 days 0 hours 1 minutes 50 seconds 161 msec
