                         Program Version 6.0.0  -   RELEASE  -
|  1> ! pbe def2-sv(p) def2/J RI DEFGRID1 loosescf d4 GCP(DFT/SV(P)) printgap
|  2> %output
|  3>     printlevel normal
|  4> end
|  5> * xyz 0 1
|  6> C 3.0717249472 -0.5424399016 -3.0059182273
|  7> C 3.7686891882 -0.1959073902 -1.7052117628
|  8> O 3.0599655913 -0.8042328429 -0.6039602798
|  9> P 2.4552501011 0.0099128486 0.6102812525
| 10> S 2.1888807992 1.9373447646 0.3282621797
| 11> O 3.5160119819 -0.3090596932 1.7541990732
| 12> C 3.5620553795 0.4235966604 2.9889053579
| 13> C 2.4113376773 0.0497557427 3.9012728047
| 14> S 0.8153507071 -1.2374183776 1.0987108564
| 15> C 0.1580511141 -1.5284951682 -0.5652002224
| 16> S -0.3464564683 -0.015195994 -1.4501464515
| 17> P -2.3626974869 0.0724876509 -0.8368585245
| 18> S -3.4386610235 1.5655149969 -1.5049226441
| 19> O -2.3529711828 -0.1051298156 0.7494302054
| 20> C -2.4985382875 1.0052410341 1.6460710418
| 21> C -1.2686104847 1.8880484076 1.6649694992
| 22> O -2.7988523232 -1.3783446457 -1.3166485495
| 23> C -4.183562023 -1.7216454849 -1.5304171882
| 24> C -4.9703826901 -1.7430868014 -0.2368544582
| 25> H 3.6280775056 -0.1114370947 -3.8318241594
| 26> H 3.023439814 -1.6204480633 -3.1319211703
| 27> H 2.0611455383 -0.1369303199 -3.0091084358
| 28> H 3.7991923336 0.8882225484 -1.5546158366
| 29> H 4.7826161944 -0.598374733 -1.6728090951
| 30> H 4.5256262821 0.1538730764 3.4230463553
| 31> H 3.5440017203 1.4941750712 2.7578840788
| 32> H 2.5233366419 0.5594818023 4.852716094
| 33> H 1.4668425682 0.3490339626 3.4479214238
| 34> H 2.3927164438 -1.024539925 4.0641129003
| 35> H -0.7034972908 -2.1791507807 -0.4465259282
| 36> H 0.9274120204 -1.99545312 -1.1741323509
| 37> H -3.3745391759 1.5864351477 1.3398234337
| 38> H -2.6746151388 0.5406182827 2.6169111968
| 39> H -0.387845536 1.3130965185 1.9413035068
| 40> H -1.1001416128 2.3229578715 0.6789542141
| 41> H -1.4054331844 2.6922260912 2.3803242994
| 42> H -4.6131711957 -0.9989632283 -2.2309994786
| 43> H -4.1370927134 -2.7075609946 -1.9947896284
| 44> H -5.0405526952 -0.7352049927 0.1700295887
| 45> H -5.9718908299 -2.1132162913 -0.4326275234
| 46> H -4.482856195 -2.3848607922 0.4923037096
| 47> *
| 48>
| 49>                          ****END OF INPUT****

CARTESIAN COORDINATES (ANGSTROEM)
---------------------------------
  C      3.071725   -0.542440   -3.005918
  C      3.768689   -0.195907   -1.705212
  O      3.059966   -0.804233   -0.603960
  P      2.455250    0.009913    0.610281
  S      2.188881    1.937345    0.328262
  O      3.516012   -0.309060    1.754199
  C      3.562055    0.423597    2.988905
  C      2.411338    0.049756    3.901273
  S      0.815351   -1.237418    1.098711
  C      0.158051   -1.528495   -0.565200
  S     -0.346456   -0.015196   -1.450146
  P     -2.362697    0.072488   -0.836859
  S     -3.438661    1.565515   -1.504923
  O     -2.352971   -0.105130    0.749430
  C     -2.498538    1.005241    1.646071
  C     -1.268610    1.888048    1.664969
  O     -2.798852   -1.378345   -1.316649
  C     -4.183562   -1.721645   -1.530417
  C     -4.970383   -1.743087   -0.236854
  H      3.628078   -0.111437   -3.831824
  H      3.023440   -1.620448   -3.131921
  H      2.061146   -0.136930   -3.009108
  H      3.799192    0.888223   -1.554616
  H      4.782616   -0.598375   -1.672809
  H      4.525626    0.153873    3.423046
  H      3.544002    1.494175    2.757884
  H      2.523337    0.559482    4.852716
  H      1.466843    0.349034    3.447921
  H      2.392716   -1.024540    4.064113
  H     -0.703497   -2.179151   -0.446526
  H      0.927412   -1.995453   -1.174132
  H     -3.374539    1.586435    1.339823
  H     -2.674615    0.540618    2.616911
  H     -0.387846    1.313097    1.941304
  H     -1.100142    2.322958    0.678954
  H     -1.405433    2.692226    2.380324
  H     -4.613171   -0.998963   -2.230999
  H     -4.137093   -2.707561   -1.994790
  H     -5.040553   -0.735205    0.170030
  H     -5.971891   -2.113216   -0.432628
  H     -4.482856   -2.384861    0.492304

 Total Charge           Charge          ....    0
 Multiplicity           Mult            ....    1
 Number of Electrons    NEL             ....  202
 Basis Dimension        Dim             ....  334

ORBITAL ENERGIES
----------------

  NO   OCC          E(Eh)            E(eV)
   0   2.0000     -88.044020     -2395.7996
   1   2.0000     -88.040968     -2395.7165
   2   2.0000     -87.988063     -2394.2769
   3   2.0000     -87.987090     -2394.2504
   4   2.0000     -76.428998     -2079.7388
   5   2.0000     -76.425744     -2079.6502
   6   2.0000     -18.797357      -511.5021
   7   2.0000     -18.792007      -511.3565
   8   2.0000     -18.791372      -511.3392
   9   2.0000     -18.789934      -511.3001
  10   2.0000      -9.960017      -271.0258
  11   2.0000      -9.954648      -270.8797
  12   2.0000      -9.953444      -270.8470
  13   2.0000      -9.953350      -270.8444
  14   2.0000      -9.945208      -270.6229
  15   2.0000      -9.889707      -269.1126
  16   2.0000      -9.888710      -269.0855
  17   2.0000      -9.885669      -269.0027
  18   2.0000      -9.869983      -268.5759
  19   2.0000      -7.689255      -209.2353
  20   2.0000      -7.686008      -209.1469
  21   2.0000      -7.633196      -207.7098
  22   2.0000      -7.631940      -207.6756
  23   2.0000      -6.426433      -174.8721
  24   2.0000      -6.423504      -174.7924
  25   2.0000      -5.717256      -155.5745
  26   2.0000      -5.714325      -155.4947
  27   2.0000      -5.713764      -155.4794
  28   2.0000      -5.710358      -155.3867
  29   2.0000      -5.706056      -155.2697
  30   2.0000      -5.702664      -155.1774
  31   2.0000      -5.662177      -154.0757
  32   2.0000      -5.660737      -154.0365
  33   2.0000      -5.653840      -153.8488
  34   2.0000      -5.653280      -153.8336
  35   2.0000      -5.652733      -153.8187
  36   2.0000      -5.652085      -153.8010
  37   2.0000      -4.649061      -126.5074
  38   2.0000      -4.648255      -126.4854
  39   2.0000      -4.646763      -126.4449
  40   2.0000      -4.645825      -126.4193
  41   2.0000      -4.645429      -126.4086
  42   2.0000      -4.644054      -126.3711
  43   2.0000      -0.989414       -26.9233
  44   2.0000      -0.985435       -26.8151
  45   2.0000      -0.949185       -25.8286
  46   2.0000      -0.944345       -25.6969
  47   2.0000      -0.764111       -20.7925
  48   2.0000      -0.724301       -19.7092
  49   2.0000      -0.709106       -19.2958
  50   2.0000      -0.689618       -18.7655
  51   2.0000      -0.682341       -18.5674
  52   2.0000      -0.672525       -18.3003
  53   2.0000      -0.655968       -17.8498
  54   2.0000      -0.639858       -17.4114
  55   2.0000      -0.600721       -16.3464
  56   2.0000      -0.594365       -16.1735
  57   2.0000      -0.575222       -15.6526
  58   2.0000      -0.569384       -15.4937
  59   2.0000      -0.562884       -15.3169
  60   2.0000      -0.503836       -13.7101
  61   2.0000      -0.492686       -13.4067
  62   2.0000      -0.476036       -12.9536
  63   2.0000      -0.470506       -12.8031
  64   2.0000      -0.462082       -12.5739
  65   2.0000      -0.444975       -12.1084
  66   2.0000      -0.441944       -12.0259
  67   2.0000      -0.435493       -11.8504
  68   2.0000      -0.430715       -11.7203
  69   2.0000      -0.415540       -11.3074
  70   2.0000      -0.411073       -11.1859
  71   2.0000      -0.395984       -10.7753
  72   2.0000      -0.394349       -10.7308
  73   2.0000      -0.391367       -10.6496
  74   2.0000      -0.388286       -10.5658
  75   2.0000      -0.377855       -10.2819
  76   2.0000      -0.367582       -10.0024
  77   2.0000      -0.360062        -9.7978
  78   2.0000      -0.357746        -9.7348
  79   2.0000      -0.351929        -9.5765
  80   2.0000      -0.346550        -9.4301
  81   2.0000      -0.344658        -9.3786
  82   2.0000      -0.338901        -9.2220
  83   2.0000      -0.335087        -9.1182
  84   2.0000      -0.330960        -9.0059
  85   2.0000      -0.320085        -8.7100
  86   2.0000      -0.310764        -8.4563
  87   2.0000      -0.299903        -8.1608
  88   2.0000      -0.292577        -7.9614
  89   2.0000      -0.288334        -7.8460
  90   2.0000      -0.285769        -7.7762
  91   2.0000      -0.277373        -7.5477
  92   2.0000      -0.272877        -7.4254
  93   2.0000      -0.265665        -7.2291
  94   2.0000      -0.262404        -7.1404
  95   2.0000      -0.233497        -6.3538
  96   2.0000      -0.219162        -5.9637
  97   2.0000      -0.209355        -5.6968
  98   2.0000      -0.207515        -5.6468
  99   2.0000      -0.200926        -5.4675
 100   2.0000      -0.195471        -5.3190
 101   0.0000      -0.045678        -1.2430
 102   0.0000      -0.028229        -0.7681
 103   0.0000      -0.019274        -0.5245
 104   0.0000      -0.007058        -0.1920
 105   0.0000       0.015411         0.4193

MULLIKEN ATOMIC CHARGES
-----------------------
   0 C :   -0.311156
   1 C :   -0.007941
   2 O :   -0.376430
   3 P :    0.603687
   4 S :   -0.308611
   5 O :   -0.365539
   6 C :   -0.003190
   7 C :   -0.337742
   8 S :   -0.093983
   9 C :   -0.357075
  10 S :   -0.063215
  11 P :    0.612730
  12 S :   -0.315130
  13 O :   -0.379673
  14 C :   -0.003990
  15 C :   -0.339687
  16 O :   -0.384610
  17 C :   -0.002956
  18 C :   -0.308730
  19 H :    0.115868
  20 H :    0.117381
  21 H :    0.136061
  22 H :    0.114173
  23 H :    0.107802
  24 H :    0.106996
  25 H :    0.110820
  26 H :    0.116297
  27 H :    0.142285
  28 H :    0.121778
  29 H :    0.193345
  30 H :    0.196574
  31 H :    0.108449
  32 H :    0.099051
  33 H :    0.149270
  34 H :    0.130287
  35 H :    0.104382
  36 H :    0.114311
  37 H :    0.104602
  38 H :    0.125627
  39 H :    0.112775
  40 H :    0.115109
Sum of atomic charges:   -0.0000000

LOEWDIN ATOMIC CHARGES
----------------------
   0 C :   -0.359135
   1 C :   -0.117266
   2 O :   -0.242789
   3 P :    0.565030
   4 S :   -0.301005
   5 O :   -0.244834
   6 C :   -0.121260
   7 C :   -0.369066
   8 S :    0.089985
   9 C :   -0.474325
  10 S :    0.100576
  11 P :    0.571405
  12 S :   -0.313542
  13 O :   -0.247274
  14 C :   -0.121882
  15 C :   -0.372611
  16 O :   -0.251354
  17 C :   -0.115945
  18 C :   -0.365321
  19 H :    0.133534
  20 H :    0.124311
  21 H :    0.123238
  22 H :    0.109037
  23 H :    0.118012
  24 H :    0.119682
  25 H :    0.108830
  26 H :    0.133066
  27 H :    0.121060
  28 H :    0.127047
  29 H :    0.137311
  30 H :    0.135495
  31 H :    0.106800
  32 H :    0.116461
  33 H :    0.113657
  34 H :    0.123770
  35 H :    0.128179
  36 H :    0.112770
  37 H :    0.118406
  38 H :    0.123619
  39 H :    0.130769
  40 H :    0.125562

  Mayer bond orders larger than 0.100000
B(  0-C ,  1-C ) :   1.1672 B(  0-C , 19-H ) :   0.9389 B(  0-C , 20-H ) :   0.9465
B(  0-C , 21-H ) :   0.9360 B(  1-C ,  2-O ) :   0.8946 B(  1-C , 22-H ) :   0.9007
B(  1-C , 23-H ) :   0.9323 B(  2-O ,  3-P ) :   1.1134 B(  3-P ,  4-S ) :   1.6340
B(  3-P ,  5-O ) :   1.1113 B(  3-P ,  8-S ) :   0.9612 B(  4-S ,  8-S ) :   0.1057
B(  5-O ,  6-C ) :   0.9152 B(  6-C ,  7-C ) :   1.1608 B(  6-C , 24-H ) :   0.9326
B(  6-C , 25-H ) :   0.9104 B(  7-C , 26-H ) :   0.9376 B(  7-C , 27-H ) :   0.9299
B(  7-C , 28-H ) :   0.9434 B(  8-S ,  9-C ) :   0.9957 B(  9-C , 10-S ) :   0.9891
B(  9-C , 29-H ) :   0.8920 B(  9-C , 30-H ) :   0.8949 B( 10-S , 11-P ) :   0.9836
B( 11-P , 12-S ) :   1.6382 B( 11-P , 13-O ) :   1.0860 B( 11-P , 16-O ) :   1.0878
B( 13-O , 14-C ) :   0.9039 B( 14-C , 15-C ) :   1.1608 B( 14-C , 31-H ) :   0.9144
B( 14-C , 32-H ) :   0.9317 B( 15-C , 33-H ) :   0.9207 B( 15-C , 34-H ) :   0.9331
B( 15-C , 35-H ) :   0.9377 B( 16-O , 17-C ) :   0.9081 B( 17-C , 18-C ) :   1.1623
B( 17-C , 36-H ) :   0.9178 B( 17-C , 37-H ) :   0.9359 B( 18-C , 38-H ) :   0.9361
B( 18-C , 39-H ) :   0.9381 B( 18-C , 40-H ) :   0.9463

Dispersion correction           -0.065548987
FINAL SINGLE POINT ENERGY     -2929.518609403966

DIPOLE MOMENT
-------------

Method             : SCF
Type of density    : Electron Density
Multiplicity       :   1
Irrep              :   0
Energy             : -2929.6389369149896993 Eh
Relativity type    :
Basis              : AO
                                X                 Y                 Z
Electronic contribution:      1.574586804       3.289242077      -7.742092818
Nuclear contribution   :     -1.180969240      -4.592277334       8.404255671
                        -----------------------------------------
Total Dipole Moment    :      0.393617564      -1.303035257       0.662162852
                        -----------------------------------------
Magnitude (a.u.)       :      1.513702517
Magnitude (Debye)      :      3.847526031

Rotational constants in cm-1:             0.012533             0.004867             0.004383
Rotational constants in MHz :           375.728667           145.918189           131.393727

                             ****ORCA TERMINATED NORMALLY****
TOTAL RUN TIME: 0 days 0 hours 0 minutes 20 seconds 899 msec
