                         Program Version 6.0.0  -   RELEASE  -
|  1> ! pbe def2-sv(p) def2/J RI DEFGRID1 loosescf d4 GCP(DFT/SV(P)) printgap
|  2> %output
|  3>     printlevel normal
|  4> end
|  5> * xyz 0 1
|  6> C 2.9384203916 -3.2124489292 0.2670745694
|  7> C 3.1757624341 -2.2893433507 -0.9108981239
|  8> O 3.3764275405 -0.9196043811 -0.4862886688
|  9> P 2.2289477749 0.1293312582 -0.1931120439
| 10> S 2.9619197351 1.9218488901 0.047632146
| 11> O 1.3617370939 -0.4356100049 1.0300331029
| 12> C 1.4539525522 0.112058272 2.3570212899
| 13> C 2.7341981549 -0.3226566082 3.0404029574
| 14> S 0.8613251588 -0.1755700843 -1.7904813984
| 15> C 0.0768085616 1.4530834627 -1.6774919976
| 16> S -0.7448769447 1.7392761819 -0.096964419
| 17> P -2.3616114269 0.3536813962 -0.3401408212
| 18> S -2.8766295769 0.0264945918 -2.1982958853
| 19> O -3.5312056352 0.9864388198 0.5014828328
| 20> C -3.6723139777 0.9305115552 1.9429766468
| 21> C -2.532520263 1.618247395 2.6624683782
| 22> O -1.9814531473 -0.9393313515 0.5081358923
| 23> C -1.4020975874 -2.1351234362 -0.0441138467
| 24> C -2.1438482414 -3.3333283253 0.5139380361
| 25> H 2.8720538146 -4.2340646855 -0.0937388258
| 26> H 3.7620590873 -3.1351469805 0.9719325431
| 27> H 2.0123507027 -2.9542050776 0.7736474165
| 28> H 2.3403441607 -2.3194395136 -1.6161843723
| 29> H 4.1024007638 -2.5379240709 -1.4311268904
| 30> H 1.3999261595 1.203265644 2.2901342791
| 31> H 0.5703470493 -0.2726944968 2.8690768891
| 32> H 3.5905268931 0.0358836469 2.4695209988
| 33> H 2.7723718574 0.1022018455 4.0383750154
| 34> H 2.782434431 -1.4061742639 3.1069068605
| 35> H -0.6536648681 1.495620559 -2.4855237807
| 36> H 0.8342176559 2.2297163149 -1.7780581021
| 37> H -4.623250972 1.4359819384 2.117208481
| 38> H -3.7465347459 -0.1176660804 2.2381258059
| 39> H -1.59855306 1.0919545488 2.4748672666
| 40> H -2.4266613992 2.6435383485 2.3164920407
| 41> H -2.7318847877 1.6186242344 3.7295202048
| 42> H -1.4752716248 -2.0978305848 -1.1361883827
| 43> H -0.3487507978 -2.145545661 0.2455451198
| 44> H -3.1858896711 -3.3024964979 0.2058644197
| 45> H -1.6875852322 -4.2407407275 0.1321379132
| 46> H -2.0949220228 -3.3340858988 1.5990283968
| 47> *
| 48>
| 49>                          ****END OF INPUT****

CARTESIAN COORDINATES (ANGSTROEM)
---------------------------------
  C      2.938420   -3.212449    0.267075
  C      3.175762   -2.289343   -0.910898
  O      3.376428   -0.919604   -0.486289
  P      2.228948    0.129331   -0.193112
  S      2.961920    1.921849    0.047632
  O      1.361737   -0.435610    1.030033
  C      1.453953    0.112058    2.357021
  C      2.734198   -0.322657    3.040403
  S      0.861325   -0.175570   -1.790481
  C      0.076809    1.453083   -1.677492
  S     -0.744877    1.739276   -0.096964
  P     -2.361611    0.353681   -0.340141
  S     -2.876630    0.026495   -2.198296
  O     -3.531206    0.986439    0.501483
  C     -3.672314    0.930512    1.942977
  C     -2.532520    1.618247    2.662468
  O     -1.981453   -0.939331    0.508136
  C     -1.402098   -2.135123   -0.044114
  C     -2.143848   -3.333328    0.513938
  H      2.872054   -4.234065   -0.093739
  H      3.762059   -3.135147    0.971933
  H      2.012351   -2.954205    0.773647
  H      2.340344   -2.319440   -1.616184
  H      4.102401   -2.537924   -1.431127
  H      1.399926    1.203266    2.290134
  H      0.570347   -0.272694    2.869077
  H      3.590527    0.035884    2.469521
  H      2.772372    0.102202    4.038375
  H      2.782434   -1.406174    3.106907
  H     -0.653665    1.495621   -2.485524
  H      0.834218    2.229716   -1.778058
  H     -4.623251    1.435982    2.117208
  H     -3.746535   -0.117666    2.238126
  H     -1.598553    1.091955    2.474867
  H     -2.426661    2.643538    2.316492
  H     -2.731885    1.618624    3.729520
  H     -1.475272   -2.097831   -1.136188
  H     -0.348751   -2.145546    0.245545
  H     -3.185890   -3.302496    0.205864
  H     -1.687585   -4.240741    0.132138
  H     -2.094922   -3.334086    1.599028

 Total Charge           Charge          ....    0
 Multiplicity           Mult            ....    1
 Number of Electrons    NEL             ....  202
 Basis Dimension        Dim             ....  334

ORBITAL ENERGIES
----------------

  NO   OCC          E(Eh)            E(eV)
   0   2.0000     -88.043252     -2395.7787
   1   2.0000     -88.038959     -2395.6619
   2   2.0000     -87.989272     -2394.3098
   3   2.0000     -87.985061     -2394.1952
   4   2.0000     -76.429221     -2079.7448
   5   2.0000     -76.426972     -2079.6836
   6   2.0000     -18.798269      -511.5269
   7   2.0000     -18.794541      -511.4255
   8   2.0000     -18.794088      -511.4131
   9   2.0000     -18.793079      -511.3857
  10   2.0000      -9.967155      -271.2201
  11   2.0000      -9.961940      -271.0782
  12   2.0000      -9.953849      -270.8580
  13   2.0000      -9.952032      -270.8085
  14   2.0000      -9.949361      -270.7359
  15   2.0000      -9.898208      -269.3439
  16   2.0000      -9.895000      -269.2566
  17   2.0000      -9.888304      -269.0744
  18   2.0000      -9.887802      -269.0608
  19   2.0000      -7.688020      -209.2017
  20   2.0000      -7.683482      -209.0782
  21   2.0000      -7.634534      -207.7462
  22   2.0000      -7.630288      -207.6307
  23   2.0000      -6.426810      -174.8824
  24   2.0000      -6.424363      -174.8158
  25   2.0000      -5.715796      -155.5347
  26   2.0000      -5.712729      -155.4513
  27   2.0000      -5.711470      -155.4170
  28   2.0000      -5.707994      -155.3224
  29   2.0000      -5.704927      -155.2390
  30   2.0000      -5.700443      -155.1169
  31   2.0000      -5.663589      -154.1141
  32   2.0000      -5.659238      -153.9957
  33   2.0000      -5.655266      -153.8876
  34   2.0000      -5.654382      -153.8636
  35   2.0000      -5.650677      -153.7627
  36   2.0000      -5.650596      -153.7605
  37   2.0000      -4.649685      -126.5244
  38   2.0000      -4.648300      -126.4867
  39   2.0000      -4.647390      -126.4619
  40   2.0000      -4.647269      -126.4586
  41   2.0000      -4.645814      -126.4190
  42   2.0000      -4.644725      -126.3894
  43   2.0000      -0.989199       -26.9175
  44   2.0000      -0.988336       -26.8940
  45   2.0000      -0.949678       -25.8421
  46   2.0000      -0.944995       -25.7146
  47   2.0000      -0.764345       -20.7989
  48   2.0000      -0.725802       -19.7501
  49   2.0000      -0.716238       -19.4898
  50   2.0000      -0.697511       -18.9802
  51   2.0000      -0.694488       -18.8980
  52   2.0000      -0.674880       -18.3644
  53   2.0000      -0.653676       -17.7874
  54   2.0000      -0.639614       -17.4048
  55   2.0000      -0.600014       -16.3272
  56   2.0000      -0.596324       -16.2268
  57   2.0000      -0.582418       -15.8484
  58   2.0000      -0.577431       -15.7127
  59   2.0000      -0.562856       -15.3161
  60   2.0000      -0.508422       -13.8349
  61   2.0000      -0.498821       -13.5736
  62   2.0000      -0.483101       -13.1459
  63   2.0000      -0.479480       -13.0473
  64   2.0000      -0.458789       -12.4843
  65   2.0000      -0.451051       -12.2737
  66   2.0000      -0.448327       -12.1996
  67   2.0000      -0.440491       -11.9864
  68   2.0000      -0.430280       -11.7085
  69   2.0000      -0.418797       -11.3961
  70   2.0000      -0.413862       -11.2618
  71   2.0000      -0.397678       -10.8214
  72   2.0000      -0.394744       -10.7415
  73   2.0000      -0.388452       -10.5703
  74   2.0000      -0.381272       -10.3749
  75   2.0000      -0.380160       -10.3447
  76   2.0000      -0.373917       -10.1748
  77   2.0000      -0.362616        -9.8673
  78   2.0000      -0.360644        -9.8136
  79   2.0000      -0.355964        -9.6863
  80   2.0000      -0.354748        -9.6532
  81   2.0000      -0.352873        -9.6022
  82   2.0000      -0.351161        -9.5556
  83   2.0000      -0.345373        -9.3981
  84   2.0000      -0.336010        -9.1433
  85   2.0000      -0.323508        -8.8031
  86   2.0000      -0.313509        -8.5310
  87   2.0000      -0.312174        -8.4947
  88   2.0000      -0.301428        -8.2023
  89   2.0000      -0.295637        -8.0447
  90   2.0000      -0.285619        -7.7721
  91   2.0000      -0.279154        -7.5962
  92   2.0000      -0.274762        -7.4766
  93   2.0000      -0.268718        -7.3122
  94   2.0000      -0.257254        -7.0003
  95   2.0000      -0.231952        -6.3117
  96   2.0000      -0.216329        -5.8866
  97   2.0000      -0.211706        -5.7608
  98   2.0000      -0.206473        -5.6184
  99   2.0000      -0.200805        -5.4642
 100   2.0000      -0.198047        -5.3891
 101   0.0000      -0.046270        -1.2591
 102   0.0000      -0.025261        -0.6874
 103   0.0000      -0.006668        -0.1814
 104   0.0000       0.001823         0.0496
 105   0.0000       0.005018         0.1365

MULLIKEN ATOMIC CHARGES
-----------------------
   0 C :   -0.325088
   1 C :   -0.025935
   2 O :   -0.364498
   3 P :    0.622234
   4 S :   -0.309589
   5 O :   -0.384259
   6 C :   -0.032416
   7 C :   -0.297070
   8 S :   -0.115875
   9 C :   -0.336752
  10 S :   -0.107322
  11 P :    0.625074
  12 S :   -0.317246
  13 O :   -0.364522
  14 C :    0.010547
  15 C :   -0.360640
  16 O :   -0.391151
  17 C :   -0.044283
  18 C :   -0.272575
  19 H :    0.114787
  20 H :    0.125807
  21 H :    0.144576
  22 H :    0.121700
  23 H :    0.118524
  24 H :    0.120237
  25 H :    0.113606
  26 H :    0.128651
  27 H :    0.112176
  28 H :    0.110483
  29 H :    0.194392
  30 H :    0.193631
  31 H :    0.113903
  32 H :    0.108136
  33 H :    0.149913
  34 H :    0.134252
  35 H :    0.118306
  36 H :    0.112385
  37 H :    0.123704
  38 H :    0.117445
  39 H :    0.106995
  40 H :    0.107758
Sum of atomic charges:    0.0000000

LOEWDIN ATOMIC CHARGES
----------------------
   0 C :   -0.364280
   1 C :   -0.113039
   2 O :   -0.241989
   3 P :    0.572109
   4 S :   -0.303524
   5 O :   -0.249571
   6 C :   -0.125481
   7 C :   -0.364337
   8 S :    0.080870
   9 C :   -0.481669
  10 S :    0.079966
  11 P :    0.573581
  12 S :   -0.308129
  13 O :   -0.238158
  14 C :   -0.106254
  15 C :   -0.375370
  16 O :   -0.249619
  17 C :   -0.129005
  18 C :   -0.352797
  19 H :    0.132104
  20 H :    0.130030
  21 H :    0.123515
  22 H :    0.106535
  23 H :    0.125993
  24 H :    0.109953
  25 H :    0.114991
  26 H :    0.125787
  27 H :    0.131127
  28 H :    0.121496
  29 H :    0.130713
  30 H :    0.132627
  31 H :    0.124211
  32 H :    0.114186
  33 H :    0.120680
  34 H :    0.130810
  35 H :    0.134082
  36 H :    0.104434
  37 H :    0.105486
  38 H :    0.127332
  39 H :    0.128743
  40 H :    0.121862

  Mayer bond orders larger than 0.100000
B(  0-C ,  1-C ) :   1.1627 B(  0-C , 19-H ) :   0.9368 B(  0-C , 20-H ) :   0.9416
B(  0-C , 21-H ) :   0.9314 B(  1-C ,  2-O ) :   0.9063 B(  1-C , 22-H ) :   0.9140
B(  1-C , 23-H ) :   0.9342 B(  2-O ,  3-P ) :   1.1273 B(  3-P ,  4-S ) :   1.6295
B(  3-P ,  5-O ) :   1.0609 B(  3-P ,  8-S ) :   0.9544 B(  4-S ,  8-S ) :   0.1006
B(  5-O ,  6-C ) :   0.9009 B(  6-C ,  7-C ) :   1.1589 B(  6-C , 24-H ) :   0.9104
B(  6-C , 25-H ) :   0.9236 B(  7-C , 26-H ) :   0.9330 B(  7-C , 27-H ) :   0.9401
B(  7-C , 28-H ) :   0.9441 B(  8-S ,  9-C ) :   0.9975 B(  9-C , 10-S ) :   1.0186
B(  9-C , 29-H ) :   0.8750 B(  9-C , 30-H ) :   0.8830 B( 10-S , 11-P ) :   0.9312
B( 10-S , 12-S ) :   0.1080 B( 11-P , 12-S ) :   1.6435 B( 11-P , 13-O ) :   1.1452
B( 11-P , 16-O ) :   1.0687 B( 13-O , 14-C ) :   0.8988 B( 14-C , 15-C ) :   1.1695
B( 14-C , 31-H ) :   0.9338 B( 14-C , 32-H ) :   0.9269 B( 15-C , 33-H ) :   0.9242
B( 15-C , 34-H ) :   0.9394 B( 15-C , 35-H ) :   0.9348 B( 16-O , 17-C ) :   0.8999
B( 17-C , 18-C ) :   1.1556 B( 17-C , 36-H ) :   0.9010 B( 17-C , 37-H ) :   0.9110
B( 18-C , 38-H ) :   0.9488 B( 18-C , 39-H ) :   0.9419 B( 18-C , 40-H ) :   0.9502

Dispersion correction           -0.067278824
FINAL SINGLE POINT ENERGY     -2929.518235026431

DIPOLE MOMENT
-------------

Method             : SCF
Type of density    : Electron Density
Multiplicity       :   1
Irrep              :   0
Energy             : -2929.6378849137854559 Eh
Relativity type    :
Basis              : AO
                                X                 Y                 Z
Electronic contribution:     -2.316815471      18.003943071     -20.586130173
Nuclear contribution   :      2.414816627     -19.542360601      22.229554188
                        -----------------------------------------
Total Dipole Moment    :      0.098001156      -1.538417530       1.643424015
                        -----------------------------------------
Magnitude (a.u.)       :      2.253258799
Magnitude (Debye)      :      5.727328709

Rotational constants in cm-1:             0.010833             0.005716             0.005515
Rotational constants in MHz :           324.760839           171.356085           165.346913

                             ****ORCA TERMINATED NORMALLY****
TOTAL RUN TIME: 0 days 0 hours 0 minutes 22 seconds 464 msec
