                         Program Version 6.0.0  -   RELEASE  -
|  1> ! wb97x-v def2-tzvp def2/J RIJCOSX DEFGRID2 scfconv7 GCP(DFT/TZ) printgap
|  2> %output
|  3>     printlevel normal
|  4> end
|  5> * xyz 0 1
|  6> C 1.311392788873434 -0.7116491296980122 0.0002504480913578616
|  7> C 1.311464351364373 0.7115419011242574 0.0005276983119172387
|  8> C 0.05170213886016912 1.2445256948074532 -0.00010768115660183327
|  9> S -1.1557522816806556 7.219507222875859e-05 0.00025967019629424647
| 10> C 0.05157531513289915 -1.2445043985856792 -0.0006589530027999761
| 11> H 2.2101824456729284 -1.3173724534694253 0.0005030931082247009
| 12> H 2.210313380953997 1.3171775002532968 0.0010827324487638623
| 13> H -0.23969888532843303 2.2867224704475597 0.00012980285437953214
| 14> H -0.23993386172251893 -2.286671612354281 -0.0008790938403614048
| 15> *
| 16>
| 17>                          ****END OF INPUT****

CARTESIAN COORDINATES (ANGSTROEM)
---------------------------------
  C      1.311393   -0.711649    0.000250
  C      1.311464    0.711542    0.000528
  C      0.051702    1.244526   -0.000108
  S     -1.155752    0.000072    0.000260
  C      0.051575   -1.244504   -0.000659
  H      2.210182   -1.317372    0.000503
  H      2.210313    1.317178    0.001083
  H     -0.239699    2.286722    0.000130
  H     -0.239934   -2.286672   -0.000879

 Total Charge           Charge          ....    0
 Multiplicity           Mult            ....    1
 Number of Electrons    NEL             ....   44
 Basis Dimension        Dim             ....  185

ORBITAL ENERGIES
----------------

  NO   OCC          E(Eh)            E(eV)
   0   2.0000     -94.155890     -2562.1120
   1   2.0000     -12.078658      -328.6770
   2   2.0000     -12.078308      -328.6675
   3   2.0000     -12.055855      -328.0565
   4   2.0000     -12.053951      -328.0047
   5   2.0000      -9.665746      -263.0183
   6   2.0000      -7.643541      -207.9913
   7   2.0000      -7.642427      -207.9610
   8   2.0000      -7.642149      -207.9534
   9   2.0000      -1.402595       -38.1665
  10   2.0000      -1.252427       -34.0803
  11   2.0000      -1.247029       -33.9334
  12   2.0000      -1.052478       -28.6394
  13   2.0000      -1.026001       -27.9189
  14   2.0000      -0.964083       -26.2340
  15   2.0000      -0.872300       -23.7365
  16   2.0000      -0.865799       -23.5596
  17   2.0000      -0.840449       -22.8698
  18   2.0000      -0.789280       -21.4774
  19   2.0000      -0.787706       -21.4346
  20   2.0000      -0.648578       -17.6487
  21   2.0000      -0.628313       -17.0973
  22   0.0000      -0.258505        -7.0343
  23   0.0000      -0.205053        -5.5798
  24   0.0000      -0.161492        -4.3944
  25   0.0000      -0.138278        -3.7627
  26   0.0000      -0.027096        -0.7373

MULLIKEN ATOMIC CHARGES
-----------------------
   0 C :   -0.159490
   1 C :   -0.159484
   2 C :   -0.155751
   3 S :    0.083838
   4 C :   -0.155755
   5 H :    0.125479
   6 H :    0.125478
   7 H :    0.147846
   8 H :    0.147840
Sum of atomic charges:   -0.0000000

LOEWDIN ATOMIC CHARGES
----------------------
   0 C :   -0.211208
   1 C :   -0.211209
   2 C :   -0.392515
   3 S :    0.678752
   4 C :   -0.392514
   5 H :    0.139390
   6 H :    0.139390
   7 H :    0.124956
   8 H :    0.124956

  Mayer bond orders larger than 0.100000
B(  0-C ,  1-C ) :   1.2627 B(  0-C ,  4-C ) :   1.6832 B(  0-C ,  5-H ) :   0.9571
B(  1-C ,  2-C ) :   1.6832 B(  1-C ,  6-H ) :   0.9571 B(  2-C ,  3-S ) :   1.2624
B(  2-C ,  7-H ) :   0.9445 B(  3-S ,  4-C ) :   1.2624 B(  4-C ,  8-H ) :   0.9445

FINAL SINGLE POINT ENERGY      -552.967070597232

DIPOLE MOMENT
-------------

Method             : SCF
Type of density    : Electron Density
Multiplicity       :   1
Irrep              :   0
Energy             :  -552.9713689595317874 Eh
Relativity type    :
Basis              : AO
                                X                 Y                 Z
Electronic contribution:     -3.516245514       0.000176289       0.000057058
Nuclear contribution   :      3.745617021      -0.000187607       0.000365404
                        -----------------------------------------
Total Dipole Moment    :      0.229371507      -0.000011318       0.000422462
                        -----------------------------------------
Magnitude (a.u.)       :      0.229371897
Magnitude (Debye)      :      0.583017029

Rotational constants in cm-1:             0.265854             0.179021             0.106981
Rotational constants in MHz :          7970.089857          5366.905521          3207.223456

                             ****ORCA TERMINATED NORMALLY****
TOTAL RUN TIME: 0 days 0 hours 1 minutes 4 seconds 937 msec
