                         Program Version 6.0.0  -   RELEASE  -
|  1> ! wb97x-v def2-tzvp def2/J RIJCOSX DEFGRID2 scfconv7 GCP(DFT/TZ) printgap
|  2> %output
|  3>     printlevel normal
|  4> end
|  5> %cpcm
|  6>     smd true
|  7>     smdsolvent "water"
|  8> end
|  9> * xyz 0 1
| 10> C 1.311392788873434 -0.7116491296980122 0.0002504480913578616
| 11> C 1.311464351364373 0.7115419011242574 0.0005276983119172387
| 12> C 0.05170213886016912 1.2445256948074532 -0.00010768115660183327
| 13> S -1.1557522816806556 7.219507222875859e-05 0.00025967019629424647
| 14> C 0.05157531513289915 -1.2445043985856792 -0.0006589530027999761
| 15> H 2.2101824456729284 -1.3173724534694253 0.0005030931082247009
| 16> H 2.210313380953997 1.3171775002532968 0.0010827324487638623
| 17> H -0.23969888532843303 2.2867224704475597 0.00012980285437953214
| 18> H -0.23993386172251893 -2.286671612354281 -0.0008790938403614048
| 19> *
| 20>
| 21>                          ****END OF INPUT****

CARTESIAN COORDINATES (ANGSTROEM)
---------------------------------
  C      1.311393   -0.711649    0.000250
  C      1.311464    0.711542    0.000528
  C      0.051702    1.244526   -0.000108
  S     -1.155752    0.000072    0.000260
  C      0.051575   -1.244504   -0.000659
  H      2.210182   -1.317372    0.000503
  H      2.210313    1.317178    0.001083
  H     -0.239699    2.286722    0.000130
  H     -0.239934   -2.286672   -0.000879

 Total Charge           Charge          ....    0
 Multiplicity           Mult            ....    1
 Number of Electrons    NEL             ....   44
 Basis Dimension        Dim             ....  185

ORBITAL ENERGIES
----------------

  NO   OCC          E(Eh)            E(eV)
   0   2.0000     -94.155209     -2562.0935
   1   2.0000     -12.074920      -328.5753
   2   2.0000     -12.074576      -328.5659
   3   2.0000     -12.051843      -327.9473
   4   2.0000     -12.049960      -327.8961
   5   2.0000      -9.665201      -263.0035
   6   2.0000      -7.643004      -207.9767
   7   2.0000      -7.641938      -207.9477
   8   2.0000      -7.641585      -207.9381
   9   2.0000      -1.401294       -38.1311
  10   2.0000      -1.250903       -34.0388
  11   2.0000      -1.244163       -33.8554
  12   2.0000      -1.048528       -28.5319
  13   2.0000      -1.021700       -27.8019
  14   2.0000      -0.958915       -26.0934
  15   2.0000      -0.866425       -23.5766
  16   2.0000      -0.861046       -23.4302
  17   2.0000      -0.835843       -22.7444
  18   2.0000      -0.787752       -21.4358
  19   2.0000      -0.787713       -21.4348
  20   2.0000      -0.648796       -17.6546
  21   2.0000      -0.626915       -17.0592
  22   0.0000      -0.257014        -6.9937
  23   0.0000      -0.203542        -5.5387
  24   0.0000      -0.159625        -4.3436
  25   0.0000      -0.135257        -3.6805
  26   0.0000      -0.014153        -0.3851

MULLIKEN ATOMIC CHARGES
-----------------------
   0 C :   -0.210720
   1 C :   -0.210715
   2 C :   -0.194276
   3 S :    0.065632
   4 C :   -0.194280
   5 H :    0.171838
   6 H :    0.171838
   7 H :    0.200344
   8 H :    0.200338
Sum of atomic charges:   -0.0000000

LOEWDIN ATOMIC CHARGES
----------------------
   0 C :   -0.219696
   1 C :   -0.219696
   2 C :   -0.398478
   3 S :    0.662550
   4 C :   -0.398478
   5 H :    0.149778
   6 H :    0.149778
   7 H :    0.137121
   8 H :    0.137121

  Mayer bond orders larger than 0.100000
B(  0-C ,  1-C ) :   1.2380 B(  0-C ,  4-C ) :   1.6723 B(  0-C ,  5-H ) :   0.9528
B(  1-C ,  2-C ) :   1.6723 B(  1-C ,  6-H ) :   0.9528 B(  2-C ,  3-S ) :   1.2642
B(  2-C ,  7-H ) :   0.9309 B(  3-S ,  4-C ) :   1.2642 B(  4-C ,  8-H ) :   0.9309

FINAL SINGLE POINT ENERGY      -552.968900803873

DIPOLE MOMENT
-------------

Method             : SCF
Type of density    : Electron Density
Multiplicity       :   1
Irrep              :   0
Energy             :  -552.9731991661730035 Eh
Relativity type    :
Basis              : AO
                                X                 Y                 Z
Electronic contribution:     -3.410180077       0.000170709       0.000198968
Nuclear contribution   :      3.745617021      -0.000187607       0.000365404
                        -----------------------------------------
Total Dipole Moment    :      0.335436944      -0.000016898       0.000564372
                        -----------------------------------------
Magnitude (a.u.)       :      0.335437419
Magnitude (Debye)      :      0.852614161

Rotational constants in cm-1:             0.265854             0.179021             0.106981
Rotational constants in MHz :          7970.089857          5366.905521          3207.223456

                             ****ORCA TERMINATED NORMALLY****
TOTAL RUN TIME: 0 days 0 hours 1 minutes 10 seconds 760 msec
