                         Program Version 6.0.0  -   RELEASE  -
|  1> ! pbe def2-sv(p) def2/J RI DEFGRID1 loosescf d4 GCP(DFT/SV(P)) printgap
|  2> %output
|  3>     printlevel normal
|  4> end
|  5> * xyz 0 1
|  6> C 5.2630282467 -1.1224525057 -2.2478033344
|  7> C 3.7739501828 -1.1248540161 -1.9677733845
|  8> O 3.5260336581 -0.2071137211 -0.8853846988
|  9> P 2.0424423881 0.2398952828 -0.4974104879
| 10> S 1.0372157915 1.0145639882 -1.9843868905
| 11> O 2.3434602545 1.2467218185 0.6652926854
| 12> C 3.062202159 0.8668354114 1.8697395455
| 13> C 2.7180433194 1.872317245 2.9470675034
| 14> S 1.2449295409 -1.5493844696 0.344884529
| 15> C -0.2127034168 -1.8037264487 -0.7191962829
| 16> S -1.7859796134 -1.7883508997 0.1701286381
| 17> P -2.0353167659 0.3158430273 0.3757961612
| 18> S -0.7035462364 1.2298426715 1.4841540578
| 19> O -3.5349682579 0.4716873591 0.8734127678
| 20> C -3.8926228178 0.4331806701 2.2670564547
| 21> C -3.6417713428 -0.9268759268 2.8841629221
| 22> O -2.084001359 0.9040496765 -1.0859888199
| 23> C -3.2306733066 0.9154820117 -1.971502503
| 24> C -3.68918282 -0.473725789 -2.3615567138
| 25> H 5.5869858993 -0.1242915977 -2.52866181
| 26> H 5.807792759 -1.4332703816 -1.3612103551
| 27> H 5.4732761774 -1.8101800343 -3.060130605
| 28> H 3.4270542032 -2.1160659088 -1.6609697873
| 29> H 3.1993303522 -0.7953517605 -2.8398624375
| 30> H 2.7526184126 -0.1427987132 2.155761621
| 31> H 4.1274773768 0.8693921463 1.6312667541
| 32> H 3.2278905382 1.6008545561 3.8654464697
| 33> H 3.0232180896 2.8683799771 2.640043677
| 34> H 1.6432445854 1.8755234351 3.1147732747
| 35> H -0.1290400553 -2.7966496183 -1.152525554
| 36> H -0.2119082432 -1.0250866885 -1.4883257646
| 37> H -3.3201992587 1.2049202067 2.7909969419
| 38> H -4.9529331649 0.6897505714 2.2680326909
| 39> H -4.0374461018 -0.9401473015 3.8945913254
| 40> H -4.1210577404 -1.7058895684 2.2967632763
| 41> H -2.5713602121 -1.1245857811 2.9225230464
| 42> H -4.0322939107 1.4689117508 -1.4790637287
| 43> H -2.8637893063 1.4757915047 -2.8334487352
| 44> H -4.0645618864 -1.0087555491 -1.4921781342
| 45> H -4.4860466971 -0.3837448416 -3.0933828946
| 46> H -2.8682922591 -1.0364527517 -2.7991978033
| 47> *
| 48>
| 49>                          ****END OF INPUT****

CARTESIAN COORDINATES (ANGSTROEM)
---------------------------------
  C      5.263028   -1.122453   -2.247803
  C      3.773950   -1.124854   -1.967773
  O      3.526034   -0.207114   -0.885385
  P      2.042442    0.239895   -0.497410
  S      1.037216    1.014564   -1.984387
  O      2.343460    1.246722    0.665293
  C      3.062202    0.866835    1.869740
  C      2.718043    1.872317    2.947068
  S      1.244930   -1.549384    0.344885
  C     -0.212703   -1.803726   -0.719196
  S     -1.785980   -1.788351    0.170129
  P     -2.035317    0.315843    0.375796
  S     -0.703546    1.229843    1.484154
  O     -3.534968    0.471687    0.873413
  C     -3.892623    0.433181    2.267056
  C     -3.641771   -0.926876    2.884163
  O     -2.084001    0.904050   -1.085989
  C     -3.230673    0.915482   -1.971503
  C     -3.689183   -0.473726   -2.361557
  H      5.586986   -0.124292   -2.528662
  H      5.807793   -1.433270   -1.361210
  H      5.473276   -1.810180   -3.060131
  H      3.427054   -2.116066   -1.660970
  H      3.199330   -0.795352   -2.839862
  H      2.752618   -0.142799    2.155762
  H      4.127477    0.869392    1.631267
  H      3.227891    1.600855    3.865446
  H      3.023218    2.868380    2.640044
  H      1.643245    1.875523    3.114773
  H     -0.129040   -2.796650   -1.152526
  H     -0.211908   -1.025087   -1.488326
  H     -3.320199    1.204920    2.790997
  H     -4.952933    0.689751    2.268033
  H     -4.037446   -0.940147    3.894591
  H     -4.121058   -1.705890    2.296763
  H     -2.571360   -1.124586    2.922523
  H     -4.032294    1.468912   -1.479064
  H     -2.863789    1.475792   -2.833449
  H     -4.064562   -1.008756   -1.492178
  H     -4.486047   -0.383745   -3.093383
  H     -2.868292   -1.036453   -2.799198

 Total Charge           Charge          ....    0
 Multiplicity           Mult            ....    1
 Number of Electrons    NEL             ....  202
 Basis Dimension        Dim             ....  334

ORBITAL ENERGIES
----------------

  NO   OCC          E(Eh)            E(eV)
   0   2.0000     -88.038153     -2395.6399
   1   2.0000     -88.035085     -2395.5565
   2   2.0000     -87.977428     -2393.9875
   3   2.0000     -87.974876     -2393.9181
   4   2.0000     -76.421251     -2079.5280
   5   2.0000     -76.416749     -2079.4055
   6   2.0000     -18.792954      -511.3823
   7   2.0000     -18.783791      -511.1329
   8   2.0000     -18.783540      -511.1261
   9   2.0000     -18.779667      -511.0207
  10   2.0000      -9.953582      -270.8507
  11   2.0000      -9.952680      -270.8262
  12   2.0000      -9.952260      -270.8148
  13   2.0000      -9.951192      -270.7857
  14   2.0000      -9.945528      -270.6316
  15   2.0000      -9.885224      -268.9906
  16   2.0000      -9.885095      -268.9871
  17   2.0000      -9.884134      -268.9610
  18   2.0000      -9.879979      -268.8479
  19   2.0000      -7.683191      -209.0703
  20   2.0000      -7.679987      -208.9831
  21   2.0000      -7.622668      -207.4233
  22   2.0000      -7.619804      -207.3454
  23   2.0000      -6.418508      -174.6565
  24   2.0000      -6.414243      -174.5404
  25   2.0000      -5.710905      -155.4016
  26   2.0000      -5.707813      -155.3175
  27   2.0000      -5.707798      -155.3171
  28   2.0000      -5.704473      -155.2266
  29   2.0000      -5.700200      -155.1103
  30   2.0000      -5.697087      -155.0256
  31   2.0000      -5.651600      -153.7878
  32   2.0000      -5.648733      -153.7099
  33   2.0000      -5.643437      -153.5657
  34   2.0000      -5.642584      -153.5425
  35   2.0000      -5.640655      -153.4900
  36   2.0000      -5.639723      -153.4647
  37   2.0000      -4.641774      -126.3091
  38   2.0000      -4.640148      -126.2648
  39   2.0000      -4.638468      -126.2191
  40   2.0000      -4.636894      -126.1763
  41   2.0000      -4.635986      -126.1516
  42   2.0000      -4.634642      -126.1150
  43   2.0000      -0.985273       -26.8107
  44   2.0000      -0.979762       -26.6607
  45   2.0000      -0.941245       -25.6126
  46   2.0000      -0.934551       -25.4304
  47   2.0000      -0.756300       -20.5800
  48   2.0000      -0.716394       -19.4941
  49   2.0000      -0.708332       -19.2747
  50   2.0000      -0.690143       -18.7797
  51   2.0000      -0.685027       -18.6405
  52   2.0000      -0.672975       -18.3126
  53   2.0000      -0.645479       -17.5644
  54   2.0000      -0.628368       -17.0988
  55   2.0000      -0.592227       -16.1153
  56   2.0000      -0.578277       -15.7357
  57   2.0000      -0.576670       -15.6920
  58   2.0000      -0.563821       -15.3424
  59   2.0000      -0.558661       -15.2019
  60   2.0000      -0.504466       -13.7272
  61   2.0000      -0.493616       -13.4320
  62   2.0000      -0.475600       -12.9417
  63   2.0000      -0.468219       -12.7409
  64   2.0000      -0.452452       -12.3118
  65   2.0000      -0.448225       -12.1968
  66   2.0000      -0.439895       -11.9701
  67   2.0000      -0.431928       -11.7534
  68   2.0000      -0.424215       -11.5435
  69   2.0000      -0.419677       -11.4200
  70   2.0000      -0.405883       -11.0446
  71   2.0000      -0.396478       -10.7887
  72   2.0000      -0.393804       -10.7160
  73   2.0000      -0.378166       -10.2904
  74   2.0000      -0.371379       -10.1057
  75   2.0000      -0.365989        -9.9591
  76   2.0000      -0.359719        -9.7885
  77   2.0000      -0.355501        -9.6737
  78   2.0000      -0.350979        -9.5506
  79   2.0000      -0.348999        -9.4967
  80   2.0000      -0.345151        -9.3920
  81   2.0000      -0.340892        -9.2761
  82   2.0000      -0.338028        -9.1982
  83   2.0000      -0.334081        -9.0908
  84   2.0000      -0.327492        -8.9115
  85   2.0000      -0.318795        -8.6749
  86   2.0000      -0.309409        -8.4194
  87   2.0000      -0.295132        -8.0310
  88   2.0000      -0.293543        -7.9877
  89   2.0000      -0.292493        -7.9591
  90   2.0000      -0.287997        -7.8368
  91   2.0000      -0.268365        -7.3026
  92   2.0000      -0.266190        -7.2434
  93   2.0000      -0.255049        -6.9402
  94   2.0000      -0.250981        -6.8295
  95   2.0000      -0.235166        -6.3992
  96   2.0000      -0.216670        -5.8959
  97   2.0000      -0.199413        -5.4263
  98   2.0000      -0.195796        -5.3279
  99   2.0000      -0.186328        -5.0702
 100   2.0000      -0.182172        -4.9571
 101   0.0000      -0.034903        -0.9498
 102   0.0000      -0.027035        -0.7357
 103   0.0000      -0.010470        -0.2849
 104   0.0000       0.003417         0.0930
 105   0.0000       0.025885         0.7044

MULLIKEN ATOMIC CHARGES
-----------------------
   0 C :   -0.279226
   1 C :   -0.002957
   2 O :   -0.388849
   3 P :    0.604235
   4 S :   -0.293899
   5 O :   -0.348370
   6 C :   -0.015179
   7 C :   -0.286563
   8 S :   -0.110563
   9 C :   -0.347438
  10 S :   -0.108344
  11 P :    0.613331
  12 S :   -0.311873
  13 O :   -0.385498
  14 C :    0.002303
  15 C :   -0.328425
  16 O :   -0.352409
  17 C :    0.010063
  18 C :   -0.320291
  19 H :    0.120352
  20 H :    0.112599
  21 H :    0.108718
  22 H :    0.091076
  23 H :    0.097294
  24 H :    0.109285
  25 H :    0.108213
  26 H :    0.106660
  27 H :    0.120190
  28 H :    0.138196
  29 H :    0.177912
  30 H :    0.194523
  31 H :    0.113260
  32 H :    0.103738
  33 H :    0.115658
  34 H :    0.118507
  35 H :    0.135212
  36 H :    0.107745
  37 H :    0.113072
  38 H :    0.124625
  39 H :    0.111662
  40 H :    0.121455
Sum of atomic charges:    0.0000000

LOEWDIN ATOMIC CHARGES
----------------------
   0 C :   -0.350545
   1 C :   -0.124366
   2 O :   -0.259146
   3 P :    0.568238
   4 S :   -0.292331
   5 O :   -0.224821
   6 C :   -0.110704
   7 C :   -0.351525
   8 S :    0.059641
   9 C :   -0.485459
  10 S :    0.074355
  11 P :    0.570083
  12 S :   -0.307171
  13 O :   -0.248038
  14 C :   -0.117468
  15 C :   -0.373615
  16 O :   -0.230027
  17 C :   -0.106220
  18 C :   -0.369563
  19 H :    0.128695
  20 H :    0.124968
  21 H :    0.129060
  22 H :    0.101658
  23 H :    0.105393
  24 H :    0.106674
  25 H :    0.114825
  26 H :    0.128557
  27 H :    0.129655
  28 H :    0.129638
  29 H :    0.135406
  30 H :    0.119696
  31 H :    0.113172
  32 H :    0.117983
  33 H :    0.132800
  34 H :    0.123264
  35 H :    0.124171
  36 H :    0.114357
  37 H :    0.123959
  38 H :    0.118586
  39 H :    0.130348
  40 H :    0.125815

  Mayer bond orders larger than 0.100000
B(  0-C ,  1-C ) :   1.1603 B(  0-C , 19-H ) :   0.9514 B(  0-C , 20-H ) :   0.9514
B(  0-C , 21-H ) :   0.9426 B(  1-C ,  2-O ) :   0.9177 B(  1-C , 22-H ) :   0.9207
B(  1-C , 23-H ) :   0.9115 B(  2-O ,  3-P ) :   1.0613 B(  3-P ,  4-S ) :   1.6440
B(  3-P ,  5-O ) :   1.1541 B(  3-P ,  8-S ) :   0.9442 B(  4-S ,  8-S ) :   0.1173
B(  4-S , 30-H ) :   0.1238 B(  5-O ,  6-C ) :   0.8872 B(  6-C ,  7-C ) :   1.1651
B(  6-C , 24-H ) :   0.9151 B(  6-C , 25-H ) :   0.9302 B(  7-C , 26-H ) :   0.9401
B(  7-C , 27-H ) :   0.9492 B(  7-C , 28-H ) :   0.9428 B(  8-S ,  9-C ) :   0.9999
B(  9-C , 10-S ) :   0.9986 B(  9-C , 29-H ) :   0.9125 B(  9-C , 30-H ) :   0.8409
B( 10-S , 11-P ) :   0.9441 B( 10-S , 12-S ) :   0.1118 B( 11-P , 12-S ) :   1.6603
B( 11-P , 13-O ) :   1.0700 B( 11-P , 16-O ) :   1.1315 B( 13-O , 14-C ) :   0.9040
B( 14-C , 15-C ) :   1.1658 B( 14-C , 31-H ) :   0.9155 B( 14-C , 32-H ) :   0.9337
B( 15-C , 33-H ) :   0.9371 B( 15-C , 34-H ) :   0.9435 B( 15-C , 35-H ) :   0.9308
B( 16-O , 17-C ) :   0.8993 B( 17-C , 18-C ) :   1.1699 B( 17-C , 36-H ) :   0.9280
B( 17-C , 37-H ) :   0.9334 B( 18-C , 38-H ) :   0.9379 B( 18-C , 39-H ) :   0.9357
B( 18-C , 40-H ) :   0.9450

Dispersion correction           -0.065917834
FINAL SINGLE POINT ENERGY     -2929.511366075045

DIPOLE MOMENT
-------------

Method             : SCF
Type of density    : Electron Density
Multiplicity       :   1
Irrep              :   0
Energy             : -2929.6300125290727010 Eh
Relativity type    :
Basis              : AO
                                X                 Y                 Z
Electronic contribution:     -1.004691624       3.496742164      -1.670929884
Nuclear contribution   :      0.575593398      -4.547470768       1.782319626
                        -----------------------------------------
Total Dipole Moment    :     -0.429098226      -1.050728604       0.111389742
                        -----------------------------------------
Magnitude (a.u.)       :      1.140422536
Magnitude (Debye)      :      2.898723722

Rotational constants in cm-1:             0.012182             0.005294             0.004620
Rotational constants in MHz :           365.207424           158.720491           138.506449

                             ****ORCA TERMINATED NORMALLY****
TOTAL RUN TIME: 0 days 0 hours 0 minutes 20 seconds 842 msec
