                         Program Version 6.0.1  -  RELEASE   -
|  1> ! pbe def2-sv(p) def2/J RI DEFGRID1 loosescf d4 GCP(DFT/SV(P)) printgap
|  2> %output
|  3>     printlevel normal
|  4> end
|  5> * xyz 0 1
|  6> C 1.4993220961 -3.9273131878 -1.7642997307
|  7> C 2.5352311734 -2.9046334263 -2.2036846722
|  8> O 2.3600682784 -1.673004412 -1.4813079593
|  9> C 2.9663866377 -1.5337777199 -0.3175362225
| 10> O 3.7444920628 -2.332074668 0.1526412621
| 11> C 2.5998272734 -0.2273771605 0.3643433044
| 12> C 1.1610982524 0.1782832 0.0761919075
| 13> H 1.0091468827 0.2868272552 -1.0038366932
| 14> C 0.7589009531 1.4842652849 0.7279003899
| 15> O -0.3348612148 1.6255737103 1.2441855541
| 16> O 1.6767800418 2.4003761667 0.6481033356
| 17> C 1.3624956022 3.7326026541 1.116767797
| 18> C 0.6751775395 4.5283899782 0.0198174417
| 19> S -0.0138626831 -1.1032831233 0.6655147903
| 20> P -1.8053261774 -0.1123648428 0.158757355
| 21> S -1.8808649927 1.2306881521 -1.2790954738
| 22> O -2.4876196358 -1.4964044631 -0.2865754265
| 23> C -3.8283015025 -1.5365846405 -0.7848686833
| 24> O -2.7097164664 0.1897184134 1.4409121556
| 25> C -2.9854526878 1.4740625213 1.9992688357
| 26> H 1.5950448848 -4.8228059576 -2.3690821885
| 27> H 1.6500102359 -4.1844507321 -0.7182805996
| 28> H 0.4981834467 -3.5189812989 -1.8791421622
| 29> H 2.4061896297 -2.631204187 -3.2511722978
| 30> H 3.5485645185 -3.275240879 -2.0255199162
| 31> H 3.2687850817 0.5539617909 -0.0033317833
| 32> H 2.7649592524 -0.3557059374 1.4342652135
| 33> H 0.7251979817 3.6520119147 2.0005910089
| 34> H 2.3299201745 4.1607329296 1.3773565515
| 35> H 1.3167770022 4.5973401856 -0.8539582799
| 36> H -0.2561590653 4.0453061464 -0.2710162452
| 37> H 0.4553243434 5.5266156148 0.3829409972
| 38> H -4.535733714 -1.3752503617 0.0279074924
| 39> H -3.9536588556 -2.5290779248 -1.2101737276
| 40> H -3.9652422954 -0.772386379 -1.5530169082
| 41> H -2.9147033347 2.2423674921 1.2281473169
| 42> H -2.2735720378 1.6847693605 2.7941052595
| 43> H -3.999072959 1.4170976158 2.3902853394
| 44> *
| 45>
| 46>                          ****END OF INPUT****

CARTESIAN COORDINATES (ANGSTROEM)
---------------------------------
  C      1.499322   -3.927313   -1.764300
  C      2.535231   -2.904633   -2.203685
  O      2.360068   -1.673004   -1.481308
  C      2.966387   -1.533778   -0.317536
  O      3.744492   -2.332075    0.152641
  C      2.599827   -0.227377    0.364343
  C      1.161098    0.178283    0.076192
  H      1.009147    0.286827   -1.003837
  C      0.758901    1.484265    0.727900
  O     -0.334861    1.625574    1.244186
  O      1.676780    2.400376    0.648103
  C      1.362496    3.732603    1.116768
  C      0.675178    4.528390    0.019817
  S     -0.013863   -1.103283    0.665515
  P     -1.805326   -0.112365    0.158757
  S     -1.880865    1.230688   -1.279095
  O     -2.487620   -1.496404   -0.286575
  C     -3.828302   -1.536585   -0.784869
  O     -2.709716    0.189718    1.440912
  C     -2.985453    1.474063    1.999269
  H      1.595045   -4.822806   -2.369082
  H      1.650010   -4.184451   -0.718281
  H      0.498183   -3.518981   -1.879142
  H      2.406190   -2.631204   -3.251172
  H      3.548565   -3.275241   -2.025520
  H      3.268785    0.553962   -0.003332
  H      2.764959   -0.355706    1.434265
  H      0.725198    3.652012    2.000591
  H      2.329920    4.160733    1.377357
  H      1.316777    4.597340   -0.853958
  H     -0.256159    4.045306   -0.271016
  H      0.455324    5.526616    0.382941
  H     -4.535734   -1.375250    0.027907
  H     -3.953659   -2.529078   -1.210174
  H     -3.965242   -0.772386   -1.553017
  H     -2.914703    2.242367    1.228147
  H     -2.273572    1.684769    2.794105
  H     -3.999073    1.417098    2.390285

 Total Charge           Charge          ....    0
 Multiplicity           Mult            ....    1
 Number of Electrons    NEL             ....  174
 Basis Dimension        Dim             ....  316

ORBITAL ENERGIES
----------------

  NO   OCC          E(Eh)            E(eV)
   0   2.0000     -88.034510     -2395.5408
   1   2.0000     -87.973616     -2393.8838
   2   2.0000     -76.419457     -2079.4791
   3   2.0000     -18.829669      -512.3813
   4   2.0000     -18.804460      -511.6954
   5   2.0000     -18.783601      -511.1278
   6   2.0000     -18.772835      -510.8348
   7   2.0000     -18.763005      -510.5673
   8   2.0000     -18.738840      -509.9098
   9   2.0000     -10.032361      -272.9944
  10   2.0000     -10.013542      -272.4823
  11   2.0000      -9.964064      -271.1360
  12   2.0000      -9.949042      -270.7272
  13   2.0000      -9.946521      -270.6586
  14   2.0000      -9.933845      -270.3137
  15   2.0000      -9.932327      -270.2724
  16   2.0000      -9.919200      -269.9152
  17   2.0000      -9.894349      -269.2389
  18   2.0000      -9.881090      -268.8781
  19   2.0000      -7.679638      -208.9736
  20   2.0000      -7.618774      -207.3174
  21   2.0000      -6.415331      -174.5700
  22   2.0000      -5.707703      -155.3145
  23   2.0000      -5.704580      -155.2295
  24   2.0000      -5.695977      -154.9954
  25   2.0000      -5.647876      -153.6865
  26   2.0000      -5.639637      -153.4623
  27   2.0000      -5.638465      -153.4304
  28   2.0000      -4.637929      -126.2045
  29   2.0000      -4.637285      -126.1869
  30   2.0000      -4.635993      -126.1518
  31   2.0000      -1.039101       -28.2754
  32   2.0000      -1.012605       -27.5544
  33   2.0000      -0.971513       -26.4362
  34   2.0000      -0.942575       -25.6488
  35   2.0000      -0.926462       -25.2103
  36   2.0000      -0.916916       -24.9506
  37   2.0000      -0.769838       -20.9484
  38   2.0000      -0.719341       -19.5743
  39   2.0000      -0.709572       -19.3084
  40   2.0000      -0.688119       -18.7247
  41   2.0000      -0.650710       -17.7067
  42   2.0000      -0.630229       -17.1494
  43   2.0000      -0.621217       -16.9042
  44   2.0000      -0.618788       -16.8381
  45   2.0000      -0.594410       -16.1747
  46   2.0000      -0.570536       -15.5251
  47   2.0000      -0.515305       -14.0222
  48   2.0000      -0.505746       -13.7620
  49   2.0000      -0.499179       -13.5834
  50   2.0000      -0.481724       -13.1084
  51   2.0000      -0.469295       -12.7702
  52   2.0000      -0.464474       -12.6390
  53   2.0000      -0.454243       -12.3606
  54   2.0000      -0.446458       -12.1487
  55   2.0000      -0.435804       -11.8588
  56   2.0000      -0.423348       -11.5199
  57   2.0000      -0.416825       -11.3424
  58   2.0000      -0.412863       -11.2346
  59   2.0000      -0.408197       -11.1076
  60   2.0000      -0.400946       -10.9103
  61   2.0000      -0.395547       -10.7634
  62   2.0000      -0.389279       -10.5928
  63   2.0000      -0.386793       -10.5252
  64   2.0000      -0.375114       -10.2074
  65   2.0000      -0.371969       -10.1218
  66   2.0000      -0.362497        -9.8640
  67   2.0000      -0.354132        -9.6364
  68   2.0000      -0.351127        -9.5546
  69   2.0000      -0.341933        -9.3045
  70   2.0000      -0.339562        -9.2400
  71   2.0000      -0.329128        -8.9560
  72   2.0000      -0.326069        -8.8728
  73   2.0000      -0.312302        -8.4982
  74   2.0000      -0.308092        -8.3836
  75   2.0000      -0.295371        -8.0374
  76   2.0000      -0.292114        -7.9488
  77   2.0000      -0.285974        -7.7818
  78   2.0000      -0.279006        -7.5921
  79   2.0000      -0.262722        -7.1490
  80   2.0000      -0.260773        -7.0960
  81   2.0000      -0.257743        -7.0135
  82   2.0000      -0.248892        -6.7727
  83   2.0000      -0.222435        -6.0528
  84   2.0000      -0.210519        -5.7285
  85   2.0000      -0.196215        -5.3393
  86   2.0000      -0.187230        -5.0948
  87   0.0000      -0.050916        -1.3855
  88   0.0000      -0.042220        -1.1489
  89   0.0000      -0.017555        -0.4777
  90   0.0000       0.008429         0.2294
  91   0.0000       0.033603         0.9144

MULLIKEN ATOMIC CHARGES
-----------------------
   0 C :   -0.303232
   1 C :   -0.014608
   2 O :   -0.232349
   3 C :    0.130790
   4 O :   -0.190696
   5 C :   -0.115036
   6 C :   -0.313576
   7 H :    0.165052
   8 C :    0.243850
   9 O :   -0.198950
  10 O :   -0.216584
  11 C :   -0.014255
  12 C :   -0.313460
  13 S :   -0.073672
  14 P :    0.653147
  15 S :   -0.362696
  16 O :   -0.389005
  17 C :   -0.096485
  18 O :   -0.389179
  19 C :   -0.085095
  20 H :    0.110168
  21 H :    0.124756
  22 H :    0.127372
  23 H :    0.104151
  24 H :    0.109121
  25 H :    0.138212
  26 H :    0.115310
  27 H :    0.113679
  28 H :    0.110626
  29 H :    0.118508
  30 H :    0.142986
  31 H :    0.116557
  32 H :    0.108122
  33 H :    0.120295
  34 H :    0.112177
  35 H :    0.113174
  36 H :    0.116563
  37 H :    0.114263
Sum of atomic charges:   -0.0000000

LOEWDIN ATOMIC CHARGES
----------------------
   0 C :   -0.355845
   1 C :   -0.109987
   2 O :   -0.055899
   3 C :    0.025642
   4 O :   -0.159680
   5 C :   -0.246563
   6 C :   -0.270148
   7 H :    0.149652
   8 C :    0.028512
   9 O :   -0.157589
  10 O :   -0.031600
  11 C :   -0.105247
  12 C :   -0.357633
  13 S :    0.118035
  14 P :    0.591715
  15 S :   -0.352444
  16 O :   -0.269046
  17 C :   -0.215906
  18 O :   -0.249909
  19 C :   -0.211493
  20 H :    0.128963
  21 H :    0.130052
  22 H :    0.129440
  23 H :    0.118679
  24 H :    0.119535
  25 H :    0.154788
  26 H :    0.142770
  27 H :    0.122318
  28 H :    0.121625
  29 H :    0.127809
  30 H :    0.134358
  31 H :    0.133014
  32 H :    0.109214
  33 H :    0.119742
  34 H :    0.107766
  35 H :    0.107583
  36 H :    0.113051
  37 H :    0.114725

  Mayer bond orders larger than 0.100000
B(  0-C ,  1-C ) :   1.1769 B(  0-C , 20-H ) :   0.9432 B(  0-C , 21-H ) :   0.9461
B(  0-C , 22-H ) :   0.9444 B(  1-C ,  2-O ) :   0.9125 B(  1-C , 23-H ) :   0.9362
B(  1-C , 24-H ) :   0.9135 B(  2-O ,  3-C ) :   1.2224 B(  3-C ,  4-O ) :   2.0743
B(  3-C ,  5-C ) :   1.0147 B(  5-C ,  6-C ) :   1.0861 B(  5-C , 25-H ) :   0.8711
B(  5-C , 26-H ) :   0.9086 B(  6-C ,  7-H ) :   0.8293 B(  6-C ,  8-C ) :   0.9120
B(  6-C , 13-S ) :   1.0293 B(  8-C ,  9-O ) :   1.9220 B(  8-C , 10-O ) :   1.2894
B(  9-O , 14-P ) :   0.1203 B( 10-O , 11-C ) :   0.8931 B( 11-C , 12-C ) :   1.1784
B( 11-C , 27-H ) :   0.9147 B( 11-C , 28-H ) :   0.9358 B( 12-C , 29-H ) :   0.9477
B( 12-C , 30-H ) :   0.9343 B( 12-C , 31-H ) :   0.9416 B( 13-S , 14-P ) :   0.9363
B( 13-S , 15-S ) :   0.1086 B( 14-P , 15-S ) :   1.5652 B( 14-P , 16-O ) :   1.0828
B( 14-P , 18-O ) :   1.0973 B( 16-O , 17-C ) :   0.9406 B( 17-C , 32-H ) :   0.9506
B( 17-C , 33-H ) :   0.9611 B( 17-C , 34-H ) :   0.9342 B( 18-O , 19-C ) :   0.9299
B( 19-C , 35-H ) :   0.9351 B( 19-C , 36-H ) :   0.9530 B( 19-C , 37-H ) :   0.9539

Dispersion correction           -0.051080871
FINAL SINGLE POINT ENERGY     -1979.015061067057

DIPOLE MOMENT
-------------

Method             : SCF
Type of density    : Electron Density
Multiplicity       :   1
Irrep              :   0
Energy             : -1979.1463854293783697 Eh
Relativity type    :
Basis              : AO
                                X                 Y                 Z
Electronic contribution:     -1.356079285      -3.470268087       3.480369924
Nuclear contribution   :      1.391597561       4.488880235      -3.384995127
                        -----------------------------------------
Total Dipole Moment    :      0.035518275       1.018612148       0.095374797
                        -----------------------------------------
Magnitude (a.u.)       :      1.023683842
Magnitude (Debye)      :      2.601997542

Rotational constants in cm-1:             0.011170             0.008015             0.005499
Rotational constants in MHz :           334.859804           240.292487           164.841155

                             ****ORCA TERMINATED NORMALLY****
TOTAL RUN TIME: 0 days 0 hours 0 minutes 31 seconds 142 msec
