                         Program Version 6.0.0  -   RELEASE  -
|  1> ! r2scan-3c def2/J RI DEFGRID2 scfconv6 printgap
|  2> %output
|  3>     printlevel normal
|  4> end
|  5> * xyz 0 1
|  6> C 0.0764848973 -2.9982358374 1.5615747399
|  7> C 1.3927199541 -2.2490023975 1.5844455742
|  8> O 1.1487522831 -0.8861073613 1.1681523336
|  9> P 2.1799622368 -0.0656507711 0.2933347663
| 10> S 3.1657347512 -1.0811743455 -1.0697132049
| 11> O 3.0953148157 0.5774552033 1.4256876208
| 12> C 4.3747231481 1.1699790841 1.1429604082
| 13> C 4.245137281 2.4473794831 0.3387588169
| 14> S 0.944185366 1.5074291195 -0.3639560103
| 15> C 0.362132555 0.7010216238 -1.8775581727
| 16> S -0.6519238461 -0.7663782007 -1.5687391884
| 17> P -2.2489300168 0.2340424797 -0.6077936019
| 18> S -2.6321119794 2.0868330859 -1.0891019767
| 19> O -1.8650310877 -0.0285022897 0.9219148576
| 20> C -2.3159691947 0.8131646853 2.0021015555
| 21> C -1.2301699997 1.7858619526 2.4172693746
| 22> O -3.5131054425 -0.6670317781 -0.9374304647
| 23> C -3.5486121218 -2.1128056127 -0.896623294
| 24> C -3.8173236179 -2.6293629335 0.5024769538
| 25> H -0.6416939592 -2.4971405811 2.2044004057
| 26> H -0.3158105746 -3.0288189624 0.5480491282
| 27> H 0.2351337808 -4.0113082713 1.916409176
| 28> H 2.1192855359 -2.7017407531 0.9007980092
| 29> H 1.8175199351 -2.2111807883 2.5900797153
| 30> H 4.8014306248 1.3554133973 2.1295356822
| 31> H 4.982837473 0.4359265782 0.6046632892
| 32> H 5.2186584889 2.919444974 0.2538678445
| 33> H 3.8736611798 2.2228300788 -0.6603184155
| 34> H 3.5521912771 3.130803912 0.8232153177
| 35> H 1.2147630866 0.3614037299 -2.4654370247
| 36> H -0.2246931617 1.4451187468 -2.4149410454
| 37> H -3.2178890257 1.3486856932 1.6909655946
| 38> H -2.5599412944 0.1219128701 2.8112090891
| 39> H -0.3037842839 1.2501504997 2.6110514957
| 40> H -1.0533377621 2.5118457217 1.6264591812
| 41> H -1.5412357493 2.3079282336 3.316399255
| 42> H -4.3593739107 -2.3715687192 -1.5800038002
| 43> H -2.6030389431 -2.4978643411 -1.2888870076
| 44> H -4.7321776309 -2.19052866 0.8920499574
| 45> H -3.926001118 -3.7087378012 0.4655567148
| 46> H -2.9929516648 -2.3789705507 1.1643275692
| 47> *
| 48>
| 49>                          ****END OF INPUT****

CARTESIAN COORDINATES (ANGSTROEM)
---------------------------------
  C      0.076485   -2.998236    1.561575
  C      1.392720   -2.249002    1.584446
  O      1.148752   -0.886107    1.168152
  P      2.179962   -0.065651    0.293335
  S      3.165735   -1.081174   -1.069713
  O      3.095315    0.577455    1.425688
  C      4.374723    1.169979    1.142960
  C      4.245137    2.447379    0.338759
  S      0.944185    1.507429   -0.363956
  C      0.362133    0.701022   -1.877558
  S     -0.651924   -0.766378   -1.568739
  P     -2.248930    0.234042   -0.607794
  S     -2.632112    2.086833   -1.089102
  O     -1.865031   -0.028502    0.921915
  C     -2.315969    0.813165    2.002102
  C     -1.230170    1.785862    2.417269
  O     -3.513105   -0.667032   -0.937430
  C     -3.548612   -2.112806   -0.896623
  C     -3.817324   -2.629363    0.502477
  H     -0.641694   -2.497141    2.204400
  H     -0.315811   -3.028819    0.548049
  H      0.235134   -4.011308    1.916409
  H      2.119286   -2.701741    0.900798
  H      1.817520   -2.211181    2.590080
  H      4.801431    1.355413    2.129536
  H      4.982837    0.435927    0.604663
  H      5.218658    2.919445    0.253868
  H      3.873661    2.222830   -0.660318
  H      3.552191    3.130804    0.823215
  H      1.214763    0.361404   -2.465437
  H     -0.224693    1.445119   -2.414941
  H     -3.217889    1.348686    1.690966
  H     -2.559941    0.121913    2.811209
  H     -0.303784    1.250150    2.611051
  H     -1.053338    2.511846    1.626459
  H     -1.541236    2.307928    3.316399
  H     -4.359374   -2.371569   -1.580004
  H     -2.603039   -2.497864   -1.288887
  H     -4.732178   -2.190529    0.892050
  H     -3.926001   -3.708738    0.465557
  H     -2.992952   -2.378971    1.164328

 Total Charge           Charge          ....    0
 Multiplicity           Mult            ....    1
 Number of Electrons    NEL             ....  202
 Basis Dimension        Dim             ....  539

ORBITAL ENERGIES
----------------

  NO   OCC          E(Eh)            E(eV)
   0   2.0000     -88.576410     -2410.2866
   1   2.0000     -88.575760     -2410.2690
   2   2.0000     -88.521854     -2408.8021
   3   2.0000     -88.518606     -2408.7137
   4   2.0000     -76.913997     -2092.9363
   5   2.0000     -76.913548     -2092.9240
   6   2.0000     -18.993572      -516.8414
   7   2.0000     -18.990464      -516.7568
   8   2.0000     -18.988157      -516.6940
   9   2.0000     -18.985974      -516.6346
  10   2.0000     -10.107546      -275.0403
  11   2.0000     -10.107443      -275.0375
  12   2.0000     -10.098979      -274.8072
  13   2.0000     -10.098051      -274.7819
  14   2.0000     -10.096243      -274.7327
  15   2.0000     -10.037199      -273.1261
  16   2.0000     -10.032275      -272.9921
  17   2.0000     -10.029226      -272.9091
  18   2.0000     -10.020788      -272.6795
  19   2.0000      -7.870886      -214.1777
  20   2.0000      -7.870364      -214.1635
  21   2.0000      -7.816633      -212.7014
  22   2.0000      -7.813489      -212.6159
  23   2.0000      -6.592664      -179.3955
  24   2.0000      -6.591749      -179.3706
  25   2.0000      -5.817841      -158.3115
  26   2.0000      -5.817236      -158.2950
  27   2.0000      -5.814743      -158.2272
  28   2.0000      -5.814299      -158.2151
  29   2.0000      -5.807873      -158.0403
  30   2.0000      -5.807318      -158.0252
  31   2.0000      -5.764170      -156.8510
  32   2.0000      -5.761336      -156.7739
  33   2.0000      -5.756942      -156.6544
  34   2.0000      -5.756708      -156.6480
  35   2.0000      -5.753970      -156.5735
  36   2.0000      -5.753071      -156.5490
  37   2.0000      -4.738120      -128.9308
  38   2.0000      -4.737589      -128.9163
  39   2.0000      -4.737513      -128.9143
  40   2.0000      -4.736475      -128.8860
  41   2.0000      -4.736455      -128.8855
  42   2.0000      -4.735434      -128.8577
  43   2.0000      -1.049696       -28.5637
  44   2.0000      -1.044193       -28.4139
  45   2.0000      -1.010170       -27.4881
  46   2.0000      -1.007095       -27.4044
  47   2.0000      -0.804808       -21.8999
  48   2.0000      -0.761057       -20.7094
  49   2.0000      -0.752195       -20.4683
  50   2.0000      -0.733980       -19.9726
  51   2.0000      -0.731775       -19.9126
  52   2.0000      -0.710369       -19.3301
  53   2.0000      -0.685570       -18.6553
  54   2.0000      -0.671439       -18.2708
  55   2.0000      -0.632897       -17.2220
  56   2.0000      -0.619306       -16.8522
  57   2.0000      -0.612864       -16.6769
  58   2.0000      -0.605664       -16.4809
  59   2.0000      -0.587740       -15.9932
  60   2.0000      -0.530225       -14.4281
  61   2.0000      -0.525196       -14.2913
  62   2.0000      -0.497907       -13.5488
  63   2.0000      -0.493303       -13.4235
  64   2.0000      -0.475597       -12.9417
  65   2.0000      -0.465462       -12.6659
  66   2.0000      -0.460665       -12.5353
  67   2.0000      -0.451047       -12.2736
  68   2.0000      -0.447136       -12.1672
  69   2.0000      -0.434754       -11.8303
  70   2.0000      -0.423588       -11.5264
  71   2.0000      -0.412469       -11.2239
  72   2.0000      -0.409861       -11.1529
  73   2.0000      -0.403443       -10.9782
  74   2.0000      -0.400167       -10.8891
  75   2.0000      -0.386415       -10.5149
  76   2.0000      -0.385012       -10.4767
  77   2.0000      -0.374539       -10.1917
  78   2.0000      -0.369181       -10.0459
  79   2.0000      -0.367532       -10.0010
  80   2.0000      -0.365143        -9.9360
  81   2.0000      -0.361470        -9.8361
  82   2.0000      -0.357507        -9.7283
  83   2.0000      -0.355487        -9.6733
  84   2.0000      -0.352351        -9.5880
  85   2.0000      -0.332702        -9.0533
  86   2.0000      -0.323651        -8.8070
  87   2.0000      -0.318231        -8.6595
  88   2.0000      -0.311723        -8.4824
  89   2.0000      -0.304419        -8.2837
  90   2.0000      -0.295891        -8.0516
  91   2.0000      -0.292351        -7.9553
  92   2.0000      -0.287748        -7.8300
  93   2.0000      -0.279936        -7.6174
  94   2.0000      -0.274565        -7.4713
  95   2.0000      -0.243116        -6.6155
  96   2.0000      -0.228574        -6.2198
  97   2.0000      -0.227205        -6.1826
  98   2.0000      -0.220343        -5.9958
  99   2.0000      -0.215180        -5.8553
 100   2.0000      -0.211059        -5.7432
 101   0.0000      -0.048475        -1.3191
 102   0.0000      -0.027259        -0.7418
 103   0.0000      -0.004150        -0.1129
 104   0.0000       0.005189         0.1412
 105   0.0000       0.006391         0.1739

MULLIKEN ATOMIC CHARGES
-----------------------
   0 C :   -0.471175
   1 C :   -0.132409
   2 O :   -0.258184
   3 P :    0.706419
   4 S :   -0.496528
   5 O :   -0.308829
   6 C :   -0.152824
   7 C :   -0.451145
   8 S :   -0.102013
   9 C :   -0.254469
  10 S :   -0.164424
  11 P :    0.657612
  12 S :   -0.446758
  13 O :   -0.247496
  14 C :   -0.135162
  15 C :   -0.469975
  16 O :   -0.270345
  17 C :   -0.143148
  18 C :   -0.435127
  19 H :    0.154874
  20 H :    0.163442
  21 H :    0.144951
  22 H :    0.169533
  23 H :    0.148856
  24 H :    0.147512
  25 H :    0.172760
  26 H :    0.148365
  27 H :    0.176154
  28 H :    0.155950
  29 H :    0.212901
  30 H :    0.213487
  31 H :    0.162440
  32 H :    0.145021
  33 H :    0.163308
  34 H :    0.180263
  35 H :    0.140206
  36 H :    0.157868
  37 H :    0.147827
  38 H :    0.157161
  39 H :    0.150782
  40 H :    0.162320
Sum of atomic charges:   -0.0000000

LOEWDIN ATOMIC CHARGES
----------------------
   0 C :   -0.394106
   1 C :    0.025243
   2 O :   -0.671555
   3 P :    0.375073
   4 S :   -0.139153
   5 O :   -0.659965
   6 C :    0.019487
   7 C :   -0.406708
   8 S :    0.185368
   9 C :   -0.418233
  10 S :    0.156606
  11 P :    0.387813
  12 S :   -0.096716
  13 O :   -0.688668
  14 C :    0.020984
  15 C :   -0.405681
  16 O :   -0.662543
  17 C :    0.024535
  18 C :   -0.397127
  19 H :    0.159691
  20 H :    0.162462
  21 H :    0.157843
  22 H :    0.182570
  23 H :    0.171806
  24 H :    0.179280
  25 H :    0.179818
  26 H :    0.159507
  27 H :    0.165341
  28 H :    0.160385
  29 H :    0.191532
  30 H :    0.191733
  31 H :    0.178170
  32 H :    0.174247
  33 H :    0.163724
  34 H :    0.167221
  35 H :    0.155520
  36 H :    0.183465
  37 H :    0.173827
  38 H :    0.162085
  39 H :    0.160227
  40 H :    0.164892

  Mayer bond orders larger than 0.100000
B(  0-C ,  1-C ) :   0.9591 B(  0-C , 19-H ) :   0.9690 B(  0-C , 20-H ) :   0.9688
B(  0-C , 21-H ) :   0.9631 B(  1-C ,  2-O ) :   0.7727 B(  1-C , 22-H ) :   0.9564
B(  1-C , 23-H ) :   0.9493 B(  2-O ,  3-P ) :   1.1588 B(  3-P ,  4-S ) :   1.7306
B(  3-P ,  5-O ) :   1.0564 B(  3-P ,  8-S ) :   1.1009 B(  5-O ,  6-C ) :   0.8173
B(  6-C ,  7-C ) :   0.9227 B(  6-C , 24-H ) :   0.9586 B(  6-C , 25-H ) :   0.9676
B(  7-C , 26-H ) :   0.9587 B(  7-C , 27-H ) :   0.9623 B(  7-C , 28-H ) :   0.9684
B(  8-S ,  9-C ) :   0.8984 B(  9-C , 10-S ) :   0.9103 B(  9-C , 29-H ) :   0.9107
B(  9-C , 30-H ) :   0.9099 B( 10-S , 11-P ) :   1.0471 B( 11-P , 12-S ) :   1.8346
B( 11-P , 13-O ) :   1.0471 B( 11-P , 16-O ) :   1.1318 B( 13-O , 14-C ) :   0.7691
B( 14-C , 15-C ) :   0.9423 B( 14-C , 31-H ) :   0.9617 B( 14-C , 32-H ) :   0.9641
B( 15-C , 33-H ) :   0.9693 B( 15-C , 34-H ) :   0.9623 B( 15-C , 35-H ) :   0.9620
B( 16-O , 17-C ) :   0.7811 B( 17-C , 18-C ) :   0.9389 B( 17-C , 36-H ) :   0.9640
B( 17-C , 37-H ) :   0.9647 B( 18-C , 38-H ) :   0.9692 B( 18-C , 39-H ) :   0.9661
B( 18-C , 40-H ) :   0.9583

Dispersion correction           -0.022442724
FINAL SINGLE POINT ENERGY     -2932.459617895757

DIPOLE MOMENT
-------------

Method             : SCF
Type of density    : Electron Density
Multiplicity       :   1
Irrep              :   0
Energy             : -2932.4837528645111888 Eh
Relativity type    :
Basis              : AO
                                X                 Y                 Z
Electronic contribution:      0.719182701       6.997989047     -16.039468651
Nuclear contribution   :     -0.594940452      -7.896138433      17.455514605
                        -----------------------------------------
Total Dipole Moment    :      0.124242249      -0.898149386       1.416045954
                        -----------------------------------------
Magnitude (a.u.)       :      1.681456095
Magnitude (Debye)      :      4.273921741

Rotational constants in cm-1:             0.012066             0.005629             0.005109
Rotational constants in MHz :           361.742031           168.755684           153.158196

                             ****ORCA TERMINATED NORMALLY****
TOTAL RUN TIME: 0 days 0 hours 1 minutes 27 seconds 876 msec
