                         Program Version 6.0.0  -   RELEASE  -
|  1> ! r2scan-3c def2/J RI DEFGRID2 scfconv6 printgap
|  2> %output
|  3>     printlevel normal
|  4> end
|  5> %cpcm
|  6>     smd true
|  7>     smdsolvent "water"
|  8> end
|  9> * xyz 0 1
| 10> C 0.0764848973 -2.9982358374 1.5615747399
| 11> C 1.3927199541 -2.2490023975 1.5844455742
| 12> O 1.1487522831 -0.8861073613 1.1681523336
| 13> P 2.1799622368 -0.0656507711 0.2933347663
| 14> S 3.1657347512 -1.0811743455 -1.0697132049
| 15> O 3.0953148157 0.5774552033 1.4256876208
| 16> C 4.3747231481 1.1699790841 1.1429604082
| 17> C 4.245137281 2.4473794831 0.3387588169
| 18> S 0.944185366 1.5074291195 -0.3639560103
| 19> C 0.362132555 0.7010216238 -1.8775581727
| 20> S -0.6519238461 -0.7663782007 -1.5687391884
| 21> P -2.2489300168 0.2340424797 -0.6077936019
| 22> S -2.6321119794 2.0868330859 -1.0891019767
| 23> O -1.8650310877 -0.0285022897 0.9219148576
| 24> C -2.3159691947 0.8131646853 2.0021015555
| 25> C -1.2301699997 1.7858619526 2.4172693746
| 26> O -3.5131054425 -0.6670317781 -0.9374304647
| 27> C -3.5486121218 -2.1128056127 -0.896623294
| 28> C -3.8173236179 -2.6293629335 0.5024769538
| 29> H -0.6416939592 -2.4971405811 2.2044004057
| 30> H -0.3158105746 -3.0288189624 0.5480491282
| 31> H 0.2351337808 -4.0113082713 1.916409176
| 32> H 2.1192855359 -2.7017407531 0.9007980092
| 33> H 1.8175199351 -2.2111807883 2.5900797153
| 34> H 4.8014306248 1.3554133973 2.1295356822
| 35> H 4.982837473 0.4359265782 0.6046632892
| 36> H 5.2186584889 2.919444974 0.2538678445
| 37> H 3.8736611798 2.2228300788 -0.6603184155
| 38> H 3.5521912771 3.130803912 0.8232153177
| 39> H 1.2147630866 0.3614037299 -2.4654370247
| 40> H -0.2246931617 1.4451187468 -2.4149410454
| 41> H -3.2178890257 1.3486856932 1.6909655946
| 42> H -2.5599412944 0.1219128701 2.8112090891
| 43> H -0.3037842839 1.2501504997 2.6110514957
| 44> H -1.0533377621 2.5118457217 1.6264591812
| 45> H -1.5412357493 2.3079282336 3.316399255
| 46> H -4.3593739107 -2.3715687192 -1.5800038002
| 47> H -2.6030389431 -2.4978643411 -1.2888870076
| 48> H -4.7321776309 -2.19052866 0.8920499574
| 49> H -3.926001118 -3.7087378012 0.4655567148
| 50> H -2.9929516648 -2.3789705507 1.1643275692
| 51> *
| 52>
| 53>                          ****END OF INPUT****

CARTESIAN COORDINATES (ANGSTROEM)
---------------------------------
  C      0.076485   -2.998236    1.561575
  C      1.392720   -2.249002    1.584446
  O      1.148752   -0.886107    1.168152
  P      2.179962   -0.065651    0.293335
  S      3.165735   -1.081174   -1.069713
  O      3.095315    0.577455    1.425688
  C      4.374723    1.169979    1.142960
  C      4.245137    2.447379    0.338759
  S      0.944185    1.507429   -0.363956
  C      0.362133    0.701022   -1.877558
  S     -0.651924   -0.766378   -1.568739
  P     -2.248930    0.234042   -0.607794
  S     -2.632112    2.086833   -1.089102
  O     -1.865031   -0.028502    0.921915
  C     -2.315969    0.813165    2.002102
  C     -1.230170    1.785862    2.417269
  O     -3.513105   -0.667032   -0.937430
  C     -3.548612   -2.112806   -0.896623
  C     -3.817324   -2.629363    0.502477
  H     -0.641694   -2.497141    2.204400
  H     -0.315811   -3.028819    0.548049
  H      0.235134   -4.011308    1.916409
  H      2.119286   -2.701741    0.900798
  H      1.817520   -2.211181    2.590080
  H      4.801431    1.355413    2.129536
  H      4.982837    0.435927    0.604663
  H      5.218658    2.919445    0.253868
  H      3.873661    2.222830   -0.660318
  H      3.552191    3.130804    0.823215
  H      1.214763    0.361404   -2.465437
  H     -0.224693    1.445119   -2.414941
  H     -3.217889    1.348686    1.690966
  H     -2.559941    0.121913    2.811209
  H     -0.303784    1.250150    2.611051
  H     -1.053338    2.511846    1.626459
  H     -1.541236    2.307928    3.316399
  H     -4.359374   -2.371569   -1.580004
  H     -2.603039   -2.497864   -1.288887
  H     -4.732178   -2.190529    0.892050
  H     -3.926001   -3.708738    0.465557
  H     -2.992952   -2.378971    1.164328

 Total Charge           Charge          ....    0
 Multiplicity           Mult            ....    1
 Number of Electrons    NEL             ....  202
 Basis Dimension        Dim             ....  539

ORBITAL ENERGIES
----------------

  NO   OCC          E(Eh)            E(eV)
   0   2.0000     -88.579724     -2410.3768
   1   2.0000     -88.579358     -2410.3669
   2   2.0000     -88.528975     -2408.9959
   3   2.0000     -88.528019     -2408.9699
   4   2.0000     -76.920057     -2093.1012
   5   2.0000     -76.918222     -2093.0512
   6   2.0000     -18.995113      -516.8833
   7   2.0000     -18.993286      -516.8336
   8   2.0000     -18.990529      -516.7586
   9   2.0000     -18.988957      -516.7158
  10   2.0000     -10.106612      -275.0149
  11   2.0000     -10.094257      -274.6787
  12   2.0000     -10.089183      -274.5406
  13   2.0000     -10.088106      -274.5113
  14   2.0000     -10.088059      -274.5100
  15   2.0000     -10.019005      -272.6310
  16   2.0000     -10.018518      -272.6177
  17   2.0000     -10.017858      -272.5998
  18   2.0000     -10.014718      -272.5143
  19   2.0000      -7.874285      -214.2702
  20   2.0000      -7.873869      -214.2589
  21   2.0000      -7.824221      -212.9079
  22   2.0000      -7.823082      -212.8769
  23   2.0000      -6.598279      -179.5483
  24   2.0000      -6.596911      -179.5111
  25   2.0000      -5.821143      -158.4014
  26   2.0000      -5.820816      -158.3925
  27   2.0000      -5.818190      -158.3210
  28   2.0000      -5.817718      -158.3082
  29   2.0000      -5.811293      -158.1333
  30   2.0000      -5.810874      -158.1219
  31   2.0000      -5.771956      -157.0629
  32   2.0000      -5.770564      -157.0250
  33   2.0000      -5.764634      -156.8637
  34   2.0000      -5.763911      -156.8440
  35   2.0000      -5.763374      -156.8294
  36   2.0000      -5.763176      -156.8240
  37   2.0000      -4.744055      -129.0923
  38   2.0000      -4.742963      -129.0626
  39   2.0000      -4.742324      -129.0452
  40   2.0000      -4.742093      -129.0389
  41   2.0000      -4.741765      -129.0300
  42   2.0000      -4.740790      -129.0034
  43   2.0000      -1.051280       -28.6068
  44   2.0000      -1.046520       -28.4773
  45   2.0000      -1.011171       -27.5154
  46   2.0000      -1.008900       -27.4536
  47   2.0000      -0.806726       -21.9521
  48   2.0000      -0.757407       -20.6101
  49   2.0000      -0.744675       -20.2636
  50   2.0000      -0.725786       -19.7496
  51   2.0000      -0.722273       -19.6540
  52   2.0000      -0.708793       -19.2872
  53   2.0000      -0.688459       -18.7339
  54   2.0000      -0.676800       -18.4167
  55   2.0000      -0.631333       -17.1795
  56   2.0000      -0.615262       -16.7421
  57   2.0000      -0.605454       -16.4753
  58   2.0000      -0.597848       -16.2683
  59   2.0000      -0.584629       -15.9086
  60   2.0000      -0.525670       -14.3042
  61   2.0000      -0.521413       -14.1884
  62   2.0000      -0.493740       -13.4353
  63   2.0000      -0.489244       -13.3130
  64   2.0000      -0.475861       -12.9488
  65   2.0000      -0.459808       -12.5120
  66   2.0000      -0.455609       -12.3978
  67   2.0000      -0.444996       -12.1090
  68   2.0000      -0.439993       -11.9728
  69   2.0000      -0.431171       -11.7328
  70   2.0000      -0.420496       -11.4423
  71   2.0000      -0.408516       -11.1163
  72   2.0000      -0.407497       -11.0886
  73   2.0000      -0.398930       -10.8554
  74   2.0000      -0.395311       -10.7570
  75   2.0000      -0.385272       -10.4838
  76   2.0000      -0.382797       -10.4164
  77   2.0000      -0.366534        -9.9739
  78   2.0000      -0.362035        -9.8515
  79   2.0000      -0.360554        -9.8112
  80   2.0000      -0.356589        -9.7033
  81   2.0000      -0.352267        -9.5857
  82   2.0000      -0.350545        -9.5388
  83   2.0000      -0.348354        -9.4792
  84   2.0000      -0.345284        -9.3957
  85   2.0000      -0.329190        -8.9577
  86   2.0000      -0.317181        -8.6309
  87   2.0000      -0.313733        -8.5371
  88   2.0000      -0.306443        -8.3387
  89   2.0000      -0.303847        -8.2681
  90   2.0000      -0.296281        -8.0622
  91   2.0000      -0.289636        -7.8814
  92   2.0000      -0.286329        -7.7914
  93   2.0000      -0.279644        -7.6095
  94   2.0000      -0.274594        -7.4721
  95   2.0000      -0.245925        -6.6920
  96   2.0000      -0.237515        -6.4631
  97   2.0000      -0.232700        -6.3321
  98   2.0000      -0.227846        -6.2000
  99   2.0000      -0.223941        -6.0937
 100   2.0000      -0.220138        -5.9903
 101   0.0000      -0.052696        -1.4339
 102   0.0000      -0.032963        -0.8970
 103   0.0000      -0.006541        -0.1780
 104   0.0000       0.000636         0.0173
 105   0.0000       0.006443         0.1753

MULLIKEN ATOMIC CHARGES
-----------------------
   0 C :   -0.518120
   1 C :   -0.124778
   2 O :   -0.288913
   3 P :    0.740112
   4 S :   -0.541069
   5 O :   -0.335026
   6 C :   -0.152142
   7 C :   -0.487334
   8 S :   -0.110902
   9 C :   -0.264648
  10 S :   -0.173458
  11 P :    0.672970
  12 S :   -0.503389
  13 O :   -0.266128
  14 C :   -0.131159
  15 C :   -0.496301
  16 O :   -0.309228
  17 C :   -0.128641
  18 C :   -0.471977
  19 H :    0.172435
  20 H :    0.172781
  21 H :    0.168977
  22 H :    0.169892
  23 H :    0.172311
  24 H :    0.174499
  25 H :    0.177596
  26 H :    0.172760
  27 H :    0.172315
  28 H :    0.169568
  29 H :    0.233490
  30 H :    0.234533
  31 H :    0.169530
  32 H :    0.176796
  33 H :    0.164743
  34 H :    0.172158
  35 H :    0.165785
  36 H :    0.179588
  37 H :    0.159646
  38 H :    0.167612
  39 H :    0.173829
  40 H :    0.169288
Sum of atomic charges:   -0.0000000

LOEWDIN ATOMIC CHARGES
----------------------
   0 C :   -0.397066
   1 C :    0.029422
   2 O :   -0.688148
   3 P :    0.380174
   4 S :   -0.167226
   5 O :   -0.670819
   6 C :    0.024746
   7 C :   -0.409967
   8 S :    0.180655
   9 C :   -0.413278
  10 S :    0.155119
  11 P :    0.389753
  12 S :   -0.137908
  13 O :   -0.696714
  14 C :    0.026701
  15 C :   -0.408386
  16 O :   -0.683421
  17 C :    0.032071
  18 C :   -0.397528
  19 H :    0.163829
  20 H :    0.163125
  21 H :    0.167500
  22 H :    0.182928
  23 H :    0.181742
  24 H :    0.190676
  25 H :    0.181306
  26 H :    0.168359
  27 H :    0.161438
  28 H :    0.163673
  29 H :    0.197915
  30 H :    0.197811
  31 H :    0.180974
  32 H :    0.187680
  33 H :    0.163000
  34 H :    0.162100
  35 H :    0.164673
  36 H :    0.192765
  37 H :    0.179962
  38 H :    0.164710
  39 H :    0.169536
  40 H :    0.166118

  Mayer bond orders larger than 0.100000
B(  0-C ,  1-C ) :   0.9463 B(  0-C , 19-H ) :   0.9658 B(  0-C , 20-H ) :   0.9662
B(  0-C , 21-H ) :   0.9569 B(  1-C ,  2-O ) :   0.7647 B(  1-C , 22-H ) :   0.9539
B(  1-C , 23-H ) :   0.9388 B(  2-O ,  3-P ) :   1.1652 B(  3-P ,  4-S ) :   1.6935
B(  3-P ,  5-O ) :   1.0650 B(  3-P ,  8-S ) :   1.1092 B(  5-O ,  6-C ) :   0.8055
B(  6-C ,  7-C ) :   0.9105 B(  6-C , 24-H ) :   0.9489 B(  6-C , 25-H ) :   0.9659
B(  7-C , 26-H ) :   0.9534 B(  7-C , 27-H ) :   0.9632 B(  7-C , 28-H ) :   0.9657
B(  8-S ,  9-C ) :   0.8896 B(  9-C , 10-S ) :   0.8941 B(  9-C , 29-H ) :   0.9052
B(  9-C , 30-H ) :   0.9040 B( 10-S , 11-P ) :   1.0641 B( 11-P , 12-S ) :   1.8070
B( 11-P , 13-O ) :   1.0567 B( 11-P , 16-O ) :   1.1411 B( 13-O , 14-C ) :   0.7563
B( 14-C , 15-C ) :   0.9297 B( 14-C , 31-H ) :   0.9601 B( 14-C , 32-H ) :   0.9541
B( 15-C , 33-H ) :   0.9675 B( 15-C , 34-H ) :   0.9650 B( 15-C , 35-H ) :   0.9582
B( 16-O , 17-C ) :   0.7717 B( 17-C , 18-C ) :   0.9324 B( 17-C , 36-H ) :   0.9538
B( 17-C , 37-H ) :   0.9535 B( 18-C , 38-H ) :   0.9676 B( 18-C , 39-H ) :   0.9601
B( 18-C , 40-H ) :   0.9563

Dispersion correction           -0.022442724
FINAL SINGLE POINT ENERGY     -2932.470137430326

DIPOLE MOMENT
-------------

Method             : SCF
Type of density    : Electron Density
Multiplicity       :   1
Irrep              :   0
Energy             : -2932.4942723990802733 Eh
Relativity type    :
Basis              : AO
                                X                 Y                 Z
Electronic contribution:      0.839727600       6.605618637     -15.558687439
Nuclear contribution   :     -0.594940452      -7.896138433      17.455514605
                        -----------------------------------------
Total Dipole Moment    :      0.244787148      -1.290519796       1.896827166
                        -----------------------------------------
Magnitude (a.u.)       :      2.307231109
Magnitude (Debye)      :      5.864515417

Rotational constants in cm-1:             0.012066             0.005629             0.005109
Rotational constants in MHz :           361.742031           168.755684           153.158196

                             ****ORCA TERMINATED NORMALLY****
TOTAL RUN TIME: 0 days 0 hours 2 minutes 2 seconds 49 msec
