                         Program Version 6.0.0  -   RELEASE  -
|  1> ! pbe def2-sv(p) def2/J RI DEFGRID1 loosescf d4 GCP(DFT/SV(P)) printgap
|  2> %output
|  3>     printlevel normal
|  4> end
|  5> * xyz 0 1
|  6> C 4.5424453843 -0.9683707518 -2.2000555197
|  7> C 3.8192282363 -2.0044909679 -1.3640559695
|  8> O 3.345007159 -1.4759474136 -0.112174303
|  9> P 2.4103892109 -0.2117688747 0.052046946
| 10> S 3.2175031019 1.5779070747 -0.0440736224
| 11> O 1.8480662453 -0.59278748 1.4807774139
| 12> C 1.5691283457 0.3543156798 2.5335720907
| 13> C 0.2757910954 -0.0431405852 3.2148077975
| 14> S 0.8582188073 -0.5843728817 -1.3652296748
| 15> C 0.2504749017 1.1141116091 -1.4788023723
| 16> S -0.6861339629 1.6303696928 -0.0185706224
| 17> P -2.2955657653 0.2760158432 -0.2935146823
| 18> S -2.8365754507 -0.0505093712 -2.1418400869
| 19> O -3.4937213876 0.8611853627 0.5577954003
| 20> C -3.5216499504 0.9795462242 2.0018526584
| 21> C -2.9644558741 2.3115456244 2.4609462768
| 22> O -1.7532717041 -0.9919231068 0.5198119311
| 23> C -1.9631950856 -2.3449094514 0.0792464939
| 24> C -3.3690588161 -2.8082316184 0.4018244749
| 25> H 5.3435715609 -0.5100440896 -1.6248844769
| 26> H 4.9593156104 -1.4431301131 -3.0824594879
| 27> H 3.8510781435 -0.1864499743 -2.5118353479
| 28> H 4.4894028627 -2.8115335909 -1.0625412731
| 29> H 2.9659590097 -2.4169550448 -1.9099403297
| 30> H 2.4117873533 0.3117480774 3.2276041817
| 31> H 1.5091337793 1.3628047228 2.1110453765
| 32> H 0.3683939655 -1.0407875879 3.6338098349
| 33> H 0.0587023418 0.665503691 4.0071174924
| 34> H -0.5379663299 -0.0391428889 2.4949867002
| 35> H -0.3942474028 1.1584729621 -2.3561452437
| 36> H 1.0953984596 1.7989301851 -1.5631257083
| 37> H -4.5812632049 0.8896562002 2.247110141
| 38> H -2.9688352994 0.1443641072 2.4375352301
| 39> H -1.9071431065 2.3938635093 2.2171320307
| 40> H -3.495730032 3.1252778529 1.9750646812
| 41> H -3.0887642873 2.3944680933 3.5360956569
| 42> H -1.7741574169 -2.3973055563 -0.9975609897
| 43> H -1.2068755231 -2.9223302196 0.6131256561
| 44> H -4.0893703348 -2.1848153357 -0.1274891623
| 45> H -3.4913380676 -3.8376599333 0.0805902356
| 46> H -3.5580645289 -2.7392480794 1.4698471961
| 47> *
| 48>
| 49>                          ****END OF INPUT****

CARTESIAN COORDINATES (ANGSTROEM)
---------------------------------
  C      4.542445   -0.968371   -2.200056
  C      3.819228   -2.004491   -1.364056
  O      3.345007   -1.475947   -0.112174
  P      2.410389   -0.211769    0.052047
  S      3.217503    1.577907   -0.044074
  O      1.848066   -0.592787    1.480777
  C      1.569128    0.354316    2.533572
  C      0.275791   -0.043141    3.214808
  S      0.858219   -0.584373   -1.365230
  C      0.250475    1.114112   -1.478802
  S     -0.686134    1.630370   -0.018571
  P     -2.295566    0.276016   -0.293515
  S     -2.836575   -0.050509   -2.141840
  O     -3.493721    0.861185    0.557795
  C     -3.521650    0.979546    2.001853
  C     -2.964456    2.311546    2.460946
  O     -1.753272   -0.991923    0.519812
  C     -1.963195   -2.344909    0.079246
  C     -3.369059   -2.808232    0.401824
  H      5.343572   -0.510044   -1.624884
  H      4.959316   -1.443130   -3.082459
  H      3.851078   -0.186450   -2.511835
  H      4.489403   -2.811534   -1.062541
  H      2.965959   -2.416955   -1.909940
  H      2.411787    0.311748    3.227604
  H      1.509134    1.362805    2.111045
  H      0.368394   -1.040788    3.633810
  H      0.058702    0.665504    4.007117
  H     -0.537966   -0.039143    2.494987
  H     -0.394247    1.158473   -2.356145
  H      1.095398    1.798930   -1.563126
  H     -4.581263    0.889656    2.247110
  H     -2.968835    0.144364    2.437535
  H     -1.907143    2.393864    2.217132
  H     -3.495730    3.125278    1.975065
  H     -3.088764    2.394468    3.536096
  H     -1.774157   -2.397306   -0.997561
  H     -1.206876   -2.922330    0.613126
  H     -4.089370   -2.184815   -0.127489
  H     -3.491338   -3.837660    0.080590
  H     -3.558065   -2.739248    1.469847

 Total Charge           Charge          ....    0
 Multiplicity           Mult            ....    1
 Number of Electrons    NEL             ....  202
 Basis Dimension        Dim             ....  334

ORBITAL ENERGIES
----------------

  NO   OCC          E(Eh)            E(eV)
   0   2.0000     -88.045313     -2395.8348
   1   2.0000     -88.044032     -2395.7999
   2   2.0000     -87.990181     -2394.3346
   3   2.0000     -87.988045     -2394.2764
   4   2.0000     -76.430274     -2079.7735
   5   2.0000     -76.427890     -2079.7086
   6   2.0000     -18.799843      -511.5697
   7   2.0000     -18.794025      -511.4114
   8   2.0000     -18.793436      -511.3954
   9   2.0000     -18.786180      -511.1979
  10   2.0000      -9.964716      -271.1537
  11   2.0000      -9.958615      -270.9877
  12   2.0000      -9.953511      -270.8488
  13   2.0000      -9.951629      -270.7976
  14   2.0000      -9.947944      -270.6973
  15   2.0000      -9.895613      -269.2733
  16   2.0000      -9.886627      -269.0288
  17   2.0000      -9.883804      -268.9520
  18   2.0000      -9.882911      -268.9277
  19   2.0000      -7.690017      -209.2560
  20   2.0000      -7.688658      -209.2190
  21   2.0000      -7.635415      -207.7702
  22   2.0000      -7.633012      -207.7048
  23   2.0000      -6.427853      -174.9108
  24   2.0000      -6.424940      -174.8315
  25   2.0000      -5.717780      -155.5887
  26   2.0000      -5.716411      -155.5514
  27   2.0000      -5.714687      -155.5045
  28   2.0000      -5.713158      -155.4629
  29   2.0000      -5.706988      -155.2951
  30   2.0000      -5.705837      -155.2637
  31   2.0000      -5.664469      -154.1380
  32   2.0000      -5.661851      -154.0668
  33   2.0000      -5.655920      -153.9054
  34   2.0000      -5.655491      -153.8937
  35   2.0000      -5.653627      -153.8430
  36   2.0000      -5.653270      -153.8333
  37   2.0000      -4.650824      -126.5554
  38   2.0000      -4.649211      -126.5115
  39   2.0000      -4.648367      -126.4885
  40   2.0000      -4.647254      -126.4582
  41   2.0000      -4.646981      -126.4508
  42   2.0000      -4.645406      -126.4079
  43   2.0000      -0.989709       -26.9314
  44   2.0000      -0.987697       -26.8766
  45   2.0000      -0.948410       -25.8075
  46   2.0000      -0.942937       -25.6586
  47   2.0000      -0.766658       -20.8618
  48   2.0000      -0.725150       -19.7323
  49   2.0000      -0.714833       -19.4516
  50   2.0000      -0.695446       -18.9240
  51   2.0000      -0.685422       -18.6513
  52   2.0000      -0.676693       -18.4138
  53   2.0000      -0.653141       -17.7729
  54   2.0000      -0.640583       -17.4311
  55   2.0000      -0.600774       -16.3479
  56   2.0000      -0.594198       -16.1689
  57   2.0000      -0.584411       -15.9026
  58   2.0000      -0.569665       -15.5014
  59   2.0000      -0.560282       -15.2460
  60   2.0000      -0.505938       -13.7673
  61   2.0000      -0.499029       -13.5793
  62   2.0000      -0.483196       -13.1484
  63   2.0000      -0.470958       -12.8154
  64   2.0000      -0.460966       -12.5435
  65   2.0000      -0.452406       -12.3106
  66   2.0000      -0.440931       -11.9983
  67   2.0000      -0.433322       -11.7913
  68   2.0000      -0.426198       -11.5974
  69   2.0000      -0.419680       -11.4201
  70   2.0000      -0.414674       -11.2838
  71   2.0000      -0.400875       -10.9084
  72   2.0000      -0.398035       -10.8311
  73   2.0000      -0.385848       -10.4995
  74   2.0000      -0.381337       -10.3767
  75   2.0000      -0.380325       -10.3492
  76   2.0000      -0.368454       -10.0262
  77   2.0000      -0.362962        -9.8767
  78   2.0000      -0.358411        -9.7528
  79   2.0000      -0.353163        -9.6101
  80   2.0000      -0.349860        -9.5202
  81   2.0000      -0.347865        -9.4659
  82   2.0000      -0.347609        -9.4589
  83   2.0000      -0.340285        -9.2596
  84   2.0000      -0.331986        -9.0338
  85   2.0000      -0.325253        -8.8506
  86   2.0000      -0.316093        -8.6013
  87   2.0000      -0.306843        -8.3496
  88   2.0000      -0.296971        -8.0810
  89   2.0000      -0.287548        -7.8246
  90   2.0000      -0.285927        -7.7805
  91   2.0000      -0.277534        -7.5521
  92   2.0000      -0.274069        -7.4578
  93   2.0000      -0.271152        -7.3784
  94   2.0000      -0.256033        -6.9670
  95   2.0000      -0.233598        -6.3565
  96   2.0000      -0.218824        -5.9545
  97   2.0000      -0.215174        -5.8552
  98   2.0000      -0.207113        -5.6358
  99   2.0000      -0.202901        -5.5212
 100   2.0000      -0.201248        -5.4762
 101   0.0000      -0.048641        -1.3236
 102   0.0000      -0.026495        -0.7210
 103   0.0000      -0.006756        -0.1838
 104   0.0000      -0.001793        -0.0488
 105   0.0000       0.003425         0.0932

MULLIKEN ATOMIC CHARGES
-----------------------
   0 C :   -0.309504
   1 C :   -0.011446
   2 O :   -0.360008
   3 P :    0.604681
   4 S :   -0.332132
   5 O :   -0.359761
   6 C :    0.000873
   7 C :   -0.322253
   8 S :   -0.102401
   9 C :   -0.353842
  10 S :   -0.107781
  11 P :    0.631617
  12 S :   -0.310304
  13 O :   -0.364905
  14 C :   -0.033217
  15 C :   -0.313258
  16 O :   -0.383337
  17 C :   -0.002589
  18 C :   -0.306711
  19 H :    0.126801
  20 H :    0.112000
  21 H :    0.124449
  22 H :    0.110295
  23 H :    0.115113
  24 H :    0.103958
  25 H :    0.109473
  26 H :    0.110257
  27 H :    0.103910
  28 H :    0.142026
  29 H :    0.195316
  30 H :    0.194493
  31 H :    0.113613
  32 H :    0.122105
  33 H :    0.139898
  34 H :    0.127563
  35 H :    0.115239
  36 H :    0.114184
  37 H :    0.105666
  38 H :    0.126283
  39 H :    0.113496
  40 H :    0.110138
Sum of atomic charges:    0.0000000

LOEWDIN ATOMIC CHARGES
----------------------
   0 C :   -0.368764
   1 C :   -0.115178
   2 O :   -0.235073
   3 P :    0.572022
   4 S :   -0.314130
   5 O :   -0.238544
   6 C :   -0.115743
   7 C :   -0.363730
   8 S :    0.077904
   9 C :   -0.486080
  10 S :    0.088033
  11 P :    0.574196
  12 S :   -0.303116
  13 O :   -0.240454
  14 C :   -0.114475
  15 C :   -0.362820
  16 O :   -0.246844
  17 C :   -0.121819
  18 C :   -0.364096
  19 H :    0.130371
  20 H :    0.130308
  21 H :    0.120841
  22 H :    0.122026
  23 H :    0.108370
  24 H :    0.114579
  25 H :    0.101451
  26 H :    0.124561
  27 H :    0.126211
  28 H :    0.117388
  29 H :    0.131004
  30 H :    0.128113
  31 H :    0.123769
  32 H :    0.111517
  33 H :    0.118118
  34 H :    0.132831
  35 H :    0.132978
  36 H :    0.107850
  37 H :    0.118570
  38 H :    0.124955
  39 H :    0.131474
  40 H :    0.121428

  Mayer bond orders larger than 0.100000
B(  0-C ,  1-C ) :   1.1638 B(  0-C , 19-H ) :   0.9434 B(  0-C , 20-H ) :   0.9357
B(  0-C , 21-H ) :   0.9337 B(  1-C ,  2-O ) :   0.9146 B(  1-C , 22-H ) :   0.9336
B(  1-C , 23-H ) :   0.9248 B(  2-O ,  3-P ) :   1.1368 B(  3-P ,  4-S ) :   1.6030
B(  3-P ,  5-O ) :   1.1376 B(  3-P ,  8-S ) :   0.9236 B(  4-S ,  8-S ) :   0.1138
B(  5-O ,  6-C ) :   0.8992 B(  6-C ,  7-C ) :   1.1645 B(  6-C , 24-H ) :   0.9350
B(  6-C , 25-H ) :   0.9020 B(  7-C , 26-H ) :   0.9464 B(  7-C , 27-H ) :   0.9392
B(  7-C , 28-H ) :   0.9198 B(  8-S ,  9-C ) :   1.0137 B(  9-C , 10-S ) :   1.0013
B(  9-C , 29-H ) :   0.8763 B(  9-C , 30-H ) :   0.8679 B( 10-S , 11-P ) :   0.9520
B( 10-S , 12-S ) :   0.1013 B( 11-P , 12-S ) :   1.6311 B( 11-P , 13-O ) :   1.1333
B( 11-P , 16-O ) :   1.0611 B( 13-O , 14-C ) :   0.9022 B( 14-C , 15-C ) :   1.1711
B( 14-C , 31-H ) :   0.9324 B( 14-C , 32-H ) :   0.9120 B( 15-C , 33-H ) :   0.9288
B( 15-C , 34-H ) :   0.9450 B( 15-C , 35-H ) :   0.9373 B( 16-O , 17-C ) :   0.8970
B( 17-C , 18-C ) :   1.1617 B( 17-C , 36-H ) :   0.9100 B( 17-C , 37-H ) :   0.9331
B( 18-C , 38-H ) :   0.9369 B( 18-C , 39-H ) :   0.9408 B( 18-C , 40-H ) :   0.9471

Dispersion correction           -0.066897684
FINAL SINGLE POINT ENERGY     -2929.520262279440

DIPOLE MOMENT
-------------

Method             : SCF
Type of density    : Electron Density
Multiplicity       :   1
Irrep              :   0
Energy             : -2929.6391612650663774 Eh
Relativity type    :
Basis              : AO
                                X                 Y                 Z
Electronic contribution:      3.690731163       7.015438111     -13.116503858
Nuclear contribution   :     -3.910566004      -7.936581163      14.254407415
                        -----------------------------------------
Total Dipole Moment    :     -0.219834841      -0.921143052       1.137903557
                        -----------------------------------------
Magnitude (a.u.)       :      1.480424393
Magnitude (Debye)      :      3.762939762

Rotational constants in cm-1:             0.011958             0.005373             0.004874
Rotational constants in MHz :           358.491006           161.068131           146.108681

                             ****ORCA TERMINATED NORMALLY****
TOTAL RUN TIME: 0 days 0 hours 0 minutes 22 seconds 108 msec
