                         Program Version 6.0.1  -  RELEASE   -
|  1> ! pbe def2-sv(p) def2/J RI DEFGRID1 loosescf d4 GCP(DFT/SV(P)) printgap
|  2> %output
|  3>     printlevel normal
|  4> end
|  5> * xyz 0 1
|  6> C 4.2748362797 -2.0782478556 1.0106017504
|  7> C 2.7804184673 -1.9257784793 0.8075546953
|  8> O 2.5669233207 -1.0344222329 -0.3040692937
|  9> C 1.4125678387 -1.0544585619 -0.9180779632
| 10> O 0.486425582 -1.7929750825 -0.6261719745
| 11> C 1.3331766314 -0.0499390727 -2.0448724991
| 12> C 0.1732012121 0.9146722572 -1.807481697
| 13> H 0.0597893377 1.5758198142 -2.6727853687
| 14> C 0.3253782762 1.7924838743 -0.5737097868
| 15> O -0.6220978686 2.3364534183 -0.044374736
| 16> O 1.5703731498 1.9122407245 -0.1994357615
| 17> C 1.8508658744 2.6969083199 0.9781950664
| 18> C 3.355253601 2.7526921417 1.1461272938
| 19> S -1.4546499195 0.0884237504 -1.7103240815
| 20> P -1.6394296858 -0.5015461777 0.3310947777
| 21> S -0.3528000244 -0.148178166 1.7653511033
| 22> O -3.092455141 0.108213433 0.672725129
| 23> C -3.3515021283 1.4890097352 0.9181341805
| 24> O -2.0417210417 -2.0281314911 0.3200078283
| 25> C -2.9481216129 -2.6022510494 -0.6381187949
| 26> H 4.7239426293 -1.1099083198 1.2081246683
| 27> H 4.4534435084 -2.733664546 1.856284662
| 28> H 4.7320411509 -2.5046717372 0.1226473114
| 29> H 2.2899577372 -1.4889553666 1.683654806
| 30> H 2.2941656246 -2.8807329588 0.5844936623
| 31> H 1.1491052983 -0.5901701547 -2.9746282247
| 32> H 2.2704564999 0.5014080541 -2.100571195
| 33> H 1.4099319002 3.6890700739 0.8439947714
| 34> H 1.3603758159 2.2084529907 1.8269360628
| 35> H 3.5925900711 3.3129256897 2.0439438873
| 36> H 3.7505066669 1.7455279136 1.2371649076
| 37> H 3.8114629219 3.2362566455 0.2878109459
| 38> H -2.642057133 1.8839277032 1.6463668715
| 39> H -4.3655293047 1.5292155112 1.3078505019
| 40> H -3.265726173 2.057882611 -0.007371099
| 41> H -3.8849030719 -2.047180082 -0.6507210247
| 42> H -3.1061080889 -3.6221982672 -0.2973024454
| 43> H -2.4888485231 -2.594381403 -1.6263314185
| 44> *
| 45>
| 46>                          ****END OF INPUT****

CARTESIAN COORDINATES (ANGSTROEM)
---------------------------------
  C      4.274836   -2.078248    1.010602
  C      2.780418   -1.925778    0.807555
  O      2.566923   -1.034422   -0.304069
  C      1.412568   -1.054459   -0.918078
  O      0.486426   -1.792975   -0.626172
  C      1.333177   -0.049939   -2.044872
  C      0.173201    0.914672   -1.807482
  H      0.059789    1.575820   -2.672785
  C      0.325378    1.792484   -0.573710
  O     -0.622098    2.336453   -0.044375
  O      1.570373    1.912241   -0.199436
  C      1.850866    2.696908    0.978195
  C      3.355254    2.752692    1.146127
  S     -1.454650    0.088424   -1.710324
  P     -1.639430   -0.501546    0.331095
  S     -0.352800   -0.148178    1.765351
  O     -3.092455    0.108213    0.672725
  C     -3.351502    1.489010    0.918134
  O     -2.041721   -2.028131    0.320008
  C     -2.948122   -2.602251   -0.638119
  H      4.723943   -1.109908    1.208125
  H      4.453444   -2.733665    1.856285
  H      4.732041   -2.504672    0.122647
  H      2.289958   -1.488955    1.683655
  H      2.294166   -2.880733    0.584494
  H      1.149105   -0.590170   -2.974628
  H      2.270456    0.501408   -2.100571
  H      1.409932    3.689070    0.843995
  H      1.360376    2.208453    1.826936
  H      3.592590    3.312926    2.043944
  H      3.750507    1.745528    1.237165
  H      3.811463    3.236257    0.287811
  H     -2.642057    1.883928    1.646367
  H     -4.365529    1.529216    1.307851
  H     -3.265726    2.057883   -0.007371
  H     -3.884903   -2.047180   -0.650721
  H     -3.106108   -3.622198   -0.297302
  H     -2.488849   -2.594381   -1.626331

 Total Charge           Charge          ....    0
 Multiplicity           Mult            ....    1
 Number of Electrons    NEL             ....  174
 Basis Dimension        Dim             ....  316

ORBITAL ENERGIES
----------------

  NO   OCC          E(Eh)            E(eV)
   0   2.0000     -88.031762     -2395.4660
   1   2.0000     -87.970290     -2393.7933
   2   2.0000     -76.416397     -2079.3959
   3   2.0000     -18.811440      -511.8853
   4   2.0000     -18.804458      -511.6953
   5   2.0000     -18.775229      -510.9000
   6   2.0000     -18.770207      -510.7633
   7   2.0000     -18.738123      -509.8902
   8   2.0000     -18.734285      -509.7858
   9   2.0000     -10.017238      -272.5829
  10   2.0000     -10.009264      -272.3659
  11   2.0000      -9.953535      -270.8495
  12   2.0000      -9.947971      -270.6980
  13   2.0000      -9.941267      -270.5156
  14   2.0000      -9.936870      -270.3960
  15   2.0000      -9.921389      -269.9747
  16   2.0000      -9.911329      -269.7010
  17   2.0000      -9.890339      -269.1298
  18   2.0000      -9.887547      -269.0538
  19   2.0000      -7.676616      -208.8913
  20   2.0000      -7.615496      -207.2282
  21   2.0000      -6.411894      -174.4765
  22   2.0000      -5.704937      -155.2392
  23   2.0000      -5.701332      -155.1411
  24   2.0000      -5.692928      -154.9125
  25   2.0000      -5.644779      -153.6023
  26   2.0000      -5.636127      -153.3668
  27   2.0000      -5.635109      -153.3391
  28   2.0000      -4.634592      -126.1137
  29   2.0000      -4.634049      -126.0989
  30   2.0000      -4.632331      -126.0521
  31   2.0000      -1.019874       -27.7522
  32   2.0000      -1.010988       -27.5104
  33   2.0000      -0.968234       -26.3470
  34   2.0000      -0.921894       -25.0860
  35   2.0000      -0.919072       -25.0092
  36   2.0000      -0.912487       -24.8300
  37   2.0000      -0.763913       -20.7871
  38   2.0000      -0.711356       -19.3570
  39   2.0000      -0.708774       -19.2867
  40   2.0000      -0.686323       -18.6758
  41   2.0000      -0.655146       -17.8274
  42   2.0000      -0.620750       -16.8915
  43   2.0000      -0.614117       -16.7110
  44   2.0000      -0.608120       -16.5478
  45   2.0000      -0.588268       -16.0076
  46   2.0000      -0.562069       -15.2947
  47   2.0000      -0.514246       -13.9933
  48   2.0000      -0.507399       -13.8070
  49   2.0000      -0.497837       -13.5468
  50   2.0000      -0.480771       -13.0824
  51   2.0000      -0.459275       -12.4975
  52   2.0000      -0.452256       -12.3065
  53   2.0000      -0.448023       -12.1913
  54   2.0000      -0.443670       -12.0729
  55   2.0000      -0.422547       -11.4981
  56   2.0000      -0.418406       -11.3854
  57   2.0000      -0.412583       -11.2270
  58   2.0000      -0.408741       -11.1224
  59   2.0000      -0.403480       -10.9793
  60   2.0000      -0.394391       -10.7319
  61   2.0000      -0.387855       -10.5541
  62   2.0000      -0.384099       -10.4519
  63   2.0000      -0.375329       -10.2132
  64   2.0000      -0.370985       -10.0950
  65   2.0000      -0.363441        -9.8897
  66   2.0000      -0.358768        -9.7626
  67   2.0000      -0.355996        -9.6871
  68   2.0000      -0.354624        -9.6498
  69   2.0000      -0.340151        -9.2560
  70   2.0000      -0.335681        -9.1343
  71   2.0000      -0.320794        -8.7293
  72   2.0000      -0.314980        -8.5711
  73   2.0000      -0.308695        -8.4000
  74   2.0000      -0.303966        -8.2713
  75   2.0000      -0.295906        -8.0520
  76   2.0000      -0.283239        -7.7073
  77   2.0000      -0.281516        -7.6604
  78   2.0000      -0.267373        -7.2756
  79   2.0000      -0.259753        -7.0682
  80   2.0000      -0.252551        -6.8723
  81   2.0000      -0.246322        -6.7028
  82   2.0000      -0.231694        -6.3047
  83   2.0000      -0.225485        -6.1358
  84   2.0000      -0.197109        -5.3636
  85   2.0000      -0.190799        -5.1919
  86   2.0000      -0.179398        -4.8817
  87   0.0000      -0.044760        -1.2180
  88   0.0000      -0.034232        -0.9315
  89   0.0000      -0.027536        -0.7493
  90   0.0000       0.005721         0.1557
  91   0.0000       0.025647         0.6979

MULLIKEN ATOMIC CHARGES
-----------------------
   0 C :   -0.284059
   1 C :   -0.034847
   2 O :   -0.214447
   3 C :    0.090271
   4 O :   -0.210053
   5 C :    0.021961
   6 C :   -0.333171
   7 H :    0.155056
   8 C :    0.178557
   9 O :   -0.185803
  10 O :   -0.217440
  11 C :   -0.031104
  12 C :   -0.283662
  13 S :   -0.093150
  14 P :    0.630610
  15 S :   -0.331276
  16 O :   -0.391845
  17 C :   -0.090793
  18 O :   -0.354267
  19 C :   -0.106807
  20 H :    0.117545
  21 H :    0.113292
  22 H :    0.111173
  23 H :    0.123004
  24 H :    0.111478
  25 H :    0.112714
  26 H :    0.106746
  27 H :    0.105320
  28 H :    0.125335
  29 H :    0.112760
  30 H :    0.124830
  31 H :    0.111824
  32 H :    0.116550
  33 H :    0.110666
  34 H :    0.112968
  35 H :    0.117628
  36 H :    0.127763
  37 H :    0.124673
Sum of atomic charges:   -0.0000000

LOEWDIN ATOMIC CHARGES
----------------------
   0 C :   -0.351678
   1 C :   -0.111078
   2 O :   -0.042016
   3 C :    0.023256
   4 O :   -0.176506
   5 C :   -0.251511
   6 C :   -0.258216
   7 H :    0.153339
   8 C :   -0.006159
   9 O :   -0.161913
  10 O :   -0.039781
  11 C :   -0.106731
  12 C :   -0.351389
  13 S :    0.105794
  14 P :    0.594891
  15 S :   -0.299098
  16 O :   -0.265088
  17 C :   -0.215123
  18 O :   -0.231208
  19 C :   -0.211566
  20 H :    0.124009
  21 H :    0.131607
  22 H :    0.124738
  23 H :    0.117603
  24 H :    0.119903
  25 H :    0.144393
  26 H :    0.138098
  27 H :    0.117152
  28 H :    0.119795
  29 H :    0.131831
  30 H :    0.127493
  31 H :    0.124922
  32 H :    0.110404
  33 H :    0.113914
  34 H :    0.108043
  35 H :    0.111478
  36 H :    0.124980
  37 H :    0.111419

  Mayer bond orders larger than 0.100000
B(  0-C ,  1-C ) :   1.1510 B(  0-C , 20-H ) :   0.9482 B(  0-C , 21-H ) :   0.9442
B(  0-C , 22-H ) :   0.9502 B(  1-C ,  2-O ) :   0.8930 B(  1-C , 23-H ) :   0.9237
B(  1-C , 24-H ) :   0.9222 B(  2-O ,  3-C ) :   1.2683 B(  3-C ,  4-O ) :   1.9586
B(  3-C ,  5-C ) :   1.0070 B(  5-C ,  6-C ) :   1.0299 B(  5-C , 25-H ) :   0.8790
B(  5-C , 26-H ) :   0.8807 B(  6-C ,  7-H ) :   0.8704 B(  6-C ,  8-C ) :   0.8932
B(  6-C , 13-S ) :   1.0456 B(  8-C ,  9-O ) :   2.0328 B(  8-C , 10-O ) :   1.2738
B( 10-O , 11-C ) :   0.8891 B( 11-C , 12-C ) :   1.1536 B( 11-C , 27-H ) :   0.9294
B( 11-C , 28-H ) :   0.9184 B( 12-C , 29-H ) :   0.9425 B( 12-C , 30-H ) :   0.9445
B( 12-C , 31-H ) :   0.9502 B( 13-S , 14-P ) :   0.9230 B( 13-S , 15-S ) :   0.1202
B( 14-P , 15-S ) :   1.5699 B( 14-P , 16-O ) :   1.0711 B( 14-P , 18-O ) :   1.1360
B( 16-O , 17-C ) :   0.9376 B( 17-C , 32-H ) :   0.9396 B( 17-C , 33-H ) :   0.9563
B( 17-C , 34-H ) :   0.9463 B( 18-O , 19-C ) :   0.9264 B( 19-C , 35-H ) :   0.9444
B( 19-C , 36-H ) :   0.9601 B( 19-C , 37-H ) :   0.9403

Dispersion correction           -0.055981431
FINAL SINGLE POINT ENERGY     -1979.004802945428

DIPOLE MOMENT
-------------

Method             : SCF
Type of density    : Electron Density
Multiplicity       :   1
Irrep              :   0
Energy             : -1979.1326961341605966 Eh
Relativity type    :
Basis              : AO
                                X                 Y                 Z
Electronic contribution:    -15.673009312      -2.171113405      -4.557560290
Nuclear contribution   :     16.646789125       2.477020875       3.752375758
                        -----------------------------------------
Total Dipole Moment    :      0.973779813       0.305907470      -0.805184531
                        -----------------------------------------
Magnitude (a.u.)       :      1.300057165
Magnitude (Debye)      :      3.304482703

Rotational constants in cm-1:             0.013484             0.008714             0.007171
Rotational constants in MHz :           404.233719           261.249236           214.982464

                             ****ORCA TERMINATED NORMALLY****
TOTAL RUN TIME: 0 days 0 hours 0 minutes 41 seconds 698 msec
