                         Program Version 6.0.0  -   RELEASE  -
|  1> ! pbe def2-sv(p) def2/J RI DEFGRID1 loosescf d4 GCP(DFT/SV(P)) printgap
|  2> %output
|  3>     printlevel normal
|  4> end
|  5> * xyz 0 1
|  6> C 1.5680643273 2.6851840165 0.5195589495
|  7> C 2.4041586163 2.0680299293 1.6214935754
|  8> O 2.8899092104 0.76112535 1.2659433344
|  9> P 1.9280571102 -0.4988225855 1.1490638655
| 10> S 0.534582721 -0.6373906678 2.5123292669
| 11> O 2.9158718849 -1.7278126589 1.2465937797
| 12> C 4.0781727353 -1.9136185498 0.4019497373
| 13> C 5.3153421367 -1.3055831082 1.0301871706
| 14> S 1.3196728084 -0.4867355828 -0.8943771733
| 15> C 0.0827459955 -1.8143733874 -0.7545127404
| 16> S -1.3604357018 -1.5624675183 -1.8255562696
| 17> P -2.2807052164 0.1019259928 -0.9046963282
| 18> S -4.0867913409 0.5383528287 -1.5209459642
| 19> O -1.2475298304 1.3156921718 -0.9964032285
| 20> C -1.2464752413 2.2251434487 -2.1092968106
| 21> C -0.7186936263 1.5718240075 -3.3707536379
| 22> O -2.1331063986 -0.3420987689 0.6089163876
| 23> C -2.9505620509 0.222216623 1.6535284849
| 24> C -2.5683962681 1.6548818619 1.9556433217
| 25> H 1.3248739388 3.709005824 0.7862124395
| 26> H 2.1168535217 2.6753401779 -0.4190048631
| 27> H 0.6433878397 2.1243089538 0.3926946884
| 28> H 1.8256128496 1.9814306454 2.5468649475
| 29> H 3.3124316869 2.6433796557 1.8070670548
| 30> H 4.1717811746 -2.9974135653 0.3121300986
| 31> H 3.8758405276 -1.4738127531 -0.5788734721
| 32> H 5.4627076761 -1.7090236842 2.0283956627
| 33> H 6.1777685038 -1.5462663321 0.4163126884
| 34> H 5.2146010792 -0.2261165841 1.0992192042
| 35> H -0.2414115413 -1.8795662322 0.2852101294
| 36> H 0.5201131616 -2.749423294 -1.096295874
| 37> H -2.2695870033 2.5848006929 -2.2604274015
| 38> H -0.6061453855 3.0452563526 -1.7818499034
| 39> H -1.4015175868 0.7875315869 -3.6969657304
| 40> H -0.638990125 2.3176236229 -4.1548496497
| 41> H 0.2588771306 1.131599981 -3.1873310162
| 42> H -3.9985676692 0.1522760422 1.3452891205
| 43> H -2.7633724563 -0.4296885535 2.5083836784
| 44> H -2.761949969 2.283612877 1.0881241392
| 45> H -3.1584049857 2.0122023659 2.7934991728
| 46> H -1.513008003 1.7071054692 2.2116798741
| 47> *
| 48>
| 49>                          ****END OF INPUT****

CARTESIAN COORDINATES (ANGSTROEM)
---------------------------------
  C      1.568064    2.685184    0.519559
  C      2.404159    2.068030    1.621494
  O      2.889909    0.761125    1.265943
  P      1.928057   -0.498823    1.149064
  S      0.534583   -0.637391    2.512329
  O      2.915872   -1.727813    1.246594
  C      4.078173   -1.913619    0.401950
  C      5.315342   -1.305583    1.030187
  S      1.319673   -0.486736   -0.894377
  C      0.082746   -1.814373   -0.754513
  S     -1.360436   -1.562468   -1.825556
  P     -2.280705    0.101926   -0.904696
  S     -4.086791    0.538353   -1.520946
  O     -1.247530    1.315692   -0.996403
  C     -1.246475    2.225143   -2.109297
  C     -0.718694    1.571824   -3.370754
  O     -2.133106   -0.342099    0.608916
  C     -2.950562    0.222217    1.653528
  C     -2.568396    1.654882    1.955643
  H      1.324874    3.709006    0.786212
  H      2.116854    2.675340   -0.419005
  H      0.643388    2.124309    0.392695
  H      1.825613    1.981431    2.546865
  H      3.312432    2.643380    1.807067
  H      4.171781   -2.997414    0.312130
  H      3.875841   -1.473813   -0.578873
  H      5.462708   -1.709024    2.028396
  H      6.177769   -1.546266    0.416313
  H      5.214601   -0.226117    1.099219
  H     -0.241412   -1.879566    0.285210
  H      0.520113   -2.749423   -1.096296
  H     -2.269587    2.584801   -2.260427
  H     -0.606145    3.045256   -1.781850
  H     -1.401518    0.787532   -3.696966
  H     -0.638990    2.317624   -4.154850
  H      0.258877    1.131600   -3.187331
  H     -3.998568    0.152276    1.345289
  H     -2.763372   -0.429689    2.508384
  H     -2.761950    2.283613    1.088124
  H     -3.158405    2.012202    2.793499
  H     -1.513008    1.707105    2.211680

 Total Charge           Charge          ....    0
 Multiplicity           Mult            ....    1
 Number of Electrons    NEL             ....  202
 Basis Dimension        Dim             ....  334

ORBITAL ENERGIES
----------------

  NO   OCC          E(Eh)            E(eV)
   0   2.0000     -88.046193     -2395.8587
   1   2.0000     -88.045003     -2395.8263
   2   2.0000     -87.990873     -2394.3534
   3   2.0000     -87.987013     -2394.2483
   4   2.0000     -76.431497     -2079.8068
   5   2.0000     -76.424440     -2079.6148
   6   2.0000     -18.802887      -511.6526
   7   2.0000     -18.795735      -511.4579
   8   2.0000     -18.789493      -511.2881
   9   2.0000     -18.786554      -511.2081
  10   2.0000      -9.959637      -271.0155
  11   2.0000      -9.959428      -271.0098
  12   2.0000      -9.957565      -270.9591
  13   2.0000      -9.950392      -270.7639
  14   2.0000      -9.945564      -270.6326
  15   2.0000      -9.889826      -269.1158
  16   2.0000      -9.888427      -269.0778
  17   2.0000      -9.882261      -268.9100
  18   2.0000      -9.876831      -268.7622
  19   2.0000      -7.690741      -209.2757
  20   2.0000      -7.690304      -209.2638
  21   2.0000      -7.636007      -207.7863
  22   2.0000      -7.632131      -207.6809
  23   2.0000      -6.429056      -174.9435
  24   2.0000      -6.422321      -174.7602
  25   2.0000      -5.718657      -155.6126
  26   2.0000      -5.718569      -155.6102
  27   2.0000      -5.715381      -155.5234
  28   2.0000      -5.714505      -155.4996
  29   2.0000      -5.707679      -155.3138
  30   2.0000      -5.707084      -155.2977
  31   2.0000      -5.664990      -154.1522
  32   2.0000      -5.661051      -154.0450
  33   2.0000      -5.656655      -153.9254
  34   2.0000      -5.656005      -153.9077
  35   2.0000      -5.652909      -153.8235
  36   2.0000      -5.652160      -153.8031
  37   2.0000      -4.652067      -126.5892
  38   2.0000      -4.650703      -126.5521
  39   2.0000      -4.649235      -126.5121
  40   2.0000      -4.644647      -126.3873
  41   2.0000      -4.644263      -126.3768
  42   2.0000      -4.642812      -126.3373
  43   2.0000      -0.994006       -27.0483
  44   2.0000      -0.983598       -26.7651
  45   2.0000      -0.952067       -25.9071
  46   2.0000      -0.943034       -25.6613
  47   2.0000      -0.763751       -20.7827
  48   2.0000      -0.724562       -19.7163
  49   2.0000      -0.709231       -19.2991
  50   2.0000      -0.695649       -18.9296
  51   2.0000      -0.684762       -18.6333
  52   2.0000      -0.675705       -18.3869
  53   2.0000      -0.654976       -17.8228
  54   2.0000      -0.640725       -17.4350
  55   2.0000      -0.601328       -16.3630
  56   2.0000      -0.595426       -16.2024
  57   2.0000      -0.580205       -15.7882
  58   2.0000      -0.568166       -15.4606
  59   2.0000      -0.561906       -15.2902
  60   2.0000      -0.505883       -13.7658
  61   2.0000      -0.490223       -13.3396
  62   2.0000      -0.481389       -13.0993
  63   2.0000      -0.469919       -12.7871
  64   2.0000      -0.455273       -12.3886
  65   2.0000      -0.453289       -12.3346
  66   2.0000      -0.444124       -12.0852
  67   2.0000      -0.439309       -11.9542
  68   2.0000      -0.432881       -11.7793
  69   2.0000      -0.418518       -11.3884
  70   2.0000      -0.411511       -11.1978
  71   2.0000      -0.401762       -10.9325
  72   2.0000      -0.394825       -10.7437
  73   2.0000      -0.387942       -10.5564
  74   2.0000      -0.387295       -10.5388
  75   2.0000      -0.372895       -10.1470
  76   2.0000      -0.366533        -9.9739
  77   2.0000      -0.360562        -9.8114
  78   2.0000      -0.357861        -9.7379
  79   2.0000      -0.352787        -9.5998
  80   2.0000      -0.351464        -9.5638
  81   2.0000      -0.346389        -9.4257
  82   2.0000      -0.341867        -9.3027
  83   2.0000      -0.336516        -9.1571
  84   2.0000      -0.328137        -8.9291
  85   2.0000      -0.321656        -8.7527
  86   2.0000      -0.317782        -8.6473
  87   2.0000      -0.301220        -8.1966
  88   2.0000      -0.297814        -8.1039
  89   2.0000      -0.293244        -7.9796
  90   2.0000      -0.282676        -7.6920
  91   2.0000      -0.275941        -7.5087
  92   2.0000      -0.270641        -7.3645
  93   2.0000      -0.266750        -7.2586
  94   2.0000      -0.265490        -7.2244
  95   2.0000      -0.228607        -6.2207
  96   2.0000      -0.222930        -6.0662
  97   2.0000      -0.212445        -5.7809
  98   2.0000      -0.209531        -5.7016
  99   2.0000      -0.202919        -5.5217
 100   2.0000      -0.200354        -5.4519
 101   0.0000      -0.042318        -1.1515
 102   0.0000      -0.031153        -0.8477
 103   0.0000      -0.024159        -0.6574
 104   0.0000       0.002322         0.0632
 105   0.0000       0.015167         0.4127

MULLIKEN ATOMIC CHARGES
-----------------------
   0 C :   -0.378642
   1 C :    0.005741
   2 O :   -0.380653
   3 P :    0.596643
   4 S :   -0.298509
   5 O :   -0.358619
   6 C :   -0.012942
   7 C :   -0.294288
   8 S :   -0.104231
   9 C :   -0.350649
  10 S :   -0.081179
  11 P :    0.625144
  12 S :   -0.323083
  13 O :   -0.367581
  14 C :   -0.008348
  15 C :   -0.318231
  16 O :   -0.371350
  17 C :    0.004219
  18 C :   -0.320756
  19 H :    0.114867
  20 H :    0.114645
  21 H :    0.182825
  22 H :    0.114696
  23 H :    0.105072
  24 H :    0.108992
  25 H :    0.100849
  26 H :    0.121043
  27 H :    0.110299
  28 H :    0.123535
  29 H :    0.208724
  30 H :    0.182050
  31 H :    0.111696
  32 H :    0.105541
  33 H :    0.124749
  34 H :    0.110811
  35 H :    0.122862
  36 H :    0.110946
  37 H :    0.108338
  38 H :    0.116376
  39 H :    0.108244
  40 H :    0.130154
Sum of atomic charges:   -0.0000000

LOEWDIN ATOMIC CHARGES
----------------------
   0 C :   -0.379550
   1 C :   -0.115844
   2 O :   -0.244251
   3 P :    0.572404
   4 S :   -0.292277
   5 O :   -0.240387
   6 C :   -0.117589
   7 C :   -0.360790
   8 S :    0.077318
   9 C :   -0.478524
  10 S :    0.095935
  11 P :    0.569495
  12 S :   -0.319100
  13 O :   -0.239703
  14 C :   -0.121881
  15 C :   -0.369689
  16 O :   -0.235678
  17 C :   -0.114817
  18 C :   -0.367638
  19 H :    0.131843
  20 H :    0.122856
  21 H :    0.129111
  22 H :    0.112365
  23 H :    0.118469
  24 H :    0.120789
  25 H :    0.101668
  26 H :    0.129296
  27 H :    0.129886
  28 H :    0.125945
  29 H :    0.128392
  30 H :    0.135474
  31 H :    0.109014
  32 H :    0.115646
  33 H :    0.120755
  34 H :    0.129773
  35 H :    0.119209
  36 H :    0.110150
  37 H :    0.119678
  38 H :    0.120200
  39 H :    0.129226
  40 H :    0.122820

  Mayer bond orders larger than 0.100000
B(  0-C ,  1-C ) :   1.1644 B(  0-C , 19-H ) :   0.9366 B(  0-C , 20-H ) :   0.9427
B(  0-C , 21-H ) :   0.9103 B(  1-C ,  2-O ) :   0.9024 B(  1-C , 22-H ) :   0.9164
B(  1-C , 23-H ) :   0.9323 B(  2-O ,  3-P ) :   1.0880 B(  3-P ,  4-S ) :   1.6384
B(  3-P ,  5-O ) :   1.1294 B(  3-P ,  8-S ) :   0.9590 B(  4-S ,  8-S ) :   0.1121
B(  5-O ,  6-C ) :   0.9002 B(  6-C ,  7-C ) :   1.1643 B(  6-C , 24-H ) :   0.9362
B(  6-C , 25-H ) :   0.9071 B(  7-C , 26-H ) :   0.9472 B(  7-C , 27-H ) :   0.9391
B(  7-C , 28-H ) :   0.9412 B(  8-S ,  9-C ) :   0.9790 B(  9-C , 10-S ) :   1.0046
B(  9-C , 29-H ) :   0.8561 B(  9-C , 30-H ) :   0.9107 B( 10-S , 11-P ) :   0.9614
B( 11-P , 12-S ) :   1.6433 B( 11-P , 13-O ) :   1.0690 B( 11-P , 16-O ) :   1.1220
B( 13-O , 14-C ) :   0.9069 B( 14-C , 15-C ) :   1.1655 B( 14-C , 31-H ) :   0.9132
B( 14-C , 32-H ) :   0.9287 B( 15-C , 33-H ) :   0.9365 B( 15-C , 34-H ) :   0.9384
B( 15-C , 35-H ) :   0.9407 B( 16-O , 17-C ) :   0.8982 B( 17-C , 18-C ) :   1.1683
B( 17-C , 36-H ) :   0.9184 B( 17-C , 37-H ) :   0.9299 B( 18-C , 38-H ) :   0.9381
B( 18-C , 39-H ) :   0.9380 B( 18-C , 40-H ) :   0.9351

Dispersion correction           -0.066879899
FINAL SINGLE POINT ENERGY     -2929.519108589533

DIPOLE MOMENT
-------------

Method             : SCF
Type of density    : Electron Density
Multiplicity       :   1
Irrep              :   0
Energy             : -2929.6399502044100700 Eh
Relativity type    :
Basis              : AO
                                X                 Y                 Z
Electronic contribution:    -13.185628080     -14.835258800      -2.253348312
Nuclear contribution   :     15.045365040      15.562915882       2.157450439
                        -----------------------------------------
Total Dipole Moment    :      1.859736961       0.727657082      -0.095897873
                        -----------------------------------------
Magnitude (a.u.)       :      1.999325585
Magnitude (Debye)      :      5.081881773

Rotational constants in cm-1:             0.012710             0.005204             0.004959
Rotational constants in MHz :           381.038944           156.025965           148.654356

                             ****ORCA TERMINATED NORMALLY****
TOTAL RUN TIME: 0 days 0 hours 0 minutes 22 seconds 197 msec
