                         Program Version 6.0.0  -   RELEASE  -
|  1> ! pbe def2-sv(p) def2/J RI DEFGRID1 loosescf d4 GCP(DFT/SV(P)) printgap
|  2> %output
|  3>     printlevel normal
|  4> end
|  5> * xyz 0 1
|  6> C 1.2054821657 0.1174624598 2.9307486948
|  7> C 2.6879223669 -0.0559189147 2.6729720975
|  8> O 3.0736940019 0.4875994575 1.3992433768
|  9> P 2.7347040175 -0.240633888 0.0247738756
| 10> S 2.8209877999 -2.203257455 0.1097875713
| 11> O 3.6985819512 0.5159079509 -0.9761205904
| 12> C 5.0855765099 0.8151170903 -0.7026170224
| 13> C 5.912514253 -0.4350214913 -0.4839022953
| 14> S 0.9209274963 0.5716651947 -0.7248396767
| 15> C -0.0722555478 -0.9428975224 -0.8694662223
| 16> S -1.3883154197 -1.0506964787 0.3612126253
| 17> P -2.6654354225 0.3838577949 -0.5699072551
| 18> S -2.7953514677 0.2709230311 -2.5172422167
| 19> O -2.1090570168 1.7841909322 -0.1103238981
| 20> C -1.8881159016 2.1627841982 1.2705443631
| 21> C -3.0822702572 2.9124327578 1.8243127892
| 22> O -4.0328457545 0.2572999625 0.2296334721
| 23> C -5.0644941828 -0.6758610607 -0.1411305472
| 24> C -4.6323109474 -2.1162150573 0.0408552302
| 25> H 0.9770389016 -0.1970901819 3.9437963525
| 26> H 0.9220645627 1.1591197746 2.8029964258
| 27> H 0.6310338058 -0.4963357677 2.2373550332
| 28> H 2.9631248065 -1.1154393361 2.697463849
| 29> H 3.289728992 0.5023731357 3.3914543296
| 30> H 5.406950373 1.3565822312 -1.5939123531
| 31> H 5.1302350697 1.4721623239 0.1684824735
| 32> H 5.5752923642 -0.9581815895 0.4100106007
| 33> H 5.8136780008 -1.1071914814 -1.3332204947
| 34> H 6.9558161374 -0.16125594 -0.3622738656
| 35> H 0.5786378748 -1.8094894302 -0.7264503738
| 36> H -0.5258082074 -0.9464307781 -1.8612002806
| 37> H -1.6816945616 1.2623382333 1.8559975786
| 38> H -0.9990083678 2.7953555035 1.2332571047
| 39> H -3.3043353252 3.7730535787 1.1993324471
| 40> H -3.9538007666 2.2642213871 1.8515471122
| 41> H -2.8536480305 3.2491199566 2.8306588776
| 42> H -5.8953218896 -0.4189751196 0.5175081902
| 43> H -5.3420158696 -0.4857770013 -1.1823901348
| 44> H -4.2394509818 -2.271042865 1.0425845777
| 45> H -5.4853605254 -2.7681437063 -0.1176373561
| 46> H -3.8587804814 -2.3686766665 -0.682761803
| 47> *
| 48>
| 49>                          ****END OF INPUT****

CARTESIAN COORDINATES (ANGSTROEM)
---------------------------------
  C      1.205482    0.117462    2.930749
  C      2.687922   -0.055919    2.672972
  O      3.073694    0.487599    1.399243
  P      2.734704   -0.240634    0.024774
  S      2.820988   -2.203257    0.109788
  O      3.698582    0.515908   -0.976121
  C      5.085577    0.815117   -0.702617
  C      5.912514   -0.435021   -0.483902
  S      0.920927    0.571665   -0.724840
  C     -0.072256   -0.942898   -0.869466
  S     -1.388315   -1.050696    0.361213
  P     -2.665435    0.383858   -0.569907
  S     -2.795351    0.270923   -2.517242
  O     -2.109057    1.784191   -0.110324
  C     -1.888116    2.162784    1.270544
  C     -3.082270    2.912433    1.824313
  O     -4.032846    0.257300    0.229633
  C     -5.064494   -0.675861   -0.141131
  C     -4.632311   -2.116215    0.040855
  H      0.977039   -0.197090    3.943796
  H      0.922065    1.159120    2.802996
  H      0.631034   -0.496336    2.237355
  H      2.963125   -1.115439    2.697464
  H      3.289729    0.502373    3.391454
  H      5.406950    1.356582   -1.593912
  H      5.130235    1.472162    0.168482
  H      5.575292   -0.958182    0.410011
  H      5.813678   -1.107191   -1.333220
  H      6.955816   -0.161256   -0.362274
  H      0.578638   -1.809489   -0.726450
  H     -0.525808   -0.946431   -1.861200
  H     -1.681695    1.262338    1.855998
  H     -0.999008    2.795356    1.233257
  H     -3.304335    3.773054    1.199332
  H     -3.953801    2.264221    1.851547
  H     -2.853648    3.249120    2.830659
  H     -5.895322   -0.418975    0.517508
  H     -5.342016   -0.485777   -1.182390
  H     -4.239451   -2.271043    1.042585
  H     -5.485361   -2.768144   -0.117637
  H     -3.858780   -2.368677   -0.682762

 Total Charge           Charge          ....    0
 Multiplicity           Mult            ....    1
 Number of Electrons    NEL             ....  202
 Basis Dimension        Dim             ....  334

ORBITAL ENERGIES
----------------

  NO   OCC          E(Eh)            E(eV)
   0   2.0000     -88.043471     -2395.7847
   1   2.0000     -88.040218     -2395.6961
   2   2.0000     -87.992862     -2394.4075
   3   2.0000     -87.985774     -2394.2146
   4   2.0000     -76.428945     -2079.7373
   5   2.0000     -76.426823     -2079.6796
   6   2.0000     -18.798054      -511.5211
   7   2.0000     -18.797531      -511.5068
   8   2.0000     -18.792878      -511.3802
   9   2.0000     -18.792663      -511.3744
  10   2.0000      -9.957007      -270.9439
  11   2.0000      -9.956270      -270.9239
  12   2.0000      -9.956081      -270.9187
  13   2.0000      -9.955513      -270.9033
  14   2.0000      -9.946941      -270.6700
  15   2.0000      -9.887331      -269.0479
  16   2.0000      -9.887013      -269.0393
  17   2.0000      -9.886083      -269.0140
  18   2.0000      -9.885821      -269.0069
  19   2.0000      -7.687876      -209.1977
  20   2.0000      -7.685255      -209.1264
  21   2.0000      -7.637694      -207.8322
  22   2.0000      -7.631058      -207.6516
  23   2.0000      -6.426521      -174.8745
  24   2.0000      -6.424528      -174.8203
  25   2.0000      -5.715468      -155.5258
  26   2.0000      -5.713111      -155.4617
  27   2.0000      -5.712498      -155.4450
  28   2.0000      -5.709793      -155.3714
  29   2.0000      -5.705113      -155.2440
  30   2.0000      -5.702224      -155.1654
  31   2.0000      -5.666380      -154.1900
  32   2.0000      -5.660048      -154.0177
  33   2.0000      -5.658562      -153.9773
  34   2.0000      -5.657858      -153.9581
  35   2.0000      -5.651567      -153.7870
  36   2.0000      -5.651219      -153.7775
  37   2.0000      -4.649327      -126.5146
  38   2.0000      -4.647925      -126.4765
  39   2.0000      -4.647471      -126.4641
  40   2.0000      -4.647097      -126.4539
  41   2.0000      -4.646194      -126.4294
  42   2.0000      -4.644706      -126.3889
  43   2.0000      -0.991356       -26.9762
  44   2.0000      -0.990642       -26.9567
  45   2.0000      -0.948467       -25.8091
  46   2.0000      -0.947353       -25.7788
  47   2.0000      -0.761183       -20.7129
  48   2.0000      -0.723919       -19.6988
  49   2.0000      -0.711564       -19.3627
  50   2.0000      -0.692511       -18.8442
  51   2.0000      -0.691763       -18.8238
  52   2.0000      -0.676789       -18.4164
  53   2.0000      -0.653124       -17.7724
  54   2.0000      -0.638413       -17.3721
  55   2.0000      -0.602362       -16.3911
  56   2.0000      -0.594572       -16.1791
  57   2.0000      -0.580963       -15.8088
  58   2.0000      -0.576598       -15.6900
  59   2.0000      -0.556184       -15.1345
  60   2.0000      -0.503795       -13.7089
  61   2.0000      -0.496990       -13.5238
  62   2.0000      -0.477481       -12.9929
  63   2.0000      -0.474441       -12.9102
  64   2.0000      -0.459881       -12.5140
  65   2.0000      -0.450051       -12.2465
  66   2.0000      -0.442289       -12.0353
  67   2.0000      -0.434176       -11.8145
  68   2.0000      -0.431104       -11.7309
  69   2.0000      -0.420456       -11.4412
  70   2.0000      -0.414570       -11.2810
  71   2.0000      -0.408064       -11.1040
  72   2.0000      -0.394633       -10.7385
  73   2.0000      -0.387357       -10.5405
  74   2.0000      -0.376563       -10.2468
  75   2.0000      -0.375870       -10.2280
  76   2.0000      -0.367307        -9.9949
  77   2.0000      -0.359329        -9.7778
  78   2.0000      -0.356792        -9.7088
  79   2.0000      -0.352518        -9.5925
  80   2.0000      -0.350798        -9.5457
  81   2.0000      -0.347115        -9.4455
  82   2.0000      -0.344290        -9.3686
  83   2.0000      -0.340542        -9.2666
  84   2.0000      -0.338940        -9.2230
  85   2.0000      -0.321399        -8.7457
  86   2.0000      -0.313594        -8.5333
  87   2.0000      -0.301131        -8.1942
  88   2.0000      -0.297545        -8.0966
  89   2.0000      -0.293530        -7.9873
  90   2.0000      -0.292807        -7.9677
  91   2.0000      -0.278540        -7.5795
  92   2.0000      -0.272628        -7.4186
  93   2.0000      -0.265622        -7.2280
  94   2.0000      -0.260712        -7.0943
  95   2.0000      -0.231982        -6.3125
  96   2.0000      -0.222107        -6.0438
  97   2.0000      -0.213945        -5.8217
  98   2.0000      -0.205945        -5.6040
  99   2.0000      -0.205013        -5.5787
 100   2.0000      -0.199228        -5.4213
 101   0.0000      -0.040437        -1.1004
 102   0.0000      -0.030980        -0.8430
 103   0.0000      -0.008359        -0.2275
 104   0.0000       0.004433         0.1206
 105   0.0000       0.009845         0.2679

MULLIKEN ATOMIC CHARGES
-----------------------
   0 C :   -0.330268
   1 C :   -0.000633
   2 O :   -0.381363
   3 P :    0.624252
   4 S :   -0.327469
   5 O :   -0.369381
   6 C :   -0.001602
   7 C :   -0.316047
   8 S :   -0.069266
   9 C :   -0.371953
  10 S :   -0.102590
  11 P :    0.599792
  12 S :   -0.307852
  13 O :   -0.350044
  14 C :   -0.026355
  15 C :   -0.287125
  16 O :   -0.381854
  17 C :   -0.000652
  18 C :   -0.320520
  19 H :    0.111384
  20 H :    0.117272
  21 H :    0.135156
  22 H :    0.112066
  23 H :    0.102422
  24 H :    0.110899
  25 H :    0.109467
  26 H :    0.127301
  27 H :    0.127161
  28 H :    0.111386
  29 H :    0.196143
  30 H :    0.197721
  31 H :    0.112744
  32 H :    0.114787
  33 H :    0.120341
  34 H :    0.120887
  35 H :    0.108112
  36 H :    0.105402
  37 H :    0.114873
  38 H :    0.117440
  39 H :    0.115688
  40 H :    0.132281
Sum of atomic charges:   -0.0000000

LOEWDIN ATOMIC CHARGES
----------------------
   0 C :   -0.369702
   1 C :   -0.120525
   2 O :   -0.246975
   3 P :    0.568615
   4 S :   -0.305402
   5 O :   -0.241943
   6 C :   -0.110431
   7 C :   -0.366727
   8 S :    0.094948
   9 C :   -0.492932
  10 S :    0.085748
  11 P :    0.569122
  12 S :   -0.305931
  13 O :   -0.232264
  14 C :   -0.118053
  15 C :   -0.359423
  16 O :   -0.247048
  17 C :   -0.115910
  18 C :   -0.371339
  19 H :    0.130831
  20 H :    0.123473
  21 H :    0.113797
  22 H :    0.109113
  23 H :    0.117098
  24 H :    0.122397
  25 H :    0.113109
  26 H :    0.121618
  27 H :    0.131270
  28 H :    0.129940
  29 H :    0.124824
  30 H :    0.128454
  31 H :    0.104454
  32 H :    0.120155
  33 H :    0.129025
  34 H :    0.125741
  35 H :    0.128865
  36 H :    0.118593
  37 H :    0.114317
  38 H :    0.123292
  39 H :    0.132505
  40 H :    0.123302

  Mayer bond orders larger than 0.100000
B(  0-C ,  1-C ) :   1.1628 B(  0-C , 19-H ) :   0.9378 B(  0-C , 20-H ) :   0.9422
B(  0-C , 21-H ) :   0.9269 B(  1-C ,  2-O ) :   0.9134 B(  1-C , 22-H ) :   0.9112
B(  1-C , 23-H ) :   0.9322 B(  2-O ,  3-P ) :   1.0776 B(  3-P ,  4-S ) :   1.5985
B(  3-P ,  5-O ) :   1.1376 B(  3-P ,  8-S ) :   0.9692 B(  4-S ,  8-S ) :   0.1232
B(  4-S , 29-H ) :   0.1176 B(  5-O ,  6-C ) :   0.9067 B(  6-C ,  7-C ) :   1.1663
B(  6-C , 24-H ) :   0.9346 B(  6-C , 25-H ) :   0.9291 B(  7-C , 26-H ) :   0.9363
B(  7-C , 27-H ) :   0.9450 B(  7-C , 28-H ) :   0.9362 B(  8-S ,  9-C ) :   1.0077
B(  9-C , 10-S ) :   1.0017 B(  9-C , 29-H ) :   0.8478 B(  9-C , 30-H ) :   0.8673
B( 10-S , 11-P ) :   0.9485 B( 10-S , 12-S ) :   0.1072 B( 11-P , 12-S ) :   1.6409
B( 11-P , 13-O ) :   1.1441 B( 11-P , 16-O ) :   1.0867 B( 13-O , 14-C ) :   0.8922
B( 14-C , 15-C ) :   1.1601 B( 14-C , 31-H ) :   0.9075 B( 14-C , 32-H ) :   0.9326
B( 15-C , 33-H ) :   0.9470 B( 15-C , 34-H ) :   0.9414 B( 15-C , 35-H ) :   0.9401
B( 16-O , 17-C ) :   0.9037 B( 17-C , 18-C ) :   1.1662 B( 17-C , 36-H ) :   0.9340
B( 17-C , 37-H ) :   0.9186 B( 18-C , 38-H ) :   0.9437 B( 18-C , 39-H ) :   0.9369
B( 18-C , 40-H ) :   0.9342

Dispersion correction           -0.063495618
FINAL SINGLE POINT ENERGY     -2929.521081711377

DIPOLE MOMENT
-------------

Method             : SCF
Type of density    : Electron Density
Multiplicity       :   1
Irrep              :   0
Energy             : -2929.6426790417408483 Eh
Relativity type    :
Basis              : AO
                                X                 Y                 Z
Electronic contribution:      0.134053789      -2.022940720     -15.944808919
Nuclear contribution   :      0.058154091       2.548415049      17.765073322
                        -----------------------------------------
Total Dipole Moment    :      0.192207881       0.525474329       1.820264403
                        -----------------------------------------
Magnitude (a.u.)       :      1.904318680
Magnitude (Debye)      :      4.840393413

Rotational constants in cm-1:             0.014277             0.004019             0.003860
Rotational constants in MHz :           428.022369           120.473839           115.730443

                             ****ORCA TERMINATED NORMALLY****
TOTAL RUN TIME: 0 days 0 hours 0 minutes 20 seconds 691 msec
