                         Program Version 6.0.0  -   RELEASE  -
|  1> ! pbe def2-sv(p) def2/J RI DEFGRID1 loosescf d4 GCP(DFT/SV(P)) printgap
|  2> %output
|  3>     printlevel normal
|  4> end
|  5> * xyz 0 1
|  6> C 2.9383108454 2.3098818512 -1.2769274752
|  7> C 3.6089311484 1.5822571107 -0.1291072519
|  8> O 3.1681494658 0.2104416001 -0.0674622735
|  9> P 2.1683092995 -0.3582672842 1.0462699709
| 10> S 1.3672272908 0.9733191497 2.2269899075
| 11> O 3.0157120118 -1.3766624503 1.9132070776
| 12> C 3.7980514724 -2.4605435617 1.3539808549
| 13> C 3.1118634737 -3.7882668799 1.6052658868
| 14> S 0.9618185094 -1.640809639 -0.1342534197
| 15> C 0.443901995 -0.4789856105 -1.4321801387
| 16> S -0.4681337171 0.9642019599 -0.8324475543
| 17> P -2.4765065631 0.269118575 -1.039707733
| 18> S -2.7104467885 -1.545688788 -1.7301809111
| 19> O -3.1505993489 1.330415866 -1.9925097329
| 20> C -2.8781972529 2.7510268358 -2.0449539512
| 21> C -3.0037861923 3.4241463177 -0.695669267
| 22> O -3.2022710983 0.5595432714 0.3488922093
| 23> C -3.346242565 -0.4190615182 1.3869974698
| 24> C -2.0196442691 -0.8009716825 2.0098946868
| 25> H 1.8629800978 2.3570068211 -1.1125082852
| 26> H 3.3301559236 3.3203601233 -1.3297948982
| 27> H 3.1373515089 1.8018239747 -2.2167160002
| 28> H 3.3829289259 2.0708655375 0.8237275887
| 29> H 4.6900638768 1.527547481 -0.2679167535
| 30> H 3.9464273103 -2.2828297465 0.2864422036
| 31> H 4.7564590025 -2.4073795778 1.8733063602
| 32> H 2.1573565357 -3.8284836562 1.084502371
| 33> H 3.7472993496 -4.5913599358 1.2458151296
| 34> H 2.9345817687 -3.9182446205 2.6691394896
| 35> H -0.1982845858 -1.0584299436 -2.0977414338
| 36> H 1.3259194409 -0.1086419059 -1.947108897
| 37> H -1.8751428843 2.8895203253 -2.4564585659
| 38> H -3.6233017891 3.1198417257 -2.7513737672
| 39> H -3.982416173 3.2287557803 -0.2651417226
| 40> H -2.2400454579 3.0506985276 -0.0146406021
| 41> H -2.8708732163 4.494646755 -0.8182049046
| 42> H -4.003587555 0.0641301107 2.1113267802
| 43> H -3.8382890004 -1.3023392957 0.9669502115
| 44> H -1.4671347579 0.0849820541 2.3181234515
| 45> H -2.1935794951 -1.4284177703 2.8780793599
| 46> H -1.4198809338 -1.3622584353 1.2936370008
| 47> *
| 48>
| 49>                          ****END OF INPUT****

CARTESIAN COORDINATES (ANGSTROEM)
---------------------------------
  C      2.938311    2.309882   -1.276927
  C      3.608931    1.582257   -0.129107
  O      3.168149    0.210442   -0.067462
  P      2.168309   -0.358267    1.046270
  S      1.367227    0.973319    2.226990
  O      3.015712   -1.376662    1.913207
  C      3.798051   -2.460544    1.353981
  C      3.111863   -3.788267    1.605266
  S      0.961819   -1.640810   -0.134253
  C      0.443902   -0.478986   -1.432180
  S     -0.468134    0.964202   -0.832448
  P     -2.476507    0.269119   -1.039708
  S     -2.710447   -1.545689   -1.730181
  O     -3.150599    1.330416   -1.992510
  C     -2.878197    2.751027   -2.044954
  C     -3.003786    3.424146   -0.695669
  O     -3.202271    0.559543    0.348892
  C     -3.346243   -0.419062    1.386997
  C     -2.019644   -0.800972    2.009895
  H      1.862980    2.357007   -1.112508
  H      3.330156    3.320360   -1.329795
  H      3.137352    1.801824   -2.216716
  H      3.382929    2.070866    0.823728
  H      4.690064    1.527547   -0.267917
  H      3.946427   -2.282830    0.286442
  H      4.756459   -2.407380    1.873306
  H      2.157357   -3.828484    1.084502
  H      3.747299   -4.591360    1.245815
  H      2.934582   -3.918245    2.669139
  H     -0.198285   -1.058430   -2.097741
  H      1.325919   -0.108642   -1.947109
  H     -1.875143    2.889520   -2.456459
  H     -3.623302    3.119842   -2.751374
  H     -3.982416    3.228756   -0.265142
  H     -2.240045    3.050699   -0.014641
  H     -2.870873    4.494647   -0.818205
  H     -4.003588    0.064130    2.111327
  H     -3.838289   -1.302339    0.966950
  H     -1.467135    0.084982    2.318123
  H     -2.193579   -1.428418    2.878079
  H     -1.419881   -1.362258    1.293637

 Total Charge           Charge          ....    0
 Multiplicity           Mult            ....    1
 Number of Electrons    NEL             ....  202
 Basis Dimension        Dim             ....  334

ORBITAL ENERGIES
----------------

  NO   OCC          E(Eh)            E(eV)
   0   2.0000     -88.046190     -2395.8586
   1   2.0000     -88.045856     -2395.8495
   2   2.0000     -87.986084     -2394.2231
   3   2.0000     -87.984494     -2394.1798
   4   2.0000     -76.427251     -2079.6912
   5   2.0000     -76.425945     -2079.6557
   6   2.0000     -18.796216      -511.4711
   7   2.0000     -18.792837      -511.3791
   8   2.0000     -18.788670      -511.2657
   9   2.0000     -18.787199      -511.2257
  10   2.0000      -9.959192      -271.0034
  11   2.0000      -9.958388      -270.9815
  12   2.0000      -9.957526      -270.9581
  13   2.0000      -9.955479      -270.9024
  14   2.0000      -9.943344      -270.5721
  15   2.0000      -9.891070      -269.1497
  16   2.0000      -9.889269      -269.1007
  17   2.0000      -9.888800      -269.0879
  18   2.0000      -9.865780      -268.4615
  19   2.0000      -7.690697      -209.2745
  20   2.0000      -7.690014      -209.2559
  21   2.0000      -7.631241      -207.6566
  22   2.0000      -7.629738      -207.6157
  23   2.0000      -6.424866      -174.8295
  24   2.0000      -6.423318      -174.7874
  25   2.0000      -5.718603      -155.6111
  26   2.0000      -5.717889      -155.5917
  27   2.0000      -5.715115      -155.5162
  28   2.0000      -5.714467      -155.4985
  29   2.0000      -5.707774      -155.3164
  30   2.0000      -5.707164      -155.2998
  31   2.0000      -5.660201      -154.0219
  32   2.0000      -5.658765      -153.9828
  33   2.0000      -5.651913      -153.7964
  34   2.0000      -5.651276      -153.7790
  35   2.0000      -5.650126      -153.7477
  36   2.0000      -5.649953      -153.7430
  37   2.0000      -4.647932      -126.4767
  38   2.0000      -4.646419      -126.4355
  39   2.0000      -4.645960      -126.4230
  40   2.0000      -4.645100      -126.3996
  41   2.0000      -4.644947      -126.3954
  42   2.0000      -4.643895      -126.3668
  43   2.0000      -0.986498       -26.8440
  44   2.0000      -0.983271       -26.7562
  45   2.0000      -0.946827       -25.7645
  46   2.0000      -0.941640       -25.6233
  47   2.0000      -0.764260       -20.7966
  48   2.0000      -0.723178       -19.6787
  49   2.0000      -0.712411       -19.3857
  50   2.0000      -0.695402       -18.9228
  51   2.0000      -0.685416       -18.6511
  52   2.0000      -0.673774       -18.3343
  53   2.0000      -0.651634       -17.7319
  54   2.0000      -0.639702       -17.4072
  55   2.0000      -0.597253       -16.2521
  56   2.0000      -0.590690       -16.0735
  57   2.0000      -0.578495       -15.7417
  58   2.0000      -0.573780       -15.6133
  59   2.0000      -0.561385       -15.2761
  60   2.0000      -0.508372       -13.8335
  61   2.0000      -0.491531       -13.3752
  62   2.0000      -0.480547       -13.0763
  63   2.0000      -0.467239       -12.7142
  64   2.0000      -0.462880       -12.5956
  65   2.0000      -0.447973       -12.1900
  66   2.0000      -0.443024       -12.0553
  67   2.0000      -0.436943       -11.8898
  68   2.0000      -0.431777       -11.7492
  69   2.0000      -0.421502       -11.4696
  70   2.0000      -0.408653       -11.1200
  71   2.0000      -0.397827       -10.8254
  72   2.0000      -0.392038       -10.6679
  73   2.0000      -0.383861       -10.4454
  74   2.0000      -0.381087       -10.3699
  75   2.0000      -0.374269       -10.1844
  76   2.0000      -0.367922       -10.0117
  77   2.0000      -0.361038        -9.8243
  78   2.0000      -0.354543        -9.6476
  79   2.0000      -0.354160        -9.6372
  80   2.0000      -0.352539        -9.5931
  81   2.0000      -0.348589        -9.4856
  82   2.0000      -0.341057        -9.2806
  83   2.0000      -0.334945        -9.1143
  84   2.0000      -0.332730        -9.0540
  85   2.0000      -0.318573        -8.6688
  86   2.0000      -0.308622        -8.3980
  87   2.0000      -0.303149        -8.2491
  88   2.0000      -0.292077        -7.9478
  89   2.0000      -0.289040        -7.8652
  90   2.0000      -0.286529        -7.7969
  91   2.0000      -0.274531        -7.4704
  92   2.0000      -0.270433        -7.3589
  93   2.0000      -0.267619        -7.2823
  94   2.0000      -0.259606        -7.0642
  95   2.0000      -0.234981        -6.3942
  96   2.0000      -0.221467        -6.0264
  97   2.0000      -0.208192        -5.6652
  98   2.0000      -0.203550        -5.5389
  99   2.0000      -0.200627        -5.4593
 100   2.0000      -0.194772        -5.3000
 101   0.0000      -0.049934        -1.3588
 102   0.0000      -0.028751        -0.7823
 103   0.0000      -0.014027        -0.3817
 104   0.0000      -0.003747        -0.1020
 105   0.0000       0.014269         0.3883

MULLIKEN ATOMIC CHARGES
-----------------------
   0 C :   -0.316018
   1 C :   -0.009362
   2 O :   -0.395723
   3 P :    0.609496
   4 S :   -0.291792
   5 O :   -0.360956
   6 C :   -0.021949
   7 C :   -0.294809
   8 S :   -0.097316
   9 C :   -0.341580
  10 S :   -0.113918
  11 P :    0.613005
  12 S :   -0.313175
  13 O :   -0.359715
  14 C :   -0.004318
  15 C :   -0.317261
  16 O :   -0.373760
  17 C :    0.001170
  18 C :   -0.340700
  19 H :    0.132844
  20 H :    0.114547
  21 H :    0.118805
  22 H :    0.114488
  23 H :    0.103236
  24 H :    0.108154
  25 H :    0.110446
  26 H :    0.130422
  27 H :    0.111885
  28 H :    0.122966
  29 H :    0.192189
  30 H :    0.190619
  31 H :    0.108762
  32 H :    0.112347
  33 H :    0.126364
  34 H :    0.132462
  35 H :    0.114843
  36 H :    0.100436
  37 H :    0.108734
  38 H :    0.134099
  39 H :    0.104876
  40 H :    0.135153
Sum of atomic charges:   -0.0000000

LOEWDIN ATOMIC CHARGES
----------------------
   0 C :   -0.363397
   1 C :   -0.119788
   2 O :   -0.261216
   3 P :    0.561063
   4 S :   -0.293259
   5 O :   -0.242286
   6 C :   -0.118758
   7 C :   -0.359229
   8 S :    0.101420
   9 C :   -0.479655
  10 S :    0.088312
  11 P :    0.572918
  12 S :   -0.306581
  13 O :   -0.238414
  14 C :   -0.115217
  15 C :   -0.367042
  16 O :   -0.241725
  17 C :   -0.117965
  18 C :   -0.378779
  19 H :    0.117564
  20 H :    0.133219
  21 H :    0.123411
  22 H :    0.109052
  23 H :    0.116656
  24 H :    0.109038
  25 H :    0.121275
  26 H :    0.121062
  27 H :    0.131036
  28 H :    0.130347
  29 H :    0.130828
  30 H :    0.131310
  31 H :    0.107758
  32 H :    0.123642
  33 H :    0.131097
  34 H :    0.120831
  35 H :    0.132135
  36 H :    0.116771
  37 H :    0.109984
  38 H :    0.123043
  39 H :    0.128834
  40 H :    0.110708

  Mayer bond orders larger than 0.100000
B(  0-C ,  1-C ) :   1.1700 B(  0-C , 19-H ) :   0.9301 B(  0-C , 20-H ) :   0.9371
B(  0-C , 21-H ) :   0.9420 B(  1-C ,  2-O ) :   0.9055 B(  1-C , 22-H ) :   0.9019
B(  1-C , 23-H ) :   0.9322 B(  2-O ,  3-P ) :   1.0576 B(  3-P ,  4-S ) :   1.6623
B(  3-P ,  5-O ) :   1.1349 B(  3-P ,  8-S ) :   0.9631 B(  4-S ,  8-S ) :   0.1037
B(  5-O ,  6-C ) :   0.8949 B(  6-C ,  7-C ) :   1.1649 B(  6-C , 24-H ) :   0.9166
B(  6-C , 25-H ) :   0.9326 B(  7-C , 26-H ) :   0.9390 B(  7-C , 27-H ) :   0.9394
B(  7-C , 28-H ) :   0.9458 B(  8-S ,  9-C ) :   0.9942 B(  9-C , 10-S ) :   1.0241
B(  9-C , 29-H ) :   0.8638 B(  9-C , 30-H ) :   0.8931 B( 10-S , 11-P ) :   0.9328
B( 10-S , 12-S ) :   0.1061 B( 11-P , 12-S ) :   1.6224 B( 11-P , 13-O ) :   1.1434
B( 11-P , 16-O ) :   1.0993 B( 12-S , 29-H ) :   0.1000 B( 13-O , 14-C ) :   0.9057
B( 14-C , 15-C ) :   1.1687 B( 14-C , 31-H ) :   0.9203 B( 14-C , 32-H ) :   0.9332
B( 15-C , 33-H ) :   0.9422 B( 15-C , 34-H ) :   0.9363 B( 15-C , 35-H ) :   0.9348
B( 16-O , 17-C ) :   0.9052 B( 17-C , 18-C ) :   1.1602 B( 17-C , 36-H ) :   0.9332
B( 17-C , 37-H ) :   0.9187 B( 18-C , 38-H ) :   0.9332 B( 18-C , 39-H ) :   0.9366
B( 18-C , 40-H ) :   0.9245

Dispersion correction           -0.065171023
FINAL SINGLE POINT ENERGY     -2929.516073635107

DIPOLE MOMENT
-------------

Method             : SCF
Type of density    : Electron Density
Multiplicity       :   1
Irrep              :   0
Energy             : -2929.6361309567355420 Eh
Relativity type    :
Basis              : AO
                                X                 Y                 Z
Electronic contribution:     -6.185892430      -4.868413226      -2.523242990
Nuclear contribution   :      7.389093769       5.494554103       2.143613443
                        -----------------------------------------
Total Dipole Moment    :      1.203201339       0.626140877      -0.379629547
                        -----------------------------------------
Magnitude (a.u.)       :      1.408497232
Magnitude (Debye)      :      3.580115448

Rotational constants in cm-1:             0.011752             0.005092             0.004503
Rotational constants in MHz :           352.308608           152.645876           135.000588

                             ****ORCA TERMINATED NORMALLY****
TOTAL RUN TIME: 0 days 0 hours 0 minutes 19 seconds 958 msec
