                         Program Version 6.0.0  -   RELEASE  -
|  1> ! pbe def2-sv(p) def2/J RI DEFGRID1 loosescf d4 GCP(DFT/SV(P)) printgap
|  2> %output
|  3>     printlevel normal
|  4> end
|  5> * xyz 0 1
|  6> C 1.7045053301 -0.9745809677 -2.9720541421
|  7> C 2.6145668223 -0.3929475091 -1.9105051882
|  8> O 1.8025263374 0.3130448554 -0.9312838913
|  9> P 1.9677229537 0.1125445175 0.6170283576
| 10> S 0.8222893279 1.2756170205 1.6940460701
| 11> O 3.5270590438 0.3277561495 0.8153160498
| 12> C 4.1343315602 0.2787360491 2.1244928907
| 13> C 5.5332665382 0.8474269725 2.0060414486
| 14> S 1.726265154 -1.9597135483 1.015381225
| 15> C -0.0742072567 -1.9432966757 1.1764419583
| 16> S -0.9431258281 -1.8351905871 -0.4234840039
| 17> P -1.8717073929 0.072529298 -0.450826395
| 18> S -1.0340816199 1.6108637324 -1.3424117167
| 19> O -2.2720156561 0.199926841 1.0719703748
| 20> C -2.6731082175 1.4564452638 1.656115212
| 21> C -3.9675707271 1.9656019527 1.0617006363
| 22> O -3.2591643097 -0.3177270456 -1.1266358968
| 23> C -3.4863843134 -0.2978082139 -2.5466902932
| 24> C -4.9569875836 -0.0181253584 -2.7869136724
| 25> H 2.3104578944 -1.3978587733 -3.7663749206
| 26> H 1.0707941644 -1.7516415071 -2.5502490182
| 27> H 1.070012704 -0.1912332204 -3.3796763966
| 28> H 3.2940750874 0.3515865303 -2.3274844064
| 29> H 3.1883280675 -1.1722085112 -1.401732409
| 30> H 3.5175920688 0.8626025559 2.8152916893
| 31> H 4.1506909076 -0.7641402555 2.4517633954
| 32> H 6.014494939 0.8117656637 2.9777499683
| 33> H 6.1117152832 0.2650143539 1.2950058728
| 34> H 5.4895478763 1.877867241 1.6645181228
| 35> H -0.3729559596 -1.1038932111 1.8045559868
| 36> H -0.3525151039 -2.8954375844 1.619625475
| 37> H -2.7704930746 1.2263810239 2.7180276527
| 38> H -1.8617952839 2.1781737328 1.5150202326
| 39> H -4.7377341695 1.2019464893 1.1318225437
| 40> H -4.283216894 2.8538553087 1.5997982697
| 41> H -3.8147728117 2.221635634 0.0138450124
| 42> H -2.8528253809 0.4779002394 -2.9910803304
| 43> H -3.1967088762 -1.2732329911 -2.9460713466
| 44> H -5.562047099 -0.7696648611 -2.288384096
| 45> H -5.2217509908 0.9617971373 -2.3996011801
| 46> H -5.1536027537 -0.0458567551 -3.8535540236
| 47> *
| 48>
| 49>                          ****END OF INPUT****

CARTESIAN COORDINATES (ANGSTROEM)
---------------------------------
  C      1.704505   -0.974581   -2.972054
  C      2.614567   -0.392948   -1.910505
  O      1.802526    0.313045   -0.931284
  P      1.967723    0.112545    0.617028
  S      0.822289    1.275617    1.694046
  O      3.527059    0.327756    0.815316
  C      4.134332    0.278736    2.124493
  C      5.533267    0.847427    2.006041
  S      1.726265   -1.959714    1.015381
  C     -0.074207   -1.943297    1.176442
  S     -0.943126   -1.835191   -0.423484
  P     -1.871707    0.072529   -0.450826
  S     -1.034082    1.610864   -1.342412
  O     -2.272016    0.199927    1.071970
  C     -2.673108    1.456445    1.656115
  C     -3.967571    1.965602    1.061701
  O     -3.259164   -0.317727   -1.126636
  C     -3.486384   -0.297808   -2.546690
  C     -4.956988   -0.018125   -2.786914
  H      2.310458   -1.397859   -3.766375
  H      1.070794   -1.751642   -2.550249
  H      1.070013   -0.191233   -3.379676
  H      3.294075    0.351587   -2.327484
  H      3.188328   -1.172209   -1.401732
  H      3.517592    0.862603    2.815292
  H      4.150691   -0.764140    2.451763
  H      6.014495    0.811766    2.977750
  H      6.111715    0.265014    1.295006
  H      5.489548    1.877867    1.664518
  H     -0.372956   -1.103893    1.804556
  H     -0.352515   -2.895438    1.619625
  H     -2.770493    1.226381    2.718028
  H     -1.861795    2.178174    1.515020
  H     -4.737734    1.201946    1.131823
  H     -4.283217    2.853855    1.599798
  H     -3.814773    2.221636    0.013845
  H     -2.852825    0.477900   -2.991080
  H     -3.196709   -1.273233   -2.946071
  H     -5.562047   -0.769665   -2.288384
  H     -5.221751    0.961797   -2.399601
  H     -5.153603   -0.045857   -3.853554

 Total Charge           Charge          ....    0
 Multiplicity           Mult            ....    1
 Number of Electrons    NEL             ....  202
 Basis Dimension        Dim             ....  334

ORBITAL ENERGIES
----------------

  NO   OCC          E(Eh)            E(eV)
   0   2.0000     -88.041129     -2395.7209
   1   2.0000     -88.034806     -2395.5489
   2   2.0000     -87.982172     -2394.1166
   3   2.0000     -87.974241     -2393.9008
   4   2.0000     -76.422780     -2079.5696
   5   2.0000     -76.418329     -2079.4484
   6   2.0000     -18.793337      -511.3927
   7   2.0000     -18.786837      -511.2158
   8   2.0000     -18.786539      -511.2077
   9   2.0000     -18.781045      -511.0582
  10   2.0000      -9.955523      -270.9036
  11   2.0000      -9.953924      -270.8600
  12   2.0000      -9.951106      -270.7834
  13   2.0000      -9.945306      -270.6255
  14   2.0000      -9.944443      -270.6021
  15   2.0000      -9.889384      -269.1038
  16   2.0000      -9.883335      -268.9392
  17   2.0000      -9.877637      -268.7842
  18   2.0000      -9.876062      -268.7413
  19   2.0000      -7.686558      -209.1619
  20   2.0000      -7.680230      -208.9897
  21   2.0000      -7.627223      -207.5473
  22   2.0000      -7.619127      -207.3270
  23   2.0000      -6.420543      -174.7119
  24   2.0000      -6.415767      -174.5819
  25   2.0000      -5.714209      -155.4915
  26   2.0000      -5.710973      -155.4035
  27   2.0000      -5.708451      -155.3348
  28   2.0000      -5.704541      -155.2285
  29   2.0000      -5.703812      -155.2086
  30   2.0000      -5.696940      -155.0216
  31   2.0000      -5.656153      -153.9118
  32   2.0000      -5.648125      -153.6933
  33   2.0000      -5.647783      -153.6840
  34   2.0000      -5.647353      -153.6723
  35   2.0000      -5.639897      -153.4694
  36   2.0000      -5.639071      -153.4469
  37   2.0000      -4.643335      -126.3516
  38   2.0000      -4.642362      -126.3251
  39   2.0000      -4.640703      -126.2800
  40   2.0000      -4.638307      -126.2147
  41   2.0000      -4.637645      -126.1967
  42   2.0000      -4.636151      -126.1561
  43   2.0000      -0.987019       -26.8581
  44   2.0000      -0.979762       -26.6607
  45   2.0000      -0.942428       -25.6448
  46   2.0000      -0.938852       -25.5474
  47   2.0000      -0.758972       -20.6527
  48   2.0000      -0.718730       -19.5576
  49   2.0000      -0.708047       -19.2669
  50   2.0000      -0.688825       -18.7439
  51   2.0000      -0.682963       -18.5844
  52   2.0000      -0.667921       -18.1751
  53   2.0000      -0.645825       -17.5738
  54   2.0000      -0.629147       -17.1200
  55   2.0000      -0.592296       -16.1172
  56   2.0000      -0.582597       -15.8533
  57   2.0000      -0.567452       -15.4411
  58   2.0000      -0.563448       -15.3322
  59   2.0000      -0.560311       -15.2468
  60   2.0000      -0.509525       -13.8649
  61   2.0000      -0.494975       -13.4689
  62   2.0000      -0.478475       -13.0200
  63   2.0000      -0.471529       -12.8310
  64   2.0000      -0.451038       -12.2734
  65   2.0000      -0.445948       -12.1348
  66   2.0000      -0.436306       -11.8725
  67   2.0000      -0.431292       -11.7361
  68   2.0000      -0.425978       -11.5915
  69   2.0000      -0.417887       -11.3713
  70   2.0000      -0.404858       -11.0167
  71   2.0000      -0.394164       -10.7258
  72   2.0000      -0.386561       -10.5189
  73   2.0000      -0.378734       -10.3059
  74   2.0000      -0.374519       -10.1912
  75   2.0000      -0.368889       -10.0380
  76   2.0000      -0.365209        -9.9378
  77   2.0000      -0.353086        -9.6080
  78   2.0000      -0.350685        -9.5426
  79   2.0000      -0.347362        -9.4522
  80   2.0000      -0.342731        -9.3262
  81   2.0000      -0.341059        -9.2807
  82   2.0000      -0.338378        -9.2077
  83   2.0000      -0.334765        -9.1094
  84   2.0000      -0.325419        -8.8551
  85   2.0000      -0.312793        -8.5115
  86   2.0000      -0.307685        -8.3725
  87   2.0000      -0.301704        -8.2098
  88   2.0000      -0.295834        -8.0501
  89   2.0000      -0.290428        -7.9029
  90   2.0000      -0.279312        -7.6005
  91   2.0000      -0.270007        -7.3473
  92   2.0000      -0.267839        -7.2883
  93   2.0000      -0.259614        -7.0644
  94   2.0000      -0.252544        -6.8721
  95   2.0000      -0.235323        -6.4035
  96   2.0000      -0.218292        -5.9400
  97   2.0000      -0.211319        -5.7503
  98   2.0000      -0.199446        -5.4272
  99   2.0000      -0.188047        -5.1170
 100   2.0000      -0.175925        -4.7872
 101   0.0000      -0.039937        -1.0867
 102   0.0000      -0.025541        -0.6950
 103   0.0000      -0.017867        -0.4862
 104   0.0000       0.007201         0.1960
 105   0.0000       0.018677         0.5082

MULLIKEN ATOMIC CHARGES
-----------------------
   0 C :   -0.289353
   1 C :   -0.004994
   2 O :   -0.334386
   3 P :    0.596774
   4 S :   -0.308705
   5 O :   -0.382365
   6 C :   -0.011097
   7 C :   -0.280464
   8 S :   -0.111297
   9 C :   -0.357672
  10 S :   -0.107997
  11 P :    0.617730
  12 S :   -0.301717
  13 O :   -0.370191
  14 C :   -0.006094
  15 C :   -0.308912
  16 O :   -0.378631
  17 C :   -0.007101
  18 C :   -0.286869
  19 H :    0.101526
  20 H :    0.123664
  21 H :    0.124366
  22 H :    0.109947
  23 H :    0.097413
  24 H :    0.105989
  25 H :    0.103120
  26 H :    0.112726
  27 H :    0.114583
  28 H :    0.123203
  29 H :    0.209051
  30 H :    0.183086
  31 H :    0.102142
  32 H :    0.128066
  33 H :    0.114804
  34 H :    0.110617
  35 H :    0.125537
  36 H :    0.101744
  37 H :    0.096620
  38 H :    0.115661
  39 H :    0.120423
  40 H :    0.109053
Sum of atomic charges:   -0.0000000

LOEWDIN ATOMIC CHARGES
----------------------
   0 C :   -0.359507
   1 C :   -0.108153
   2 O :   -0.222311
   3 P :    0.566056
   4 S :   -0.294817
   5 O :   -0.250637
   6 C :   -0.119623
   7 C :   -0.350447
   8 S :    0.054828
   9 C :   -0.476484
  10 S :    0.069776
  11 P :    0.564383
  12 S :   -0.299952
  13 O :   -0.235128
  14 C :   -0.117095
  15 C :   -0.367131
  16 O :   -0.250538
  17 C :   -0.123869
  18 C :   -0.351469
  19 H :    0.125599
  20 H :    0.118873
  21 H :    0.129667
  22 H :    0.119495
  23 H :    0.102830
  24 H :    0.109989
  25 H :    0.108021
  26 H :    0.131278
  27 H :    0.126051
  28 H :    0.130264
  29 H :    0.130223
  30 H :    0.138384
  31 H :    0.118018
  32 H :    0.111914
  33 H :    0.125116
  34 H :    0.130135
  35 H :    0.121309
  36 H :    0.103111
  37 H :    0.109103
  38 H :    0.126037
  39 H :    0.127413
  40 H :    0.129287

  Mayer bond orders larger than 0.100000
B(  0-C ,  1-C ) :   1.1674 B(  0-C , 19-H ) :   0.9379 B(  0-C , 20-H ) :   0.9372
B(  0-C , 21-H ) :   0.9429 B(  1-C ,  2-O ) :   0.8829 B(  1-C , 22-H ) :   0.9339
B(  1-C , 23-H ) :   0.9146 B(  2-O ,  3-P ) :   1.1679 B(  3-P ,  4-S ) :   1.6385
B(  3-P ,  5-O ) :   1.0892 B(  3-P ,  8-S ) :   0.9400 B(  4-S ,  8-S ) :   0.1066
B(  5-O ,  6-C ) :   0.9033 B(  6-C ,  7-C ) :   1.1600 B(  6-C , 24-H ) :   0.9113
B(  6-C , 25-H ) :   0.9282 B(  7-C , 26-H ) :   0.9418 B(  7-C , 27-H ) :   0.9510
B(  7-C , 28-H ) :   0.9506 B(  8-S ,  9-C ) :   1.0040 B(  9-C , 10-S ) :   1.0004
B(  9-C , 29-H ) :   0.8598 B(  9-C , 30-H ) :   0.9106 B( 10-S , 11-P ) :   0.9450
B( 10-S , 12-S ) :   0.1069 B( 11-P , 12-S ) :   1.6394 B( 11-P , 13-O ) :   1.1268
B( 11-P , 16-O ) :   1.0828 B( 13-O , 14-C ) :   0.8932 B( 14-C , 15-C ) :   1.1646
B( 14-C , 31-H ) :   0.9360 B( 14-C , 32-H ) :   0.9117 B( 15-C , 33-H ) :   0.9446
B( 15-C , 34-H ) :   0.9380 B( 15-C , 35-H ) :   0.9312 B( 16-O , 17-C ) :   0.9144
B( 17-C , 18-C ) :   1.1606 B( 17-C , 36-H ) :   0.8986 B( 17-C , 37-H ) :   0.9313
B( 18-C , 38-H ) :   0.9506 B( 18-C , 39-H ) :   0.9512 B( 18-C , 40-H ) :   0.9421

Dispersion correction           -0.066231140
FINAL SINGLE POINT ENERGY     -2929.514213911655

DIPOLE MOMENT
-------------

Method             : SCF
Type of density    : Electron Density
Multiplicity       :   1
Irrep              :   0
Energy             : -2929.6325349372218625 Eh
Relativity type    :
Basis              : AO
                                X                 Y                 Z
Electronic contribution:      4.139861124      -4.293217689       6.153979850
Nuclear contribution   :     -3.823017036       3.551338077      -6.086182455
                        -----------------------------------------
Total Dipole Moment    :      0.316844088      -0.741879612       0.067797395
                        -----------------------------------------
Magnitude (a.u.)       :      0.809550506
Magnitude (Debye)      :      2.057713857

Rotational constants in cm-1:             0.013488             0.005083             0.004640
Rotational constants in MHz :           404.364815           152.370943           139.106515

                             ****ORCA TERMINATED NORMALLY****
TOTAL RUN TIME: 0 days 0 hours 0 minutes 20 seconds 935 msec
