                         Program Version 6.0.0  -   RELEASE  -
|  1> ! pbe def2-sv(p) def2/J RI DEFGRID1 loosescf d4 GCP(DFT/SV(P)) printgap
|  2> %output
|  3>     printlevel normal
|  4> end
|  5> * xyz 0 1
|  6> C 2.8054093865 -3.1047336746 0.8704576052
|  7> C 1.6267151202 -2.8406700307 -0.0411473381
|  8> O 1.2457497287 -1.4460671192 -0.0399900995
|  9> P 2.1913201419 -0.3296377643 -0.6415516639
| 10> S 3.1915114556 -0.8117112366 -2.2543112377
| 11> O 3.0824146711 0.0737492088 0.6177288823
| 12> C 4.2689001579 0.8802087857 0.4883435332
| 13> C 5.1485884291 0.6100321703 1.6927989216
| 14> S 0.8225872758 1.2689070594 -0.8559390475
| 15> C 0.319206427 1.4569332885 0.8864031589
| 16> S -0.8330724823 0.1923872278 1.4604297533
| 17> P -2.39019521 0.629520929 0.0740142093
| 18> S -2.6088670637 2.5107630231 -0.4121688117
| 19> O -3.6315024008 -0.1425534159 0.69784994
| 20> C -4.0741567108 -0.0313878268 2.0651843624
| 21> C -4.3125876649 1.4010986066 2.4926287375
| 22> O -2.1036481093 -0.2209308057 -1.225853211
| 23> C -1.9450751814 -1.6579648472 -1.2242477504
| 24> C -3.2226702767 -2.3373317199 -1.6719532049
| 25> H 2.9810302657 -4.1743926244 0.9286912727
| 26> H 3.6957814665 -2.6220276912 0.4705160901
| 27> H 2.6054173856 -2.714144849 1.8646445649
| 28> H 0.7275320271 -3.3550534342 0.3002340167
| 29> H 1.8593180871 -3.1328846863 -1.0699579328
| 30> H 4.7727508548 0.6130711295 -0.446681095
| 31> H 3.969129035 1.930915441 0.439630043
| 32> H 4.6093292927 0.8384434979 2.6074480044
| 33> H 5.4487113724 -0.433634934 1.712372819
| 34> H 6.0336079729 1.2347652722 1.6325257611
| 35> H -0.1660243675 2.4316938748 0.9358342806
| 36> H 1.1901101197 1.4051435423 1.5342967203
| 37> H -4.9986504692 -0.6112123852 2.0830379608
| 38> H -3.323962587 -0.5055040894 2.7040163425
| 39> H -3.3763784974 1.9571243959 2.4846480136
| 40> H -5.0052823406 1.8904884115 1.8120713753
| 41> H -4.7243005361 1.4135334621 3.4966386613
| 42> H -1.1257040557 -1.8473171085 -1.9222909825
| 43> H -1.6521512479 -1.9818707162 -0.2210744278
| 44> H -3.0598816011 -3.4096801456 -1.714924871
| 45> H -4.0267808326 -2.1202570519 -0.9738983354
| 46> H -3.5080086816 -1.9771236281 -2.656538608
| 47> *
| 48>
| 49>                          ****END OF INPUT****

CARTESIAN COORDINATES (ANGSTROEM)
---------------------------------
  C      2.805409   -3.104734    0.870458
  C      1.626715   -2.840670   -0.041147
  O      1.245750   -1.446067   -0.039990
  P      2.191320   -0.329638   -0.641552
  S      3.191511   -0.811711   -2.254311
  O      3.082415    0.073749    0.617729
  C      4.268900    0.880209    0.488344
  C      5.148588    0.610032    1.692799
  S      0.822587    1.268907   -0.855939
  C      0.319206    1.456933    0.886403
  S     -0.833072    0.192387    1.460430
  P     -2.390195    0.629521    0.074014
  S     -2.608867    2.510763   -0.412169
  O     -3.631502   -0.142553    0.697850
  C     -4.074157   -0.031388    2.065184
  C     -4.312588    1.401099    2.492629
  O     -2.103648   -0.220931   -1.225853
  C     -1.945075   -1.657965   -1.224248
  C     -3.222670   -2.337332   -1.671953
  H      2.981030   -4.174393    0.928691
  H      3.695781   -2.622028    0.470516
  H      2.605417   -2.714145    1.864645
  H      0.727532   -3.355053    0.300234
  H      1.859318   -3.132885   -1.069958
  H      4.772751    0.613071   -0.446681
  H      3.969129    1.930915    0.439630
  H      4.609329    0.838443    2.607448
  H      5.448711   -0.433635    1.712373
  H      6.033608    1.234765    1.632526
  H     -0.166024    2.431694    0.935834
  H      1.190110    1.405144    1.534297
  H     -4.998650   -0.611212    2.083038
  H     -3.323963   -0.505504    2.704016
  H     -3.376378    1.957124    2.484648
  H     -5.005282    1.890488    1.812071
  H     -4.724301    1.413533    3.496639
  H     -1.125704   -1.847317   -1.922291
  H     -1.652151   -1.981871   -0.221074
  H     -3.059882   -3.409680   -1.714925
  H     -4.026781   -2.120257   -0.973898
  H     -3.508009   -1.977124   -2.656539

 Total Charge           Charge          ....    0
 Multiplicity           Mult            ....    1
 Number of Electrons    NEL             ....  202
 Basis Dimension        Dim             ....  334

ORBITAL ENERGIES
----------------

  NO   OCC          E(Eh)            E(eV)
   0   2.0000     -88.042743     -2395.7648
   1   2.0000     -88.040751     -2395.7106
   2   2.0000     -87.988408     -2394.2863
   3   2.0000     -87.981620     -2394.1016
   4   2.0000     -76.426821     -2079.6795
   5   2.0000     -76.426029     -2079.6580
   6   2.0000     -18.797768      -511.5133
   7   2.0000     -18.797577      -511.5081
   8   2.0000     -18.794526      -511.4251
   9   2.0000     -18.786719      -511.2126
  10   2.0000      -9.961262      -271.0597
  11   2.0000      -9.957772      -270.9648
  12   2.0000      -9.957545      -270.9586
  13   2.0000      -9.956857      -270.9399
  14   2.0000      -9.950676      -270.7716
  15   2.0000      -9.893401      -269.2131
  16   2.0000      -9.889650      -269.1111
  17   2.0000      -9.884877      -268.9812
  18   2.0000      -9.883472      -268.9430
  19   2.0000      -7.687782      -209.1952
  20   2.0000      -7.685733      -209.1394
  21   2.0000      -7.633575      -207.7201
  22   2.0000      -7.626987      -207.5409
  23   2.0000      -6.424869      -174.8296
  24   2.0000      -6.423033      -174.7796
  25   2.0000      -5.715482      -155.5262
  26   2.0000      -5.713989      -155.4855
  27   2.0000      -5.712286      -155.4392
  28   2.0000      -5.710046      -155.3783
  29   2.0000      -5.704926      -155.2389
  30   2.0000      -5.702547      -155.1742
  31   2.0000      -5.662485      -154.0840
  32   2.0000      -5.656079      -153.9097
  33   2.0000      -5.654134      -153.8568
  34   2.0000      -5.653822      -153.8483
  35   2.0000      -5.647521      -153.6769
  36   2.0000      -5.647016      -153.6631
  37   2.0000      -4.647280      -126.4589
  38   2.0000      -4.646887      -126.4482
  39   2.0000      -4.645918      -126.4219
  40   2.0000      -4.645163      -126.4013
  41   2.0000      -4.645080      -126.3990
  42   2.0000      -4.643035      -126.3434
  43   2.0000      -0.991030       -26.9673
  44   2.0000      -0.988175       -26.8896
  45   2.0000      -0.950483       -25.8640
  46   2.0000      -0.943745       -25.6806
  47   2.0000      -0.764206       -20.7951
  48   2.0000      -0.724108       -19.7040
  49   2.0000      -0.711709       -19.3666
  50   2.0000      -0.694337       -18.8939
  51   2.0000      -0.691172       -18.8077
  52   2.0000      -0.675509       -18.3815
  53   2.0000      -0.653181       -17.7740
  54   2.0000      -0.638571       -17.3764
  55   2.0000      -0.601455       -16.3664
  56   2.0000      -0.590290       -16.0626
  57   2.0000      -0.572554       -15.5800
  58   2.0000      -0.572367       -15.5749
  59   2.0000      -0.567769       -15.4498
  60   2.0000      -0.509856       -13.8739
  61   2.0000      -0.500816       -13.6279
  62   2.0000      -0.481460       -13.1012
  63   2.0000      -0.473995       -12.8981
  64   2.0000      -0.464682       -12.6446
  65   2.0000      -0.449714       -12.2373
  66   2.0000      -0.439687       -11.9645
  67   2.0000      -0.436017       -11.8646
  68   2.0000      -0.432614       -11.7720
  69   2.0000      -0.419237       -11.4080
  70   2.0000      -0.412518       -11.2252
  71   2.0000      -0.404034       -10.9943
  72   2.0000      -0.399709       -10.8766
  73   2.0000      -0.384575       -10.4648
  74   2.0000      -0.384165       -10.4537
  75   2.0000      -0.369971       -10.0674
  76   2.0000      -0.365610        -9.9487
  77   2.0000      -0.362666        -9.8686
  78   2.0000      -0.355067        -9.6619
  79   2.0000      -0.353798        -9.6273
  80   2.0000      -0.349651        -9.5145
  81   2.0000      -0.348615        -9.4863
  82   2.0000      -0.347929        -9.4676
  83   2.0000      -0.339285        -9.2324
  84   2.0000      -0.335288        -9.1236
  85   2.0000      -0.324671        -8.8347
  86   2.0000      -0.318932        -8.6786
  87   2.0000      -0.300661        -8.1814
  88   2.0000      -0.298545        -8.1238
  89   2.0000      -0.294079        -8.0023
  90   2.0000      -0.286279        -7.7901
  91   2.0000      -0.279072        -7.5939
  92   2.0000      -0.276514        -7.5243
  93   2.0000      -0.266985        -7.2650
  94   2.0000      -0.258289        -7.0284
  95   2.0000      -0.231815        -6.3080
  96   2.0000      -0.219045        -5.9605
  97   2.0000      -0.208169        -5.6646
  98   2.0000      -0.205144        -5.5822
  99   2.0000      -0.199619        -5.4319
 100   2.0000      -0.196364        -5.3433
 101   0.0000      -0.041302        -1.1239
 102   0.0000      -0.019392        -0.5277
 103   0.0000      -0.010394        -0.2828
 104   0.0000      -0.000186        -0.0051
 105   0.0000       0.007826         0.2130

MULLIKEN ATOMIC CHARGES
-----------------------
   0 C :   -0.308706
   1 C :   -0.009828
   2 O :   -0.367130
   3 P :    0.607762
   4 S :   -0.325202
   5 O :   -0.389833
   6 C :   -0.011032
   7 C :   -0.284252
   8 S :   -0.047387
   9 C :   -0.363202
  10 S :   -0.102008
  11 P :    0.594810
  12 S :   -0.307354
  13 O :   -0.380762
  14 C :   -0.010384
  15 C :   -0.308504
  16 O :   -0.344399
  17 C :   -0.021432
  18 C :   -0.283179
  19 H :    0.112916
  20 H :    0.126022
  21 H :    0.117691
  22 H :    0.103896
  23 H :    0.114245
  24 H :    0.111768
  25 H :    0.101586
  26 H :    0.114057
  27 H :    0.120878
  28 H :    0.114810
  29 H :    0.195386
  30 H :    0.182701
  31 H :    0.109074
  32 H :    0.111331
  33 H :    0.124400
  34 H :    0.128761
  35 H :    0.110985
  36 H :    0.116720
  37 H :    0.101085
  38 H :    0.105136
  39 H :    0.117199
  40 H :    0.121373
Sum of atomic charges:    0.0000000

LOEWDIN ATOMIC CHARGES
----------------------
   0 C :   -0.365334
   1 C :   -0.116160
   2 O :   -0.241378
   3 P :    0.561176
   4 S :   -0.322874
   5 O :   -0.252109
   6 C :   -0.121130
   7 C :   -0.350417
   8 S :    0.104490
   9 C :   -0.481841
  10 S :    0.069517
  11 P :    0.567104
  12 S :   -0.306787
  13 O :   -0.246173
  14 C :   -0.115203
  15 C :   -0.369409
  16 O :   -0.228913
  17 C :   -0.116681
  18 C :   -0.358545
  19 H :    0.131131
  20 H :    0.122447
  21 H :    0.126663
  22 H :    0.115674
  23 H :    0.112438
  24 H :    0.109528
  25 H :    0.110553
  26 H :    0.125274
  27 H :    0.127743
  28 H :    0.132143
  29 H :    0.132712
  30 H :    0.130700
  31 H :    0.120894
  32 H :    0.107242
  33 H :    0.120640
  34 H :    0.131341
  35 H :    0.130006
  36 H :    0.121158
  37 H :    0.100794
  38 H :    0.127149
  39 H :    0.124763
  40 H :    0.129671

  Mayer bond orders larger than 0.100000
B(  0-C ,  1-C ) :   1.1668 B(  0-C , 19-H ) :   0.9370 B(  0-C , 20-H ) :   0.9344
B(  0-C , 21-H ) :   0.9458 B(  1-C ,  2-O ) :   0.9037 B(  1-C , 22-H ) :   0.9307
B(  1-C , 23-H ) :   0.9171 B(  2-O ,  3-P ) :   1.1160 B(  3-P ,  4-S ) :   1.6480
B(  3-P ,  5-O ) :   1.0603 B(  3-P ,  8-S ) :   0.9852 B(  5-O ,  6-C ) :   0.8979
B(  6-C ,  7-C ) :   1.1605 B(  6-C , 24-H ) :   0.9074 B(  6-C , 25-H ) :   0.9286
B(  7-C , 26-H ) :   0.9513 B(  7-C , 27-H ) :   0.9509 B(  7-C , 28-H ) :   0.9416
B(  8-S ,  9-C ) :   0.9917 B(  9-C , 10-S ) :   1.0045 B(  9-C , 29-H ) :   0.8813
B(  9-C , 30-H ) :   0.8937 B( 10-S , 11-P ) :   0.9505 B( 10-S , 12-S ) :   0.1113
B( 11-P , 12-S ) :   1.6443 B( 11-P , 13-O ) :   1.0787 B( 11-P , 16-O ) :   1.1365
B( 13-O , 14-C ) :   0.9122 B( 14-C , 15-C ) :   1.1677 B( 14-C , 31-H ) :   0.9329
B( 14-C , 32-H ) :   0.9261 B( 15-C , 33-H ) :   0.9318 B( 15-C , 34-H ) :   0.9426
B( 15-C , 35-H ) :   0.9345 B( 16-O , 17-C ) :   0.8962 B( 17-C , 18-C ) :   1.1585
B( 17-C , 36-H ) :   0.9324 B( 17-C , 37-H ) :   0.9111 B( 18-C , 38-H ) :   0.9410
B( 18-C , 39-H ) :   0.9430 B( 18-C , 40-H ) :   0.9465

Dispersion correction           -0.064601976
FINAL SINGLE POINT ENERGY     -2929.517956794105

DIPOLE MOMENT
-------------

Method             : SCF
Type of density    : Electron Density
Multiplicity       :   1
Irrep              :   0
Energy             : -2929.6388874472872885 Eh
Relativity type    :
Basis              : AO
                                X                 Y                 Z
Electronic contribution:     -2.666718250      13.298229669     -13.617979887
Nuclear contribution   :      2.885004283     -14.617133282      15.579434952
                        -----------------------------------------
Total Dipole Moment    :      0.218286034      -1.318903614       1.961455064
                        -----------------------------------------
Magnitude (a.u.)       :      2.373702067
Magnitude (Debye)      :      6.033471168

Rotational constants in cm-1:             0.012657             0.004753             0.004409
Rotational constants in MHz :           379.455909           142.493408           132.166895

                             ****ORCA TERMINATED NORMALLY****
TOTAL RUN TIME: 0 days 0 hours 0 minutes 20 seconds 930 msec
