                         Program Version 6.0.0  -   RELEASE  -
|  1> ! pbe def2-sv(p) def2/J RI DEFGRID1 loosescf d4 GCP(DFT/SV(P)) printgap
|  2> %output
|  3>     printlevel normal
|  4> end
|  5> * xyz 0 1
|  6> C 4.8302025901 -2.5198184404 -1.5721981567
|  7> C 3.9304740071 -1.3012994309 -1.6106673813
|  8> O 2.9618560612 -1.4332729731 -0.5498288086
|  9> P 2.0686772711 -0.2041807592 -0.090423189
| 10> S 3.0511749646 1.4481010013 0.3102642412
| 11> O 1.24893939 -0.8564159396 1.0922915062
| 12> C 1.551722832 -0.5937163995 2.4759514412
| 13> C 2.8089279433 -1.3191247255 2.9064229736
| 14> S 0.6259828077 -0.074211041 -1.6290359323
| 15> C 0.0246487658 1.5861927571 -1.2229520928
| 16> S -0.6966044497 1.6993531504 0.4390369404
| 17> P -2.2838635011 0.3483813942 0.1195526007
| 18> S -3.0834517149 0.2666936173 -1.671592892
| 19> O -3.3274523068 0.6692439354 1.2780050967
| 20> C -4.4027419668 1.6101239539 1.1103940863
| 21> C -3.9001909277 3.0348828437 0.9977167854
| 22> O -1.6239361831 -0.9764147047 0.6806802628
| 23> C -2.152179311 -2.2927252655 0.3994031801
| 24> C -1.2906823039 -2.9909153205 -0.6342296138
| 25> H 5.356370552 -2.5677752252 -0.6231842734
| 26> H 4.2365100765 -3.421276911 -1.6920970113
| 27> H 5.5522844631 -2.4540443098 -2.3793461714
| 28> H 3.3920612192 -1.2314206685 -2.5599868985
| 29> H 4.4955985057 -0.3767744745 -1.4517283172
| 30> H 1.6589458854 0.4876861399 2.6124581368
| 31> H 0.6683838382 -0.9451197147 3.0110486002
| 32> H 2.9742815602 -1.1589371858 3.9671425346
| 33> H 2.7159696661 -2.3834764713 2.7082945883
| 34> H 3.6619618628 -0.9304889263 2.3510829605
| 35> H -0.7297918516 1.8294357131 -1.970086772
| 36> H 0.8532750363 2.2932957106 -1.2449509774
| 37> H -4.9690328918 1.3302469908 0.2162665901
| 38> H -5.0167585822 1.4670948035 2.0004648475
| 39> H -3.248051123 3.2734738275 1.8341956099
| 40> H -3.3409469353 3.1602294735 0.0713843192
| 41> H -4.7458936818 3.7149777871 0.9928889741
| 42> H -2.1316891118 -2.8152916262 1.3570817545
| 43> H -3.1853210485 -2.2016871341 0.0516922598
| 44> H -1.3607789124 -2.477715302 -1.5913180095
| 45> H -0.2513501567 -2.9865418528 -0.3139364421
| 46> H -1.6296717704 -4.0150183655 -0.7524603851
| 47> *
| 48>
| 49>                          ****END OF INPUT****

CARTESIAN COORDINATES (ANGSTROEM)
---------------------------------
  C      4.830203   -2.519818   -1.572198
  C      3.930474   -1.301299   -1.610667
  O      2.961856   -1.433273   -0.549829
  P      2.068677   -0.204181   -0.090423
  S      3.051175    1.448101    0.310264
  O      1.248939   -0.856416    1.092292
  C      1.551723   -0.593716    2.475951
  C      2.808928   -1.319125    2.906423
  S      0.625983   -0.074211   -1.629036
  C      0.024649    1.586193   -1.222952
  S     -0.696604    1.699353    0.439037
  P     -2.283864    0.348381    0.119553
  S     -3.083452    0.266694   -1.671593
  O     -3.327452    0.669244    1.278005
  C     -4.402742    1.610124    1.110394
  C     -3.900191    3.034883    0.997717
  O     -1.623936   -0.976415    0.680680
  C     -2.152179   -2.292725    0.399403
  C     -1.290682   -2.990915   -0.634230
  H      5.356371   -2.567775   -0.623184
  H      4.236510   -3.421277   -1.692097
  H      5.552284   -2.454044   -2.379346
  H      3.392061   -1.231421   -2.559987
  H      4.495599   -0.376774   -1.451728
  H      1.658946    0.487686    2.612458
  H      0.668384   -0.945120    3.011049
  H      2.974282   -1.158937    3.967143
  H      2.715970   -2.383476    2.708295
  H      3.661962   -0.930489    2.351083
  H     -0.729792    1.829436   -1.970087
  H      0.853275    2.293296   -1.244951
  H     -4.969033    1.330247    0.216267
  H     -5.016759    1.467095    2.000465
  H     -3.248051    3.273474    1.834196
  H     -3.340947    3.160229    0.071384
  H     -4.745894    3.714978    0.992889
  H     -2.131689   -2.815292    1.357082
  H     -3.185321   -2.201687    0.051692
  H     -1.360779   -2.477715   -1.591318
  H     -0.251350   -2.986542   -0.313936
  H     -1.629672   -4.015018   -0.752460

 Total Charge           Charge          ....    0
 Multiplicity           Mult            ....    1
 Number of Electrons    NEL             ....  202
 Basis Dimension        Dim             ....  334

ORBITAL ENERGIES
----------------

  NO   OCC          E(Eh)            E(eV)
   0   2.0000     -88.043408     -2395.7829
   1   2.0000     -88.041188     -2395.7225
   2   2.0000     -87.988677     -2394.2936
   3   2.0000     -87.988165     -2394.2797
   4   2.0000     -76.425592     -2079.6461
   5   2.0000     -76.425313     -2079.6385
   6   2.0000     -18.795439      -511.4499
   7   2.0000     -18.791856      -511.3524
   8   2.0000     -18.788292      -511.2554
   9   2.0000     -18.784596      -511.1548
  10   2.0000      -9.954755      -270.8827
  11   2.0000      -9.954038      -270.8631
  12   2.0000      -9.950998      -270.7804
  13   2.0000      -9.949262      -270.7332
  14   2.0000      -9.947878      -270.6955
  15   2.0000      -9.889718      -269.1129
  16   2.0000      -9.883303      -268.9383
  17   2.0000      -9.881838      -268.8985
  18   2.0000      -9.875221      -268.7184
  19   2.0000      -7.688371      -209.2112
  20   2.0000      -7.686183      -209.1517
  21   2.0000      -7.633634      -207.7217
  22   2.0000      -7.633095      -207.7071
  23   2.0000      -6.423250      -174.7855
  24   2.0000      -6.422910      -174.7763
  25   2.0000      -5.716223      -155.5463
  26   2.0000      -5.714039      -155.4869
  27   2.0000      -5.713033      -155.4595
  28   2.0000      -5.710751      -155.3974
  29   2.0000      -5.705183      -155.2459
  30   2.0000      -5.703082      -155.1887
  31   2.0000      -5.662420      -154.0823
  32   2.0000      -5.661902      -154.0682
  33   2.0000      -5.654441      -153.8652
  34   2.0000      -5.653772      -153.8469
  35   2.0000      -5.653690      -153.8447
  36   2.0000      -5.653421      -153.8374
  37   2.0000      -4.645568      -126.4123
  38   2.0000      -4.645313      -126.4054
  39   2.0000      -4.645064      -126.3986
  40   2.0000      -4.644618      -126.3865
  41   2.0000      -4.643842      -126.3654
  42   2.0000      -4.643584      -126.3583
  43   2.0000      -0.987710       -26.8770
  44   2.0000      -0.983718       -26.7683
  45   2.0000      -0.946243       -25.7486
  46   2.0000      -0.941435       -25.6177
  47   2.0000      -0.765665       -20.8348
  48   2.0000      -0.721539       -19.6341
  49   2.0000      -0.707850       -19.2616
  50   2.0000      -0.687532       -18.7087
  51   2.0000      -0.683323       -18.5942
  52   2.0000      -0.672068       -18.2879
  53   2.0000      -0.649993       -17.6872
  54   2.0000      -0.639129       -17.3916
  55   2.0000      -0.600778       -16.3480
  56   2.0000      -0.592740       -16.1293
  57   2.0000      -0.571678       -15.5561
  58   2.0000      -0.564842       -15.3701
  59   2.0000      -0.558081       -15.1861
  60   2.0000      -0.504429       -13.7262
  61   2.0000      -0.498133       -13.5549
  62   2.0000      -0.477060       -12.9815
  63   2.0000      -0.468089       -12.7373
  64   2.0000      -0.456914       -12.4333
  65   2.0000      -0.442637       -12.0448
  66   2.0000      -0.438219       -11.9245
  67   2.0000      -0.434479       -11.8228
  68   2.0000      -0.427613       -11.6359
  69   2.0000      -0.414437       -11.2774
  70   2.0000      -0.406861       -11.0712
  71   2.0000      -0.393192       -10.6993
  72   2.0000      -0.392568       -10.6823
  73   2.0000      -0.382274       -10.4022
  74   2.0000      -0.378547       -10.3008
  75   2.0000      -0.373200       -10.1553
  76   2.0000      -0.372008       -10.1228
  77   2.0000      -0.358166        -9.7462
  78   2.0000      -0.353680        -9.6241
  79   2.0000      -0.348414        -9.4808
  80   2.0000      -0.346988        -9.4420
  81   2.0000      -0.345213        -9.3937
  82   2.0000      -0.342627        -9.3234
  83   2.0000      -0.337508        -9.1841
  84   2.0000      -0.332264        -9.0414
  85   2.0000      -0.319089        -8.6828
  86   2.0000      -0.304856        -8.2955
  87   2.0000      -0.301315        -8.1992
  88   2.0000      -0.295439        -8.0393
  89   2.0000      -0.288540        -7.8516
  90   2.0000      -0.280516        -7.6332
  91   2.0000      -0.277938        -7.5631
  92   2.0000      -0.267001        -7.2655
  93   2.0000      -0.262957        -7.1554
  94   2.0000      -0.259525        -7.0620
  95   2.0000      -0.232369        -6.3231
  96   2.0000      -0.217756        -5.9254
  97   2.0000      -0.214792        -5.8448
  98   2.0000      -0.207802        -5.6546
  99   2.0000      -0.202315        -5.5053
 100   2.0000      -0.198935        -5.4133
 101   0.0000      -0.045283        -1.2322
 102   0.0000      -0.024041        -0.6542
 103   0.0000       0.000465         0.0127
 104   0.0000       0.004575         0.1245
 105   0.0000       0.008679         0.2362

MULLIKEN ATOMIC CHARGES
-----------------------
   0 C :   -0.279310
   1 C :   -0.014659
   2 O :   -0.377474
   3 P :    0.621692
   4 S :   -0.339683
   5 O :   -0.351994
   6 C :   -0.002836
   7 C :   -0.302187
   8 S :   -0.079556
   9 C :   -0.359883
  10 S :   -0.074031
  11 P :    0.612072
  12 S :   -0.341081
  13 O :   -0.372522
  14 C :   -0.004181
  15 C :   -0.313620
  16 O :   -0.355572
  17 C :   -0.001228
  18 C :   -0.293216
  19 H :    0.119105
  20 H :    0.117341
  21 H :    0.113096
  22 H :    0.104373
  23 H :    0.106821
  24 H :    0.113206
  25 H :    0.104442
  26 H :    0.110985
  27 H :    0.113300
  28 H :    0.120501
  29 H :    0.190493
  30 H :    0.192014
  31 H :    0.111018
  32 H :    0.104525
  33 H :    0.118028
  34 H :    0.124317
  35 H :    0.112749
  36 H :    0.102613
  37 H :    0.101562
  38 H :    0.127344
  39 H :    0.118668
  40 H :    0.102769
Sum of atomic charges:    0.0000000

LOEWDIN ATOMIC CHARGES
----------------------
   0 C :   -0.350018
   1 C :   -0.120815
   2 O :   -0.247699
   3 P :    0.569661
   4 S :   -0.327308
   5 O :   -0.226519
   6 C :   -0.117416
   7 C :   -0.363860
   8 S :    0.095181
   9 C :   -0.479813
  10 S :    0.100784
  11 P :    0.570990
  12 S :   -0.328383
  13 O :   -0.248556
  14 C :   -0.120170
  15 C :   -0.368777
  16 O :   -0.236297
  17 C :   -0.110528
  18 C :   -0.362368
  19 H :    0.128128
  20 H :    0.127375
  21 H :    0.131464
  22 H :    0.109664
  23 H :    0.109331
  24 H :    0.109543
  25 H :    0.118187
  26 H :    0.129804
  27 H :    0.124730
  28 H :    0.121726
  29 H :    0.130708
  30 H :    0.131027
  31 H :    0.109913
  32 H :    0.118343
  33 H :    0.124595
  34 H :    0.120264
  35 H :    0.130800
  36 H :    0.116559
  37 H :    0.107745
  38 H :    0.123612
  39 H :    0.123111
  40 H :    0.125279

  Mayer bond orders larger than 0.100000
B(  0-C ,  1-C ) :   1.1606 B(  0-C , 19-H ) :   0.9514 B(  0-C , 20-H ) :   0.9505
B(  0-C , 21-H ) :   0.9418 B(  1-C ,  2-O ) :   0.9042 B(  1-C , 22-H ) :   0.9274
B(  1-C , 23-H ) :   0.9123 B(  2-O ,  3-P ) :   1.1067 B(  3-P ,  4-S ) :   1.5922
B(  3-P ,  5-O ) :   1.1311 B(  3-P ,  8-S ) :   0.9608 B(  4-S ,  8-S ) :   0.1073
B(  5-O ,  6-C ) :   0.9006 B(  6-C ,  7-C ) :   1.1627 B(  6-C , 24-H ) :   0.9139
B(  6-C , 25-H ) :   0.9328 B(  7-C , 26-H ) :   0.9403 B(  7-C , 27-H ) :   0.9469
B(  7-C , 28-H ) :   0.9362 B(  8-S ,  9-C ) :   1.0075 B(  9-C , 10-S ) :   1.0027
B(  9-C , 29-H ) :   0.8862 B(  9-C , 30-H ) :   0.8836 B( 10-S , 11-P ) :   0.9561
B( 10-S , 12-S ) :   0.1094 B( 11-P , 12-S ) :   1.5811 B( 11-P , 13-O ) :   1.1117
B( 11-P , 16-O ) :   1.1427 B( 13-O , 14-C ) :   0.9107 B( 14-C , 15-C ) :   1.1646
B( 14-C , 31-H ) :   0.9151 B( 14-C , 32-H ) :   0.9339 B( 15-C , 33-H ) :   0.9450
B( 15-C , 34-H ) :   0.9359 B( 15-C , 35-H ) :   0.9381 B( 16-O , 17-C ) :   0.8940
B( 17-C , 18-C ) :   1.1720 B( 17-C , 36-H ) :   0.9341 B( 17-C , 37-H ) :   0.9135
B( 18-C , 38-H ) :   0.9386 B( 18-C , 39-H ) :   0.9428 B( 18-C , 40-H ) :   0.9394

Dispersion correction           -0.066485507
FINAL SINGLE POINT ENERGY     -2929.528228318706

DIPOLE MOMENT
-------------

Method             : SCF
Type of density    : Electron Density
Multiplicity       :   1
Irrep              :   0
Energy             : -2929.6459150126897839 Eh
Relativity type    :
Basis              : AO
                                X                 Y                 Z
Electronic contribution:     -4.864970527      11.209041381      -5.744220065
Nuclear contribution   :      4.834194240     -11.905879606       6.272023859
                        -----------------------------------------
Total Dipole Moment    :     -0.030776288      -0.696838225       0.527803794
                        -----------------------------------------
Magnitude (a.u.)       :      0.874704256
Magnitude (Debye)      :      2.223321530

Rotational constants in cm-1:             0.013114             0.005009             0.004787
Rotational constants in MHz :           393.143098           150.162126           143.516460

                             ****ORCA TERMINATED NORMALLY****
TOTAL RUN TIME: 0 days 0 hours 0 minutes 21 seconds 644 msec
