                         Program Version 6.0.0  -   RELEASE  -
|  1> ! wb97x-v def2-tzvp def2/J RIJCOSX DEFGRID2 scfconv7 GCP(DFT/TZ) printgap
|  2> %output
|  3>     printlevel normal
|  4> end
|  5> * xyz 0 1
|  6> C -2.744351798690394 -0.2571453744332617 -0.007945377567229421
|  7> C -2.3568297507740423 1.0977505415629942 0.01701219777325211
|  8> C -1.0231631574894362 1.4388817438798278 0.025547976982994516
|  9> C -0.013692409798600435 0.4458898853440305 0.0062148924317562936
| 10> C -0.4073090605146989 -0.9325673467497066 -0.004212420702513935
| 11> C -1.7895775899776858 -1.2456372395799535 -0.015702606283119945
| 12> C 0.5756992065460431 -1.9516172242290848 0.0007928848391229152
| 13> C 1.9084611920176913 -1.611160847042502 0.012910065445440889
| 14> C 2.313323004847015 -0.26631494946428996 0.01066801559326269
| 15> C 1.3847389880017442 0.7650956999766766 0.005283884066211388
| 16> N 1.8054701466701661 2.08576268843415 0.06407697107518888
| 17> H -3.798283379885955 -0.5165537755722656 -0.016403095321296995
| 18> H -3.1133912781266977 1.87555018874933 0.033267848084604874
| 19> H -0.756791574679791 2.4898340819448923 0.056500605673968994
| 20> H -2.081182932528387 -2.292182030408451 -0.028127586725019426
| 21> H 0.2607669538606255 -2.9904305947535845 -0.005508877151464412
| 22> H 2.668301028835047 -2.3868823416038967 0.015036080550262837
| 23> H 3.371906300595239 -0.021839946665166126 0.008858385376052512
| 24> H 2.772060877638257 2.2169261243003446 -0.19865657556582145
| 25> H 1.2033470763203973 2.7611001478128427 -0.3828492823523889
| 26> *
| 27>
| 28>                          ****END OF INPUT****

CARTESIAN COORDINATES (ANGSTROEM)
---------------------------------
  C     -2.744352   -0.257145   -0.007945
  C     -2.356830    1.097751    0.017012
  C     -1.023163    1.438882    0.025548
  C     -0.013692    0.445890    0.006215
  C     -0.407309   -0.932567   -0.004212
  C     -1.789578   -1.245637   -0.015703
  C      0.575699   -1.951617    0.000793
  C      1.908461   -1.611161    0.012910
  C      2.313323   -0.266315    0.010668
  C      1.384739    0.765096    0.005284
  N      1.805470    2.085763    0.064077
  H     -3.798283   -0.516554   -0.016403
  H     -3.113391    1.875550    0.033268
  H     -0.756792    2.489834    0.056501
  H     -2.081183   -2.292182   -0.028128
  H      0.260767   -2.990431   -0.005509
  H      2.668301   -2.386882    0.015036
  H      3.371906   -0.021840    0.008858
  H      2.772061    2.216926   -0.198657
  H      1.203347    2.761100   -0.382849

 Total Charge           Charge          ....    0
 Multiplicity           Mult            ....    1
 Number of Electrons    NEL             ....   76
 Basis Dimension        Dim             ....  395

ORBITAL ENERGIES
----------------

  NO   OCC          E(Eh)            E(eV)
   0   2.0000     -16.534794      -449.9346
   1   2.0000     -12.095015      -329.1221
   2   2.0000     -12.060215      -328.1751
   3   2.0000     -12.058458      -328.1273
   4   2.0000     -12.054816      -328.0282
   5   2.0000     -12.051975      -327.9509
   6   2.0000     -12.050481      -327.9103
   7   2.0000     -12.049193      -327.8752
   8   2.0000     -12.048997      -327.8699
   9   2.0000     -12.040311      -327.6335
  10   2.0000     -12.037876      -327.5673
  11   2.0000      -1.496228       -40.7144
  12   2.0000      -1.392793       -37.8998
  13   2.0000      -1.342195       -36.5230
  14   2.0000      -1.292761       -35.1778
  15   2.0000      -1.268642       -34.5215
  16   2.0000      -1.240020       -33.7427
  17   2.0000      -1.134923       -30.8828
  18   2.0000      -1.126304       -30.6483
  19   2.0000      -1.092298       -29.7230
  20   2.0000      -1.022832       -27.8327
  21   2.0000      -1.015816       -27.6418
  22   2.0000      -0.985039       -26.8043
  23   2.0000      -0.955139       -25.9907
  24   2.0000      -0.949693       -25.8425
  25   2.0000      -0.908166       -24.7125
  26   2.0000      -0.902005       -24.5448
  27   2.0000      -0.886150       -24.1134
  28   2.0000      -0.857843       -23.3431
  29   2.0000      -0.837677       -22.7944
  30   2.0000      -0.829033       -22.5591
  31   2.0000      -0.814359       -22.1598
  32   2.0000      -0.802195       -21.8288
  33   2.0000      -0.777028       -21.1440
  34   2.0000      -0.717824       -19.5330
  35   2.0000      -0.666127       -18.1263
  36   2.0000      -0.628060       -17.0904
  37   2.0000      -0.584899       -15.9159
  38   0.0000      -0.280698        -7.6382
  39   0.0000      -0.254258        -6.9187
  40   0.0000      -0.195559        -5.3214
  41   0.0000      -0.126726        -3.4484
  42   0.0000      -0.082099        -2.2340

MULLIKEN ATOMIC CHARGES
-----------------------
   0 C :   -0.123221
   1 C :   -0.117135
   2 C :   -0.239514
   3 C :    0.057416
   4 C :    0.164944
   5 C :   -0.173832
   6 C :   -0.283350
   7 C :   -0.068492
   8 C :   -0.267867
   9 C :    0.281090
  10 N :   -0.432453
  11 H :    0.116146
  12 H :    0.115282
  13 H :    0.095264
  14 H :    0.112672
  15 H :    0.106640
  16 H :    0.112350
  17 H :    0.097134
  18 H :    0.222805
  19 H :    0.224120
Sum of atomic charges:    0.0000000

LOEWDIN ATOMIC CHARGES
----------------------
   0 C :   -0.141384
   1 C :   -0.144543
   2 C :   -0.108211
   3 C :   -0.071777
   4 C :   -0.089836
   5 C :   -0.098526
   6 C :   -0.129424
   7 C :   -0.142173
   8 C :   -0.147524
   9 C :   -0.197667
  10 N :   -0.041809
  11 H :    0.141726
  12 H :    0.141226
  13 H :    0.139698
  14 H :    0.145513
  15 H :    0.142254
  16 H :    0.142597
  17 H :    0.138563
  18 H :    0.163175
  19 H :    0.158123

  Mayer bond orders larger than 0.100000
B(  0-C ,  1-C ) :   1.2825 B(  0-C ,  5-C ) :   1.5622 B(  0-C , 11-H ) :   0.9761
B(  1-C ,  2-C ) :   1.6154 B(  1-C , 12-H ) :   0.9752 B(  2-C ,  3-C ) :   1.1989
B(  2-C , 13-H ) :   0.9603 B(  3-C ,  4-C ) :   1.3014 B(  3-C ,  9-C ) :   1.1860
B(  4-C ,  5-C ) :   1.2298 B(  4-C ,  6-C ) :   1.2209 B(  5-C , 14-H ) :   0.9799
B(  6-C ,  7-C ) :   1.5683 B(  6-C , 15-H ) :   0.9876 B(  7-C ,  8-C ) :   1.3249
B(  7-C , 16-H ) :   0.9786 B(  8-C ,  9-C ) :   1.4983 B(  8-C , 17-H ) :   0.9691
B(  9-C , 10-N ) :   1.0828 B( 10-N , 18-H ) :   0.9315 B( 10-N , 19-H ) :   0.9239

FINAL SINGLE POINT ENERGY      -441.265791660813

DIPOLE MOMENT
-------------

Method             : SCF
Type of density    : Electron Density
Multiplicity       :   1
Irrep              :   0
Energy             :  -441.2762073496125481 Eh
Relativity type    :
Basis              : AO
                                X                 Y                 Z
Electronic contribution:     -0.300267630      -0.623947413       0.171668124
Nuclear contribution   :      0.506230689       1.069116979      -0.543509340
                        -----------------------------------------
Total Dipole Moment    :      0.205963059       0.445169566      -0.371841216
                        -----------------------------------------
Magnitude (a.u.)       :      0.615518167
Magnitude (Debye)      :      1.564522847

Rotational constants in cm-1:             0.064746             0.037601             0.023804
Rotational constants in MHz :          1941.026598          1127.247573           713.620161

                             ****ORCA TERMINATED NORMALLY****
TOTAL RUN TIME: 0 days 0 hours 4 minutes 44 seconds 162 msec
