                         Program Version 6.0.0  -   RELEASE  -
|  1> ! wb97x-v def2-tzvp def2/J RIJCOSX DEFGRID2 scfconv7 GCP(DFT/TZ) printgap
|  2> %output
|  3>     printlevel normal
|  4> end
|  5> %cpcm
|  6>     smd true
|  7>     smdsolvent "water"
|  8> end
|  9> * xyz 0 1
| 10> C -2.744351798690394 -0.2571453744332617 -0.007945377567229421
| 11> C -2.3568297507740423 1.0977505415629942 0.01701219777325211
| 12> C -1.0231631574894362 1.4388817438798278 0.025547976982994516
| 13> C -0.013692409798600435 0.4458898853440305 0.0062148924317562936
| 14> C -0.4073090605146989 -0.9325673467497066 -0.004212420702513935
| 15> C -1.7895775899776858 -1.2456372395799535 -0.015702606283119945
| 16> C 0.5756992065460431 -1.9516172242290848 0.0007928848391229152
| 17> C 1.9084611920176913 -1.611160847042502 0.012910065445440889
| 18> C 2.313323004847015 -0.26631494946428996 0.01066801559326269
| 19> C 1.3847389880017442 0.7650956999766766 0.005283884066211388
| 20> N 1.8054701466701661 2.08576268843415 0.06407697107518888
| 21> H -3.798283379885955 -0.5165537755722656 -0.016403095321296995
| 22> H -3.1133912781266977 1.87555018874933 0.033267848084604874
| 23> H -0.756791574679791 2.4898340819448923 0.056500605673968994
| 24> H -2.081182932528387 -2.292182030408451 -0.028127586725019426
| 25> H 0.2607669538606255 -2.9904305947535845 -0.005508877151464412
| 26> H 2.668301028835047 -2.3868823416038967 0.015036080550262837
| 27> H 3.371906300595239 -0.021839946665166126 0.008858385376052512
| 28> H 2.772060877638257 2.2169261243003446 -0.19865657556582145
| 29> H 1.2033470763203973 2.7611001478128427 -0.3828492823523889
| 30> *
| 31>
| 32>                          ****END OF INPUT****

CARTESIAN COORDINATES (ANGSTROEM)
---------------------------------
  C     -2.744352   -0.257145   -0.007945
  C     -2.356830    1.097751    0.017012
  C     -1.023163    1.438882    0.025548
  C     -0.013692    0.445890    0.006215
  C     -0.407309   -0.932567   -0.004212
  C     -1.789578   -1.245637   -0.015703
  C      0.575699   -1.951617    0.000793
  C      1.908461   -1.611161    0.012910
  C      2.313323   -0.266315    0.010668
  C      1.384739    0.765096    0.005284
  N      1.805470    2.085763    0.064077
  H     -3.798283   -0.516554   -0.016403
  H     -3.113391    1.875550    0.033268
  H     -0.756792    2.489834    0.056501
  H     -2.081183   -2.292182   -0.028128
  H      0.260767   -2.990431   -0.005509
  H      2.668301   -2.386882    0.015036
  H      3.371906   -0.021840    0.008858
  H      2.772061    2.216926   -0.198657
  H      1.203347    2.761100   -0.382849

 Total Charge           Charge          ....    0
 Multiplicity           Mult            ....    1
 Number of Electrons    NEL             ....   76
 Basis Dimension        Dim             ....  395

ORBITAL ENERGIES
----------------

  NO   OCC          E(Eh)            E(eV)
   0   2.0000     -16.523991      -449.6406
   1   2.0000     -12.094878      -329.1184
   2   2.0000     -12.062253      -328.2306
   3   2.0000     -12.059974      -328.1686
   4   2.0000     -12.052829      -327.9741
   5   2.0000     -12.051094      -327.9269
   6   2.0000     -12.049496      -327.8835
   7   2.0000     -12.049201      -327.8754
   8   2.0000     -12.047947      -327.8413
   9   2.0000     -12.038250      -327.5774
  10   2.0000     -12.037788      -327.5649
  11   2.0000      -1.487972       -40.4898
  12   2.0000      -1.394289       -37.9405
  13   2.0000      -1.343049       -36.5462
  14   2.0000      -1.292954       -35.1831
  15   2.0000      -1.269667       -34.5494
  16   2.0000      -1.239619       -33.7318
  17   2.0000      -1.134037       -30.8587
  18   2.0000      -1.125956       -30.6388
  19   2.0000      -1.090052       -29.6618
  20   2.0000      -1.018015       -27.7016
  21   2.0000      -1.010785       -27.5049
  22   2.0000      -0.983115       -26.7519
  23   2.0000      -0.950611       -25.8674
  24   2.0000      -0.947813       -25.7913
  25   2.0000      -0.906363       -24.6634
  26   2.0000      -0.900346       -24.4997
  27   2.0000      -0.883305       -24.0360
  28   2.0000      -0.855007       -23.2659
  29   2.0000      -0.835651       -22.7392
  30   2.0000      -0.826476       -22.4896
  31   2.0000      -0.812473       -22.1085
  32   2.0000      -0.800137       -21.7728
  33   2.0000      -0.777445       -21.1554
  34   2.0000      -0.719895       -19.5893
  35   2.0000      -0.667350       -18.1595
  36   2.0000      -0.631217       -17.1763
  37   2.0000      -0.585958       -15.9447
  38   0.0000      -0.282236        -7.6800
  39   0.0000      -0.257033        -6.9942
  40   0.0000      -0.197816        -5.3828
  41   0.0000      -0.127635        -3.4731
  42   0.0000      -0.072699        -1.9783

MULLIKEN ATOMIC CHARGES
-----------------------
   0 C :   -0.162435
   1 C :   -0.154241
   2 C :   -0.288816
   3 C :    0.031618
   4 C :    0.145606
   5 C :   -0.216030
   6 C :   -0.347319
   7 C :   -0.089664
   8 C :   -0.337747
   9 C :    0.257244
  10 N :   -0.483132
  11 H :    0.160999
  12 H :    0.161103
  13 H :    0.151250
  14 H :    0.159053
  15 H :    0.153952
  16 H :    0.158383
  17 H :    0.151850
  18 H :    0.273321
  19 H :    0.275004
Sum of atomic charges:    0.0000000

LOEWDIN ATOMIC CHARGES
----------------------
   0 C :   -0.148508
   1 C :   -0.152453
   2 C :   -0.111065
   3 C :   -0.085009
   4 C :   -0.106313
   5 C :   -0.108799
   6 C :   -0.146324
   7 C :   -0.154208
   8 C :   -0.155863
   9 C :   -0.207586
  10 N :   -0.045090
  11 H :    0.151765
  12 H :    0.151359
  13 H :    0.154262
  14 H :    0.155854
  15 H :    0.151607
  16 H :    0.152076
  17 H :    0.151602
  18 H :    0.178743
  19 H :    0.173947

  Mayer bond orders larger than 0.100000
B(  0-C ,  1-C ) :   1.2598 B(  0-C ,  5-C ) :   1.5423 B(  0-C , 11-H ) :   0.9795
B(  1-C ,  2-C ) :   1.5840 B(  1-C , 12-H ) :   0.9784 B(  2-C ,  3-C ) :   1.1982
B(  2-C , 13-H ) :   0.9726 B(  3-C ,  4-C ) :   1.2626 B(  3-C ,  9-C ) :   1.1743
B(  4-C ,  5-C ) :   1.2161 B(  4-C ,  6-C ) :   1.2011 B(  5-C , 14-H ) :   0.9852
B(  6-C ,  7-C ) :   1.5371 B(  6-C , 15-H ) :   0.9961 B(  7-C ,  8-C ) :   1.2887
B(  7-C , 16-H ) :   0.9804 B(  8-C ,  9-C ) :   1.4782 B(  8-C , 17-H ) :   0.9803
B(  9-C , 10-N ) :   1.1527 B( 10-N , 18-H ) :   0.9086 B( 10-N , 19-H ) :   0.9037

FINAL SINGLE POINT ENERGY      -441.276203994982

DIPOLE MOMENT
-------------

Method             : SCF
Type of density    : Electron Density
Multiplicity       :   1
Irrep              :   0
Energy             :  -441.2866196837817370 Eh
Relativity type    :
Basis              : AO
                                X                 Y                 Z
Electronic contribution:     -0.232005685      -0.378378939       0.022097313
Nuclear contribution   :      0.506230689       1.069116979      -0.543509340
                        -----------------------------------------
Total Dipole Moment    :      0.274225004       0.690738040      -0.521412027
                        -----------------------------------------
Magnitude (a.u.)       :      0.907848498
Magnitude (Debye)      :      2.307567496

Rotational constants in cm-1:             0.064746             0.037601             0.023804
Rotational constants in MHz :          1941.026598          1127.247573           713.620161

                             ****ORCA TERMINATED NORMALLY****
TOTAL RUN TIME: 0 days 0 hours 4 minutes 52 seconds 340 msec
