                         Program Version 6.0.0  -   RELEASE  -
|  1> ! wb97x-v def2-tzvp def2/J RIJCOSX DEFGRID2 scfconv7 GCP(DFT/TZ) printgap
|  2> %output
|  3>     printlevel normal
|  4> end
|  5> * xyz 0 1
|  6> C -1.676095349240259 1.175979800604965 0.00039038632001834136
|  7> C -2.310575743945813 -0.06315213671255519 0.0003036399466621043
|  8> C -1.5276347787293811 -1.2068028140190745 0.0002347965906130993
|  9> N -0.1821780806817145 -1.1790490528453155 5.804950005833427e-05
| 10> C 0.38228055350206436 0.011231876180887182 2.8159224399307024e-05
| 11> C -0.2884790270318966 1.228237780053254 0.0002861862013888261
| 12> Cl 2.1549631241742597 0.03910877112987201 0.00012473683890192923
| 13> H -2.250880431767547 2.0960000708390547 0.0004742560893329832
| 14> H -3.391468316429599 -0.1424022568393736 0.00031801835820225127
| 15> H -1.9830354712414269 -2.193229237229267 2.6200900280195096e-05
| 16> H 0.24804780074879726 2.1688816166957126 0.00036164280546443193
| 17> *
| 18>
| 19>                          ****END OF INPUT****

CARTESIAN COORDINATES (ANGSTROEM)
---------------------------------
  C     -1.676095    1.175980    0.000390
  C     -2.310576   -0.063152    0.000304
  C     -1.527635   -1.206803    0.000235
  N     -0.182178   -1.179049    0.000058
  C      0.382281    0.011232    0.000028
  C     -0.288479    1.228238    0.000286
  Cl     2.154963    0.039109    0.000125
  H     -2.250880    2.096000    0.000474
  H     -3.391468   -0.142402    0.000318
  H     -1.983035   -2.193229    0.000026
  H      0.248048    2.168882    0.000362

 Total Charge           Charge          ....    0
 Multiplicity           Mult            ....    1
 Number of Electrons    NEL             ....   58
 Basis Dimension        Dim             ....  247

ORBITAL ENERGIES
----------------

  NO   OCC          E(Eh)            E(eV)
   0   2.0000    -107.141806     -2915.4768
   1   2.0000     -16.545777      -450.2335
   2   2.0000     -12.154623      -330.7441
   3   2.0000     -12.104521      -329.3808
   4   2.0000     -12.089782      -328.9797
   5   2.0000     -12.079527      -328.7006
   6   2.0000     -12.074089      -328.5527
   7   2.0000     -11.295127      -307.3560
   8   2.0000      -9.086567      -247.2581
   9   2.0000      -9.083968      -247.1873
  10   2.0000      -9.083910      -247.1858
  11   2.0000      -1.553593       -42.2754
  12   2.0000      -1.408834       -38.3363
  13   2.0000      -1.365964       -37.1698
  14   2.0000      -1.304074       -35.4857
  15   2.0000      -1.179621       -32.0991
  16   2.0000      -1.155315       -31.4377
  17   2.0000      -1.021126       -27.7862
  18   2.0000      -0.997966       -27.1560
  19   2.0000      -0.948932       -25.8217
  20   2.0000      -0.913540       -24.8587
  21   2.0000      -0.894844       -24.3499
  22   2.0000      -0.869420       -23.6581
  23   2.0000      -0.861651       -23.4467
  24   2.0000      -0.795903       -21.6576
  25   2.0000      -0.794331       -21.6148
  26   2.0000      -0.787031       -21.4162
  27   2.0000      -0.718505       -19.5515
  28   2.0000      -0.669422       -18.2159
  29   0.0000      -0.311672        -8.4810
  30   0.0000      -0.273293        -7.4367
  31   0.0000      -0.269217        -7.3258
  32   0.0000      -0.113739        -3.0950
  33   0.0000      -0.054742        -1.4896

MULLIKEN ATOMIC CHARGES
-----------------------
   0 C :   -0.096466
   1 C :   -0.107458
   2 C :   -0.032595
   3 N :   -0.193845
   4 C :    0.161622
   5 C :   -0.186013
   6 Cl:   -0.091387
   7 H :    0.137937
   8 H :    0.132279
   9 H :    0.133199
  10 H :    0.142727
Sum of atomic charges:    0.0000000

LOEWDIN ATOMIC CHARGES
----------------------
   0 C :   -0.107867
   1 C :   -0.150691
   2 C :   -0.183316
   3 N :    0.137801
   4 C :   -0.483151
   5 C :   -0.151055
   6 Cl:    0.355781
   7 H :    0.148220
   8 H :    0.146335
   9 H :    0.138925
  10 H :    0.149019

  Mayer bond orders larger than 0.100000
B(  0-C ,  1-C ) :   1.4264 B(  0-C ,  5-C ) :   1.4475 B(  0-C ,  7-H ) :   0.9595
B(  1-C ,  2-C ) :   1.4324 B(  1-C ,  8-H ) :   0.9603 B(  2-C ,  3-N ) :   1.4488
B(  2-C ,  9-H ) :   0.9801 B(  3-N ,  4-C ) :   1.5355 B(  4-C ,  5-C ) :   1.4078
B(  4-C ,  6-Cl) :   1.0888 B(  5-C , 10-H ) :   0.9541

FINAL SINGLE POINT ENERGY      -707.841903090707

DIPOLE MOMENT
-------------

Method             : SCF
Type of density    : Electron Density
Multiplicity       :   1
Irrep              :   0
Energy             :  -707.8472229551068722 Eh
Relativity type    :
Basis              : AO
                                X                 Y                 Z
Electronic contribution:      8.643640673      -1.036003527      -0.000404406
Nuclear contribution   :     -9.842444568       1.738761944       0.000485638
                        -----------------------------------------
Total Dipole Moment    :     -1.198803895       0.702758417       0.000081232
                        -----------------------------------------
Magnitude (a.u.)       :      1.389604324
Magnitude (Debye)      :      3.532093492

Rotational constants in cm-1:             0.196469             0.053602             0.042112
Rotational constants in MHz :          5889.991647          1606.941861          1262.499414

                             ****ORCA TERMINATED NORMALLY****
TOTAL RUN TIME: 0 days 0 hours 1 minutes 36 seconds 938 msec
