                         Program Version 6.0.0  -   RELEASE  -
|  1> ! wb97x-v def2-tzvp def2/J RIJCOSX DEFGRID2 scfconv7 GCP(DFT/TZ) printgap
|  2> %output
|  3>     printlevel normal
|  4> end
|  5> %cpcm
|  6>     smd true
|  7>     smdsolvent "water"
|  8> end
|  9> * xyz 0 1
| 10> C -1.676095349240259 1.175979800604965 0.00039038632001834136
| 11> C -2.310575743945813 -0.06315213671255519 0.0003036399466621043
| 12> C -1.5276347787293811 -1.2068028140190745 0.0002347965906130993
| 13> N -0.1821780806817145 -1.1790490528453155 5.804950005833427e-05
| 14> C 0.38228055350206436 0.011231876180887182 2.8159224399307024e-05
| 15> C -0.2884790270318966 1.228237780053254 0.0002861862013888261
| 16> Cl 2.1549631241742597 0.03910877112987201 0.00012473683890192923
| 17> H -2.250880431767547 2.0960000708390547 0.0004742560893329832
| 18> H -3.391468316429599 -0.1424022568393736 0.00031801835820225127
| 19> H -1.9830354712414269 -2.193229237229267 2.6200900280195096e-05
| 20> H 0.24804780074879726 2.1688816166957126 0.00036164280546443193
| 21> *
| 22>
| 23>                          ****END OF INPUT****

CARTESIAN COORDINATES (ANGSTROEM)
---------------------------------
  C     -1.676095    1.175980    0.000390
  C     -2.310576   -0.063152    0.000304
  C     -1.527635   -1.206803    0.000235
  N     -0.182178   -1.179049    0.000058
  C      0.382281    0.011232    0.000028
  C     -0.288479    1.228238    0.000286
  Cl     2.154963    0.039109    0.000125
  H     -2.250880    2.096000    0.000474
  H     -3.391468   -0.142402    0.000318
  H     -1.983035   -2.193229    0.000026
  H      0.248048    2.168882    0.000362

 Total Charge           Charge          ....    0
 Multiplicity           Mult            ....    1
 Number of Electrons    NEL             ....   58
 Basis Dimension        Dim             ....  247

ORBITAL ENERGIES
----------------

  NO   OCC          E(Eh)            E(eV)
   0   2.0000    -107.147891     -2915.6423
   1   2.0000     -16.544249      -450.1919
   2   2.0000     -12.151270      -330.6529
   3   2.0000     -12.094918      -329.1194
   4   2.0000     -12.076310      -328.6131
   5   2.0000     -12.069030      -328.4150
   6   2.0000     -12.061105      -328.1993
   7   2.0000     -11.301355      -307.5255
   8   2.0000      -9.092773      -247.4269
   9   2.0000      -9.090237      -247.3579
  10   2.0000      -9.090201      -247.3569
  11   2.0000      -1.551433       -42.2166
  12   2.0000      -1.413228       -38.4559
  13   2.0000      -1.355384       -36.8819
  14   2.0000      -1.297672       -35.3114
  15   2.0000      -1.172360       -31.9015
  16   2.0000      -1.146130       -31.1878
  17   2.0000      -1.011597       -27.5270
  18   2.0000      -0.990436       -26.9511
  19   2.0000      -0.938876       -25.5481
  20   2.0000      -0.905152       -24.6304
  21   2.0000      -0.882712       -24.0198
  22   2.0000      -0.868904       -23.6441
  23   2.0000      -0.849411       -23.1137
  24   2.0000      -0.800589       -21.7851
  25   2.0000      -0.799444       -21.7540
  26   2.0000      -0.786630       -21.4053
  27   2.0000      -0.709167       -19.2974
  28   2.0000      -0.662404       -18.0249
  29   0.0000      -0.305163        -8.3039
  30   0.0000      -0.275043        -7.4843
  31   0.0000      -0.260650        -7.0926
  32   0.0000      -0.103783        -2.8241
  33   0.0000      -0.043321        -1.1788

MULLIKEN ATOMIC CHARGES
-----------------------
   0 C :   -0.120605
   1 C :   -0.143411
   2 C :   -0.036627
   3 N :   -0.261717
   4 C :    0.171369
   5 C :   -0.205297
   6 Cl:   -0.116775
   7 H :    0.181744
   8 H :    0.176723
   9 H :    0.172595
  10 H :    0.182002
Sum of atomic charges:    0.0000000

LOEWDIN ATOMIC CHARGES
----------------------
   0 C :   -0.094060
   1 C :   -0.140391
   2 C :   -0.184921
   3 N :    0.099647
   4 C :   -0.495717
   5 C :   -0.146546
   6 Cl:    0.333325
   7 H :    0.161793
   8 H :    0.158962
   9 H :    0.148334
  10 H :    0.159575

  Mayer bond orders larger than 0.100000
B(  0-C ,  1-C ) :   1.4190 B(  0-C ,  5-C ) :   1.4397 B(  0-C ,  7-H ) :   0.9553
B(  1-C ,  2-C ) :   1.4464 B(  1-C ,  8-H ) :   0.9558 B(  2-C ,  3-N ) :   1.4304
B(  2-C ,  9-H ) :   0.9607 B(  3-N ,  4-C ) :   1.5350 B(  4-C ,  5-C ) :   1.4008
B(  4-C ,  6-Cl) :   1.0841 B(  5-C , 10-H ) :   0.9490

FINAL SINGLE POINT ENERGY      -707.849850551649

DIPOLE MOMENT
-------------

Method             : SCF
Type of density    : Electron Density
Multiplicity       :   1
Irrep              :   0
Energy             :  -707.8551704160486224 Eh
Relativity type    :
Basis              : AO
                                X                 Y                 Z
Electronic contribution:      8.147714822      -0.703509874      -0.000367445
Nuclear contribution   :     -9.842444568       1.738761944       0.000485638
                        -----------------------------------------
Total Dipole Moment    :     -1.694729746       1.035252070       0.000118193
                        -----------------------------------------
Magnitude (a.u.)       :      1.985914342
Magnitude (Debye)      :      5.047793103

Rotational constants in cm-1:             0.196469             0.053602             0.042112
Rotational constants in MHz :          5889.991647          1606.941861          1262.499414

                             ****ORCA TERMINATED NORMALLY****
TOTAL RUN TIME: 0 days 0 hours 1 minutes 40 seconds 809 msec
