                         Program Version 6.0.0  -   RELEASE  -
|  1> ! pbe def2-sv(p) def2/J RI DEFGRID1 loosescf d4 GCP(DFT/SV(P)) printgap
|  2> %output
|  3>     printlevel normal
|  4> end
|  5> * xyz 0 1
|  6> C 2.3441833331 2.9505029394 0.5507647797
|  7> C 3.5082723049 2.1028308589 1.0191303238
|  8> O 3.5655873669 0.8441507827 0.3226972823
|  9> P 2.4643555407 -0.2794197157 0.525348031
| 10> S 1.7647041117 -0.4490469504 2.3542194984
| 11> O 3.1711867352 -1.5797482162 -0.0456639122
| 12> C 3.9696540065 -2.4481740243 0.7851284172
| 13> C 5.2578751387 -1.7834110785 1.2222506058
| 14> S 1.1043514075 0.0253834518 -1.0636444592
| 15> C -0.0883842347 -1.2376084013 -0.5352688161
| 16> S -1.3015470502 -0.6045448772 0.6459955238
| 17> P -2.6865396002 0.0654591509 -0.8374954956
| 18> S -3.0431760127 -1.2041099281 -2.282703545
| 19> O -2.1052459649 1.3890412522 -1.4576720135
| 20> C -1.7218152972 2.5516360563 -0.6804805438
| 21> C -0.7887254633 3.3808975418 -1.5374552424
| 22> O -3.9008791569 0.6136349188 0.0271743611
| 23> C -4.5511866531 -0.1009847801 1.0953069753
| 24> C -5.0500576553 -1.4645878127 0.6662492849
| 25> H 2.3857464072 3.0857841986 -0.526763321
| 26> H 1.4068124598 2.4588699624 0.8092355976
| 27> H 2.3811688392 3.9184598117 1.039848783
| 28> H 3.4283777019 1.9003894553 2.0921290666
| 29> H 4.4678376588 2.5710910692 0.7970827262
| 30> H 3.3726874308 -2.7412974908 1.6551506219
| 31> H 4.1557840288 -3.3162563808 0.1512068112
| 32> H 5.8779933364 -2.5077849445 1.7410642017
| 33> H 5.7935405411 -1.3995721177 0.3580252925
| 34> H 5.0382213835 -0.9573455789 1.897081279
| 35> H 0.442754053 -2.0548941541 -0.0525277915
| 36> H -0.6170812078 -1.5857676021 -1.4250938017
| 37> H -2.6313332355 3.0971451661 -0.422901395
| 38> H -1.2333044744 2.2129953383 0.238474692
| 39> H 0.0783137862 2.788046043 -1.8173202111
| 40> H -1.2999573686 3.6966767136 -2.4419419904
| 41> H -0.4683255445 4.2536347724 -0.9780483608
| 42> H -3.8441272762 -0.1904342313 1.9248434231
| 43> H -5.375451691 0.5560935323 1.3782656338
| 44> H -5.6983879757 -1.3751565473 -0.2022395241
| 45> H -4.2097944051 -2.1056177512 0.4024543051
| 46> H -5.6011240547 -1.920982723 1.482171604
| 47> *
| 48>
| 49>                          ****END OF INPUT****

CARTESIAN COORDINATES (ANGSTROEM)
---------------------------------
  C      2.344183    2.950503    0.550765
  C      3.508272    2.102831    1.019130
  O      3.565587    0.844151    0.322697
  P      2.464356   -0.279420    0.525348
  S      1.764704   -0.449047    2.354219
  O      3.171187   -1.579748   -0.045664
  C      3.969654   -2.448174    0.785128
  C      5.257875   -1.783411    1.222251
  S      1.104351    0.025383   -1.063644
  C     -0.088384   -1.237608   -0.535269
  S     -1.301547   -0.604545    0.645996
  P     -2.686540    0.065459   -0.837495
  S     -3.043176   -1.204110   -2.282704
  O     -2.105246    1.389041   -1.457672
  C     -1.721815    2.551636   -0.680481
  C     -0.788725    3.380898   -1.537455
  O     -3.900879    0.613635    0.027174
  C     -4.551187   -0.100985    1.095307
  C     -5.050058   -1.464588    0.666249
  H      2.385746    3.085784   -0.526763
  H      1.406812    2.458870    0.809236
  H      2.381169    3.918460    1.039849
  H      3.428378    1.900389    2.092129
  H      4.467838    2.571091    0.797083
  H      3.372687   -2.741297    1.655151
  H      4.155784   -3.316256    0.151207
  H      5.877993   -2.507785    1.741064
  H      5.793541   -1.399572    0.358025
  H      5.038221   -0.957346    1.897081
  H      0.442754   -2.054894   -0.052528
  H     -0.617081   -1.585768   -1.425094
  H     -2.631333    3.097145   -0.422901
  H     -1.233304    2.212995    0.238475
  H      0.078314    2.788046   -1.817320
  H     -1.299957    3.696677   -2.441942
  H     -0.468326    4.253635   -0.978048
  H     -3.844127   -0.190434    1.924843
  H     -5.375452    0.556094    1.378266
  H     -5.698388   -1.375157   -0.202240
  H     -4.209794   -2.105618    0.402454
  H     -5.601124   -1.920983    1.482172

 Total Charge           Charge          ....    0
 Multiplicity           Mult            ....    1
 Number of Electrons    NEL             ....  202
 Basis Dimension        Dim             ....  334

ORBITAL ENERGIES
----------------

  NO   OCC          E(Eh)            E(eV)
   0   2.0000     -88.045119     -2395.8295
   1   2.0000     -88.041139     -2395.7212
   2   2.0000     -87.994524     -2394.4527
   3   2.0000     -87.978081     -2394.0053
   4   2.0000     -76.431612     -2079.8099
   5   2.0000     -76.422246     -2079.5550
   6   2.0000     -18.800981      -511.6007
   7   2.0000     -18.794783      -511.4320
   8   2.0000     -18.794413      -511.4220
   9   2.0000     -18.788489      -511.2608
  10   2.0000      -9.959951      -271.0240
  11   2.0000      -9.959026      -270.9989
  12   2.0000      -9.955216      -270.8952
  13   2.0000      -9.955017      -270.8898
  14   2.0000      -9.951521      -270.7947
  15   2.0000      -9.892336      -269.1841
  16   2.0000      -9.887900      -269.0634
  17   2.0000      -9.884648      -268.9750
  18   2.0000      -9.882293      -268.9109
  19   2.0000      -7.690297      -209.2636
  20   2.0000      -7.685675      -209.1378
  21   2.0000      -7.639298      -207.8759
  22   2.0000      -7.623481      -207.4455
  23   2.0000      -6.429270      -174.9493
  24   2.0000      -6.419828      -174.6924
  25   2.0000      -5.718062      -155.5964
  26   2.0000      -5.714980      -155.5125
  27   2.0000      -5.713274      -155.4661
  28   2.0000      -5.710290      -155.3849
  29   2.0000      -5.707157      -155.2996
  30   2.0000      -5.702923      -155.1844
  31   2.0000      -5.668028      -154.2349
  32   2.0000      -5.659992      -154.0162
  33   2.0000      -5.659662      -154.0072
  34   2.0000      -5.652541      -153.8135
  35   2.0000      -5.644139      -153.5848
  36   2.0000      -5.643406      -153.5649
  37   2.0000      -4.651801      -126.5820
  38   2.0000      -4.651006      -126.5603
  39   2.0000      -4.649765      -126.5265
  40   2.0000      -4.642780      -126.3365
  41   2.0000      -4.641779      -126.3092
  42   2.0000      -4.639728      -126.2534
  43   2.0000      -0.993034       -27.0218
  44   2.0000      -0.987331       -26.8666
  45   2.0000      -0.952716       -25.9247
  46   2.0000      -0.943971       -25.6868
  47   2.0000      -0.765323       -20.8255
  48   2.0000      -0.724212       -19.7068
  49   2.0000      -0.712843       -19.3974
  50   2.0000      -0.693917       -18.8824
  51   2.0000      -0.689435       -18.7605
  52   2.0000      -0.676494       -18.4083
  53   2.0000      -0.653846       -17.7920
  54   2.0000      -0.638453       -17.3732
  55   2.0000      -0.605346       -16.4723
  56   2.0000      -0.587947       -15.9989
  57   2.0000      -0.578826       -15.7507
  58   2.0000      -0.569098       -15.4859
  59   2.0000      -0.563749       -15.3404
  60   2.0000      -0.506330       -13.7779
  61   2.0000      -0.498704       -13.5704
  62   2.0000      -0.480454       -13.0738
  63   2.0000      -0.474284       -12.9059
  64   2.0000      -0.462808       -12.5936
  65   2.0000      -0.449042       -12.2190
  66   2.0000      -0.445755       -12.1296
  67   2.0000      -0.434702       -11.8288
  68   2.0000      -0.431004       -11.7282
  69   2.0000      -0.420028       -11.4295
  70   2.0000      -0.414896       -11.2899
  71   2.0000      -0.401798       -10.9335
  72   2.0000      -0.397505       -10.8167
  73   2.0000      -0.389952       -10.6111
  74   2.0000      -0.385127       -10.4798
  75   2.0000      -0.379051       -10.3145
  76   2.0000      -0.363288        -9.8856
  77   2.0000      -0.358325        -9.7505
  78   2.0000      -0.355111        -9.6630
  79   2.0000      -0.352454        -9.5908
  80   2.0000      -0.348811        -9.4916
  81   2.0000      -0.346643        -9.4326
  82   2.0000      -0.344491        -9.3741
  83   2.0000      -0.338445        -9.2095
  84   2.0000      -0.336008        -9.1432
  85   2.0000      -0.321471        -8.7477
  86   2.0000      -0.317078        -8.6281
  87   2.0000      -0.302701        -8.2369
  88   2.0000      -0.296242        -8.0611
  89   2.0000      -0.292629        -7.9628
  90   2.0000      -0.288419        -7.8483
  91   2.0000      -0.279608        -7.6085
  92   2.0000      -0.273708        -7.4480
  93   2.0000      -0.269479        -7.3329
  94   2.0000      -0.260463        -7.0876
  95   2.0000      -0.240690        -6.5495
  96   2.0000      -0.221130        -6.0173
  97   2.0000      -0.214564        -5.8386
  98   2.0000      -0.206415        -5.6168
  99   2.0000      -0.197781        -5.3819
 100   2.0000      -0.191237        -5.2038
 101   0.0000      -0.042666        -1.1610
 102   0.0000      -0.029181        -0.7940
 103   0.0000      -0.008848        -0.2408
 104   0.0000       0.004727         0.1286
 105   0.0000       0.012904         0.3511

MULLIKEN ATOMIC CHARGES
-----------------------
   0 C :   -0.347585
   1 C :    0.001063
   2 O :   -0.369303
   3 P :    0.590539
   4 S :   -0.330204
   5 O :   -0.366007
   6 C :   -0.006082
   7 C :   -0.307961
   8 S :   -0.059303
   9 C :   -0.354235
  10 S :   -0.086885
  11 P :    0.587782
  12 S :   -0.310389
  13 O :   -0.356611
  14 C :   -0.023349
  15 C :   -0.289551
  16 O :   -0.384456
  17 C :   -0.014398
  18 C :   -0.308819
  19 H :    0.125928
  20 H :    0.144876
  21 H :    0.115458
  22 H :    0.113144
  23 H :    0.108746
  24 H :    0.110621
  25 H :    0.108292
  26 H :    0.113938
  27 H :    0.120036
  28 H :    0.121491
  29 H :    0.188217
  30 H :    0.191860
  31 H :    0.105219
  32 H :    0.115701
  33 H :    0.131816
  34 H :    0.119438
  35 H :    0.107685
  36 H :    0.116881
  37 H :    0.109579
  38 H :    0.127507
  39 H :    0.127776
  40 H :    0.111542
Sum of atomic charges:   -0.0000000

LOEWDIN ATOMIC CHARGES
----------------------
   0 C :   -0.371079
   1 C :   -0.117733
   2 O :   -0.240464
   3 P :    0.570813
   4 S :   -0.324518
   5 O :   -0.243624
   6 C :   -0.118712
   7 C :   -0.364204
   8 S :    0.099917
   9 C :   -0.480853
  10 S :    0.075923
  11 P :    0.565879
  12 S :   -0.314785
  13 O :   -0.235812
  14 C :   -0.117767
  15 C :   -0.353446
  16 O :   -0.247009
  17 C :   -0.113850
  18 C :   -0.368735
  19 H :    0.126188
  20 H :    0.122671
  21 H :    0.132690
  22 H :    0.111367
  23 H :    0.120554
  24 H :    0.109855
  25 H :    0.120303
  26 H :    0.131308
  27 H :    0.127912
  28 H :    0.122331
  29 H :    0.133252
  30 H :    0.129091
  31 H :    0.114312
  32 H :    0.103089
  33 H :    0.123453
  34 H :    0.129077
  35 H :    0.127494
  36 H :    0.109644
  37 H :    0.121391
  38 H :    0.131048
  39 H :    0.122819
  40 H :    0.130209

  Mayer bond orders larger than 0.100000
B(  0-C ,  1-C ) :   1.1645 B(  0-C , 19-H ) :   0.9408 B(  0-C , 20-H ) :   0.9276
B(  0-C , 21-H ) :   0.9364 B(  1-C ,  2-O ) :   0.9040 B(  1-C , 22-H ) :   0.9146
B(  1-C , 23-H ) :   0.9325 B(  2-O ,  3-P ) :   1.1120 B(  3-P ,  4-S ) :   1.5903
B(  3-P ,  5-O ) :   1.1165 B(  3-P ,  8-S ) :   0.9745 B(  4-S ,  8-S ) :   0.1142
B(  5-O ,  6-C ) :   0.9062 B(  6-C ,  7-C ) :   1.1658 B(  6-C , 24-H ) :   0.9159
B(  6-C , 25-H ) :   0.9342 B(  7-C , 26-H ) :   0.9387 B(  7-C , 27-H ) :   0.9459
B(  7-C , 28-H ) :   0.9383 B(  8-S ,  9-C ) :   0.9868 B(  9-C , 10-S ) :   1.0109
B(  9-C , 29-H ) :   0.8920 B(  9-C , 30-H ) :   0.8536 B( 10-S , 11-P ) :   0.9424
B( 10-S , 12-S ) :   0.1078 B( 11-P , 12-S ) :   1.6379 B( 11-P , 13-O ) :   1.1392
B( 11-P , 16-O ) :   1.0889 B( 12-S , 30-H ) :   0.1133 B( 13-O , 14-C ) :   0.8864
B( 14-C , 15-C ) :   1.1674 B( 14-C , 31-H ) :   0.9287 B( 14-C , 32-H ) :   0.9063
B( 15-C , 33-H ) :   0.9390 B( 15-C , 34-H ) :   0.9470 B( 15-C , 35-H ) :   0.9397
B( 16-O , 17-C ) :   0.9125 B( 17-C , 18-C ) :   1.1664 B( 17-C , 36-H ) :   0.9266
B( 17-C , 37-H ) :   0.9335 B( 18-C , 38-H ) :   0.9433 B( 18-C , 39-H ) :   0.9316
B( 18-C , 40-H ) :   0.9351

Dispersion correction           -0.064131673
FINAL SINGLE POINT ENERGY     -2929.519638181271

DIPOLE MOMENT
-------------

Method             : SCF
Type of density    : Electron Density
Multiplicity       :   1
Irrep              :   0
Energy             : -2929.6400686919600957 Eh
Relativity type    :
Basis              : AO
                                X                 Y                 Z
Electronic contribution:     -6.747460004      -9.179615081      -6.758245353
Nuclear contribution   :      7.617037481      10.016607865       7.871219109
                        -----------------------------------------
Total Dipole Moment    :      0.869577477       0.836992784       1.112973755
                        -----------------------------------------
Magnitude (a.u.)       :      1.641777235
Magnitude (Debye)      :      4.173066092

Rotational constants in cm-1:             0.013064             0.004437             0.004023
Rotational constants in MHz :           391.662429           133.014843           120.598431

                             ****ORCA TERMINATED NORMALLY****
TOTAL RUN TIME: 0 days 0 hours 0 minutes 20 seconds 677 msec
