                         Program Version 6.0.0  -   RELEASE  -
|  1> ! r2scan-3c def2/J RI DEFGRID2 scfconv6 printgap
|  2> %output
|  3>     printlevel normal
|  4> end
|  5> * xyz 0 1
|  6> C 5.5177475599 -1.1053536066 -1.4111974031
|  7> C 4.098990077 -1.3250525646 -1.8995838384
|  8> O 3.2027889354 -1.5300344794 -0.7876327579
|  9> P 2.3508615799 -0.3480993333 -0.1509975499
| 10> S 3.340699159 1.2702979744 0.3577986188
| 11> O 1.6218241912 -1.1057362515 1.0278377871
| 12> C 2.1382147788 -1.1105817067 2.3826747256
| 13> C 0.9947308724 -0.9018112569 3.35400401
| 14> S 0.8004184214 -0.0678212514 -1.5566327156
| 15> C 0.1863786245 1.4936620181 -0.864525342
| 16> S -0.7744978067 1.2589426877 0.6447207062
| 17> P -2.434043826 0.307020679 -0.3100819675
| 18> S -2.9402112825 1.0269090403 -2.0542199262
| 19> O -3.5628490999 0.3100990955 0.8082025547
| 20> C -4.4870631569 1.4015260335 0.9760277278
| 21> C -3.801437465 2.6776486625 1.4182051034
| 22> O -2.0388560976 -1.2166989145 -0.3961697593
| 23> C -1.7110380181 -2.0177889103 0.7651713361
| 24> C -2.8860911257 -2.8911708464 1.1525334212
| 25> H 5.5763141393 -0.1926615887 -0.8222647105
| 26> H 5.8333575169 -1.9421080967 -0.7945541358
| 27> H 6.1803339076 -1.0177147923 -2.2661354462
| 28> H 4.0175688803 -2.2382403253 -2.4919928179
| 29> H 3.7508378833 -0.4749159065 -2.4931528375
| 30> H 2.6225094799 -2.0771712359 2.5329004611
| 31> H 2.8823367184 -0.3124493308 2.4760697216
| 32> H 0.2773295176 -1.7129920035 3.2723518514
| 33> H 1.3934481141 -0.8777269543 4.3631442848
| 34> H 0.4956839905 0.0418308494 3.1459895775
| 35> H -0.4469156173 1.9454920612 -1.628389892
| 36> H 1.0318850025 2.1351538095 -0.6129977493
| 37> H -5.0117450223 1.5554431332 0.0283669506
| 38> H -5.1836300654 1.0365835416 1.7321434758
| 39> H -3.1843176389 2.4941250351 2.2941670323
| 40> H -3.1703324218 3.0593868842 0.6171370359
| 41> H -4.5535814163 3.4228963914 1.6563278805
| 42> H -0.8478502309 -2.6131413412 0.4586154092
| 43> H -1.4251007036 -1.3517129555 1.5834503368
| 44> H -3.7273276367 -2.2736402578 1.4559189455
| 45> H -3.1874748429 -3.5043046843 0.30766857
| 46> H -2.5959984073 -3.5345284147 1.9773734746
| 47> *
| 48>
| 49>                          ****END OF INPUT****

CARTESIAN COORDINATES (ANGSTROEM)
---------------------------------
  C      5.517748   -1.105354   -1.411197
  C      4.098990   -1.325053   -1.899584
  O      3.202789   -1.530034   -0.787633
  P      2.350862   -0.348099   -0.150998
  S      3.340699    1.270298    0.357799
  O      1.621824   -1.105736    1.027838
  C      2.138215   -1.110582    2.382675
  C      0.994731   -0.901811    3.354004
  S      0.800418   -0.067821   -1.556633
  C      0.186379    1.493662   -0.864525
  S     -0.774498    1.258943    0.644721
  P     -2.434044    0.307021   -0.310082
  S     -2.940211    1.026909   -2.054220
  O     -3.562849    0.310099    0.808203
  C     -4.487063    1.401526    0.976028
  C     -3.801437    2.677649    1.418205
  O     -2.038856   -1.216699   -0.396170
  C     -1.711038   -2.017789    0.765171
  C     -2.886091   -2.891171    1.152533
  H      5.576314   -0.192662   -0.822265
  H      5.833358   -1.942108   -0.794554
  H      6.180334   -1.017715   -2.266135
  H      4.017569   -2.238240   -2.491993
  H      3.750838   -0.474916   -2.493153
  H      2.622509   -2.077171    2.532900
  H      2.882337   -0.312449    2.476070
  H      0.277330   -1.712992    3.272352
  H      1.393448   -0.877727    4.363144
  H      0.495684    0.041831    3.145990
  H     -0.446916    1.945492   -1.628390
  H      1.031885    2.135154   -0.612998
  H     -5.011745    1.555443    0.028367
  H     -5.183630    1.036584    1.732143
  H     -3.184318    2.494125    2.294167
  H     -3.170332    3.059387    0.617137
  H     -4.553581    3.422896    1.656328
  H     -0.847850   -2.613141    0.458615
  H     -1.425101   -1.351713    1.583450
  H     -3.727328   -2.273640    1.455919
  H     -3.187475   -3.504305    0.307669
  H     -2.595998   -3.534528    1.977373

 Total Charge           Charge          ....    0
 Multiplicity           Mult            ....    1
 Number of Electrons    NEL             ....  202
 Basis Dimension        Dim             ....  539

ORBITAL ENERGIES
----------------

  NO   OCC          E(Eh)            E(eV)
   0   2.0000     -88.575328     -2410.2572
   1   2.0000     -88.573021     -2410.1944
   2   2.0000     -88.522066     -2408.8079
   3   2.0000     -88.520650     -2408.7694
   4   2.0000     -76.915586     -2092.9795
   5   2.0000     -76.914145     -2092.9403
   6   2.0000     -18.997055      -516.9361
   7   2.0000     -18.993587      -516.8418
   8   2.0000     -18.993569      -516.8413
   9   2.0000     -18.988451      -516.7020
  10   2.0000     -10.102645      -274.9069
  11   2.0000     -10.101752      -274.8826
  12   2.0000     -10.101562      -274.8775
  13   2.0000     -10.100731      -274.8549
  14   2.0000     -10.098842      -274.8035
  15   2.0000     -10.034958      -273.0651
  16   2.0000     -10.030814      -272.9523
  17   2.0000     -10.030710      -272.9495
  18   2.0000     -10.026818      -272.8436
  19   2.0000      -7.869441      -214.1384
  20   2.0000      -7.867518      -214.0860
  21   2.0000      -7.817018      -212.7119
  22   2.0000      -7.815416      -212.6683
  23   2.0000      -6.594108      -179.4348
  24   2.0000      -6.592657      -179.3953
  25   2.0000      -5.816353      -158.2710
  26   2.0000      -5.814306      -158.2153
  27   2.0000      -5.813266      -158.1870
  28   2.0000      -5.811415      -158.1367
  29   2.0000      -5.806590      -158.0054
  30   2.0000      -5.804650      -157.9525
  31   2.0000      -5.764528      -156.8608
  32   2.0000      -5.763101      -156.8219
  33   2.0000      -5.757246      -156.6626
  34   2.0000      -5.757172      -156.6606
  35   2.0000      -5.755631      -156.6187
  36   2.0000      -5.755442      -156.6135
  37   2.0000      -4.739618      -128.9716
  38   2.0000      -4.739021      -128.9553
  39   2.0000      -4.738536      -128.9421
  40   2.0000      -4.737821      -128.9227
  41   2.0000      -4.737517      -128.9144
  42   2.0000      -4.736113      -128.8762
  43   2.0000      -1.052541       -28.6411
  44   2.0000      -1.051483       -28.6123
  45   2.0000      -1.012176       -27.5427
  46   2.0000      -1.011253       -27.5176
  47   2.0000      -0.801644       -21.8138
  48   2.0000      -0.760603       -20.6971
  49   2.0000      -0.751690       -20.4545
  50   2.0000      -0.735953       -20.0263
  51   2.0000      -0.733079       -19.9481
  52   2.0000      -0.711874       -19.3711
  53   2.0000      -0.686206       -18.6726
  54   2.0000      -0.669211       -18.2102
  55   2.0000      -0.630864       -17.1667
  56   2.0000      -0.624151       -16.9840
  57   2.0000      -0.608368       -16.5545
  58   2.0000      -0.605396       -16.4737
  59   2.0000      -0.589945       -16.0532
  60   2.0000      -0.535118       -14.5613
  61   2.0000      -0.523387       -14.2421
  62   2.0000      -0.500835       -13.6284
  63   2.0000      -0.495426       -13.4812
  64   2.0000      -0.475222       -12.9315
  65   2.0000      -0.465930       -12.6786
  66   2.0000      -0.462187       -12.5767
  67   2.0000      -0.449523       -12.2321
  68   2.0000      -0.445885       -12.1331
  69   2.0000      -0.439629       -11.9629
  70   2.0000      -0.425352       -11.5744
  71   2.0000      -0.414940       -11.2911
  72   2.0000      -0.411198       -11.1893
  73   2.0000      -0.402479       -10.9520
  74   2.0000      -0.394927       -10.7465
  75   2.0000      -0.390973       -10.6389
  76   2.0000      -0.382259       -10.4018
  77   2.0000      -0.378539       -10.3006
  78   2.0000      -0.372006       -10.1228
  79   2.0000      -0.369778       -10.0622
  80   2.0000      -0.363664        -9.8958
  81   2.0000      -0.360030        -9.7969
  82   2.0000      -0.357115        -9.7176
  83   2.0000      -0.357014        -9.7148
  84   2.0000      -0.349726        -9.5165
  85   2.0000      -0.335839        -9.1387
  86   2.0000      -0.326185        -8.8759
  87   2.0000      -0.314330        -8.5533
  88   2.0000      -0.312468        -8.5027
  89   2.0000      -0.308905        -8.4057
  90   2.0000      -0.307119        -8.3571
  91   2.0000      -0.295288        -8.0352
  92   2.0000      -0.284303        -7.7363
  93   2.0000      -0.280313        -7.6277
  94   2.0000      -0.273347        -7.4381
  95   2.0000      -0.246878        -6.7179
  96   2.0000      -0.232940        -6.3386
  97   2.0000      -0.225476        -6.1355
  98   2.0000      -0.217596        -5.9211
  99   2.0000      -0.216136        -5.8814
 100   2.0000      -0.213731        -5.8159
 101   0.0000      -0.045700        -1.2435
 102   0.0000      -0.024623        -0.6700
 103   0.0000      -0.003629        -0.0987
 104   0.0000      -0.000877        -0.0239
 105   0.0000       0.014158         0.3853

MULLIKEN ATOMIC CHARGES
-----------------------
   0 C :   -0.452449
   1 C :   -0.127947
   2 O :   -0.311441
   3 P :    0.681053
   4 S :   -0.497609
   5 O :   -0.254867
   6 C :   -0.115018
   7 C :   -0.479277
   8 S :   -0.112437
   9 C :   -0.239710
  10 S :   -0.160800
  11 P :    0.641904
  12 S :   -0.441414
  13 O :   -0.292294
  14 C :   -0.166171
  15 C :   -0.444923
  16 O :   -0.262755
  17 C :   -0.094575
  18 C :   -0.480208
  19 H :    0.180530
  20 H :    0.150896
  21 H :    0.145501
  22 H :    0.151181
  23 H :    0.154449
  24 H :    0.149964
  25 H :    0.171384
  26 H :    0.148704
  27 H :    0.148079
  28 H :    0.174823
  29 H :    0.218955
  30 H :    0.214535
  31 H :    0.175168
  32 H :    0.147892
  33 H :    0.152646
  34 H :    0.181594
  35 H :    0.148538
  36 H :    0.170769
  37 H :    0.157237
  38 H :    0.164286
  39 H :    0.159419
  40 H :    0.144390
Sum of atomic charges:    0.0000000

LOEWDIN ATOMIC CHARGES
----------------------
   0 C :   -0.400408
   1 C :    0.023062
   2 O :   -0.659296
   3 P :    0.372382
   4 S :   -0.144031
   5 O :   -0.665058
   6 C :    0.023519
   7 C :   -0.397556
   8 S :    0.184939
   9 C :   -0.424569
  10 S :    0.135937
  11 P :    0.380457
  12 S :   -0.101708
  13 O :   -0.670564
  14 C :    0.022756
  15 C :   -0.408570
  16 O :   -0.654271
  17 C :    0.016894
  18 C :   -0.392253
  19 H :    0.168575
  20 H :    0.158016
  21 H :    0.158474
  22 H :    0.178807
  23 H :    0.176596
  24 H :    0.172462
  25 H :    0.183869
  26 H :    0.154921
  27 H :    0.160000
  28 H :    0.165959
  29 H :    0.192388
  30 H :    0.193534
  31 H :    0.180918
  32 H :    0.179222
  33 H :    0.159663
  34 H :    0.167262
  35 H :    0.159829
  36 H :    0.185566
  37 H :    0.177297
  38 H :    0.164371
  39 H :    0.162714
  40 H :    0.157895

  Mayer bond orders larger than 0.100000
B(  0-C ,  1-C ) :   0.9567 B(  0-C , 19-H ) :   0.9573 B(  0-C , 20-H ) :   0.9750
B(  0-C , 21-H ) :   0.9646 B(  1-C ,  2-O ) :   0.7738 B(  1-C , 22-H ) :   0.9638
B(  1-C , 23-H ) :   0.9623 B(  2-O ,  3-P ) :   1.0738 B(  3-P ,  4-S ) :   1.7238
B(  3-P ,  5-O ) :   1.1592 B(  3-P ,  8-S ) :   1.1222 B(  5-O ,  6-C ) :   0.7630
B(  6-C ,  7-C ) :   0.9491 B(  6-C , 24-H ) :   0.9506 B(  6-C , 25-H ) :   0.9540
B(  7-C , 26-H ) :   0.9729 B(  7-C , 27-H ) :   0.9628 B(  7-C , 28-H ) :   0.9684
B(  8-S ,  9-C ) :   0.9087 B(  9-C , 10-S ) :   0.9104 B(  9-C , 29-H ) :   0.9060
B(  9-C , 30-H ) :   0.9009 B( 10-S , 11-P ) :   1.0133 B( 11-P , 12-S ) :   1.8450
B( 11-P , 13-O ) :   1.0343 B( 11-P , 16-O ) :   1.1396 B( 13-O , 14-C ) :   0.8182
B( 14-C , 15-C ) :   0.9171 B( 14-C , 31-H ) :   0.9684 B( 14-C , 32-H ) :   0.9615
B( 15-C , 33-H ) :   0.9674 B( 15-C , 34-H ) :   0.9627 B( 15-C , 35-H ) :   0.9561
B( 16-O , 17-C ) :   0.7358 B( 17-C , 18-C ) :   0.9339 B( 17-C , 36-H ) :   0.9543
B( 17-C , 37-H ) :   0.9638 B( 18-C , 38-H ) :   0.9708 B( 18-C , 39-H ) :   0.9730
B( 18-C , 40-H ) :   0.9661

Dispersion correction           -0.021362736
FINAL SINGLE POINT ENERGY     -2932.462750661278

DIPOLE MOMENT
-------------

Method             : SCF
Type of density    : Electron Density
Multiplicity       :   1
Irrep              :   0
Energy             : -2932.4879422076928677 Eh
Relativity type    :
Basis              : AO
                                X                 Y                 Z
Electronic contribution:     -0.689307748       7.176144547     -14.890044851
Nuclear contribution   :      0.732833120      -8.027772986      16.251050559
                        -----------------------------------------
Total Dipole Moment    :      0.043525372      -0.851628440       1.361005708
                        -----------------------------------------
Magnitude (a.u.)       :      1.606082811
Magnitude (Debye)      :      4.082338076

Rotational constants in cm-1:             0.013036             0.004676             0.004442
Rotational constants in MHz :           390.819767           140.174015           133.167564

                             ****ORCA TERMINATED NORMALLY****
TOTAL RUN TIME: 0 days 0 hours 1 minutes 19 seconds 785 msec
