                         Program Version 6.0.0  -   RELEASE  -
|  1> ! r2scan-3c def2/J RI DEFGRID2 scfconv6 printgap
|  2> %output
|  3>     printlevel normal
|  4> end
|  5> %cpcm
|  6>     smd true
|  7>     smdsolvent "water"
|  8> end
|  9> * xyz 0 1
| 10> C 5.5177475599 -1.1053536066 -1.4111974031
| 11> C 4.098990077 -1.3250525646 -1.8995838384
| 12> O 3.2027889354 -1.5300344794 -0.7876327579
| 13> P 2.3508615799 -0.3480993333 -0.1509975499
| 14> S 3.340699159 1.2702979744 0.3577986188
| 15> O 1.6218241912 -1.1057362515 1.0278377871
| 16> C 2.1382147788 -1.1105817067 2.3826747256
| 17> C 0.9947308724 -0.9018112569 3.35400401
| 18> S 0.8004184214 -0.0678212514 -1.5566327156
| 19> C 0.1863786245 1.4936620181 -0.864525342
| 20> S -0.7744978067 1.2589426877 0.6447207062
| 21> P -2.434043826 0.307020679 -0.3100819675
| 22> S -2.9402112825 1.0269090403 -2.0542199262
| 23> O -3.5628490999 0.3100990955 0.8082025547
| 24> C -4.4870631569 1.4015260335 0.9760277278
| 25> C -3.801437465 2.6776486625 1.4182051034
| 26> O -2.0388560976 -1.2166989145 -0.3961697593
| 27> C -1.7110380181 -2.0177889103 0.7651713361
| 28> C -2.8860911257 -2.8911708464 1.1525334212
| 29> H 5.5763141393 -0.1926615887 -0.8222647105
| 30> H 5.8333575169 -1.9421080967 -0.7945541358
| 31> H 6.1803339076 -1.0177147923 -2.2661354462
| 32> H 4.0175688803 -2.2382403253 -2.4919928179
| 33> H 3.7508378833 -0.4749159065 -2.4931528375
| 34> H 2.6225094799 -2.0771712359 2.5329004611
| 35> H 2.8823367184 -0.3124493308 2.4760697216
| 36> H 0.2773295176 -1.7129920035 3.2723518514
| 37> H 1.3934481141 -0.8777269543 4.3631442848
| 38> H 0.4956839905 0.0418308494 3.1459895775
| 39> H -0.4469156173 1.9454920612 -1.628389892
| 40> H 1.0318850025 2.1351538095 -0.6129977493
| 41> H -5.0117450223 1.5554431332 0.0283669506
| 42> H -5.1836300654 1.0365835416 1.7321434758
| 43> H -3.1843176389 2.4941250351 2.2941670323
| 44> H -3.1703324218 3.0593868842 0.6171370359
| 45> H -4.5535814163 3.4228963914 1.6563278805
| 46> H -0.8478502309 -2.6131413412 0.4586154092
| 47> H -1.4251007036 -1.3517129555 1.5834503368
| 48> H -3.7273276367 -2.2736402578 1.4559189455
| 49> H -3.1874748429 -3.5043046843 0.30766857
| 50> H -2.5959984073 -3.5345284147 1.9773734746
| 51> *
| 52>
| 53>                          ****END OF INPUT****

CARTESIAN COORDINATES (ANGSTROEM)
---------------------------------
  C      5.517748   -1.105354   -1.411197
  C      4.098990   -1.325053   -1.899584
  O      3.202789   -1.530034   -0.787633
  P      2.350862   -0.348099   -0.150998
  S      3.340699    1.270298    0.357799
  O      1.621824   -1.105736    1.027838
  C      2.138215   -1.110582    2.382675
  C      0.994731   -0.901811    3.354004
  S      0.800418   -0.067821   -1.556633
  C      0.186379    1.493662   -0.864525
  S     -0.774498    1.258943    0.644721
  P     -2.434044    0.307021   -0.310082
  S     -2.940211    1.026909   -2.054220
  O     -3.562849    0.310099    0.808203
  C     -4.487063    1.401526    0.976028
  C     -3.801437    2.677649    1.418205
  O     -2.038856   -1.216699   -0.396170
  C     -1.711038   -2.017789    0.765171
  C     -2.886091   -2.891171    1.152533
  H      5.576314   -0.192662   -0.822265
  H      5.833358   -1.942108   -0.794554
  H      6.180334   -1.017715   -2.266135
  H      4.017569   -2.238240   -2.491993
  H      3.750838   -0.474916   -2.493153
  H      2.622509   -2.077171    2.532900
  H      2.882337   -0.312449    2.476070
  H      0.277330   -1.712992    3.272352
  H      1.393448   -0.877727    4.363144
  H      0.495684    0.041831    3.145990
  H     -0.446916    1.945492   -1.628390
  H      1.031885    2.135154   -0.612998
  H     -5.011745    1.555443    0.028367
  H     -5.183630    1.036584    1.732143
  H     -3.184318    2.494125    2.294167
  H     -3.170332    3.059387    0.617137
  H     -4.553581    3.422896    1.656328
  H     -0.847850   -2.613141    0.458615
  H     -1.425101   -1.351713    1.583450
  H     -3.727328   -2.273640    1.455919
  H     -3.187475   -3.504305    0.307669
  H     -2.595998   -3.534528    1.977373

 Total Charge           Charge          ....    0
 Multiplicity           Mult            ....    1
 Number of Electrons    NEL             ....  202
 Basis Dimension        Dim             ....  539

ORBITAL ENERGIES
----------------

  NO   OCC          E(Eh)            E(eV)
   0   2.0000     -88.580532     -2410.3988
   1   2.0000     -88.576238     -2410.2820
   2   2.0000     -88.531108     -2409.0539
   3   2.0000     -88.528390     -2408.9800
   4   2.0000     -76.920440     -2093.1116
   5   2.0000     -76.920033     -2093.1005
   6   2.0000     -18.997371      -516.9448
   7   2.0000     -18.995621      -516.8971
   8   2.0000     -18.993990      -516.8527
   9   2.0000     -18.993489      -516.8391
  10   2.0000     -10.103189      -274.9217
  11   2.0000     -10.091654      -274.6079
  12   2.0000     -10.091331      -274.5991
  13   2.0000     -10.091059      -274.5917
  14   2.0000     -10.088978      -274.5351
  15   2.0000     -10.018874      -272.6274
  16   2.0000     -10.018525      -272.6179
  17   2.0000     -10.017968      -272.6028
  18   2.0000     -10.016867      -272.5728
  19   2.0000      -7.874763      -214.2832
  20   2.0000      -7.870680      -214.1721
  21   2.0000      -7.826241      -212.9628
  22   2.0000      -7.823602      -212.8910
  23   2.0000      -6.598986      -179.5676
  24   2.0000      -6.598556      -179.5558
  25   2.0000      -5.821629      -158.4146
  26   2.0000      -5.818566      -158.3312
  27   2.0000      -5.817498      -158.3022
  28   2.0000      -5.814603      -158.2234
  29   2.0000      -5.811979      -158.1520
  30   2.0000      -5.807761      -158.0372
  31   2.0000      -5.773805      -157.1132
  32   2.0000      -5.771068      -157.0387
  33   2.0000      -5.766428      -156.9125
  34   2.0000      -5.766345      -156.9102
  35   2.0000      -5.763832      -156.8419
  36   2.0000      -5.763750      -156.8396
  37   2.0000      -4.744800      -129.1126
  38   2.0000      -4.744004      -129.0909
  39   2.0000      -4.743809      -129.0856
  40   2.0000      -4.743469      -129.0763
  41   2.0000      -4.742582      -129.0522
  42   2.0000      -4.742367      -129.0464
  43   2.0000      -1.054652       -28.6985
  44   2.0000      -1.052456       -28.6388
  45   2.0000      -1.013279       -27.5727
  46   2.0000      -1.012258       -27.5449
  47   2.0000      -0.804698       -21.8969
  48   2.0000      -0.756777       -20.5929
  49   2.0000      -0.745345       -20.2819
  50   2.0000      -0.726520       -19.7696
  51   2.0000      -0.722613       -19.6633
  52   2.0000      -0.710858       -19.3434
  53   2.0000      -0.689675       -18.7670
  54   2.0000      -0.675251       -18.3745
  55   2.0000      -0.628445       -17.1008
  56   2.0000      -0.618680       -16.8351
  57   2.0000      -0.602798       -16.4030
  58   2.0000      -0.598059       -16.2740
  59   2.0000      -0.587084       -15.9754
  60   2.0000      -0.530650       -14.4397
  61   2.0000      -0.519235       -14.1291
  62   2.0000      -0.496420       -13.5083
  63   2.0000      -0.491307       -13.3691
  64   2.0000      -0.476129       -12.9561
  65   2.0000      -0.462224       -12.5778
  66   2.0000      -0.456554       -12.4235
  67   2.0000      -0.442186       -12.0325
  68   2.0000      -0.440037       -11.9740
  69   2.0000      -0.434553       -11.8248
  70   2.0000      -0.423099       -11.5131
  71   2.0000      -0.412992       -11.2381
  72   2.0000      -0.407704       -11.0942
  73   2.0000      -0.396903       -10.8003
  74   2.0000      -0.393692       -10.7129
  75   2.0000      -0.388044       -10.5592
  76   2.0000      -0.378471       -10.2987
  77   2.0000      -0.369663       -10.0591
  78   2.0000      -0.363751        -9.8982
  79   2.0000      -0.363263        -9.8849
  80   2.0000      -0.355971        -9.6865
  81   2.0000      -0.352308        -9.5868
  82   2.0000      -0.348992        -9.4966
  83   2.0000      -0.347497        -9.4559
  84   2.0000      -0.344049        -9.3621
  85   2.0000      -0.333735        -9.0814
  86   2.0000      -0.323165        -8.7938
  87   2.0000      -0.309014        -8.4087
  88   2.0000      -0.306765        -8.3475
  89   2.0000      -0.304250        -8.2791
  90   2.0000      -0.304030        -8.2731
  91   2.0000      -0.292032        -7.9466
  92   2.0000      -0.283282        -7.7085
  93   2.0000      -0.279726        -7.6117
  94   2.0000      -0.275313        -7.4916
  95   2.0000      -0.251313        -6.8386
  96   2.0000      -0.240329        -6.5397
  97   2.0000      -0.234952        -6.3934
  98   2.0000      -0.225363        -6.1324
  99   2.0000      -0.224921        -6.1204
 100   2.0000      -0.220550        -6.0015
 101   0.0000      -0.051337        -1.3969
 102   0.0000      -0.031203        -0.8491
 103   0.0000      -0.007191        -0.1957
 104   0.0000      -0.005437        -0.1479
 105   0.0000       0.013614         0.3705

MULLIKEN ATOMIC CHARGES
-----------------------
   0 C :   -0.491298
   1 C :   -0.122600
   2 O :   -0.337147
   3 P :    0.709079
   4 S :   -0.537014
   5 O :   -0.278286
   6 C :   -0.110822
   7 C :   -0.507527
   8 S :   -0.138829
   9 C :   -0.247520
  10 S :   -0.154153
  11 P :    0.658162
  12 S :   -0.498264
  13 O :   -0.308406
  14 C :   -0.158609
  15 C :   -0.482674
  16 O :   -0.292404
  17 C :   -0.087020
  18 C :   -0.525969
  19 H :    0.171130
  20 H :    0.167101
  21 H :    0.169782
  22 H :    0.177036
  23 H :    0.164509
  24 H :    0.173645
  25 H :    0.169411
  26 H :    0.170854
  27 H :    0.169252
  28 H :    0.170860
  29 H :    0.234569
  30 H :    0.231577
  31 H :    0.179882
  32 H :    0.176595
  33 H :    0.168821
  34 H :    0.174491
  35 H :    0.173160
  36 H :    0.182464
  37 H :    0.176510
  38 H :    0.169884
  39 H :    0.168221
  40 H :    0.171548
Sum of atomic charges:    0.0000000

LOEWDIN ATOMIC CHARGES
----------------------
   0 C :   -0.404628
   1 C :    0.027880
   2 O :   -0.671549
   3 P :    0.376917
   4 S :   -0.169411
   5 O :   -0.675027
   6 C :    0.029502
   7 C :   -0.399140
   8 S :    0.168199
   9 C :   -0.420734
  10 S :    0.144401
  11 P :    0.383223
  12 S :   -0.144409
  13 O :   -0.673380
  14 C :    0.028959
  15 C :   -0.411173
  16 O :   -0.677523
  17 C :    0.022117
  18 C :   -0.394215
  19 H :    0.162719
  20 H :    0.162532
  21 H :    0.167569
  22 H :    0.189806
  23 H :    0.180233
  24 H :    0.182685
  25 H :    0.183430
  26 H :    0.162869
  27 H :    0.167864
  28 H :    0.163715
  29 H :    0.196713
  30 H :    0.198286
  31 H :    0.181997
  32 H :    0.191654
  33 H :    0.163824
  34 H :    0.161966
  35 H :    0.168816
  36 H :    0.190349
  37 H :    0.184857
  38 H :    0.164836
  39 H :    0.164229
  40 H :    0.169042

  Mayer bond orders larger than 0.100000
B(  0-C ,  1-C ) :   0.9463 B(  0-C , 19-H ) :   0.9616 B(  0-C , 20-H ) :   0.9721
B(  0-C , 21-H ) :   0.9594 B(  1-C ,  2-O ) :   0.7609 B(  1-C , 22-H ) :   0.9535
B(  1-C , 23-H ) :   0.9561 B(  2-O ,  3-P ) :   1.0788 B(  3-P ,  4-S ) :   1.6972
B(  3-P ,  5-O ) :   1.1707 B(  3-P ,  8-S ) :   1.1249 B(  5-O ,  6-C ) :   0.7525
B(  6-C ,  7-C ) :   0.9484 B(  6-C , 24-H ) :   0.9408 B(  6-C , 25-H ) :   0.9528
B(  7-C , 26-H ) :   0.9671 B(  7-C , 27-H ) :   0.9580 B(  7-C , 28-H ) :   0.9671
B(  8-S ,  9-C ) :   0.8971 B(  9-C , 10-S ) :   0.9018 B(  9-C , 29-H ) :   0.9017
B(  9-C , 30-H ) :   0.8984 B( 10-S , 11-P ) :   1.0230 B( 11-P , 12-S ) :   1.8189
B( 11-P , 13-O ) :   1.0490 B( 11-P , 16-O ) :   1.1455 B( 13-O , 14-C ) :   0.8056
B( 14-C , 15-C ) :   0.9046 B( 14-C , 31-H ) :   0.9673 B( 14-C , 32-H ) :   0.9505
B( 15-C , 33-H ) :   0.9644 B( 15-C , 34-H ) :   0.9649 B( 15-C , 35-H ) :   0.9509
B( 16-O , 17-C ) :   0.7202 B( 17-C , 18-C ) :   0.9324 B( 17-C , 36-H ) :   0.9463
B( 17-C , 37-H ) :   0.9523 B( 18-C , 38-H ) :   0.9694 B( 18-C , 39-H ) :   0.9718
B( 18-C , 40-H ) :   0.9588

Dispersion correction           -0.021362736
FINAL SINGLE POINT ENERGY     -2932.471758319498

DIPOLE MOMENT
-------------

Method             : SCF
Type of density    : Electron Density
Multiplicity       :   1
Irrep              :   0
Energy             : -2932.4969498659129385 Eh
Relativity type    :
Basis              : AO
                                X                 Y                 Z
Electronic contribution:     -0.635116344       6.976562119     -14.256745081
Nuclear contribution   :      0.732833120      -8.027772986      16.251050559
                        -----------------------------------------
Total Dipole Moment    :      0.097716776      -1.051210867       1.994305478
                        -----------------------------------------
Magnitude (a.u.)       :      2.256512175
Magnitude (Debye)      :      5.735598133

Rotational constants in cm-1:             0.013036             0.004676             0.004442
Rotational constants in MHz :           390.819767           140.174015           133.167564

                             ****ORCA TERMINATED NORMALLY****
TOTAL RUN TIME: 0 days 0 hours 1 minutes 48 seconds 902 msec
