                         Program Version 6.0.0  -   RELEASE  -
|  1> ! pbe def2-sv(p) def2/J RI DEFGRID1 loosescf d4 GCP(DFT/SV(P)) printgap
|  2> %output
|  3>     printlevel normal
|  4> end
|  5> * xyz 0 1
|  6> C 5.5239768253 -0.4154225369 0.8422199713
|  7> C 4.4502162888 -1.2535860587 0.1796246161
|  8> O 3.7530555482 -0.4925124467 -0.8383757545
|  9> P 2.4053740319 0.2814850836 -0.5920387993
| 10> S 1.8146561894 1.1701130318 -2.2281460406
| 11> O 2.746138502 1.1779847014 0.6740456851
| 12> C 1.8423815067 2.171102663 1.1980465173
| 13> C 2.190647627 3.5441333092 0.6588624868
| 14> S 1.0705650534 -1.1848947902 0.2256343363
| 15> C 0.1370796095 -1.5541108523 -1.2924530416
| 16> S -1.5452863921 -2.1095208607 -0.9314844279
| 17> P -2.1827696802 -0.451598906 0.2099673554
| 18> S -1.506661973 1.3231185533 -0.303308107
| 19> O -1.8474024262 -0.9461499092 1.6703232568
| 20> C -1.6722809874 -0.0402903312 2.7797464578
| 21> C -2.977616554 0.6198869625 3.1691786806
| 22> O -3.7635819717 -0.5893215343 0.1751590005
| 23> C -4.5394222717 -0.1827150032 -0.9697568663
| 24> C -5.9839318119 -0.054883077 -0.5301807818
| 25> H 6.2053678171 -0.0247271791 0.0915225878
| 26> H 5.0770775227 0.4177498174 1.3772524225
| 27> H 6.0769039276 -1.0358997945 1.54060885
| 28> H 3.7210706784 -1.6176221571 0.9091652168
| 29> H 4.8824978627 -2.0955747913 -0.3638501501
| 30> H 0.8141527477 1.9085372396 0.9347812217
| 31> H 1.9704702057 2.1214814323 2.2810943774
| 32> H 1.533586998 4.2811782002 1.1089689834
| 33> H 3.2238266895 3.7884215343 0.8887067281
| 34> H 2.0542284789 3.5646482377 -0.4205064793
| 35> H 0.6164882953 -2.3705300095 -1.8273757095
| 36> H 0.1087246223 -0.6458688363 -1.902204975
| 37> H -1.2797612708 -0.6764511794 3.5736592137
| 38> H -0.9260850717 0.7106589979 2.5006785147
| 39> H -3.7337621489 -0.1343911022 3.3690622353
| 40> H -2.8260595861 1.2279099037 4.0554534489
| 41> H -3.3225463893 1.2570332149 2.3554198285
| 42> H -4.145377308 0.7703266244 -1.3394268798
| 43> H -4.4243363217 -0.9419442413 -1.7482900744
| 44> H -6.0772724751 0.7100909857 0.2353409987
| 45> H -6.593182137 0.2180895915 -1.3854931623
| 46> H -6.3310781975 -1.0015789295 -0.126925419
| 47> *
| 48>
| 49>                          ****END OF INPUT****

CARTESIAN COORDINATES (ANGSTROEM)
---------------------------------
  C      5.523977   -0.415423    0.842220
  C      4.450216   -1.253586    0.179625
  O      3.753056   -0.492512   -0.838376
  P      2.405374    0.281485   -0.592039
  S      1.814656    1.170113   -2.228146
  O      2.746139    1.177985    0.674046
  C      1.842382    2.171103    1.198047
  C      2.190648    3.544133    0.658862
  S      1.070565   -1.184895    0.225634
  C      0.137080   -1.554111   -1.292453
  S     -1.545286   -2.109521   -0.931484
  P     -2.182770   -0.451599    0.209967
  S     -1.506662    1.323119   -0.303308
  O     -1.847402   -0.946150    1.670323
  C     -1.672281   -0.040290    2.779746
  C     -2.977617    0.619887    3.169179
  O     -3.763582   -0.589322    0.175159
  C     -4.539422   -0.182715   -0.969757
  C     -5.983932   -0.054883   -0.530181
  H      6.205368   -0.024727    0.091523
  H      5.077078    0.417750    1.377252
  H      6.076904   -1.035900    1.540609
  H      3.721071   -1.617622    0.909165
  H      4.882498   -2.095575   -0.363850
  H      0.814153    1.908537    0.934781
  H      1.970470    2.121481    2.281094
  H      1.533587    4.281178    1.108969
  H      3.223827    3.788422    0.888707
  H      2.054228    3.564648   -0.420506
  H      0.616488   -2.370530   -1.827376
  H      0.108725   -0.645869   -1.902205
  H     -1.279761   -0.676451    3.573659
  H     -0.926085    0.710659    2.500679
  H     -3.733762   -0.134391    3.369062
  H     -2.826060    1.227910    4.055453
  H     -3.322546    1.257033    2.355420
  H     -4.145377    0.770327   -1.339427
  H     -4.424336   -0.941944   -1.748290
  H     -6.077272    0.710091    0.235341
  H     -6.593182    0.218090   -1.385493
  H     -6.331078   -1.001579   -0.126925

 Total Charge           Charge          ....    0
 Multiplicity           Mult            ....    1
 Number of Electrons    NEL             ....  202
 Basis Dimension        Dim             ....  334

ORBITAL ENERGIES
----------------

  NO   OCC          E(Eh)            E(eV)
   0   2.0000     -88.043969     -2395.7982
   1   2.0000     -88.038238     -2395.6422
   2   2.0000     -87.986464     -2394.2334
   3   2.0000     -87.981539     -2394.0994
   4   2.0000     -76.426848     -2079.6803
   5   2.0000     -76.423006     -2079.5757
   6   2.0000     -18.794114      -511.4138
   7   2.0000     -18.792955      -511.3823
   8   2.0000     -18.790969      -511.3283
   9   2.0000     -18.789354      -511.2843
  10   2.0000      -9.955058      -270.8909
  11   2.0000      -9.954180      -270.8670
  12   2.0000      -9.953706      -270.8541
  13   2.0000      -9.950578      -270.7690
  14   2.0000      -9.948022      -270.6994
  15   2.0000      -9.889461      -269.1059
  16   2.0000      -9.885622      -269.0015
  17   2.0000      -9.885235      -268.9909
  18   2.0000      -9.876921      -268.7647
  19   2.0000      -7.689525      -209.2426
  20   2.0000      -7.682692      -209.0567
  21   2.0000      -7.630964      -207.6491
  22   2.0000      -7.626868      -207.5376
  23   2.0000      -6.424364      -174.8158
  24   2.0000      -6.420538      -174.7117
  25   2.0000      -5.717449      -155.5797
  26   2.0000      -5.714030      -155.4867
  27   2.0000      -5.710522      -155.3912
  28   2.0000      -5.707319      -155.3041
  29   2.0000      -5.706408      -155.2793
  30   2.0000      -5.699720      -155.0973
  31   2.0000      -5.659792      -154.0108
  32   2.0000      -5.655822      -153.9027
  33   2.0000      -5.651573      -153.7871
  34   2.0000      -5.651279      -153.7791
  35   2.0000      -5.647377      -153.6729
  36   2.0000      -5.647023      -153.6633
  37   2.0000      -4.646726      -126.4438
  38   2.0000      -4.646216      -126.4300
  39   2.0000      -4.644920      -126.3947
  40   2.0000      -4.643394      -126.3532
  41   2.0000      -4.642231      -126.3215
  42   2.0000      -4.640821      -126.2832
  43   2.0000      -0.988562       -26.9001
  44   2.0000      -0.986749       -26.8508
  45   2.0000      -0.947535       -25.7837
  46   2.0000      -0.943695       -25.6793
  47   2.0000      -0.761189       -20.7130
  48   2.0000      -0.721510       -19.6333
  49   2.0000      -0.710307       -19.3284
  50   2.0000      -0.690380       -18.7862
  51   2.0000      -0.687596       -18.7104
  52   2.0000      -0.671868       -18.2825
  53   2.0000      -0.649223       -17.6662
  54   2.0000      -0.635326       -17.2881
  55   2.0000      -0.599302       -16.3078
  56   2.0000      -0.586237       -15.9523
  57   2.0000      -0.571294       -15.5457
  58   2.0000      -0.567276       -15.4364
  59   2.0000      -0.561993       -15.2926
  60   2.0000      -0.507320       -13.8049
  61   2.0000      -0.499890       -13.6027
  62   2.0000      -0.479096       -13.0369
  63   2.0000      -0.477203       -12.9854
  64   2.0000      -0.449248       -12.2246
  65   2.0000      -0.446362       -12.1461
  66   2.0000      -0.436938       -11.8897
  67   2.0000      -0.434011       -11.8100
  68   2.0000      -0.428467       -11.6592
  69   2.0000      -0.423759       -11.5311
  70   2.0000      -0.407353       -11.0846
  71   2.0000      -0.396062       -10.7774
  72   2.0000      -0.392731       -10.6867
  73   2.0000      -0.382720       -10.4143
  74   2.0000      -0.380800       -10.3621
  75   2.0000      -0.374401       -10.1880
  76   2.0000      -0.362691        -9.8693
  77   2.0000      -0.358394        -9.7524
  78   2.0000      -0.354898        -9.6573
  79   2.0000      -0.351896        -9.5756
  80   2.0000      -0.349045        -9.4980
  81   2.0000      -0.344890        -9.3849
  82   2.0000      -0.340940        -9.2774
  83   2.0000      -0.336369        -9.1531
  84   2.0000      -0.330834        -9.0025
  85   2.0000      -0.315924        -8.5967
  86   2.0000      -0.315109        -8.5746
  87   2.0000      -0.301977        -8.2172
  88   2.0000      -0.292005        -7.9459
  89   2.0000      -0.290293        -7.8993
  90   2.0000      -0.286309        -7.7909
  91   2.0000      -0.277844        -7.5605
  92   2.0000      -0.272411        -7.4127
  93   2.0000      -0.263222        -7.1626
  94   2.0000      -0.257619        -7.0102
  95   2.0000      -0.235107        -6.3976
  96   2.0000      -0.223719        -6.0877
  97   2.0000      -0.209451        -5.6995
  98   2.0000      -0.197995        -5.3877
  99   2.0000      -0.197536        -5.3752
 100   2.0000      -0.190965        -5.1964
 101   0.0000      -0.043220        -1.1761
 102   0.0000      -0.029781        -0.8104
 103   0.0000      -0.006705        -0.1825
 104   0.0000       0.013344         0.3631
 105   0.0000       0.018059         0.4914

MULLIKEN ATOMIC CHARGES
-----------------------
   0 C :   -0.290593
   1 C :   -0.011034
   2 O :   -0.355366
   3 P :    0.603276
   4 S :   -0.293706
   5 O :   -0.383310
   6 C :   -0.055562
   7 C :   -0.283728
   8 S :   -0.123065
   9 C :   -0.348415
  10 S :   -0.092932
  11 P :    0.610456
  12 S :   -0.321165
  13 O :   -0.358146
  14 C :   -0.007194
  15 C :   -0.307337
  16 O :   -0.374021
  17 C :   -0.012730
  18 C :   -0.281459
  19 H :    0.119987
  20 H :    0.122341
  21 H :    0.108226
  22 H :    0.101835
  23 H :    0.108949
  24 H :    0.155013
  25 H :    0.099892
  26 H :    0.107133
  27 H :    0.108446
  28 H :    0.128886
  29 H :    0.180765
  30 H :    0.211275
  31 H :    0.106271
  32 H :    0.112665
  33 H :    0.118636
  34 H :    0.110570
  35 H :    0.123248
  36 H :    0.108215
  37 H :    0.103940
  38 H :    0.118779
  39 H :    0.113402
  40 H :    0.117555
Sum of atomic charges:   -0.0000000

LOEWDIN ATOMIC CHARGES
----------------------
   0 C :   -0.360048
   1 C :   -0.114491
   2 O :   -0.238034
   3 P :    0.567374
   4 S :   -0.285671
   5 O :   -0.245948
   6 C :   -0.125499
   7 C :   -0.358956
   8 S :    0.052162
   9 C :   -0.479384
  10 S :    0.084065
  11 P :    0.566543
  12 S :   -0.307298
  13 O :   -0.235951
  14 C :   -0.114436
  15 C :   -0.365042
  16 O :   -0.247052
  17 C :   -0.120424
  18 C :   -0.350162
  19 H :    0.128964
  20 H :    0.125780
  21 H :    0.128669
  22 H :    0.102779
  23 H :    0.120966
  24 H :    0.105393
  25 H :    0.113721
  26 H :    0.129212
  27 H :    0.122747
  28 H :    0.127427
  29 H :    0.134284
  30 H :    0.122963
  31 H :    0.119925
  32 H :    0.109720
  33 H :    0.127239
  34 H :    0.129661
  35 H :    0.122344
  36 H :    0.109279
  37 H :    0.110522
  38 H :    0.127697
  39 H :    0.131558
  40 H :    0.127400

  Mayer bond orders larger than 0.100000
B(  0-C ,  1-C ) :   1.1636 B(  0-C , 19-H ) :   0.9469 B(  0-C , 20-H ) :   0.9414
B(  0-C , 21-H ) :   0.9397 B(  1-C ,  2-O ) :   0.8971 B(  1-C , 22-H ) :   0.9125
B(  1-C , 23-H ) :   0.9367 B(  2-O ,  3-P ) :   1.1393 B(  3-P ,  4-S ) :   1.6564
B(  3-P ,  5-O ) :   1.0881 B(  3-P ,  8-S ) :   0.9381 B(  4-S ,  8-S ) :   0.1192
B(  5-O ,  6-C ) :   0.8889 B(  6-C ,  7-C ) :   1.1686 B(  6-C , 24-H ) :   0.8824
B(  6-C , 25-H ) :   0.9358 B(  7-C , 26-H ) :   0.9399 B(  7-C , 27-H ) :   0.9484
B(  7-C , 28-H ) :   0.9336 B(  8-S ,  9-C ) :   0.9881 B(  9-C , 10-S ) :   1.0038
B(  9-C , 29-H ) :   0.9111 B(  9-C , 30-H ) :   0.8488 B( 10-S , 11-P ) :   0.9606
B( 10-S , 12-S ) :   0.1129 B( 11-P , 12-S ) :   1.6002 B( 11-P , 13-O ) :   1.1340
B( 11-P , 16-O ) :   1.1099 B( 13-O , 14-C ) :   0.9027 B( 14-C , 15-C ) :   1.1646
B( 14-C , 31-H ) :   0.9342 B( 14-C , 32-H ) :   0.9150 B( 15-C , 33-H ) :   0.9458
B( 15-C , 34-H ) :   0.9389 B( 15-C , 35-H ) :   0.9345 B( 16-O , 17-C ) :   0.9025
B( 17-C , 18-C ) :   1.1608 B( 17-C , 36-H ) :   0.9100 B( 17-C , 37-H ) :   0.9286
B( 18-C , 38-H ) :   0.9516 B( 18-C , 39-H ) :   0.9418 B( 18-C , 40-H ) :   0.9504

Dispersion correction           -0.063730435
FINAL SINGLE POINT ENERGY     -2929.520949668146

DIPOLE MOMENT
-------------

Method             : SCF
Type of density    : Electron Density
Multiplicity       :   1
Irrep              :   0
Energy             : -2929.6406992884235478 Eh
Relativity type    :
Basis              : AO
                                X                 Y                 Z
Electronic contribution:      3.066709306     -10.339245222     -14.180659175
Nuclear contribution   :     -3.347308181       9.949175351      15.571727371
                        -----------------------------------------
Total Dipole Moment    :     -0.280598874      -0.390069871       1.391068196
                        -----------------------------------------
Magnitude (a.u.)       :      1.471720408
Magnitude (Debye)      :      3.740815989

Rotational constants in cm-1:             0.013234             0.004547             0.004345
Rotational constants in MHz :           396.758207           136.307232           130.270585

                             ****ORCA TERMINATED NORMALLY****
TOTAL RUN TIME: 0 days 0 hours 0 minutes 20 seconds 612 msec
