                         Program Version 6.0.0  -   RELEASE  -
|  1> ! pbe def2-sv(p) def2/J RI DEFGRID1 loosescf d4 GCP(DFT/SV(P)) printgap
|  2> %output
|  3>     printlevel normal
|  4> end
|  5> * xyz 0 1
|  6> C 4.4543619617 -2.3269033407 -0.760956469
|  7> C 5.0195237813 -0.9251641051 -0.6630452319
|  8> O 4.1307945932 -0.0211421498 0.0203473377
|  9> P 2.7099380205 0.3854204951 -0.5594504431
| 10> S 2.6080892701 0.6722234593 -2.4953663601
| 11> O 2.3819711658 1.7143739397 0.2240539952
| 12> C 2.8072830383 2.0463090797 1.5685711552
| 13> C 2.2274257245 1.1130674953 2.6096734004
| 14> S 1.3789225746 -1.1191568595 0.1541654727
| 15> C -0.0366951879 -0.5935786251 -0.8250303843
| 16> S -0.8094710592 0.9216207108 -0.1468258554
| 17> P -2.7518104254 0.1540685929 0.1657668837
| 18> S -4.0373303334 1.3262913988 1.0629414755
| 19> O -2.5599136592 -1.2812775236 0.835679053
| 20> C -2.5601598102 -1.4658878026 2.2611560837
| 21> C -1.3265307463 -0.8695145903 2.9072576485
| 22> O -3.0828829149 -0.2500031666 -1.3345689705
| 23> C -4.43768617 -0.4506455492 -1.7883278965
| 24> C -5.0742106891 -1.6706250956 -1.1561412959
| 25> H 5.214508614 -2.9903178778 -1.160862608
| 26> H 4.1436417933 -2.6813148109 0.2184592185
| 27> H 3.5939582539 -2.3358321943 -1.4280874797
| 28> H 5.2213687139 -0.5216230451 -1.6598704038
| 29> H 5.9278920824 -0.8973169461 -0.059472411
| 30> H 3.8985805727 2.0337291509 1.5932724541
| 31> H 2.4419227448 3.066492846 1.6962198902
| 32> H 2.6242860938 0.1082199588 2.482496845
| 33> H 2.4936118465 1.4773628345 3.5969199171
| 34> H 1.1442382708 1.0818234062 2.5222133754
| 35> H -0.7632046027 -1.4008224267 -0.8143553041
| 36> H 0.2996165117 -0.3708993533 -1.8385752595
| 37> H -3.4670501185 -1.0069196333 2.6676689218
| 38> H -2.599121904 -2.5486350313 2.3863588678
| 39> H -0.4252334649 -1.2759178643 2.4528837111
| 40> H -1.3359816577 0.2132369417 2.7798031127
| 41> H -1.3286527117 -1.0976933534 3.9680550538
| 42> H -5.0156184002 0.4496352528 -1.5569213753
| 43> H -4.3354082376 -0.5582792205 -2.8690409075
| 44> H -4.4483024617 -2.5457524369 -1.3094819168
| 45> H -5.2020143062 -1.5087188793 -0.0867389366
| 46> H -6.0478511146 -1.8394012755 -1.6053622999
| 47> *
| 48>
| 49>                          ****END OF INPUT****

CARTESIAN COORDINATES (ANGSTROEM)
---------------------------------
  C      4.454362   -2.326903   -0.760956
  C      5.019524   -0.925164   -0.663045
  O      4.130795   -0.021142    0.020347
  P      2.709938    0.385420   -0.559450
  S      2.608089    0.672223   -2.495366
  O      2.381971    1.714374    0.224054
  C      2.807283    2.046309    1.568571
  C      2.227426    1.113067    2.609673
  S      1.378923   -1.119157    0.154165
  C     -0.036695   -0.593579   -0.825030
  S     -0.809471    0.921621   -0.146826
  P     -2.751810    0.154069    0.165767
  S     -4.037330    1.326291    1.062941
  O     -2.559914   -1.281278    0.835679
  C     -2.560160   -1.465888    2.261156
  C     -1.326531   -0.869515    2.907258
  O     -3.082883   -0.250003   -1.334569
  C     -4.437686   -0.450646   -1.788328
  C     -5.074211   -1.670625   -1.156141
  H      5.214509   -2.990318   -1.160863
  H      4.143642   -2.681315    0.218459
  H      3.593958   -2.335832   -1.428087
  H      5.221369   -0.521623   -1.659870
  H      5.927892   -0.897317   -0.059472
  H      3.898581    2.033729    1.593272
  H      2.441923    3.066493    1.696220
  H      2.624286    0.108220    2.482497
  H      2.493612    1.477363    3.596920
  H      1.144238    1.081823    2.522213
  H     -0.763205   -1.400822   -0.814355
  H      0.299617   -0.370899   -1.838575
  H     -3.467050   -1.006920    2.667669
  H     -2.599122   -2.548635    2.386359
  H     -0.425233   -1.275918    2.452884
  H     -1.335982    0.213237    2.779803
  H     -1.328653   -1.097693    3.968055
  H     -5.015618    0.449635   -1.556921
  H     -4.335408   -0.558279   -2.869041
  H     -4.448302   -2.545752   -1.309482
  H     -5.202014   -1.508719   -0.086739
  H     -6.047851   -1.839401   -1.605362

 Total Charge           Charge          ....    0
 Multiplicity           Mult            ....    1
 Number of Electrons    NEL             ....  202
 Basis Dimension        Dim             ....  334

ORBITAL ENERGIES
----------------

  NO   OCC          E(Eh)            E(eV)
   0   2.0000     -88.047002     -2395.8807
   1   2.0000     -88.038483     -2395.6489
   2   2.0000     -87.988579     -2394.2910
   3   2.0000     -87.987054     -2394.2495
   4   2.0000     -76.431072     -2079.7952
   5   2.0000     -76.425468     -2079.6427
   6   2.0000     -18.803729      -511.6755
   7   2.0000     -18.794711      -511.4301
   8   2.0000     -18.794017      -511.4112
   9   2.0000     -18.789031      -511.2755
  10   2.0000      -9.960973      -271.0519
  11   2.0000      -9.958254      -270.9779
  12   2.0000      -9.954030      -270.8629
  13   2.0000      -9.953240      -270.8414
  14   2.0000      -9.951448      -270.7927
  15   2.0000      -9.890221      -269.1266
  16   2.0000      -9.888248      -269.0729
  17   2.0000      -9.884561      -268.9726
  18   2.0000      -9.884499      -268.9709
  19   2.0000      -7.691671      -209.3010
  20   2.0000      -7.683628      -209.0821
  21   2.0000      -7.633703      -207.7236
  22   2.0000      -7.632266      -207.6845
  23   2.0000      -6.428490      -174.9281
  24   2.0000      -6.423277      -174.7862
  25   2.0000      -5.719285      -155.6297
  26   2.0000      -5.716395      -155.5510
  27   2.0000      -5.711861      -155.4276
  28   2.0000      -5.708731      -155.3425
  29   2.0000      -5.708038      -155.3236
  30   2.0000      -5.700323      -155.1137
  31   2.0000      -5.662654      -154.0886
  32   2.0000      -5.661267      -154.0509
  33   2.0000      -5.654299      -153.8613
  34   2.0000      -5.653870      -153.8496
  35   2.0000      -5.652992      -153.8257
  36   2.0000      -5.652217      -153.8046
  37   2.0000      -4.651658      -126.5781
  38   2.0000      -4.649940      -126.5313
  39   2.0000      -4.648689      -126.4973
  40   2.0000      -4.645683      -126.4155
  41   2.0000      -4.645213      -126.4027
  42   2.0000      -4.643704      -126.3616
  43   2.0000      -0.994544       -27.0629
  44   2.0000      -0.987130       -26.8612
  45   2.0000      -0.950220       -25.8568
  46   2.0000      -0.945821       -25.7371
  47   2.0000      -0.764178       -20.7944
  48   2.0000      -0.724136       -19.7048
  49   2.0000      -0.711547       -19.3622
  50   2.0000      -0.696105       -18.9420
  51   2.0000      -0.688087       -18.7238
  52   2.0000      -0.676585       -18.4108
  53   2.0000      -0.656054       -17.8521
  54   2.0000      -0.637854       -17.3569
  55   2.0000      -0.602596       -16.3975
  56   2.0000      -0.596409       -16.2291
  57   2.0000      -0.584041       -15.8926
  58   2.0000      -0.572806       -15.5868
  59   2.0000      -0.559805       -15.2331
  60   2.0000      -0.500828       -13.6282
  61   2.0000      -0.494386       -13.4529
  62   2.0000      -0.475516       -12.9395
  63   2.0000      -0.473666       -12.8891
  64   2.0000      -0.459719       -12.5096
  65   2.0000      -0.452324       -12.3084
  66   2.0000      -0.444933       -12.1072
  67   2.0000      -0.442497       -12.0410
  68   2.0000      -0.430836       -11.7236
  69   2.0000      -0.422801       -11.5050
  70   2.0000      -0.409921       -11.1545
  71   2.0000      -0.404893       -11.0177
  72   2.0000      -0.396185       -10.7807
  73   2.0000      -0.393731       -10.7140
  74   2.0000      -0.386263       -10.5108
  75   2.0000      -0.374668       -10.1952
  76   2.0000      -0.365911        -9.9570
  77   2.0000      -0.361737        -9.8434
  78   2.0000      -0.355914        -9.6849
  79   2.0000      -0.353676        -9.6240
  80   2.0000      -0.348556        -9.4847
  81   2.0000      -0.348470        -9.4823
  82   2.0000      -0.343441        -9.3455
  83   2.0000      -0.340960        -9.2780
  84   2.0000      -0.334068        -9.0905
  85   2.0000      -0.322884        -8.7861
  86   2.0000      -0.318067        -8.6550
  87   2.0000      -0.301520        -8.2048
  88   2.0000      -0.300450        -8.1757
  89   2.0000      -0.294519        -8.0143
  90   2.0000      -0.287098        -7.8123
  91   2.0000      -0.277932        -7.5629
  92   2.0000      -0.273001        -7.4287
  93   2.0000      -0.266993        -7.2652
  94   2.0000      -0.259956        -7.0738
  95   2.0000      -0.234487        -6.3807
  96   2.0000      -0.218827        -5.9546
  97   2.0000      -0.210295        -5.7224
  98   2.0000      -0.207266        -5.6400
  99   2.0000      -0.205307        -5.5867
 100   2.0000      -0.196628        -5.3505
 101   0.0000      -0.043100        -1.1728
 102   0.0000      -0.031024        -0.8442
 103   0.0000      -0.019321        -0.5258
 104   0.0000       0.002074         0.0564
 105   0.0000       0.018539         0.5045

MULLIKEN ATOMIC CHARGES
-----------------------
   0 C :   -0.322400
   1 C :    0.000055
   2 O :   -0.386110
   3 P :    0.611014
   4 S :   -0.308208
   5 O :   -0.357439
   6 C :    0.008512
   7 C :   -0.339168
   8 S :   -0.101753
   9 C :   -0.363009
  10 S :   -0.052539
  11 P :    0.595431
  12 S :   -0.321142
  13 O :   -0.381818
  14 C :    0.001486
  15 C :   -0.342962
  16 O :   -0.378228
  17 C :   -0.003644
  18 C :   -0.307793
  19 H :    0.117161
  20 H :    0.117056
  21 H :    0.132927
  22 H :    0.116613
  23 H :    0.106722
  24 H :    0.109303
  25 H :    0.114323
  26 H :    0.119655
  27 H :    0.112814
  28 H :    0.147418
  29 H :    0.192198
  30 H :    0.200228
  31 H :    0.110404
  32 H :    0.104047
  33 H :    0.127010
  34 H :    0.139274
  35 H :    0.111203
  36 H :    0.113964
  37 H :    0.107516
  38 H :    0.114572
  39 H :    0.122760
  40 H :    0.112544
Sum of atomic charges:   -0.0000000

LOEWDIN ATOMIC CHARGES
----------------------
   0 C :   -0.371913
   1 C :   -0.114656
   2 O :   -0.246130
   3 P :    0.572767
   4 S :   -0.307277
   5 O :   -0.236098
   6 C :   -0.106014
   7 C :   -0.371608
   8 S :    0.089562
   9 C :   -0.481714
  10 S :    0.094817
  11 P :    0.566588
  12 S :   -0.320915
  13 O :   -0.247901
  14 C :   -0.120005
  15 C :   -0.373242
  16 O :   -0.249738
  17 C :   -0.115257
  18 C :   -0.365602
  19 H :    0.133435
  20 H :    0.123024
  21 H :    0.123421
  22 H :    0.115500
  23 H :    0.119494
  24 H :    0.114259
  25 H :    0.124993
  26 H :    0.116468
  27 H :    0.131184
  28 H :    0.129715
  29 H :    0.134630
  30 H :    0.128261
  31 H :    0.110159
  32 H :    0.118039
  33 H :    0.117841
  34 H :    0.122106
  35 H :    0.130540
  36 H :    0.112852
  37 H :    0.120096
  38 H :    0.125204
  39 H :    0.122473
  40 H :    0.130642

  Mayer bond orders larger than 0.100000
B(  0-C ,  1-C ) :   1.1671 B(  0-C , 19-H ) :   0.9364 B(  0-C , 20-H ) :   0.9439
B(  0-C , 21-H ) :   0.9328 B(  1-C ,  2-O ) :   0.8999 B(  1-C , 22-H ) :   0.9188
B(  1-C , 23-H ) :   0.9341 B(  2-O ,  3-P ) :   1.0832 B(  3-P ,  4-S ) :   1.6395
B(  3-P ,  5-O ) :   1.1407 B(  3-P ,  8-S ) :   0.9379 B(  4-S ,  8-S ) :   0.1101
B(  5-O ,  6-C ) :   0.8943 B(  6-C ,  7-C ) :   1.1707 B(  6-C , 24-H ) :   0.9285
B(  6-C , 25-H ) :   0.9337 B(  7-C , 26-H ) :   0.9400 B(  7-C , 27-H ) :   0.9346
B(  7-C , 28-H ) :   0.9312 B(  8-S ,  9-C ) :   1.0114 B(  9-C , 10-S ) :   0.9648
B(  9-C , 29-H ) :   0.8873 B(  9-C , 30-H ) :   0.8620 B( 10-S , 11-P ) :   1.0009
B( 11-P , 12-S ) :   1.6318 B( 11-P , 13-O ) :   1.0573 B( 11-P , 16-O ) :   1.0983
B( 13-O , 14-C ) :   0.9097 B( 14-C , 15-C ) :   1.1640 B( 14-C , 31-H ) :   0.9138
B( 14-C , 32-H ) :   0.9333 B( 15-C , 33-H ) :   0.9338 B( 15-C , 34-H ) :   0.9297
B( 15-C , 35-H ) :   0.9364 B( 16-O , 17-C ) :   0.9093 B( 17-C , 18-C ) :   1.1620
B( 17-C , 36-H ) :   0.9190 B( 17-C , 37-H ) :   0.9355 B( 18-C , 38-H ) :   0.9464
B( 18-C , 39-H ) :   0.9366 B( 18-C , 40-H ) :   0.9383

Dispersion correction           -0.064254396
FINAL SINGLE POINT ENERGY     -2929.515872367852

DIPOLE MOMENT
-------------

Method             : SCF
Type of density    : Electron Density
Multiplicity       :   1
Irrep              :   0
Energy             : -2929.6380001474035453 Eh
Relativity type    :
Basis              : AO
                                X                 Y                 Z
Electronic contribution:     -1.203534480      13.278471443     -10.648573008
Nuclear contribution   :      1.984540793     -14.744083104      11.624395438
                        -----------------------------------------
Total Dipole Moment    :      0.781006313      -1.465611661       0.975822431
                        -----------------------------------------
Magnitude (a.u.)       :      1.926192570
Magnitude (Debye)      :      4.895992423

Rotational constants in cm-1:             0.013902             0.004156             0.003910
Rotational constants in MHz :           416.758613           124.600881           117.232452

                             ****ORCA TERMINATED NORMALLY****
TOTAL RUN TIME: 0 days 0 hours 0 minutes 20 seconds 914 msec
