                         Program Version 6.0.0  -   RELEASE  -
|  1> ! wb97x-v def2-tzvp def2/J RIJCOSX DEFGRID2 scfconv7 GCP(DFT/TZ) printgap
|  2> %output
|  3>     printlevel normal
|  4> end
|  5> * xyz 0 1
|  6> C 0.021866720736518793 2.6974839245675275 2.3191982225782986
|  7> C 0.6345279433337491 1.331885253554795 2.4928495156580284
|  8> O 0.9261400674235093 0.8178742893783849 1.1448013745417462
|  9> P 1.7383827756295316 -0.5521776557909827 0.9499495604983533
| 10> S 1.2785701782764498 -2.0119971068085336 2.1568382388930027
| 11> O 3.2594305220217987 -0.02701205404208143 0.9812503341165831
| 12> C 4.396847880833519 -0.8844799454329076 1.3484059630185468
| 13> C 4.812996713583517 -1.788232408344467 0.2154454579522379
| 14> S 1.4714666992861365 -0.9070079520092924 -1.1198510536579318
| 15> C -0.16861105331628154 -1.7616652694025385 -1.105668742857727
| 16> S -1.4387135406454183 -1.0484952769940243 -2.228960685732251
| 17> P -2.196705497099182 0.6063863205229114 -1.1513857845554065
| 18> S -3.853463119144985 1.1680484463078873 -2.003073645754057
| 19> O -1.0404042590647646 1.7051830809500392 -0.9979849020703805
| 20> C -0.5223940093306659 2.4241134780432443 -2.164416885332412
| 21> C 0.593645050360508 3.30805684094806 -1.6702388509130115
| 22> O -2.213659600667538 0.19064320937478607 0.39960274935289397
| 23> C -3.1990016252009306 -0.7765897607433487 0.9020207562891894
| 24> C -2.918124482117969 -0.9603214166713537 2.3703979018656076
| 25> H -0.19750929287389446 3.11216852369592 3.3080458475100527
| 26> H 0.7114193623035996 3.3737667967616174 1.8059171764282245
| 27> H -0.9126768789806939 2.640499270375613 1.7540020698891479
| 28> H -0.05363090837250623 0.632960689745284 2.9780194925120003
| 29> H 1.5693703598863238 1.375965638547895 3.061114708550381
| 30> H 5.181463392630633 -0.16884135267309153 1.601711053921616
| 31> H 4.1243098437517105 -1.4491176146631317 2.2447908662093674
| 32> H 5.0285430924370385 -1.2116258771500887 -0.6887337030785815
| 33> H 5.723978717236595 -2.3188276733253583 0.5114872145228223
| 34> H 4.044128699422883 -2.53302074377633 -0.009270414444482395
| 35> H -0.5481526397480377 -1.8133305963671833 -0.08169574695530411
| 36> H -0.018415240679333353 -2.7800005959615537 -1.4741523125385863
| 37> H -0.1653777553151547 1.6908716541910545 -2.895560440754388
| 38> H -1.3404205596999765 3.004898895338018 -2.6022164547380124
| 39> H 0.22525714519137577 4.021290070976047 -0.9273487731282614
| 40> H 1.397815683815765 2.7130242524916097 -1.2276616327270398
| 41> H 1.0015072751010634 3.869175922503083 -2.5164462734637594
| 42> H -4.199170403453358 -0.37084230283918945 0.722890427083221
| 43> H -3.083499528999779 -1.7133899564035988 0.346040964284998
| 44> H -3.0223953973564464 -0.013862650798122024 2.9085605820761877
| 45> H -3.638570862633166 -1.6738294971489975 2.7816217925954883
| 46> H -1.9100800533565632 -1.3553425874663378 2.528362337651973
| 47> *
| 48>
| 49>                          ****END OF INPUT****

CARTESIAN COORDINATES (ANGSTROEM)
---------------------------------
  C      0.021867    2.697484    2.319198
  C      0.634528    1.331885    2.492850
  O      0.926140    0.817874    1.144801
  P      1.738383   -0.552178    0.949950
  S      1.278570   -2.011997    2.156838
  O      3.259431   -0.027012    0.981250
  C      4.396848   -0.884480    1.348406
  C      4.812997   -1.788232    0.215445
  S      1.471467   -0.907008   -1.119851
  C     -0.168611   -1.761665   -1.105669
  S     -1.438714   -1.048495   -2.228961
  P     -2.196705    0.606386   -1.151386
  S     -3.853463    1.168048   -2.003074
  O     -1.040404    1.705183   -0.997985
  C     -0.522394    2.424113   -2.164417
  C      0.593645    3.308057   -1.670239
  O     -2.213660    0.190643    0.399603
  C     -3.199002   -0.776590    0.902021
  C     -2.918124   -0.960321    2.370398
  H     -0.197509    3.112169    3.308046
  H      0.711419    3.373767    1.805917
  H     -0.912677    2.640499    1.754002
  H     -0.053631    0.632961    2.978019
  H      1.569370    1.375966    3.061115
  H      5.181463   -0.168841    1.601711
  H      4.124310   -1.449118    2.244791
  H      5.028543   -1.211626   -0.688734
  H      5.723979   -2.318828    0.511487
  H      4.044129   -2.533021   -0.009270
  H     -0.548153   -1.813331   -0.081696
  H     -0.018415   -2.780001   -1.474152
  H     -0.165378    1.690872   -2.895560
  H     -1.340421    3.004899   -2.602216
  H      0.225257    4.021290   -0.927349
  H      1.397816    2.713024   -1.227662
  H      1.001507    3.869176   -2.516446
  H     -4.199170   -0.370842    0.722890
  H     -3.083500   -1.713390    0.346041
  H     -3.022395   -0.013863    2.908561
  H     -3.638571   -1.673829    2.781622
  H     -1.910080   -1.355343    2.528362

 Total Charge           Charge          ....    0
 Multiplicity           Mult            ....    1
 Number of Electrons    NEL             ....  202
 Basis Dimension        Dim             ....  757

ORBITAL ENERGIES
----------------

  NO   OCC          E(Eh)            E(eV)
   0   2.0000     -94.148688     -2561.9161
   1   2.0000     -94.147802     -2561.8919
   2   2.0000     -94.090176     -2560.3238
   3   2.0000     -94.078843     -2560.0155
   4   2.0000     -82.124986     -2234.7345
   5   2.0000     -82.118245     -2234.5510
   6   2.0000     -21.717300      -590.9578
   7   2.0000     -21.713639      -590.8582
   8   2.0000     -21.708069      -590.7066
   9   2.0000     -21.705779      -590.6443
  10   2.0000     -12.130254      -330.0810
  11   2.0000     -12.121226      -329.8353
  12   2.0000     -12.118346      -329.7570
  13   2.0000     -12.114947      -329.6645
  14   2.0000     -12.111291      -329.5650
  15   2.0000     -12.051860      -327.9478
  16   2.0000     -12.049235      -327.8763
  17   2.0000     -12.044725      -327.7536
  18   2.0000     -12.043788      -327.7281
  19   2.0000      -9.660027      -262.8627
  20   2.0000      -9.659042      -262.8359
  21   2.0000      -9.603126      -261.3143
  22   2.0000      -9.591528      -260.9987
  23   2.0000      -8.238226      -224.1735
  24   2.0000      -8.231489      -223.9902
  25   2.0000      -7.637621      -207.8302
  26   2.0000      -7.636985      -207.8129
  27   2.0000      -7.636502      -207.7998
  28   2.0000      -7.635741      -207.7791
  29   2.0000      -7.635038      -207.7599
  30   2.0000      -7.634158      -207.7360
  31   2.0000      -7.580752      -206.2827
  32   2.0000      -7.578983      -206.2346
  33   2.0000      -7.578908      -206.2326
  34   2.0000      -7.569062      -205.9647
  35   2.0000      -7.567512      -205.9225
  36   2.0000      -7.567273      -205.9160
  37   2.0000      -6.402434      -174.2191
  38   2.0000      -6.402224      -174.2134
  39   2.0000      -6.401880      -174.2040
  40   2.0000      -6.395838      -174.0396
  41   2.0000      -6.395610      -174.0334
  42   2.0000      -6.394951      -174.0155
  43   2.0000      -1.724114       -46.9155
  44   2.0000      -1.723726       -46.9050
  45   2.0000      -1.699735       -46.2521
  46   2.0000      -1.697753       -46.1982
  47   2.0000      -1.331999       -36.2455
  48   2.0000      -1.318615       -35.8813
  49   2.0000      -1.307284       -35.5730
  50   2.0000      -1.290938       -35.1282
  51   2.0000      -1.287151       -35.0252
  52   2.0000      -1.256613       -34.1942
  53   2.0000      -1.231228       -33.5034
  54   2.0000      -1.207973       -32.8706
  55   2.0000      -1.178270       -32.0624
  56   2.0000      -1.169891       -31.8343
  57   2.0000      -1.151434       -31.3321
  58   2.0000      -1.138897       -30.9910
  59   2.0000      -1.121093       -30.5065
  60   2.0000      -1.080457       -29.4007
  61   2.0000      -1.076017       -29.2799
  62   2.0000      -1.058139       -28.7934
  63   2.0000      -1.050370       -28.5820
  64   2.0000      -1.001700       -27.2576
  65   2.0000      -0.995696       -27.0943
  66   2.0000      -0.982973       -26.7480
  67   2.0000      -0.981627       -26.7114
  68   2.0000      -0.977473       -26.5984
  69   2.0000      -0.974848       -26.5270
  70   2.0000      -0.966661       -26.3042
  71   2.0000      -0.961416       -26.1615
  72   2.0000      -0.919858       -25.0306
  73   2.0000      -0.903802       -24.5937
  74   2.0000      -0.885707       -24.1013
  75   2.0000      -0.878081       -23.8938
  76   2.0000      -0.874705       -23.8019
  77   2.0000      -0.868537       -23.6341
  78   2.0000      -0.866008       -23.5653
  79   2.0000      -0.850155       -23.1339
  80   2.0000      -0.849660       -23.1204
  81   2.0000      -0.843336       -22.9484
  82   2.0000      -0.841981       -22.9115
  83   2.0000      -0.831513       -22.6266
  84   2.0000      -0.826130       -22.4801
  85   2.0000      -0.824784       -22.4435
  86   2.0000      -0.820792       -22.3349
  87   2.0000      -0.818542       -22.2737
  88   2.0000      -0.810340       -22.0505
  89   2.0000      -0.794011       -21.6061
  90   2.0000      -0.790610       -21.5136
  91   2.0000      -0.784500       -21.3473
  92   2.0000      -0.783384       -21.3170
  93   2.0000      -0.772359       -21.0170
  94   2.0000      -0.761280       -20.7155
  95   2.0000      -0.693879       -18.8814
  96   2.0000      -0.682931       -18.5835
  97   2.0000      -0.655653       -17.8412
  98   2.0000      -0.646431       -17.5903
  99   2.0000      -0.640788       -17.4367
 100   2.0000      -0.634692       -17.2708
 101   0.0000      -0.322748        -8.7824
 102   0.0000      -0.315316        -8.5802
 103   0.0000      -0.276241        -7.5169
 104   0.0000      -0.245727        -6.6866
 105   0.0000      -0.236038        -6.4229

MULLIKEN ATOMIC CHARGES
-----------------------
   0 C :   -0.326826
   1 C :   -0.050720
   2 O :   -0.269635
   3 P :    0.595334
   4 S :   -0.420523
   5 O :   -0.319516
   6 C :   -0.042615
   7 C :   -0.337957
   8 S :   -0.124967
   9 C :   -0.159890
  10 S :   -0.118929
  11 P :    0.577700
  12 S :   -0.398725
  13 O :   -0.264834
  14 C :   -0.061528
  15 C :   -0.322350
  16 O :   -0.293015
  17 C :   -0.076496
  18 C :   -0.329198
  19 H :    0.117335
  20 H :    0.113205
  21 H :    0.136032
  22 H :    0.119931
  23 H :    0.112552
  24 H :    0.115558
  25 H :    0.129258
  26 H :    0.119529
  27 H :    0.119269
  28 H :    0.134007
  29 H :    0.147845
  30 H :    0.159873
  31 H :    0.113902
  32 H :    0.126429
  33 H :    0.114563
  34 H :    0.125010
  35 H :    0.117454
  36 H :    0.134001
  37 H :    0.118637
  38 H :    0.117236
  39 H :    0.121194
  40 H :    0.131869
Sum of atomic charges:    0.0000000

LOEWDIN ATOMIC CHARGES
----------------------
   0 C :   -0.305053
   1 C :   -0.317552
   2 O :    0.036693
   3 P :   -0.033934
   4 S :   -0.119191
   5 O :    0.026870
   6 C :   -0.319062
   7 C :   -0.314498
   8 S :    0.350762
   9 C :   -0.688637
  10 S :    0.346273
  11 P :   -0.052047
  12 S :   -0.116612
  13 O :    0.046765
  14 C :   -0.324359
  15 C :   -0.305377
  16 O :    0.037283
  17 C :   -0.321359
  18 C :   -0.306710
  19 H :    0.124625
  20 H :    0.120765
  21 H :    0.124885
  22 H :    0.121350
  23 H :    0.120598
  24 H :    0.126372
  25 H :    0.120672
  26 H :    0.121851
  27 H :    0.127585
  28 H :    0.121126
  29 H :    0.109645
  30 H :    0.117949
  31 H :    0.118232
  32 H :    0.122928
  33 H :    0.120796
  34 H :    0.122171
  35 H :    0.124680
  36 H :    0.124689
  37 H :    0.120034
  38 H :    0.121941
  39 H :    0.126933
  40 H :    0.119916

  Mayer bond orders larger than 0.100000
B(  0-C ,  1-C ) :   1.0084 B(  0-C , 19-H ) :   0.9684 B(  0-C , 20-H ) :   0.9742
B(  0-C , 21-H ) :   0.9728 B(  1-C ,  2-O ) :   0.8843 B(  1-C , 22-H ) :   0.9691
B(  1-C , 23-H ) :   0.9666 B(  2-O ,  3-P ) :   1.2253 B(  3-P ,  4-S ) :   1.7921
B(  3-P ,  5-O ) :   1.1858 B(  3-P ,  8-S ) :   1.0939 B(  5-O ,  6-C ) :   0.8829
B(  6-C ,  7-C ) :   0.9993 B(  6-C , 24-H ) :   0.9658 B(  6-C , 25-H ) :   0.9739
B(  7-C , 26-H ) :   0.9710 B(  7-C , 27-H ) :   0.9648 B(  7-C , 28-H ) :   0.9677
B(  8-S ,  9-C ) :   0.9960 B(  9-C , 10-S ) :   1.0032 B(  9-C , 29-H ) :   0.9428
B(  9-C , 30-H ) :   0.9432 B( 10-S , 11-P ) :   1.0752 B( 11-P , 12-S ) :   1.8910
B( 11-P , 13-O ) :   1.2145 B( 11-P , 16-O ) :   1.1853 B( 13-O , 14-C ) :   0.8954
B( 14-C , 15-C ) :   1.0084 B( 14-C , 31-H ) :   0.9653 B( 14-C , 32-H ) :   0.9621
B( 15-C , 33-H ) :   0.9749 B( 15-C , 34-H ) :   0.9736 B( 15-C , 35-H ) :   0.9691
B( 16-O , 17-C ) :   0.8836 B( 17-C , 18-C ) :   0.9988 B( 17-C , 36-H ) :   0.9610
B( 17-C , 37-H ) :   0.9700 B( 18-C , 38-H ) :   0.9750 B( 18-C , 39-H ) :   0.9698
B( 18-C , 40-H ) :   0.9693

FINAL SINGLE POINT ENERGY     -2932.537591788501

DIPOLE MOMENT
-------------

Method             : SCF
Type of density    : Electron Density
Multiplicity       :   1
Irrep              :   0
Energy             : -2932.5678543849007838 Eh
Relativity type    :
Basis              : AO
                                X                 Y                 Z
Electronic contribution:     -9.628924285      -8.191106966     -13.382619534
Nuclear contribution   :     11.118491041       8.197413456      14.208149930
                        -----------------------------------------
Total Dipole Moment    :      1.489566755       0.006306490       0.825530396
                        -----------------------------------------
Magnitude (a.u.)       :      1.703041199
Magnitude (Debye)      :      4.328786713

Rotational constants in cm-1:             0.011116             0.005292             0.005122
Rotational constants in MHz :           333.244457           158.656162           153.564269

                             ****ORCA TERMINATED NORMALLY****
TOTAL RUN TIME: 0 days 0 hours 15 minutes 48 seconds 922 msec
