                         Program Version 6.0.0  -   RELEASE  -
|  1> ! wb97x-v def2-tzvp def2/J RIJCOSX DEFGRID2 scfconv7 GCP(DFT/TZ) printgap
|  2> %output
|  3>     printlevel normal
|  4> end
|  5> %cpcm
|  6>     smd true
|  7>     smdsolvent "water"
|  8> end
|  9> * xyz 0 1
| 10> C 0.021866720736518793 2.6974839245675275 2.3191982225782986
| 11> C 0.6345279433337491 1.331885253554795 2.4928495156580284
| 12> O 0.9261400674235093 0.8178742893783849 1.1448013745417462
| 13> P 1.7383827756295316 -0.5521776557909827 0.9499495604983533
| 14> S 1.2785701782764498 -2.0119971068085336 2.1568382388930027
| 15> O 3.2594305220217987 -0.02701205404208143 0.9812503341165831
| 16> C 4.396847880833519 -0.8844799454329076 1.3484059630185468
| 17> C 4.812996713583517 -1.788232408344467 0.2154454579522379
| 18> S 1.4714666992861365 -0.9070079520092924 -1.1198510536579318
| 19> C -0.16861105331628154 -1.7616652694025385 -1.105668742857727
| 20> S -1.4387135406454183 -1.0484952769940243 -2.228960685732251
| 21> P -2.196705497099182 0.6063863205229114 -1.1513857845554065
| 22> S -3.853463119144985 1.1680484463078873 -2.003073645754057
| 23> O -1.0404042590647646 1.7051830809500392 -0.9979849020703805
| 24> C -0.5223940093306659 2.4241134780432443 -2.164416885332412
| 25> C 0.593645050360508 3.30805684094806 -1.6702388509130115
| 26> O -2.213659600667538 0.19064320937478607 0.39960274935289397
| 27> C -3.1990016252009306 -0.7765897607433487 0.9020207562891894
| 28> C -2.918124482117969 -0.9603214166713537 2.3703979018656076
| 29> H -0.19750929287389446 3.11216852369592 3.3080458475100527
| 30> H 0.7114193623035996 3.3737667967616174 1.8059171764282245
| 31> H -0.9126768789806939 2.640499270375613 1.7540020698891479
| 32> H -0.05363090837250623 0.632960689745284 2.9780194925120003
| 33> H 1.5693703598863238 1.375965638547895 3.061114708550381
| 34> H 5.181463392630633 -0.16884135267309153 1.601711053921616
| 35> H 4.1243098437517105 -1.4491176146631317 2.2447908662093674
| 36> H 5.0285430924370385 -1.2116258771500887 -0.6887337030785815
| 37> H 5.723978717236595 -2.3188276733253583 0.5114872145228223
| 38> H 4.044128699422883 -2.53302074377633 -0.009270414444482395
| 39> H -0.5481526397480377 -1.8133305963671833 -0.08169574695530411
| 40> H -0.018415240679333353 -2.7800005959615537 -1.4741523125385863
| 41> H -0.1653777553151547 1.6908716541910545 -2.895560440754388
| 42> H -1.3404205596999765 3.004898895338018 -2.6022164547380124
| 43> H 0.22525714519137577 4.021290070976047 -0.9273487731282614
| 44> H 1.397815683815765 2.7130242524916097 -1.2276616327270398
| 45> H 1.0015072751010634 3.869175922503083 -2.5164462734637594
| 46> H -4.199170403453358 -0.37084230283918945 0.722890427083221
| 47> H -3.083499528999779 -1.7133899564035988 0.346040964284998
| 48> H -3.0223953973564464 -0.013862650798122024 2.9085605820761877
| 49> H -3.638570862633166 -1.6738294971489975 2.7816217925954883
| 50> H -1.9100800533565632 -1.3553425874663378 2.528362337651973
| 51> *
| 52>
| 53>                          ****END OF INPUT****

CARTESIAN COORDINATES (ANGSTROEM)
---------------------------------
  C      0.021867    2.697484    2.319198
  C      0.634528    1.331885    2.492850
  O      0.926140    0.817874    1.144801
  P      1.738383   -0.552178    0.949950
  S      1.278570   -2.011997    2.156838
  O      3.259431   -0.027012    0.981250
  C      4.396848   -0.884480    1.348406
  C      4.812997   -1.788232    0.215445
  S      1.471467   -0.907008   -1.119851
  C     -0.168611   -1.761665   -1.105669
  S     -1.438714   -1.048495   -2.228961
  P     -2.196705    0.606386   -1.151386
  S     -3.853463    1.168048   -2.003074
  O     -1.040404    1.705183   -0.997985
  C     -0.522394    2.424113   -2.164417
  C      0.593645    3.308057   -1.670239
  O     -2.213660    0.190643    0.399603
  C     -3.199002   -0.776590    0.902021
  C     -2.918124   -0.960321    2.370398
  H     -0.197509    3.112169    3.308046
  H      0.711419    3.373767    1.805917
  H     -0.912677    2.640499    1.754002
  H     -0.053631    0.632961    2.978019
  H      1.569370    1.375966    3.061115
  H      5.181463   -0.168841    1.601711
  H      4.124310   -1.449118    2.244791
  H      5.028543   -1.211626   -0.688734
  H      5.723979   -2.318828    0.511487
  H      4.044129   -2.533021   -0.009270
  H     -0.548153   -1.813331   -0.081696
  H     -0.018415   -2.780001   -1.474152
  H     -0.165378    1.690872   -2.895560
  H     -1.340421    3.004899   -2.602216
  H      0.225257    4.021290   -0.927349
  H      1.397816    2.713024   -1.227662
  H      1.001507    3.869176   -2.516446
  H     -4.199170   -0.370842    0.722890
  H     -3.083500   -1.713390    0.346041
  H     -3.022395   -0.013863    2.908561
  H     -3.638571   -1.673829    2.781622
  H     -1.910080   -1.355343    2.528362

 Total Charge           Charge          ....    0
 Multiplicity           Mult            ....    1
 Number of Electrons    NEL             ....  202
 Basis Dimension        Dim             ....  757

ORBITAL ENERGIES
----------------

  NO   OCC          E(Eh)            E(eV)
   0   2.0000     -94.150819     -2561.9740
   1   2.0000     -94.147860     -2561.8935
   2   2.0000     -94.091777     -2560.3674
   3   2.0000     -94.091282     -2560.3540
   4   2.0000     -82.126377     -2234.7723
   5   2.0000     -82.126044     -2234.7633
   6   2.0000     -21.716328      -590.9313
   7   2.0000     -21.714024      -590.8686
   8   2.0000     -21.712901      -590.8381
   9   2.0000     -21.710075      -590.7612
  10   2.0000     -12.124731      -329.9307
  11   2.0000     -12.107878      -329.4721
  12   2.0000     -12.106339      -329.4302
  13   2.0000     -12.106206      -329.4266
  14   2.0000     -12.105028      -329.3946
  15   2.0000     -12.035306      -327.4973
  16   2.0000     -12.035182      -327.4939
  17   2.0000     -12.034807      -327.4837
  18   2.0000     -12.034178      -327.4666
  19   2.0000      -9.662004      -262.9165
  20   2.0000      -9.659197      -262.8401
  21   2.0000      -9.604922      -261.3632
  22   2.0000      -9.604380      -261.3485
  23   2.0000      -8.239710      -224.2139
  24   2.0000      -8.239272      -224.2020
  25   2.0000      -7.639618      -207.8846
  26   2.0000      -7.638511      -207.8544
  27   2.0000      -7.637682      -207.8319
  28   2.0000      -7.636609      -207.8027
  29   2.0000      -7.635688      -207.7776
  30   2.0000      -7.634480      -207.7448
  31   2.0000      -7.582556      -206.3318
  32   2.0000      -7.581930      -206.3148
  33   2.0000      -7.580835      -206.2850
  34   2.0000      -7.580781      -206.2835
  35   2.0000      -7.580443      -206.2743
  36   2.0000      -7.580241      -206.2688
  37   2.0000      -6.404021      -174.2623
  38   2.0000      -6.403841      -174.2574
  39   2.0000      -6.403458      -174.2470
  40   2.0000      -6.403297      -174.2426
  41   2.0000      -6.403229      -174.2407
  42   2.0000      -6.402929      -174.2326
  43   2.0000      -1.729156       -47.0527
  44   2.0000      -1.723102       -46.8880
  45   2.0000      -1.702899       -46.3382
  46   2.0000      -1.699827       -46.2546
  47   2.0000      -1.330321       -36.1999
  48   2.0000      -1.315417       -35.7943
  49   2.0000      -1.301577       -35.4177
  50   2.0000      -1.280519       -34.8447
  51   2.0000      -1.280346       -34.8400
  52   2.0000      -1.255550       -34.1652
  53   2.0000      -1.233170       -33.5563
  54   2.0000      -1.211868       -32.9766
  55   2.0000      -1.172139       -31.8955
  56   2.0000      -1.168991       -31.8099
  57   2.0000      -1.145068       -31.1589
  58   2.0000      -1.134067       -30.8595
  59   2.0000      -1.118500       -30.4359
  60   2.0000      -1.078941       -29.3595
  61   2.0000      -1.072122       -29.1739
  62   2.0000      -1.060126       -28.8475
  63   2.0000      -1.044863       -28.4322
  64   2.0000      -0.998247       -27.1637
  65   2.0000      -0.997507       -27.1435
  66   2.0000      -0.982969       -26.7480
  67   2.0000      -0.980528       -26.6815
  68   2.0000      -0.977445       -26.5976
  69   2.0000      -0.973503       -26.4904
  70   2.0000      -0.964299       -26.2399
  71   2.0000      -0.962210       -26.1831
  72   2.0000      -0.917269       -24.9602
  73   2.0000      -0.903248       -24.5786
  74   2.0000      -0.877026       -23.8651
  75   2.0000      -0.869171       -23.6513
  76   2.0000      -0.865853       -23.5610
  77   2.0000      -0.861125       -23.4324
  78   2.0000      -0.860577       -23.4175
  79   2.0000      -0.842260       -22.9191
  80   2.0000      -0.840520       -22.8717
  81   2.0000      -0.835962       -22.7477
  82   2.0000      -0.829538       -22.5729
  83   2.0000      -0.827691       -22.5226
  84   2.0000      -0.816136       -22.2082
  85   2.0000      -0.812050       -22.0970
  86   2.0000      -0.810752       -22.0617
  87   2.0000      -0.810062       -22.0429
  88   2.0000      -0.809403       -22.0250
  89   2.0000      -0.781440       -21.2641
  90   2.0000      -0.778324       -21.1793
  91   2.0000      -0.775952       -21.1147
  92   2.0000      -0.774787       -21.0830
  93   2.0000      -0.772335       -21.0163
  94   2.0000      -0.763388       -20.7728
  95   2.0000      -0.695365       -18.9219
  96   2.0000      -0.684682       -18.6312
  97   2.0000      -0.657806       -17.8998
  98   2.0000      -0.654049       -17.7976
  99   2.0000      -0.650594       -17.7036
 100   2.0000      -0.646878       -17.6024
 101   0.0000      -0.322642        -8.7795
 102   0.0000      -0.320873        -8.7314
 103   0.0000      -0.276025        -7.5110
 104   0.0000      -0.247360        -6.7310
 105   0.0000      -0.238487        -6.4896

MULLIKEN ATOMIC CHARGES
-----------------------
   0 C :   -0.372178
   1 C :   -0.063614
   2 O :   -0.324412
   3 P :    0.641776
   4 S :   -0.461798
   5 O :   -0.350733
   6 C :   -0.041439
   7 C :   -0.372466
   8 S :   -0.133878
   9 C :   -0.170852
  10 S :   -0.136253
  11 P :    0.610940
  12 S :   -0.463395
  13 O :   -0.305869
  14 C :   -0.056803
  15 C :   -0.371260
  16 O :   -0.320540
  17 C :   -0.057056
  18 C :   -0.366723
  19 H :    0.144716
  20 H :    0.135393
  21 H :    0.127964
  22 H :    0.139061
  23 H :    0.144215
  24 H :    0.143212
  25 H :    0.134187
  26 H :    0.133297
  27 H :    0.145036
  28 H :    0.130942
  29 H :    0.172729
  30 H :    0.204019
  31 H :    0.133789
  32 H :    0.136155
  33 H :    0.135223
  34 H :    0.127406
  35 H :    0.144656
  36 H :    0.140669
  37 H :    0.141112
  38 H :    0.134369
  39 H :    0.144889
  40 H :    0.123515
Sum of atomic charges:    0.0000000

LOEWDIN ATOMIC CHARGES
----------------------
   0 C :   -0.309270
   1 C :   -0.315434
   2 O :    0.014932
   3 P :   -0.027088
   4 S :   -0.140655
   5 O :    0.016046
   6 C :   -0.312479
   7 C :   -0.316937
   8 S :    0.347648
   9 C :   -0.675012
  10 S :    0.341027
  11 P :   -0.046441
  12 S :   -0.161260
  13 O :    0.029282
  14 C :   -0.320992
  15 C :   -0.307988
  16 O :    0.027084
  17 C :   -0.313583
  18 C :   -0.306667
  19 H :    0.133207
  20 H :    0.124622
  21 H :    0.119959
  22 H :    0.125244
  23 H :    0.129745
  24 H :    0.135321
  25 H :    0.122374
  26 H :    0.124493
  27 H :    0.134813
  28 H :    0.118560
  29 H :    0.117366
  30 H :    0.131961
  31 H :    0.123544
  32 H :    0.126238
  33 H :    0.124839
  34 H :    0.120534
  35 H :    0.133085
  36 H :    0.126652
  37 H :    0.128121
  38 H :    0.125539
  39 H :    0.133780
  40 H :    0.117790

  Mayer bond orders larger than 0.100000
B(  0-C ,  1-C ) :   1.0098 B(  0-C , 19-H ) :   0.9643 B(  0-C , 20-H ) :   0.9705
B(  0-C , 21-H ) :   0.9727 B(  1-C ,  2-O ) :   0.8551 B(  1-C , 22-H ) :   0.9657
B(  1-C , 23-H ) :   0.9604 B(  2-O ,  3-P ) :   1.2080 B(  3-P ,  4-S ) :   1.7648
B(  3-P ,  5-O ) :   1.1897 B(  3-P ,  8-S ) :   1.1013 B(  5-O ,  6-C ) :   0.8563
B(  6-C ,  7-C ) :   0.9986 B(  6-C , 24-H ) :   0.9604 B(  6-C , 25-H ) :   0.9749
B(  7-C , 26-H ) :   0.9675 B(  7-C , 27-H ) :   0.9614 B(  7-C , 28-H ) :   0.9668
B(  8-S ,  9-C ) :   0.9911 B(  9-C , 10-S ) :   0.9902 B(  9-C , 29-H ) :   0.9390
B(  9-C , 30-H ) :   0.9300 B( 10-S , 11-P ) :   1.0982 B( 11-P , 12-S ) :   1.8387
B( 11-P , 13-O ) :   1.2055 B( 11-P , 16-O ) :   1.1963 B( 13-O , 14-C ) :   0.8683
B( 14-C , 15-C ) :   1.0102 B( 14-C , 31-H ) :   0.9619 B( 14-C , 32-H ) :   0.9596
B( 15-C , 33-H ) :   0.9704 B( 15-C , 34-H ) :   0.9731 B( 15-C , 35-H ) :   0.9645
B( 16-O , 17-C ) :   0.8579 B( 17-C , 18-C ) :   1.0084 B( 17-C , 36-H ) :   0.9589
B( 17-C , 37-H ) :   0.9625 B( 18-C , 38-H ) :   0.9719 B( 18-C , 39-H ) :   0.9651
B( 18-C , 40-H ) :   0.9721

FINAL SINGLE POINT ENERGY     -2932.552145101332

DIPOLE MOMENT
-------------

Method             : SCF
Type of density    : Electron Density
Multiplicity       :   1
Irrep              :   0
Energy             : -2932.5824076977319237 Eh
Relativity type    :
Basis              : AO
                                X                 Y                 Z
Electronic contribution:     -9.181751130      -8.441955161     -13.143149114
Nuclear contribution   :     11.118491041       8.197413456      14.208149930
                        -----------------------------------------
Total Dipole Moment    :      1.936739911      -0.244541705       1.065000817
                        -----------------------------------------
Magnitude (a.u.)       :      2.223733092
Magnitude (Debye)      :      5.652280327

Rotational constants in cm-1:             0.011116             0.005292             0.005122
Rotational constants in MHz :           333.244457           158.656162           153.564269

                             ****ORCA TERMINATED NORMALLY****
TOTAL RUN TIME: 0 days 0 hours 15 minutes 49 seconds 18 msec
