                         Program Version 6.0.0  -   RELEASE  -
|  1> ! pbe def2-sv(p) def2/J RI DEFGRID1 loosescf d4 GCP(DFT/SV(P)) printgap
|  2> %output
|  3>     printlevel normal
|  4> end
|  5> * xyz 0 1
|  6> C 2.7711627474 -2.7803606238 1.4113080239
|  7> C 1.7159332158 -2.0205423313 0.632090157
|  8> O 1.9201317724 -0.6101504142 0.8110485347
|  9> P 2.3118790024 0.4168806185 -0.3453520488
| 10> S 3.0070333206 -0.3910280437 -1.980747758
| 11> O 3.3606015883 1.3780895798 0.3313232323
| 12> C 3.0998616117 2.2628213801 1.4485140199
| 13> C 3.2576787467 1.5461320756 2.7737782835
| 14> S 0.6021893476 1.6824654745 -0.5583021032
| 15> C -0.1411979939 0.8197956776 -1.9581770157
| 16> S -0.6493028585 -0.8746780082 -1.5535517537
| 17> P -2.0941562522 -0.3717947065 -0.0960215327
| 18> S -3.1282346298 1.2673004633 -0.408966647
| 19> O -1.2475241846 -0.4461663979 1.2373377969
| 20> C -1.6920404979 0.1769561813 2.4680609371
| 21> C -0.9533284244 1.4794995628 2.6978292434
| 22> O -2.9426237944 -1.712035982 0.0300832062
| 23> C -3.9465889015 -2.084115042 -0.9372565565
| 24> C -5.3272783487 -1.6778303417 -0.4595637869
| 25> H 3.7583554781 -2.5475802586 1.0184263553
| 26> H 2.7346702383 -2.5070549041 2.461945083
| 27> H 2.5897429128 -3.845391149 1.3093848598
| 28> H 0.7085320025 -2.2335823806 0.997914322
| 29> H 1.7727215889 -2.2610648064 -0.4348278799
| 30> H 3.8422757091 3.0543060391 1.3324672685
| 31> H 2.0964021194 2.6830542748 1.3363012917
| 32> H 3.1093507342 2.2573854263 3.580445217
| 33> H 2.5283585024 0.7451300995 2.8615869948
| 34> H 4.2541247127 1.119456731 2.8498163456
| 35> H 0.5811159744 0.7370381519 -2.7697543164
| 36> H -1.0127363994 1.4039379113 -2.2523425436
| 37> H -2.7713637432 0.3431286725 2.4174467988
| 38> H -1.4685450659 -0.5549387803 3.2457581185
| 39> H -1.2096144353 2.1989963458 1.9228433527
| 40> H -1.2313374266 1.882833372 3.6660500765
| 41> H 0.1192279708 1.3078453676 2.6719555139
| 42> H -3.71220164 -1.6200120756 -1.8993161767
| 43> H -3.8576513074 -3.1682997698 -1.0260617511
| 44> H -6.0684308878 -2.0266101599 -1.1713865812
| 45> H -5.5290095103 -2.115530929 0.5139961605
| 46> H -5.3944031654 -0.5949732375 -0.3802451697
| 47> *
| 48>
| 49>                          ****END OF INPUT****

CARTESIAN COORDINATES (ANGSTROEM)
---------------------------------
  C      2.771163   -2.780361    1.411308
  C      1.715933   -2.020542    0.632090
  O      1.920132   -0.610150    0.811049
  P      2.311879    0.416881   -0.345352
  S      3.007033   -0.391028   -1.980748
  O      3.360602    1.378090    0.331323
  C      3.099862    2.262821    1.448514
  C      3.257679    1.546132    2.773778
  S      0.602189    1.682465   -0.558302
  C     -0.141198    0.819796   -1.958177
  S     -0.649303   -0.874678   -1.553552
  P     -2.094156   -0.371795   -0.096022
  S     -3.128235    1.267300   -0.408967
  O     -1.247524   -0.446166    1.237338
  C     -1.692040    0.176956    2.468061
  C     -0.953328    1.479500    2.697829
  O     -2.942624   -1.712036    0.030083
  C     -3.946589   -2.084115   -0.937257
  C     -5.327278   -1.677830   -0.459564
  H      3.758355   -2.547580    1.018426
  H      2.734670   -2.507055    2.461945
  H      2.589743   -3.845391    1.309385
  H      0.708532   -2.233582    0.997914
  H      1.772722   -2.261065   -0.434828
  H      3.842276    3.054306    1.332467
  H      2.096402    2.683054    1.336301
  H      3.109351    2.257385    3.580445
  H      2.528359    0.745130    2.861587
  H      4.254125    1.119457    2.849816
  H      0.581116    0.737038   -2.769754
  H     -1.012736    1.403938   -2.252343
  H     -2.771364    0.343129    2.417447
  H     -1.468545   -0.554939    3.245758
  H     -1.209614    2.198996    1.922843
  H     -1.231337    1.882833    3.666050
  H      0.119228    1.307845    2.671956
  H     -3.712202   -1.620012   -1.899316
  H     -3.857651   -3.168300   -1.026062
  H     -6.068431   -2.026610   -1.171387
  H     -5.529010   -2.115531    0.513996
  H     -5.394403   -0.594973   -0.380245

 Total Charge           Charge          ....    0
 Multiplicity           Mult            ....    1
 Number of Electrons    NEL             ....  202
 Basis Dimension        Dim             ....  334

ORBITAL ENERGIES
----------------

  NO   OCC          E(Eh)            E(eV)
   0   2.0000     -88.046221     -2395.8595
   1   2.0000     -88.039590     -2395.6790
   2   2.0000     -87.992444     -2394.3961
   3   2.0000     -87.985317     -2394.2022
   4   2.0000     -76.430276     -2079.7735
   5   2.0000     -76.425935     -2079.6554
   6   2.0000     -18.794969      -511.4371
   7   2.0000     -18.794938      -511.4363
   8   2.0000     -18.793492      -511.3969
   9   2.0000     -18.787668      -511.2384
  10   2.0000      -9.963082      -271.1093
  11   2.0000      -9.957126      -270.9472
  12   2.0000      -9.956840      -270.9394
  13   2.0000      -9.954905      -270.8867
  14   2.0000      -9.942909      -270.5603
  15   2.0000      -9.891389      -269.1584
  16   2.0000      -9.884507      -268.9711
  17   2.0000      -9.883796      -268.9518
  18   2.0000      -9.881380      -268.8860
  19   2.0000      -7.691008      -209.2830
  20   2.0000      -7.684359      -209.1020
  21   2.0000      -7.637380      -207.8237
  22   2.0000      -7.630602      -207.6392
  23   2.0000      -6.427786      -174.9090
  24   2.0000      -6.423388      -174.7893
  25   2.0000      -5.718864      -155.6182
  26   2.0000      -5.715535      -155.5276
  27   2.0000      -5.712192      -155.4366
  28   2.0000      -5.709001      -155.3498
  29   2.0000      -5.708003      -155.3227
  30   2.0000      -5.701257      -155.1391
  31   2.0000      -5.666214      -154.1855
  32   2.0000      -5.659622      -154.0061
  33   2.0000      -5.658090      -153.9645
  34   2.0000      -5.657550      -153.9498
  35   2.0000      -5.651216      -153.7774
  36   2.0000      -5.650601      -153.7607
  37   2.0000      -4.650271      -126.5403
  38   2.0000      -4.649536      -126.5203
  39   2.0000      -4.648351      -126.4881
  40   2.0000      -4.646157      -126.4284
  41   2.0000      -4.644994      -126.3967
  42   2.0000      -4.643849      -126.3655
  43   2.0000      -0.989541       -26.9268
  44   2.0000      -0.985379       -26.8135
  45   2.0000      -0.947296       -25.7772
  46   2.0000      -0.943312       -25.6688
  47   2.0000      -0.766192       -20.8492
  48   2.0000      -0.723927       -19.6991
  49   2.0000      -0.712899       -19.3990
  50   2.0000      -0.690453       -18.7882
  51   2.0000      -0.687860       -18.7176
  52   2.0000      -0.673212       -18.3190
  53   2.0000      -0.651935       -17.7400
  54   2.0000      -0.641388       -17.4530
  55   2.0000      -0.597928       -16.2705
  56   2.0000      -0.592248       -16.1159
  57   2.0000      -0.576773       -15.6948
  58   2.0000      -0.572361       -15.5747
  59   2.0000      -0.561686       -15.2843
  60   2.0000      -0.510125       -13.8812
  61   2.0000      -0.498749       -13.5716
  62   2.0000      -0.482132       -13.1195
  63   2.0000      -0.479038       -13.0353
  64   2.0000      -0.455987       -12.4080
  65   2.0000      -0.448116       -12.1938
  66   2.0000      -0.443332       -12.0637
  67   2.0000      -0.435532       -11.8514
  68   2.0000      -0.427167       -11.6238
  69   2.0000      -0.412293       -11.2191
  70   2.0000      -0.405433       -11.0324
  71   2.0000      -0.401430       -10.9235
  72   2.0000      -0.391744       -10.6599
  73   2.0000      -0.386892       -10.5279
  74   2.0000      -0.381966       -10.3938
  75   2.0000      -0.375241       -10.2108
  76   2.0000      -0.368197       -10.0191
  77   2.0000      -0.360553        -9.8111
  78   2.0000      -0.356599        -9.7035
  79   2.0000      -0.351440        -9.5632
  80   2.0000      -0.350527        -9.5383
  81   2.0000      -0.348981        -9.4963
  82   2.0000      -0.345265        -9.3951
  83   2.0000      -0.341982        -9.3058
  84   2.0000      -0.333413        -9.0726
  85   2.0000      -0.318133        -8.6568
  86   2.0000      -0.311536        -8.4773
  87   2.0000      -0.301860        -8.2140
  88   2.0000      -0.298345        -8.1184
  89   2.0000      -0.292342        -7.9550
  90   2.0000      -0.285034        -7.7562
  91   2.0000      -0.282270        -7.6810
  92   2.0000      -0.275635        -7.5004
  93   2.0000      -0.266610        -7.2548
  94   2.0000      -0.255005        -6.9390
  95   2.0000      -0.235614        -6.4114
  96   2.0000      -0.216472        -5.8905
  97   2.0000      -0.214833        -5.8459
  98   2.0000      -0.208234        -5.6663
  99   2.0000      -0.201218        -5.4754
 100   2.0000      -0.198759        -5.4085
 101   0.0000      -0.047772        -1.3000
 102   0.0000      -0.027125        -0.7381
 103   0.0000      -0.006881        -0.1872
 104   0.0000       0.000548         0.0149
 105   0.0000       0.008382         0.2281

MULLIKEN ATOMIC CHARGES
-----------------------
   0 C :   -0.276258
   1 C :   -0.021652
   2 O :   -0.383992
   3 P :    0.627908
   4 S :   -0.316303
   5 O :   -0.360601
   6 C :   -0.028127
   7 C :   -0.315378
   8 S :   -0.118335
   9 C :   -0.347141
  10 S :   -0.081832
  11 P :    0.610976
  12 S :   -0.333973
  13 O :   -0.360417
  14 C :   -0.001042
  15 C :   -0.308401
  16 O :   -0.375220
  17 C :   -0.007424
  18 C :   -0.291056
  19 H :    0.115257
  20 H :    0.108698
  21 H :    0.107963
  22 H :    0.104918
  23 H :    0.114713
  24 H :    0.116264
  25 H :    0.123464
  26 H :    0.111365
  27 H :    0.149090
  28 H :    0.121049
  29 H :    0.193946
  30 H :    0.191952
  31 H :    0.105687
  32 H :    0.105351
  33 H :    0.132030
  34 H :    0.106370
  35 H :    0.121603
  36 H :    0.102556
  37 H :    0.107796
  38 H :    0.108942
  39 H :    0.111523
  40 H :    0.127731
Sum of atomic charges:    0.0000000

LOEWDIN ATOMIC CHARGES
----------------------
   0 C :   -0.354555
   1 C :   -0.128572
   2 O :   -0.245954
   3 P :    0.571750
   4 S :   -0.307673
   5 O :   -0.238090
   6 C :   -0.111025
   7 C :   -0.364044
   8 S :    0.074890
   9 C :   -0.479723
  10 S :    0.098106
  11 P :    0.567940
  12 S :   -0.322033
  13 O :   -0.235972
  14 C :   -0.109091
  15 C :   -0.364010
  16 O :   -0.250867
  17 C :   -0.115862
  18 C :   -0.362310
  19 H :    0.126142
  20 H :    0.121354
  21 H :    0.128906
  22 H :    0.109075
  23 H :    0.103126
  24 H :    0.124989
  25 H :    0.106057
  26 H :    0.130448
  27 H :    0.125856
  28 H :    0.130281
  29 H :    0.131676
  30 H :    0.131231
  31 H :    0.109858
  32 H :    0.118067
  33 H :    0.125257
  34 H :    0.127613
  35 H :    0.121049
  36 H :    0.108213
  37 H :    0.118973
  38 H :    0.129420
  39 H :    0.124800
  40 H :    0.124703

  Mayer bond orders larger than 0.100000
B(  0-C ,  1-C ) :   1.1580 B(  0-C , 19-H ) :   0.9474 B(  0-C , 20-H ) :   0.9505
B(  0-C , 21-H ) :   0.9421 B(  1-C ,  2-O ) :   0.8975 B(  1-C , 22-H ) :   0.9240
B(  1-C , 23-H ) :   0.9008 B(  2-O ,  3-P ) :   1.0839 B(  3-P ,  4-S ) :   1.6342
B(  3-P ,  5-O ) :   1.1454 B(  3-P ,  8-S ) :   0.9330 B(  4-S ,  8-S ) :   0.1024
B(  5-O ,  6-C ) :   0.9019 B(  6-C ,  7-C ) :   1.1653 B(  6-C , 24-H ) :   0.9347
B(  6-C , 25-H ) :   0.9122 B(  7-C , 26-H ) :   0.9386 B(  7-C , 27-H ) :   0.9256
B(  7-C , 28-H ) :   0.9436 B(  8-S ,  9-C ) :   1.0222 B(  9-C , 10-S ) :   0.9942
B(  9-C , 29-H ) :   0.8810 B(  9-C , 30-H ) :   0.8838 B( 10-S , 11-P ) :   0.9634
B( 10-S , 12-S ) :   0.1096 B( 11-P , 12-S ) :   1.5886 B( 11-P , 13-O ) :   1.1270
B( 11-P , 16-O ) :   1.1136 B( 13-O , 14-C ) :   0.8927 B( 14-C , 15-C ) :   1.1730
B( 14-C , 31-H ) :   0.9134 B( 14-C , 32-H ) :   0.9333 B( 15-C , 33-H ) :   0.9354
B( 15-C , 34-H ) :   0.9371 B( 15-C , 35-H ) :   0.9338 B( 16-O , 17-C ) :   0.9006
B( 17-C , 18-C ) :   1.1670 B( 17-C , 36-H ) :   0.9147 B( 17-C , 37-H ) :   0.9356
B( 18-C , 38-H ) :   0.9399 B( 18-C , 39-H ) :   0.9476 B( 18-C , 40-H ) :   0.9339

Dispersion correction           -0.066869891
FINAL SINGLE POINT ENERGY     -2929.523812260020

DIPOLE MOMENT
-------------

Method             : SCF
Type of density    : Electron Density
Multiplicity       :   1
Irrep              :   0
Energy             : -2929.6422351106789392 Eh
Relativity type    :
Basis              : AO
                                X                 Y                 Z
Electronic contribution:      3.502990724       5.107171271     -19.985663202
Nuclear contribution   :     -4.076697078      -5.496536554      21.436944347
                        -----------------------------------------
Total Dipole Moment    :     -0.573706354      -0.389365283       1.451281146
                        -----------------------------------------
Magnitude (a.u.)       :      1.608403328
Magnitude (Debye)      :      4.088236363

Rotational constants in cm-1:             0.012245             0.005338             0.005011
Rotational constants in MHz :           367.081815           160.017266           150.239723

                             ****ORCA TERMINATED NORMALLY****
TOTAL RUN TIME: 0 days 0 hours 0 minutes 22 seconds 337 msec
