                         Program Version 6.0.0  -   RELEASE  -
|  1> ! r2scan-3c def2/J RI DEFGRID2 scfconv6 printgap
|  2> %output
|  3>     printlevel normal
|  4> end
|  5> * xyz 0 1
|  6> C 3.0914827876 -2.2100911309 2.4247670949
|  7> C 1.7627131649 -2.118800435 1.7048689934
|  8> O 1.4862523337 -0.7739202018 1.2607478613
|  9> P 2.3232238924 -0.0770138368 0.1084321154
| 10> S 2.9928322261 -1.2603180269 -1.3102218539
| 11> O 3.4402404057 0.68832414 0.937995502
| 12> C 4.6261622549 1.2219218058 0.3246678753
| 13> C 4.3183842972 2.379738266 -0.6028696659
| 14> S 0.953893449 1.4309098356 -0.4539322539
| 15> C 0.0790801281 0.4442416459 -1.6995517327
| 16> S -0.8744945768 -0.9151485811 -0.9877068446
| 17> P -2.6281316803 0.19039561 -0.4265582502
| 18> S -2.8195585598 1.9628845683 -1.2261815253
| 19> O -2.6821699425 0.0633583395 1.1615437333
| 20> C -1.6841457021 0.5422780156 2.0780271513
| 21> C -1.6590876333 2.0544228726 2.1727566891
| 22> O -3.8260748653 -0.7304942424 -0.8591023768
| 23> C -3.952316056 -2.1256562807 -0.4846611386
| 24> C -4.8668682617 -2.2803455072 0.7131012837
| 25> H 3.1340877876 -1.4796822225 3.2284169383
| 26> H 3.2119269641 -3.2082475916 2.8339750509
| 27> H 3.9047610512 -2.0137144413 1.7271469745
| 28> H 0.9268023207 -2.3544098046 2.3647019281
| 29> H 1.7445857206 -2.7801745806 0.8327159734
| 30> H 5.2405451582 1.5348444003 1.1698340195
| 31> H 5.1255410082 0.4155399716 -0.2222381034
| 32> H 3.7557252418 2.02665968 -1.4664331598
| 33> H 3.7282746595 3.1326014074 -0.0862353465
| 34> H 5.2475815899 2.8223890871 -0.9472168829
| 35> H 0.803648948 -0.0056971492 -2.3775440594
| 36> H -0.5938763551 1.1264622583 -2.2201431994
| 37> H -1.973625434 0.0934405186 3.0303946436
| 38> H -0.7059937892 0.1557730398 1.7757291582
| 39> H -1.3326785549 2.4923105677 1.2312910835
| 40> H -2.6511833655 2.4326949986 2.4054755512
| 41> H -0.9667955404 2.3505191064 2.9543738495
| 42> H -4.3718148962 -2.6070209994 -1.3698559245
| 43> H -2.9564873664 -2.5308775505 -0.2845927643
| 44> H -5.8361985041 -1.8394757469 0.49757136
| 45> H -4.9930242296 -3.3366625923 0.9291080748
| 46> H -4.4423839287 -1.7826498686 1.5805164008
| 47> *
| 48>
| 49>                          ****END OF INPUT****

CARTESIAN COORDINATES (ANGSTROEM)
---------------------------------
  C      3.091483   -2.210091    2.424767
  C      1.762713   -2.118800    1.704869
  O      1.486252   -0.773920    1.260748
  P      2.323224   -0.077014    0.108432
  S      2.992832   -1.260318   -1.310222
  O      3.440240    0.688324    0.937996
  C      4.626162    1.221922    0.324668
  C      4.318384    2.379738   -0.602870
  S      0.953893    1.430910   -0.453932
  C      0.079080    0.444242   -1.699552
  S     -0.874495   -0.915149   -0.987707
  P     -2.628132    0.190396   -0.426558
  S     -2.819559    1.962885   -1.226182
  O     -2.682170    0.063358    1.161544
  C     -1.684146    0.542278    2.078027
  C     -1.659088    2.054423    2.172757
  O     -3.826075   -0.730494   -0.859102
  C     -3.952316   -2.125656   -0.484661
  C     -4.866868   -2.280346    0.713101
  H      3.134088   -1.479682    3.228417
  H      3.211927   -3.208248    2.833975
  H      3.904761   -2.013714    1.727147
  H      0.926802   -2.354410    2.364702
  H      1.744586   -2.780175    0.832716
  H      5.240545    1.534844    1.169834
  H      5.125541    0.415540   -0.222238
  H      3.755725    2.026660   -1.466433
  H      3.728275    3.132601   -0.086235
  H      5.247582    2.822389   -0.947217
  H      0.803649   -0.005697   -2.377544
  H     -0.593876    1.126462   -2.220143
  H     -1.973625    0.093441    3.030395
  H     -0.705994    0.155773    1.775729
  H     -1.332679    2.492311    1.231291
  H     -2.651183    2.432695    2.405476
  H     -0.966796    2.350519    2.954374
  H     -4.371815   -2.607021   -1.369856
  H     -2.956487   -2.530878   -0.284593
  H     -5.836199   -1.839476    0.497571
  H     -4.993024   -3.336663    0.929108
  H     -4.442384   -1.782650    1.580516

 Total Charge           Charge          ....    0
 Multiplicity           Mult            ....    1
 Number of Electrons    NEL             ....  202
 Basis Dimension        Dim             ....  539

ORBITAL ENERGIES
----------------

  NO   OCC          E(Eh)            E(eV)
   0   2.0000     -88.577769     -2410.3236
   1   2.0000     -88.573300     -2410.2020
   2   2.0000     -88.527211     -2408.9479
   3   2.0000     -88.518667     -2408.7154
   4   2.0000     -76.918630     -2093.0623
   5   2.0000     -76.913333     -2092.9182
   6   2.0000     -18.998559      -516.9771
   7   2.0000     -18.994860      -516.8764
   8   2.0000     -18.990448      -516.7564
   9   2.0000     -18.990413      -516.7554
  10   2.0000     -10.105874      -274.9948
  11   2.0000     -10.103328      -274.9255
  12   2.0000     -10.103261      -274.9237
  13   2.0000     -10.102635      -274.9067
  14   2.0000     -10.094718      -274.6913
  15   2.0000     -10.033760      -273.0325
  16   2.0000     -10.032961      -273.0107
  17   2.0000     -10.031862      -272.9808
  18   2.0000     -10.019804      -272.6527
  19   2.0000      -7.872103      -214.2108
  20   2.0000      -7.867512      -214.0859
  21   2.0000      -7.821877      -212.8441
  22   2.0000      -7.813539      -212.6172
  23   2.0000      -6.597297      -179.5216
  24   2.0000      -6.591545      -179.3651
  25   2.0000      -5.818913      -158.3407
  26   2.0000      -5.816027      -158.2621
  27   2.0000      -5.814409      -158.2181
  28   2.0000      -5.811343      -158.1347
  29   2.0000      -5.809221      -158.0769
  30   2.0000      -5.804650      -157.9526
  31   2.0000      -5.769463      -156.9951
  32   2.0000      -5.762197      -156.7974
  33   2.0000      -5.761922      -156.7899
  34   2.0000      -5.761358      -156.7745
  35   2.0000      -5.753825      -156.5695
  36   2.0000      -5.753350      -156.5566
  37   2.0000      -4.742668      -129.0546
  38   2.0000      -4.742196      -129.0417
  39   2.0000      -4.741146      -129.0132
  40   2.0000      -4.737233      -128.9067
  41   2.0000      -4.736635      -128.8904
  42   2.0000      -4.735000      -128.8459
  43   2.0000      -1.055622       -28.7249
  44   2.0000      -1.049965       -28.5710
  45   2.0000      -1.016971       -27.6732
  46   2.0000      -1.008600       -27.4454
  47   2.0000      -0.801692       -21.8152
  48   2.0000      -0.760869       -20.7043
  49   2.0000      -0.752279       -20.4706
  50   2.0000      -0.736064       -20.0293
  51   2.0000      -0.731406       -19.9026
  52   2.0000      -0.712516       -19.3886
  53   2.0000      -0.687559       -18.7094
  54   2.0000      -0.671952       -18.2847
  55   2.0000      -0.636959       -17.3325
  56   2.0000      -0.618789       -16.8381
  57   2.0000      -0.610575       -16.6146
  58   2.0000      -0.608243       -16.5511
  59   2.0000      -0.594991       -16.1905
  60   2.0000      -0.529964       -14.4211
  61   2.0000      -0.519704       -14.1419
  62   2.0000      -0.497557       -13.5392
  63   2.0000      -0.493967       -13.4415
  64   2.0000      -0.477880       -13.0038
  65   2.0000      -0.466120       -12.6838
  66   2.0000      -0.463071       -12.6008
  67   2.0000      -0.456902       -12.4329
  68   2.0000      -0.444457       -12.0943
  69   2.0000      -0.437163       -11.8958
  70   2.0000      -0.422031       -11.4840
  71   2.0000      -0.419754       -11.4221
  72   2.0000      -0.414949       -11.2913
  73   2.0000      -0.407930       -11.1003
  74   2.0000      -0.400773       -10.9056
  75   2.0000      -0.390293       -10.6204
  76   2.0000      -0.381437       -10.3794
  77   2.0000      -0.375153       -10.2084
  78   2.0000      -0.371893       -10.1197
  79   2.0000      -0.369169       -10.0456
  80   2.0000      -0.366996        -9.9865
  81   2.0000      -0.359997        -9.7960
  82   2.0000      -0.355171        -9.6647
  83   2.0000      -0.354549        -9.6478
  84   2.0000      -0.348381        -9.4799
  85   2.0000      -0.337376        -9.1805
  86   2.0000      -0.329167        -8.9571
  87   2.0000      -0.314696        -8.5633
  88   2.0000      -0.309961        -8.4345
  89   2.0000      -0.303687        -8.2637
  90   2.0000      -0.301622        -8.2075
  91   2.0000      -0.294295        -8.0082
  92   2.0000      -0.290678        -7.9097
  93   2.0000      -0.283485        -7.7140
  94   2.0000      -0.273103        -7.4315
  95   2.0000      -0.248337        -6.7576
  96   2.0000      -0.231578        -6.3016
  97   2.0000      -0.228717        -6.2237
  98   2.0000      -0.220112        -5.9896
  99   2.0000      -0.217286        -5.9127
 100   2.0000      -0.212419        -5.7802
 101   0.0000      -0.048729        -1.3260
 102   0.0000      -0.029966        -0.8154
 103   0.0000      -0.005130        -0.1396
 104   0.0000      -0.001917        -0.0522
 105   0.0000       0.012065         0.3283

MULLIKEN ATOMIC CHARGES
-----------------------
   0 C :   -0.439805
   1 C :   -0.153123
   2 O :   -0.278279
   3 P :    0.680100
   4 S :   -0.478958
   5 O :   -0.305452
   6 C :   -0.152390
   7 C :   -0.449572
   8 S :   -0.119444
   9 C :   -0.246004
  10 S :   -0.173533
  11 P :    0.660258
  12 S :   -0.435736
  13 O :   -0.257914
  14 C :   -0.180062
  15 C :   -0.418931
  16 O :   -0.286075
  17 C :   -0.109275
  18 C :   -0.452360
  19 H :    0.156331
  20 H :    0.147790
  21 H :    0.167736
  22 H :    0.149199
  23 H :    0.174435
  24 H :    0.149191
  25 H :    0.171191
  26 H :    0.177180
  27 H :    0.156942
  28 H :    0.149226
  29 H :    0.219329
  30 H :    0.217390
  31 H :    0.143785
  32 H :    0.178983
  33 H :    0.174190
  34 H :    0.151302
  35 H :    0.142810
  36 H :    0.157547
  37 H :    0.142200
  38 H :    0.158241
  39 H :    0.145854
  40 H :    0.165702
Sum of atomic charges:    0.0000000

LOEWDIN ATOMIC CHARGES
----------------------
   0 C :   -0.398468
   1 C :    0.018436
   2 O :   -0.695271
   3 P :    0.377593
   4 S :   -0.129652
   5 O :   -0.661302
   6 C :    0.020404
   7 C :   -0.405864
   8 S :    0.167212
   9 C :   -0.425878
  10 S :    0.136136
  11 P :    0.392367
  12 S :   -0.094944
  13 O :   -0.672558
  14 C :    0.018180
  15 C :   -0.409083
  16 O :   -0.650667
  17 C :    0.026962
  18 C :   -0.392402
  19 H :    0.161243
  20 H :    0.159794
  21 H :    0.165042
  22 H :    0.179155
  23 H :    0.181488
  24 H :    0.180025
  25 H :    0.179470
  26 H :    0.165927
  27 H :    0.160997
  28 H :    0.160033
  29 H :    0.191128
  30 H :    0.195765
  31 H :    0.177312
  32 H :    0.192255
  33 H :    0.167353
  34 H :    0.160493
  35 H :    0.158755
  36 H :    0.182167
  37 H :    0.173125
  38 H :    0.162726
  39 H :    0.158191
  40 H :    0.166358

  Mayer bond orders larger than 0.100000
B(  0-C ,  1-C ) :   0.9247 B(  0-C , 19-H ) :   0.9713 B(  0-C , 20-H ) :   0.9615
B(  0-C , 21-H ) :   0.9599 B(  1-C ,  2-O ) :   0.7964 B(  1-C , 22-H ) :   0.9614
B(  1-C , 23-H ) :   0.9642 B(  2-O ,  3-P ) :   1.1347 B(  3-P ,  4-S ) :   1.7473
B(  3-P ,  5-O ) :   1.0688 B(  3-P ,  8-S ) :   1.0946 B(  5-O ,  6-C ) :   0.8124
B(  6-C ,  7-C ) :   0.9231 B(  6-C , 24-H ) :   0.9576 B(  6-C , 25-H ) :   0.9664
B(  7-C , 26-H ) :   0.9618 B(  7-C , 27-H ) :   0.9682 B(  7-C , 28-H ) :   0.9581
B(  8-S ,  9-C ) :   0.9035 B(  9-C , 10-S ) :   0.9165 B(  9-C , 29-H ) :   0.9108
B(  9-C , 30-H ) :   0.8985 B( 10-S , 11-P ) :   0.9803 B( 11-P , 12-S ) :   1.8338
B( 11-P , 13-O ) :   1.0412 B( 11-P , 16-O ) :   1.1876 B( 13-O , 14-C ) :   0.7977
B( 14-C , 15-C ) :   0.9332 B( 14-C , 31-H ) :   0.9662 B( 14-C , 32-H ) :   0.9488
B( 15-C , 33-H ) :   0.9504 B( 15-C , 34-H ) :   0.9691 B( 15-C , 35-H ) :   0.9644
B( 16-O , 17-C ) :   0.7540 B( 17-C , 18-C ) :   0.9518 B( 17-C , 36-H ) :   0.9621
B( 17-C , 37-H ) :   0.9648 B( 18-C , 38-H ) :   0.9691 B( 18-C , 39-H ) :   0.9662
B( 18-C , 40-H ) :   0.9659

Dispersion correction           -0.021499448
FINAL SINGLE POINT ENERGY     -2932.461974081851

DIPOLE MOMENT
-------------

Method             : SCF
Type of density    : Electron Density
Multiplicity       :   1
Irrep              :   0
Energy             : -2932.4871599298999172 Eh
Relativity type    :
Basis              : AO
                                X                 Y                 Z
Electronic contribution:     -5.103293242       4.261564955     -15.412532314
Nuclear contribution   :      5.870181798      -5.171986739      16.936063299
                        -----------------------------------------
Total Dipole Moment    :      0.766888556      -0.910421783       1.523530985
                        -----------------------------------------
Magnitude (a.u.)       :      1.933425081
Magnitude (Debye)      :      4.914376004

Rotational constants in cm-1:             0.012779             0.004792             0.004416
Rotational constants in MHz :           383.099853           143.668985           132.380182

                             ****ORCA TERMINATED NORMALLY****
TOTAL RUN TIME: 0 days 0 hours 1 minutes 23 seconds 682 msec
