                         Program Version 6.0.0  -   RELEASE  -
|  1> ! r2scan-3c def2/J RI DEFGRID2 scfconv6 printgap
|  2> %output
|  3>     printlevel normal
|  4> end
|  5> %cpcm
|  6>     smd true
|  7>     smdsolvent "water"
|  8> end
|  9> * xyz 0 1
| 10> C 3.0914827876 -2.2100911309 2.4247670949
| 11> C 1.7627131649 -2.118800435 1.7048689934
| 12> O 1.4862523337 -0.7739202018 1.2607478613
| 13> P 2.3232238924 -0.0770138368 0.1084321154
| 14> S 2.9928322261 -1.2603180269 -1.3102218539
| 15> O 3.4402404057 0.68832414 0.937995502
| 16> C 4.6261622549 1.2219218058 0.3246678753
| 17> C 4.3183842972 2.379738266 -0.6028696659
| 18> S 0.953893449 1.4309098356 -0.4539322539
| 19> C 0.0790801281 0.4442416459 -1.6995517327
| 20> S -0.8744945768 -0.9151485811 -0.9877068446
| 21> P -2.6281316803 0.19039561 -0.4265582502
| 22> S -2.8195585598 1.9628845683 -1.2261815253
| 23> O -2.6821699425 0.0633583395 1.1615437333
| 24> C -1.6841457021 0.5422780156 2.0780271513
| 25> C -1.6590876333 2.0544228726 2.1727566891
| 26> O -3.8260748653 -0.7304942424 -0.8591023768
| 27> C -3.952316056 -2.1256562807 -0.4846611386
| 28> C -4.8668682617 -2.2803455072 0.7131012837
| 29> H 3.1340877876 -1.4796822225 3.2284169383
| 30> H 3.2119269641 -3.2082475916 2.8339750509
| 31> H 3.9047610512 -2.0137144413 1.7271469745
| 32> H 0.9268023207 -2.3544098046 2.3647019281
| 33> H 1.7445857206 -2.7801745806 0.8327159734
| 34> H 5.2405451582 1.5348444003 1.1698340195
| 35> H 5.1255410082 0.4155399716 -0.2222381034
| 36> H 3.7557252418 2.02665968 -1.4664331598
| 37> H 3.7282746595 3.1326014074 -0.0862353465
| 38> H 5.2475815899 2.8223890871 -0.9472168829
| 39> H 0.803648948 -0.0056971492 -2.3775440594
| 40> H -0.5938763551 1.1264622583 -2.2201431994
| 41> H -1.973625434 0.0934405186 3.0303946436
| 42> H -0.7059937892 0.1557730398 1.7757291582
| 43> H -1.3326785549 2.4923105677 1.2312910835
| 44> H -2.6511833655 2.4326949986 2.4054755512
| 45> H -0.9667955404 2.3505191064 2.9543738495
| 46> H -4.3718148962 -2.6070209994 -1.3698559245
| 47> H -2.9564873664 -2.5308775505 -0.2845927643
| 48> H -5.8361985041 -1.8394757469 0.49757136
| 49> H -4.9930242296 -3.3366625923 0.9291080748
| 50> H -4.4423839287 -1.7826498686 1.5805164008
| 51> *
| 52>
| 53>                          ****END OF INPUT****

CARTESIAN COORDINATES (ANGSTROEM)
---------------------------------
  C      3.091483   -2.210091    2.424767
  C      1.762713   -2.118800    1.704869
  O      1.486252   -0.773920    1.260748
  P      2.323224   -0.077014    0.108432
  S      2.992832   -1.260318   -1.310222
  O      3.440240    0.688324    0.937996
  C      4.626162    1.221922    0.324668
  C      4.318384    2.379738   -0.602870
  S      0.953893    1.430910   -0.453932
  C      0.079080    0.444242   -1.699552
  S     -0.874495   -0.915149   -0.987707
  P     -2.628132    0.190396   -0.426558
  S     -2.819559    1.962885   -1.226182
  O     -2.682170    0.063358    1.161544
  C     -1.684146    0.542278    2.078027
  C     -1.659088    2.054423    2.172757
  O     -3.826075   -0.730494   -0.859102
  C     -3.952316   -2.125656   -0.484661
  C     -4.866868   -2.280346    0.713101
  H      3.134088   -1.479682    3.228417
  H      3.211927   -3.208248    2.833975
  H      3.904761   -2.013714    1.727147
  H      0.926802   -2.354410    2.364702
  H      1.744586   -2.780175    0.832716
  H      5.240545    1.534844    1.169834
  H      5.125541    0.415540   -0.222238
  H      3.755725    2.026660   -1.466433
  H      3.728275    3.132601   -0.086235
  H      5.247582    2.822389   -0.947217
  H      0.803649   -0.005697   -2.377544
  H     -0.593876    1.126462   -2.220143
  H     -1.973625    0.093441    3.030395
  H     -0.705994    0.155773    1.775729
  H     -1.332679    2.492311    1.231291
  H     -2.651183    2.432695    2.405476
  H     -0.966796    2.350519    2.954374
  H     -4.371815   -2.607021   -1.369856
  H     -2.956487   -2.530878   -0.284593
  H     -5.836199   -1.839476    0.497571
  H     -4.993024   -3.336663    0.929108
  H     -4.442384   -1.782650    1.580516

 Total Charge           Charge          ....    0
 Multiplicity           Mult            ....    1
 Number of Electrons    NEL             ....  202
 Basis Dimension        Dim             ....  539

ORBITAL ENERGIES
----------------

  NO   OCC          E(Eh)            E(eV)
   0   2.0000     -88.579450     -2410.3694
   1   2.0000     -88.578237     -2410.3364
   2   2.0000     -88.531284     -2409.0587
   3   2.0000     -88.530460     -2409.0363
   4   2.0000     -76.921519     -2093.1409
   5   2.0000     -76.919758     -2093.0930
   6   2.0000     -18.997062      -516.9363
   7   2.0000     -18.995903      -516.9048
   8   2.0000     -18.994420      -516.8645
   9   2.0000     -18.992573      -516.8142
  10   2.0000     -10.103810      -274.9387
  11   2.0000     -10.095178      -274.7038
  12   2.0000     -10.090449      -274.5751
  13   2.0000     -10.089350      -274.5452
  14   2.0000     -10.088584      -274.5243
  15   2.0000     -10.019230      -272.6371
  16   2.0000     -10.018985      -272.6304
  17   2.0000     -10.018861      -272.6271
  18   2.0000     -10.015594      -272.5382
  19   2.0000      -7.873856      -214.2585
  20   2.0000      -7.872405      -214.2190
  21   2.0000      -7.826518      -212.9704
  22   2.0000      -7.825402      -212.9400
  23   2.0000      -6.599810      -179.5900
  24   2.0000      -6.598452      -179.5530
  25   2.0000      -5.820652      -158.3880
  26   2.0000      -5.819311      -158.3515
  27   2.0000      -5.817790      -158.3101
  28   2.0000      -5.816226      -158.2675
  29   2.0000      -5.810967      -158.1245
  30   2.0000      -5.809554      -158.0860
  31   2.0000      -5.774207      -157.1242
  32   2.0000      -5.772934      -157.0895
  33   2.0000      -5.766803      -156.9227
  34   2.0000      -5.766387      -156.9114
  35   2.0000      -5.765709      -156.8929
  36   2.0000      -5.765465      -156.8863
  37   2.0000      -4.745465      -129.1307
  38   2.0000      -4.744827      -129.1133
  39   2.0000      -4.743759      -129.0843
  40   2.0000      -4.743403      -129.0746
  41   2.0000      -4.743342      -129.0729
  42   2.0000      -4.742403      -129.0474
  43   2.0000      -1.054443       -28.6929
  44   2.0000      -1.053384       -28.6640
  45   2.0000      -1.013944       -27.5908
  46   2.0000      -1.012209       -27.5436
  47   2.0000      -0.803670       -21.8690
  48   2.0000      -0.757375       -20.6092
  49   2.0000      -0.745076       -20.2746
  50   2.0000      -0.725610       -19.7448
  51   2.0000      -0.723890       -19.6980
  52   2.0000      -0.710604       -19.3365
  53   2.0000      -0.690563       -18.7912
  54   2.0000      -0.676863       -18.4184
  55   2.0000      -0.632141       -17.2014
  56   2.0000      -0.619015       -16.8443
  57   2.0000      -0.602304       -16.3895
  58   2.0000      -0.599936       -16.3251
  59   2.0000      -0.593981       -16.1630
  60   2.0000      -0.526871       -14.3369
  61   2.0000      -0.513265       -13.9666
  62   2.0000      -0.492470       -13.4008
  63   2.0000      -0.490018       -13.3341
  64   2.0000      -0.475998       -12.9526
  65   2.0000      -0.462400       -12.5826
  66   2.0000      -0.454981       -12.3807
  67   2.0000      -0.451957       -12.2984
  68   2.0000      -0.439722       -11.9654
  69   2.0000      -0.432367       -11.7653
  70   2.0000      -0.420351       -11.4383
  71   2.0000      -0.416711       -11.3393
  72   2.0000      -0.406395       -11.0586
  73   2.0000      -0.404622       -11.0103
  74   2.0000      -0.395498       -10.7620
  75   2.0000      -0.387705       -10.5500
  76   2.0000      -0.380787       -10.3618
  77   2.0000      -0.368109       -10.0168
  78   2.0000      -0.365066        -9.9339
  79   2.0000      -0.364411        -9.9161
  80   2.0000      -0.354887        -9.6570
  81   2.0000      -0.351921        -9.5763
  82   2.0000      -0.349684        -9.5154
  83   2.0000      -0.347849        -9.4655
  84   2.0000      -0.345242        -9.3945
  85   2.0000      -0.334350        -9.0981
  86   2.0000      -0.324239        -8.8230
  87   2.0000      -0.306919        -8.3517
  88   2.0000      -0.305744        -8.3197
  89   2.0000      -0.300695        -8.1823
  90   2.0000      -0.298018        -8.1095
  91   2.0000      -0.292276        -7.9532
  92   2.0000      -0.287477        -7.8227
  93   2.0000      -0.281014        -7.6468
  94   2.0000      -0.276412        -7.5216
  95   2.0000      -0.250450        -6.8151
  96   2.0000      -0.239001        -6.5036
  97   2.0000      -0.234384        -6.3779
  98   2.0000      -0.227699        -6.1960
  99   2.0000      -0.225307        -6.1309
 100   2.0000      -0.222509        -6.0548
 101   0.0000      -0.053517        -1.4563
 102   0.0000      -0.035483        -0.9655
 103   0.0000      -0.007642        -0.2079
 104   0.0000      -0.006140        -0.1671
 105   0.0000       0.011982         0.3260

MULLIKEN ATOMIC CHARGES
-----------------------
   0 C :   -0.482549
   1 C :   -0.148259
   2 O :   -0.300467
   3 P :    0.721815
   4 S :   -0.526128
   5 O :   -0.329789
   6 C :   -0.153550
   7 C :   -0.486652
   8 S :   -0.127889
   9 C :   -0.256314
  10 S :   -0.177432
  11 P :    0.670220
  12 S :   -0.491523
  13 O :   -0.275806
  14 C :   -0.161880
  15 C :   -0.467186
  16 O :   -0.322559
  17 C :   -0.095413
  18 C :   -0.494166
  19 H :    0.169990
  20 H :    0.172173
  21 H :    0.168330
  22 H :    0.178029
  23 H :    0.176870
  24 H :    0.176161
  25 H :    0.178523
  26 H :    0.172805
  27 H :    0.169694
  28 H :    0.173443
  29 H :    0.239516
  30 H :    0.229348
  31 H :    0.176000
  32 H :    0.176086
  33 H :    0.165852
  34 H :    0.164640
  35 H :    0.170233
  36 H :    0.180224
  37 H :    0.158527
  38 H :    0.167771
  39 H :    0.171596
  40 H :    0.169716
Sum of atomic charges:    0.0000000

LOEWDIN ATOMIC CHARGES
----------------------
   0 C :   -0.402090
   1 C :    0.023642
   2 O :   -0.702457
   3 P :    0.383528
   4 S :   -0.157755
   5 O :   -0.671412
   6 C :    0.026049
   7 C :   -0.409616
   8 S :    0.161886
   9 C :   -0.422159
  10 S :    0.138477
  11 P :    0.392229
  12 S :   -0.138838
  13 O :   -0.676760
  14 C :    0.025014
  15 C :   -0.414555
  16 O :   -0.674005
  17 C :    0.034364
  18 C :   -0.394576
  19 H :    0.164447
  20 H :    0.168818
  21 H :    0.162730
  22 H :    0.190844
  23 H :    0.182100
  24 H :    0.191425
  25 H :    0.181825
  26 H :    0.161673
  27 H :    0.163773
  28 H :    0.168712
  29 H :    0.197023
  30 H :    0.198906
  31 H :    0.190954
  32 H :    0.192051
  33 H :    0.161221
  34 H :    0.162303
  35 H :    0.168478
  36 H :    0.191808
  37 H :    0.180794
  38 H :    0.164302
  39 H :    0.169032
  40 H :    0.165817

  Mayer bond orders larger than 0.100000
B(  0-C ,  1-C ) :   0.9136 B(  0-C , 19-H ) :   0.9704 B(  0-C , 20-H ) :   0.9556
B(  0-C , 21-H ) :   0.9594 B(  1-C ,  2-O ) :   0.7845 B(  1-C , 22-H ) :   0.9509
B(  1-C , 23-H ) :   0.9607 B(  2-O ,  3-P ) :   1.1468 B(  3-P ,  4-S ) :   1.7031
B(  3-P ,  5-O ) :   1.0778 B(  3-P ,  8-S ) :   1.0999 B(  5-O ,  6-C ) :   0.8008
B(  6-C ,  7-C ) :   0.9088 B(  6-C , 24-H ) :   0.9480 B(  6-C , 25-H ) :   0.9655
B(  7-C , 26-H ) :   0.9633 B(  7-C , 27-H ) :   0.9655 B(  7-C , 28-H ) :   0.9530
B(  8-S ,  9-C ) :   0.8988 B(  9-C , 10-S ) :   0.9035 B(  9-C , 29-H ) :   0.9049
B(  9-C , 30-H ) :   0.8967 B( 10-S , 11-P ) :   0.9991 B( 11-P , 12-S ) :   1.8096
B( 11-P , 13-O ) :   1.0508 B( 11-P , 16-O ) :   1.1901 B( 13-O , 14-C ) :   0.7898
B( 14-C , 15-C ) :   0.9144 B( 14-C , 31-H ) :   0.9562 B( 14-C , 32-H ) :   0.9483
B( 15-C , 33-H ) :   0.9540 B( 15-C , 34-H ) :   0.9699 B( 15-C , 35-H ) :   0.9593
B( 16-O , 17-C ) :   0.7448 B( 17-C , 18-C ) :   0.9418 B( 17-C , 36-H ) :   0.9515
B( 17-C , 37-H ) :   0.9536 B( 18-C , 38-H ) :   0.9680 B( 18-C , 39-H ) :   0.9592
B( 18-C , 40-H ) :   0.9656

Dispersion correction           -0.021499448
FINAL SINGLE POINT ENERGY     -2932.470310352504

DIPOLE MOMENT
-------------

Method             : SCF
Type of density    : Electron Density
Multiplicity       :   1
Irrep              :   0
Energy             : -2932.4954962005531343 Eh
Relativity type    :
Basis              : AO
                                X                 Y                 Z
Electronic contribution:     -4.745500387       3.806642153     -14.841673379
Nuclear contribution   :      5.870181798      -5.171986739      16.936063299
                        -----------------------------------------
Total Dipole Moment    :      1.124681410      -1.365344585       2.094389920
                        -----------------------------------------
Magnitude (a.u.)       :      2.741449115
Magnitude (Debye)      :      6.968209877

Rotational constants in cm-1:             0.012779             0.004792             0.004416
Rotational constants in MHz :           383.099853           143.668985           132.380182

                             ****ORCA TERMINATED NORMALLY****
TOTAL RUN TIME: 0 days 0 hours 1 minutes 47 seconds 660 msec
