                         Program Version 6.0.0  -   RELEASE  -
|  1> ! r2scan-3c def2/J RI DEFGRID2 scfconv6 printgap
|  2> %output
|  3>     printlevel normal
|  4> end
|  5> * xyz 0 1
|  6> C 4.5294022785 -1.5320970639 -1.0524448321
|  7> C 4.6582583045 -0.0469897027 -0.7829177759
|  8> O 3.5830936132 0.4640753591 0.025712
|  9> P 2.0717990002 0.5180185719 -0.4785859193
| 10> S 1.8519598437 0.9687373613 -2.3672395035
| 11> O 1.4707994185 1.5831318478 0.5175629423
| 12> C 1.7264057545 1.5306874867 1.944540345
| 13> C 0.7962090571 2.5181859741 2.6155927371
| 14> S 1.3150696766 -1.376237679 0.1376030755
| 15> C 0.1203454505 -1.7040770278 -1.1974422089
| 16> S -1.5589331383 -1.9838689791 -0.5958461538
| 17> P -1.9260775458 -0.0316443937 0.1686595469
| 18> S -1.4263347853 1.4731653083 -0.979165495
| 19> O -1.1832321614 0.0057416424 1.56033371
| 20> C -1.4283255642 -0.9596102393 2.6172214448
| 21> C -2.3546453405 -0.3775359693 3.6641472385
| 22> O -3.4546735499 -0.0896893467 0.5997052652
| 23> C -4.5306626457 0.2166370926 -0.30423383
| 24> C -4.6380964087 -0.7856042709 -1.4348845285
| 25> H 5.4316850444 -1.8833240141 -1.5425475642
| 26> H 4.3864313676 -2.0764738583 -0.1224968913
| 27> H 3.6794145325 -1.717552679 -1.7071840104
| 28> H 4.676083358 0.5131787313 -1.7227399168
| 29> H 5.5497685764 0.1806112839 -0.1967284012
| 30> H 1.5449148496 0.5076750012 2.2874565466
| 31> H 2.7753827942 1.7857828451 2.1073814868
| 32> H 0.9825894739 3.5199099878 2.2387530841
| 33> H -0.2365428281 2.2556669838 2.4008262701
| 34> H 0.9641074989 2.4954045126 3.6874839962
| 35> H 0.414876297 -2.6232239591 -1.6974040891
| 36> H 0.1357485707 -0.8568282279 -1.8892213928
| 37> H -1.8478657973 -1.8682168092 2.1772330564
| 38> H -0.4409430288 -1.1765724234 3.0298210155
| 39> H -1.9369776511 0.5408431938 4.0674160479
| 40> H -3.3254401582 -0.1599512483 3.2270714821
| 41> H -2.4761672418 -1.0982327627 4.4666310384
| 42> H -5.416379616 0.2010642761 0.3325519762
| 43> H -4.371881872 1.2251840288 -0.6981087253
| 44> H -4.669227052 -1.7989543682 -1.0424654706
| 45> H -5.5423718121 -0.5893160238 -2.0020082351
| 46> H -3.7802553236 -0.6912911926 -2.0991185834
| 47> *
| 48>
| 49>                          ****END OF INPUT****

CARTESIAN COORDINATES (ANGSTROEM)
---------------------------------
  C      4.529402   -1.532097   -1.052445
  C      4.658258   -0.046990   -0.782918
  O      3.583094    0.464075    0.025712
  P      2.071799    0.518019   -0.478586
  S      1.851960    0.968737   -2.367240
  O      1.470799    1.583132    0.517563
  C      1.726406    1.530687    1.944540
  C      0.796209    2.518186    2.615593
  S      1.315070   -1.376238    0.137603
  C      0.120345   -1.704077   -1.197442
  S     -1.558933   -1.983869   -0.595846
  P     -1.926078   -0.031644    0.168660
  S     -1.426335    1.473165   -0.979165
  O     -1.183232    0.005742    1.560334
  C     -1.428326   -0.959610    2.617221
  C     -2.354645   -0.377536    3.664147
  O     -3.454674   -0.089689    0.599705
  C     -4.530663    0.216637   -0.304234
  C     -4.638096   -0.785604   -1.434885
  H      5.431685   -1.883324   -1.542548
  H      4.386431   -2.076474   -0.122497
  H      3.679415   -1.717553   -1.707184
  H      4.676083    0.513179   -1.722740
  H      5.549769    0.180611   -0.196728
  H      1.544915    0.507675    2.287457
  H      2.775383    1.785783    2.107381
  H      0.982589    3.519910    2.238753
  H     -0.236543    2.255667    2.400826
  H      0.964107    2.495405    3.687484
  H      0.414876   -2.623224   -1.697404
  H      0.135749   -0.856828   -1.889221
  H     -1.847866   -1.868217    2.177233
  H     -0.440943   -1.176572    3.029821
  H     -1.936978    0.540843    4.067416
  H     -3.325440   -0.159951    3.227071
  H     -2.476167   -1.098233    4.466631
  H     -5.416380    0.201064    0.332552
  H     -4.371882    1.225184   -0.698109
  H     -4.669227   -1.798954   -1.042465
  H     -5.542372   -0.589316   -2.002008
  H     -3.780255   -0.691291   -2.099119

 Total Charge           Charge          ....    0
 Multiplicity           Mult            ....    1
 Number of Electrons    NEL             ....  202
 Basis Dimension        Dim             ....  539

ORBITAL ENERGIES
----------------

  NO   OCC          E(Eh)            E(eV)
   0   2.0000     -88.573935     -2410.2193
   1   2.0000     -88.569563     -2410.1003
   2   2.0000     -88.513327     -2408.5701
   3   2.0000     -88.512734     -2408.5539
   4   2.0000     -76.910950     -2092.8534
   5   2.0000     -76.907455     -2092.7582
   6   2.0000     -18.993417      -516.8372
   7   2.0000     -18.990902      -516.7687
   8   2.0000     -18.986097      -516.6380
   9   2.0000     -18.980621      -516.4889
  10   2.0000     -10.103495      -274.9301
  11   2.0000     -10.103140      -274.9204
  12   2.0000     -10.099564      -274.8231
  13   2.0000     -10.095005      -274.6990
  14   2.0000     -10.094719      -274.6913
  15   2.0000     -10.034009      -273.0393
  16   2.0000     -10.028807      -272.8977
  17   2.0000     -10.025097      -272.7967
  18   2.0000     -10.023547      -272.7546
  19   2.0000      -7.868527      -214.1135
  20   2.0000      -7.864204      -213.9959
  21   2.0000      -7.808108      -212.4694
  22   2.0000      -7.807185      -212.4443
  23   2.0000      -6.589316      -179.3044
  24   2.0000      -6.585819      -179.2092
  25   2.0000      -5.815414      -158.2455
  26   2.0000      -5.812178      -158.1574
  27   2.0000      -5.811025      -158.1260
  28   2.0000      -5.808057      -158.0453
  29   2.0000      -5.805780      -157.9833
  30   2.0000      -5.801304      -157.8615
  31   2.0000      -5.755867      -156.6251
  32   2.0000      -5.755016      -156.6020
  33   2.0000      -5.748369      -156.4211
  34   2.0000      -5.748009      -156.4113
  35   2.0000      -5.747353      -156.3934
  36   2.0000      -5.747188      -156.3889
  37   2.0000      -4.735228      -128.8521
  38   2.0000      -4.734302      -128.8269
  39   2.0000      -4.732597      -128.7805
  40   2.0000      -4.731622      -128.7540
  41   2.0000      -4.730619      -128.7267
  42   2.0000      -4.729428      -128.6943
  43   2.0000      -1.051441       -28.6112
  44   2.0000      -1.043928       -28.4067
  45   2.0000      -1.010921       -27.5085
  46   2.0000      -1.000935       -27.2368
  47   2.0000      -0.796919       -21.6853
  48   2.0000      -0.756036       -20.5728
  49   2.0000      -0.748522       -20.3683
  50   2.0000      -0.735558       -20.0155
  51   2.0000      -0.728397       -19.8207
  52   2.0000      -0.710181       -19.3250
  53   2.0000      -0.683050       -18.5867
  54   2.0000      -0.661680       -18.0052
  55   2.0000      -0.626682       -17.0529
  56   2.0000      -0.617755       -16.8100
  57   2.0000      -0.609564       -16.5871
  58   2.0000      -0.597878       -16.2691
  59   2.0000      -0.590085       -16.0570
  60   2.0000      -0.528227       -14.3738
  61   2.0000      -0.521767       -14.1980
  62   2.0000      -0.494532       -13.4569
  63   2.0000      -0.487739       -13.2720
  64   2.0000      -0.470593       -12.8055
  65   2.0000      -0.465392       -12.6640
  66   2.0000      -0.459560       -12.5053
  67   2.0000      -0.450460       -12.2576
  68   2.0000      -0.446304       -12.1446
  69   2.0000      -0.437727       -11.9112
  70   2.0000      -0.428765       -11.6673
  71   2.0000      -0.411998       -11.2110
  72   2.0000      -0.402937       -10.9645
  73   2.0000      -0.400158       -10.8888
  74   2.0000      -0.393713       -10.7135
  75   2.0000      -0.381587       -10.3835
  76   2.0000      -0.377140       -10.2625
  77   2.0000      -0.374394       -10.1878
  78   2.0000      -0.369409       -10.0521
  79   2.0000      -0.364654        -9.9227
  80   2.0000      -0.363503        -9.8914
  81   2.0000      -0.359249        -9.7757
  82   2.0000      -0.354958        -9.6589
  83   2.0000      -0.348267        -9.4768
  84   2.0000      -0.344333        -9.3698
  85   2.0000      -0.328756        -8.9459
  86   2.0000      -0.321876        -8.7587
  87   2.0000      -0.313781        -8.5384
  88   2.0000      -0.310761        -8.4562
  89   2.0000      -0.306824        -8.3491
  90   2.0000      -0.305525        -8.3138
  91   2.0000      -0.286901        -7.8070
  92   2.0000      -0.277036        -7.5385
  93   2.0000      -0.275970        -7.5095
  94   2.0000      -0.268994        -7.3197
  95   2.0000      -0.245123        -6.6701
  96   2.0000      -0.230543        -6.2734
  97   2.0000      -0.224994        -6.1224
  98   2.0000      -0.213318        -5.8047
  99   2.0000      -0.202623        -5.5137
 100   2.0000      -0.195916        -5.3311
 101   0.0000      -0.040135        -1.0921
 102   0.0000      -0.030760        -0.8370
 103   0.0000      -0.008521        -0.2319
 104   0.0000       0.013652         0.3715
 105   0.0000       0.017881         0.4866

MULLIKEN ATOMIC CHARGES
-----------------------
   0 C :   -0.433012
   1 C :   -0.171937
   2 O :   -0.290996
   3 P :    0.660474
   4 S :   -0.431124
   5 O :   -0.258468
   6 C :   -0.098648
   7 C :   -0.486410
   8 S :   -0.188462
   9 C :   -0.234443
  10 S :   -0.148736
  11 P :    0.597803
  12 S :   -0.382238
  13 O :   -0.246113
  14 C :   -0.100485
  15 C :   -0.466959
  16 O :   -0.296712
  17 C :   -0.159660
  18 C :   -0.458457
  19 H :    0.145875
  20 H :    0.152994
  21 H :    0.172508
  22 H :    0.175386
  23 H :    0.145706
  24 H :    0.147300
  25 H :    0.158839
  26 H :    0.155149
  27 H :    0.182052
  28 H :    0.140625
  29 H :    0.193532
  30 H :    0.223351
  31 H :    0.162734
  32 H :    0.158276
  33 H :    0.153674
  34 H :    0.168273
  35 H :    0.148023
  36 H :    0.146264
  37 H :    0.176450
  38 H :    0.152886
  39 H :    0.149006
  40 H :    0.185680
Sum of atomic charges:    0.0000000

LOEWDIN ATOMIC CHARGES
----------------------
   0 C :   -0.409886
   1 C :    0.020332
   2 O :   -0.677484
   3 P :    0.380459
   4 S :   -0.097184
   5 O :   -0.651614
   6 C :    0.023466
   7 C :   -0.389379
   8 S :    0.139192
   9 C :   -0.418283
  10 S :    0.123183
  11 P :    0.374209
  12 S :   -0.052343
  13 O :   -0.676177
  14 C :    0.013039
  15 C :   -0.392545
  16 O :   -0.674078
  17 C :    0.021262
  18 C :   -0.409093
  19 H :    0.157760
  20 H :    0.159985
  21 H :    0.163988
  22 H :    0.180456
  23 H :    0.178348
  24 H :    0.172785
  25 H :    0.175576
  26 H :    0.162510
  27 H :    0.173268
  28 H :    0.156996
  29 H :    0.179754
  30 H :    0.202186
  31 H :    0.178640
  32 H :    0.178808
  33 H :    0.159375
  34 H :    0.166367
  35 H :    0.158869
  36 H :    0.178596
  37 H :    0.181610
  38 H :    0.159072
  39 H :    0.159883
  40 H :    0.168091

  Mayer bond orders larger than 0.100000
B(  0-C ,  1-C ) :   0.9170 B(  0-C , 19-H ) :   0.9580 B(  0-C , 20-H ) :   0.9663
B(  0-C , 21-H ) :   0.9672 B(  1-C ,  2-O ) :   0.8279 B(  1-C , 22-H ) :   0.9697
B(  1-C , 23-H ) :   0.9616 B(  2-O ,  3-P ) :   1.0345 B(  3-P ,  4-S ) :   1.8283
B(  3-P ,  5-O ) :   1.1748 B(  3-P ,  8-S ) :   1.0079 B(  5-O ,  6-C ) :   0.7321
B(  6-C ,  7-C ) :   0.9289 B(  6-C , 24-H ) :   0.9586 B(  6-C , 25-H ) :   0.9395
B(  7-C , 26-H ) :   0.9678 B(  7-C , 27-H ) :   0.9699 B(  7-C , 28-H ) :   0.9676
B(  8-S ,  9-C ) :   0.8920 B(  9-C , 10-S ) :   0.9201 B(  9-C , 29-H ) :   0.9150
B(  9-C , 30-H ) :   0.9055 B( 10-S , 11-P ) :   1.0225 B( 11-P , 12-S ) :   1.9032
B( 11-P , 13-O ) :   1.0927 B( 11-P , 16-O ) :   1.0406 B( 13-O , 14-C ) :   0.7161
B( 14-C , 15-C ) :   0.9304 B( 14-C , 31-H ) :   0.9588 B( 14-C , 32-H ) :   0.9622
B( 15-C , 33-H ) :   0.9721 B( 15-C , 34-H ) :   0.9699 B( 15-C , 35-H ) :   0.9675
B( 16-O , 17-C ) :   0.8230 B( 17-C , 18-C ) :   0.9130 B( 17-C , 36-H ) :   0.9613
B( 17-C , 37-H ) :   0.9673 B( 18-C , 38-H ) :   0.9676 B( 18-C , 39-H ) :   0.9567
B( 18-C , 40-H ) :   0.9624

Dispersion correction           -0.022504158
FINAL SINGLE POINT ENERGY     -2932.455564524755

DIPOLE MOMENT
-------------

Method             : SCF
Type of density    : Electron Density
Multiplicity       :   1
Irrep              :   0
Energy             : -2932.4797340067448204 Eh
Relativity type    :
Basis              : AO
                                X                 Y                 Z
Electronic contribution:      3.193458594       2.285866698     -13.213232544
Nuclear contribution   :     -3.415766289      -3.488602127      14.783561854
                        -----------------------------------------
Total Dipole Moment    :     -0.222307695      -1.202735429       1.570329311
                        -----------------------------------------
Magnitude (a.u.)       :      1.990459085
Magnitude (Debye)      :      5.059344921

Rotational constants in cm-1:             0.012335             0.005592             0.005093
Rotational constants in MHz :           369.800862           167.638046           152.695887

                             ****ORCA TERMINATED NORMALLY****
TOTAL RUN TIME: 0 days 0 hours 1 minutes 23 seconds 51 msec
