                         Program Version 6.0.0  -   RELEASE  -
|  1> ! r2scan-3c def2/J RI DEFGRID2 scfconv6 printgap
|  2> %output
|  3>     printlevel normal
|  4> end
|  5> %cpcm
|  6>     smd true
|  7>     smdsolvent "water"
|  8> end
|  9> * xyz 0 1
| 10> C 4.5294022785 -1.5320970639 -1.0524448321
| 11> C 4.6582583045 -0.0469897027 -0.7829177759
| 12> O 3.5830936132 0.4640753591 0.025712
| 13> P 2.0717990002 0.5180185719 -0.4785859193
| 14> S 1.8519598437 0.9687373613 -2.3672395035
| 15> O 1.4707994185 1.5831318478 0.5175629423
| 16> C 1.7264057545 1.5306874867 1.944540345
| 17> C 0.7962090571 2.5181859741 2.6155927371
| 18> S 1.3150696766 -1.376237679 0.1376030755
| 19> C 0.1203454505 -1.7040770278 -1.1974422089
| 20> S -1.5589331383 -1.9838689791 -0.5958461538
| 21> P -1.9260775458 -0.0316443937 0.1686595469
| 22> S -1.4263347853 1.4731653083 -0.979165495
| 23> O -1.1832321614 0.0057416424 1.56033371
| 24> C -1.4283255642 -0.9596102393 2.6172214448
| 25> C -2.3546453405 -0.3775359693 3.6641472385
| 26> O -3.4546735499 -0.0896893467 0.5997052652
| 27> C -4.5306626457 0.2166370926 -0.30423383
| 28> C -4.6380964087 -0.7856042709 -1.4348845285
| 29> H 5.4316850444 -1.8833240141 -1.5425475642
| 30> H 4.3864313676 -2.0764738583 -0.1224968913
| 31> H 3.6794145325 -1.717552679 -1.7071840104
| 32> H 4.676083358 0.5131787313 -1.7227399168
| 33> H 5.5497685764 0.1806112839 -0.1967284012
| 34> H 1.5449148496 0.5076750012 2.2874565466
| 35> H 2.7753827942 1.7857828451 2.1073814868
| 36> H 0.9825894739 3.5199099878 2.2387530841
| 37> H -0.2365428281 2.2556669838 2.4008262701
| 38> H 0.9641074989 2.4954045126 3.6874839962
| 39> H 0.414876297 -2.6232239591 -1.6974040891
| 40> H 0.1357485707 -0.8568282279 -1.8892213928
| 41> H -1.8478657973 -1.8682168092 2.1772330564
| 42> H -0.4409430288 -1.1765724234 3.0298210155
| 43> H -1.9369776511 0.5408431938 4.0674160479
| 44> H -3.3254401582 -0.1599512483 3.2270714821
| 45> H -2.4761672418 -1.0982327627 4.4666310384
| 46> H -5.416379616 0.2010642761 0.3325519762
| 47> H -4.371881872 1.2251840288 -0.6981087253
| 48> H -4.669227052 -1.7989543682 -1.0424654706
| 49> H -5.5423718121 -0.5893160238 -2.0020082351
| 50> H -3.7802553236 -0.6912911926 -2.0991185834
| 51> *
| 52>
| 53>                          ****END OF INPUT****

CARTESIAN COORDINATES (ANGSTROEM)
---------------------------------
  C      4.529402   -1.532097   -1.052445
  C      4.658258   -0.046990   -0.782918
  O      3.583094    0.464075    0.025712
  P      2.071799    0.518019   -0.478586
  S      1.851960    0.968737   -2.367240
  O      1.470799    1.583132    0.517563
  C      1.726406    1.530687    1.944540
  C      0.796209    2.518186    2.615593
  S      1.315070   -1.376238    0.137603
  C      0.120345   -1.704077   -1.197442
  S     -1.558933   -1.983869   -0.595846
  P     -1.926078   -0.031644    0.168660
  S     -1.426335    1.473165   -0.979165
  O     -1.183232    0.005742    1.560334
  C     -1.428326   -0.959610    2.617221
  C     -2.354645   -0.377536    3.664147
  O     -3.454674   -0.089689    0.599705
  C     -4.530663    0.216637   -0.304234
  C     -4.638096   -0.785604   -1.434885
  H      5.431685   -1.883324   -1.542548
  H      4.386431   -2.076474   -0.122497
  H      3.679415   -1.717553   -1.707184
  H      4.676083    0.513179   -1.722740
  H      5.549769    0.180611   -0.196728
  H      1.544915    0.507675    2.287457
  H      2.775383    1.785783    2.107381
  H      0.982589    3.519910    2.238753
  H     -0.236543    2.255667    2.400826
  H      0.964107    2.495405    3.687484
  H      0.414876   -2.623224   -1.697404
  H      0.135749   -0.856828   -1.889221
  H     -1.847866   -1.868217    2.177233
  H     -0.440943   -1.176572    3.029821
  H     -1.936978    0.540843    4.067416
  H     -3.325440   -0.159951    3.227071
  H     -2.476167   -1.098233    4.466631
  H     -5.416380    0.201064    0.332552
  H     -4.371882    1.225184   -0.698109
  H     -4.669227   -1.798954   -1.042465
  H     -5.542372   -0.589316   -2.002008
  H     -3.780255   -0.691291   -2.099119

 Total Charge           Charge          ....    0
 Multiplicity           Mult            ....    1
 Number of Electrons    NEL             ....  202
 Basis Dimension        Dim             ....  539

ORBITAL ENERGIES
----------------

  NO   OCC          E(Eh)            E(eV)
   0   2.0000     -88.576267     -2410.2828
   1   2.0000     -88.573094     -2410.1964
   2   2.0000     -88.526594     -2408.9311
   3   2.0000     -88.523716     -2408.8528
   4   2.0000     -76.916904     -2093.0154
   5   2.0000     -76.916539     -2093.0054
   6   2.0000     -18.994084      -516.8553
   7   2.0000     -18.991227      -516.7776
   8   2.0000     -18.991127      -516.7748
   9   2.0000     -18.989231      -516.7233
  10   2.0000     -10.102265      -274.8966
  11   2.0000     -10.090557      -274.5780
  12   2.0000     -10.090531      -274.5773
  13   2.0000     -10.089807      -274.5576
  14   2.0000     -10.088378      -274.5187
  15   2.0000     -10.018555      -272.6187
  16   2.0000     -10.018444      -272.6157
  17   2.0000     -10.018319      -272.6123
  18   2.0000     -10.016824      -272.5717
  19   2.0000      -7.870792      -214.1751
  20   2.0000      -7.867635      -214.0892
  21   2.0000      -7.821775      -212.8413
  22   2.0000      -7.818665      -212.7567
  23   2.0000      -6.595308      -179.4675
  24   2.0000      -6.594929      -179.4571
  25   2.0000      -5.817703      -158.3077
  26   2.0000      -5.814502      -158.2206
  27   2.0000      -5.814466      -158.2197
  28   2.0000      -5.811534      -158.1399
  29   2.0000      -5.808014      -158.0441
  30   2.0000      -5.804660      -157.9528
  31   2.0000      -5.769408      -156.9936
  32   2.0000      -5.766355      -156.9105
  33   2.0000      -5.762101      -156.7947
  34   2.0000      -5.761658      -156.7827
  35   2.0000      -5.758865      -156.7067
  36   2.0000      -5.758683      -156.7017
  37   2.0000      -4.741074      -129.0112
  38   2.0000      -4.740778      -129.0031
  39   2.0000      -4.740037      -128.9830
  40   2.0000      -4.739888      -128.9789
  41   2.0000      -4.739058      -128.9563
  42   2.0000      -4.738369      -128.9376
  43   2.0000      -1.051833       -28.6218
  44   2.0000      -1.050402       -28.5829
  45   2.0000      -1.010430       -27.4952
  46   2.0000      -1.007067       -27.4037
  47   2.0000      -0.798243       -21.7213
  48   2.0000      -0.753325       -20.4990
  49   2.0000      -0.744986       -20.2721
  50   2.0000      -0.725510       -19.7421
  51   2.0000      -0.723505       -19.6876
  52   2.0000      -0.710389       -19.3307
  53   2.0000      -0.688286       -18.7292
  54   2.0000      -0.669320       -18.2131
  55   2.0000      -0.626700       -17.0534
  56   2.0000      -0.615378       -16.7453
  57   2.0000      -0.601003       -16.3541
  58   2.0000      -0.597101       -16.2480
  59   2.0000      -0.588139       -16.0041
  60   2.0000      -0.526172       -14.3179
  61   2.0000      -0.518750       -14.1159
  62   2.0000      -0.489658       -13.3243
  63   2.0000      -0.487636       -13.2692
  64   2.0000      -0.470376       -12.7996
  65   2.0000      -0.463902       -12.6234
  66   2.0000      -0.457648       -12.4532
  67   2.0000      -0.448328       -12.1996
  68   2.0000      -0.438807       -11.9405
  69   2.0000      -0.433833       -11.8052
  70   2.0000      -0.424349       -11.5471
  71   2.0000      -0.405433       -11.0324
  72   2.0000      -0.405299       -11.0288
  73   2.0000      -0.397863       -10.8264
  74   2.0000      -0.390549       -10.6274
  75   2.0000      -0.381403       -10.3785
  76   2.0000      -0.376542       -10.2462
  77   2.0000      -0.367908       -10.0113
  78   2.0000      -0.362790        -9.8720
  79   2.0000      -0.361085        -9.8256
  80   2.0000      -0.356377        -9.6975
  81   2.0000      -0.351244        -9.5578
  82   2.0000      -0.350325        -9.5328
  83   2.0000      -0.344425        -9.3723
  84   2.0000      -0.342113        -9.3094
  85   2.0000      -0.326382        -8.8813
  86   2.0000      -0.321783        -8.7562
  87   2.0000      -0.313720        -8.5368
  88   2.0000      -0.306484        -8.3399
  89   2.0000      -0.304677        -8.2907
  90   2.0000      -0.301538        -8.2053
  91   2.0000      -0.284931        -7.7534
  92   2.0000      -0.278366        -7.5747
  93   2.0000      -0.277026        -7.5383
  94   2.0000      -0.272590        -7.4175
  95   2.0000      -0.247938        -6.7467
  96   2.0000      -0.242502        -6.5988
  97   2.0000      -0.235298        -6.4028
  98   2.0000      -0.224518        -6.1094
  99   2.0000      -0.212455        -5.7812
 100   2.0000      -0.208804        -5.6818
 101   0.0000      -0.044171        -1.2020
 102   0.0000      -0.037463        -1.0194
 103   0.0000      -0.012523        -0.3408
 104   0.0000       0.006850         0.1864
 105   0.0000       0.014205         0.3865

MULLIKEN ATOMIC CHARGES
-----------------------
   0 C :   -0.467967
   1 C :   -0.166362
   2 O :   -0.313781
   3 P :    0.672458
   4 S :   -0.492953
   5 O :   -0.294699
   6 C :   -0.097526
   7 C :   -0.524449
   8 S :   -0.176660
   9 C :   -0.234678
  10 S :   -0.147303
  11 P :    0.632827
  12 S :   -0.461685
  13 O :   -0.269826
  14 C :   -0.088530
  15 C :   -0.510503
  16 O :   -0.315199
  17 C :   -0.155538
  18 C :   -0.493345
  19 H :    0.170335
  20 H :    0.165167
  21 H :    0.171373
  22 H :    0.177794
  23 H :    0.173047
  24 H :    0.173920
  25 H :    0.176157
  26 H :    0.167178
  27 H :    0.172921
  28 H :    0.171911
  29 H :    0.234767
  30 H :    0.214704
  31 H :    0.172821
  32 H :    0.181890
  33 H :    0.167243
  34 H :    0.169909
  35 H :    0.171713
  36 H :    0.175065
  37 H :    0.178739
  38 H :    0.169401
  39 H :    0.173344
  40 H :    0.176318
Sum of atomic charges:    0.0000000

LOEWDIN ATOMIC CHARGES
----------------------
   0 C :   -0.411845
   1 C :    0.025185
   2 O :   -0.685162
   3 P :    0.382082
   4 S :   -0.143810
   5 O :   -0.678905
   6 C :    0.028418
   7 C :   -0.392790
   8 S :    0.152447
   9 C :   -0.413219
  10 S :    0.132057
  11 P :    0.381028
  12 S :   -0.109217
  13 O :   -0.687031
  14 C :    0.021143
  15 C :   -0.395298
  16 O :   -0.678019
  17 C :    0.026252
  18 C :   -0.411855
  19 H :    0.166726
  20 H :    0.163281
  21 H :    0.161070
  22 H :    0.180813
  23 H :    0.189970
  24 H :    0.182423
  25 H :    0.183695
  26 H :    0.163503
  27 H :    0.167584
  28 H :    0.170418
  29 H :    0.195878
  30 H :    0.198646
  31 H :    0.182822
  32 H :    0.188827
  33 H :    0.162834
  34 H :    0.164876
  35 H :    0.168582
  36 H :    0.190842
  37 H :    0.181455
  38 H :    0.163624
  39 H :    0.168590
  40 H :    0.162078

  Mayer bond orders larger than 0.100000
B(  0-C ,  1-C ) :   0.9078 B(  0-C , 19-H ) :   0.9530 B(  0-C , 20-H ) :   0.9641
B(  0-C , 21-H ) :   0.9673 B(  1-C ,  2-O ) :   0.8156 B(  1-C , 22-H ) :   0.9676
B(  1-C , 23-H ) :   0.9510 B(  2-O ,  3-P ) :   1.0444 B(  3-P ,  4-S ) :   1.7946
B(  3-P ,  5-O ) :   1.1771 B(  3-P ,  8-S ) :   1.0354 B(  5-O ,  6-C ) :   0.7232
B(  6-C ,  7-C ) :   0.9191 B(  6-C , 24-H ) :   0.9465 B(  6-C , 25-H ) :   0.9310
B(  7-C , 26-H ) :   0.9688 B(  7-C , 27-H ) :   0.9700 B(  7-C , 28-H ) :   0.9592
B(  8-S ,  9-C ) :   0.8833 B(  9-C , 10-S ) :   0.9131 B(  9-C , 29-H ) :   0.8991
B(  9-C , 30-H ) :   0.9103 B( 10-S , 11-P ) :   1.0407 B( 11-P , 12-S ) :   1.8450
B( 11-P , 13-O ) :   1.1083 B( 11-P , 16-O ) :   1.0539 B( 13-O , 14-C ) :   0.7048
B( 14-C , 15-C ) :   0.9226 B( 14-C , 31-H ) :   0.9520 B( 14-C , 32-H ) :   0.9513
B( 15-C , 33-H ) :   0.9703 B( 15-C , 34-H ) :   0.9699 B( 15-C , 35-H ) :   0.9606
B( 16-O , 17-C ) :   0.8117 B( 17-C , 18-C ) :   0.9006 B( 17-C , 36-H ) :   0.9508
B( 17-C , 37-H ) :   0.9671 B( 18-C , 38-H ) :   0.9645 B( 18-C , 39-H ) :   0.9516
B( 18-C , 40-H ) :   0.9652

Dispersion correction           -0.022504158
FINAL SINGLE POINT ENERGY     -2932.466407457276

DIPOLE MOMENT
-------------

Method             : SCF
Type of density    : Electron Density
Multiplicity       :   1
Irrep              :   0
Energy             : -2932.4905769392653383 Eh
Relativity type    :
Basis              : AO
                                X                 Y                 Z
Electronic contribution:      3.220948449       1.390505394     -12.486731443
Nuclear contribution   :     -3.415766289      -3.488602127      14.783561854
                        -----------------------------------------
Total Dipole Moment    :     -0.194817840      -2.098096733       2.296830412
                        -----------------------------------------
Magnitude (a.u.)       :      3.116952652
Magnitude (Debye)      :      7.922664016

Rotational constants in cm-1:             0.012335             0.005592             0.005093
Rotational constants in MHz :           369.800862           167.638046           152.695887

                             ****ORCA TERMINATED NORMALLY****
TOTAL RUN TIME: 0 days 0 hours 1 minutes 54 seconds 85 msec
