                         Program Version 6.0.0  -   RELEASE  -
|  1> ! pbe def2-sv(p) def2/J RI DEFGRID1 loosescf d4 GCP(DFT/SV(P)) printgap
|  2> %output
|  3>     printlevel normal
|  4> end
|  5> * xyz 0 1
|  6> C 4.0626062011 -1.4879285845 -2.4849981692
|  7> C 4.0781410038 -0.0483449141 -2.0145378267
|  8> O 3.4320926041 0.1199484795 -0.7381654199
|  9> P 1.8746536623 -0.1025828827 -0.5269491602
| 10> S 0.7294717338 0.5671545434 -1.9603257439
| 11> O 1.6042097549 0.5994434533 0.8578903405
| 12> C 2.3425307115 0.3122506695 2.0716844384
| 13> C 3.4568524769 1.3171775749 2.2723574151
| 14> S 1.6950357489 -2.1816146768 -0.1216823197
| 15> C -0.1105096489 -2.2318092489 -0.1482362311
| 16> S -0.8832680889 -1.4547144239 1.3165209524
| 17> P -1.8735002978 0.2632096072 0.5819274565
| 18> S -1.1187091088 2.0711000314 0.7352280448
| 19> O -3.2538861904 0.1450818593 1.3732293651
| 20> C -3.6341972109 0.9541953246 2.4989456676
| 21> C -4.9266578467 1.6807370295 2.1791561519
| 22> O -2.2716399786 -0.257762616 -0.8563380862
| 23> C -2.8813666344 0.6256992167 -1.825321709
| 24> C -2.7582184197 -0.0226292161 -3.1873923635
| 25> H 4.443203466 -2.1451440784 -1.7072497982
| 26> H 3.046755997 -1.78932594 -2.7343049012
| 27> H 4.6832784165 -1.5788969795 -3.370604925
| 28> H 3.5789590691 0.6008452835 -2.7403950065
| 29> H 5.0942863606 0.3070064322 -1.8374803967
| 30> H 1.5936365921 0.3814586415 2.8639345807
| 31> H 2.7291518797 -0.7096283214 2.0174150782
| 32> H 3.0503970489 2.3253179153 2.2639356075
| 33> H 3.933173423 1.1292541003 3.229473021
| 34> H 4.1935142055 1.2282393066 1.4784115729
| 35> H -0.3906933492 -3.2813057048 -0.1273160074
| 36> H -0.4758171392 -1.7361091868 -1.0467249552
| 37> H -3.7558785582 0.2710170371 3.341765999
| 38> H -2.8310640846 1.6673882439 2.7120484443
| 39> H -5.6957096181 0.967201777 1.897380367
| 40> H -5.2501857245 2.2332429656 3.0551497065
| 41> H -4.7683795663 2.3761768254 1.3580248898
| 42> H -3.9251399055 0.7681932328 -1.535500047
| 43> H -2.3608574049 1.5890689588 -1.7922527262
| 44> H -3.2183766861 -1.0063014516 -3.1740195781
| 45> H -3.2561261643 0.6014505891 -3.9219308688
| 46> H -1.708778251 -0.1196042071 -3.4554003178
| 47> *
| 48>
| 49>                          ****END OF INPUT****

CARTESIAN COORDINATES (ANGSTROEM)
---------------------------------
  C      4.062606   -1.487929   -2.484998
  C      4.078141   -0.048345   -2.014538
  O      3.432093    0.119948   -0.738165
  P      1.874654   -0.102583   -0.526949
  S      0.729472    0.567155   -1.960326
  O      1.604210    0.599443    0.857890
  C      2.342531    0.312251    2.071684
  C      3.456852    1.317178    2.272357
  S      1.695036   -2.181615   -0.121682
  C     -0.110510   -2.231809   -0.148236
  S     -0.883268   -1.454714    1.316521
  P     -1.873500    0.263210    0.581927
  S     -1.118709    2.071100    0.735228
  O     -3.253886    0.145082    1.373229
  C     -3.634197    0.954195    2.498946
  C     -4.926658    1.680737    2.179156
  O     -2.271640   -0.257763   -0.856338
  C     -2.881367    0.625699   -1.825322
  C     -2.758218   -0.022629   -3.187392
  H      4.443203   -2.145144   -1.707250
  H      3.046756   -1.789326   -2.734305
  H      4.683278   -1.578897   -3.370605
  H      3.578959    0.600845   -2.740395
  H      5.094286    0.307006   -1.837480
  H      1.593637    0.381459    2.863935
  H      2.729152   -0.709628    2.017415
  H      3.050397    2.325318    2.263936
  H      3.933173    1.129254    3.229473
  H      4.193514    1.228239    1.478412
  H     -0.390693   -3.281306   -0.127316
  H     -0.475817   -1.736109   -1.046725
  H     -3.755879    0.271017    3.341766
  H     -2.831064    1.667388    2.712048
  H     -5.695710    0.967202    1.897380
  H     -5.250186    2.233243    3.055150
  H     -4.768380    2.376177    1.358025
  H     -3.925140    0.768193   -1.535500
  H     -2.360857    1.589069   -1.792253
  H     -3.218377   -1.006301   -3.174020
  H     -3.256126    0.601451   -3.921931
  H     -1.708778   -0.119604   -3.455400

 Total Charge           Charge          ....    0
 Multiplicity           Mult            ....    1
 Number of Electrons    NEL             ....  202
 Basis Dimension        Dim             ....  334

ORBITAL ENERGIES
----------------

  NO   OCC          E(Eh)            E(eV)
   0   2.0000     -88.041849     -2395.7405
   1   2.0000     -88.034958     -2395.5530
   2   2.0000     -87.984224     -2394.1724
   3   2.0000     -87.972894     -2393.8642
   4   2.0000     -76.424894     -2079.6271
   5   2.0000     -76.416580     -2079.4009
   6   2.0000     -18.795939      -511.4635
   7   2.0000     -18.785493      -511.1792
   8   2.0000     -18.785301      -511.1740
   9   2.0000     -18.778601      -510.9917
  10   2.0000      -9.955810      -270.9114
  11   2.0000      -9.955141      -270.8931
  12   2.0000      -9.948167      -270.7034
  13   2.0000      -9.944955      -270.6160
  14   2.0000      -9.942316      -270.5442
  15   2.0000      -9.886332      -269.0208
  16   2.0000      -9.880318      -268.8571
  17   2.0000      -9.879931      -268.8466
  18   2.0000      -9.879262      -268.8284
  19   2.0000      -7.687078      -209.1760
  20   2.0000      -7.680541      -208.9981
  21   2.0000      -7.629275      -207.6031
  22   2.0000      -7.617867      -207.2927
  23   2.0000      -6.422350      -174.7610
  24   2.0000      -6.414207      -174.5395
  25   2.0000      -5.714759      -155.5065
  26   2.0000      -5.711560      -155.4195
  27   2.0000      -5.708881      -155.3466
  28   2.0000      -5.704884      -155.2378
  29   2.0000      -5.704235      -155.2201
  30   2.0000      -5.697105      -155.0261
  31   2.0000      -5.658109      -153.9650
  32   2.0000      -5.649804      -153.7390
  33   2.0000      -5.649529      -153.7315
  34   2.0000      -5.646832      -153.6581
  35   2.0000      -5.638706      -153.4370
  36   2.0000      -5.637764      -153.4114
  37   2.0000      -4.645272      -126.4043
  38   2.0000      -4.644070      -126.3716
  39   2.0000      -4.642549      -126.3302
  40   2.0000      -4.636823      -126.1744
  41   2.0000      -4.635990      -126.1517
  42   2.0000      -4.634580      -126.1133
  43   2.0000      -0.986996       -26.8575
  44   2.0000      -0.977240       -26.5921
  45   2.0000      -0.943311       -25.6688
  46   2.0000      -0.935524       -25.4569
  47   2.0000      -0.759425       -20.6650
  48   2.0000      -0.718064       -19.5395
  49   2.0000      -0.707142       -19.2423
  50   2.0000      -0.689315       -18.7572
  51   2.0000      -0.681358       -18.5407
  52   2.0000      -0.669556       -18.2195
  53   2.0000      -0.647282       -17.6134
  54   2.0000      -0.628834       -17.1114
  55   2.0000      -0.596750       -16.2384
  56   2.0000      -0.583225       -15.8704
  57   2.0000      -0.570924       -15.5356
  58   2.0000      -0.562008       -15.2930
  59   2.0000      -0.559623       -15.2281
  60   2.0000      -0.499406       -13.5895
  61   2.0000      -0.495749       -13.4900
  62   2.0000      -0.475288       -12.9332
  63   2.0000      -0.472436       -12.8556
  64   2.0000      -0.449775       -12.2390
  65   2.0000      -0.444108       -12.0848
  66   2.0000      -0.434783       -11.8311
  67   2.0000      -0.431472       -11.7410
  68   2.0000      -0.425974       -11.5914
  69   2.0000      -0.421009       -11.4562
  70   2.0000      -0.408453       -11.1146
  71   2.0000      -0.389015       -10.5856
  72   2.0000      -0.388242       -10.5646
  73   2.0000      -0.380041       -10.3414
  74   2.0000      -0.377054       -10.2602
  75   2.0000      -0.366543        -9.9741
  76   2.0000      -0.363495        -9.8912
  77   2.0000      -0.355532        -9.6745
  78   2.0000      -0.351415        -9.5625
  79   2.0000      -0.350035        -9.5249
  80   2.0000      -0.345969        -9.4143
  81   2.0000      -0.342696        -9.3252
  82   2.0000      -0.337190        -9.1754
  83   2.0000      -0.331995        -9.0340
  84   2.0000      -0.325702        -8.8628
  85   2.0000      -0.315104        -8.5744
  86   2.0000      -0.306861        -8.3501
  87   2.0000      -0.296001        -8.0546
  88   2.0000      -0.291951        -7.9444
  89   2.0000      -0.287411        -7.8209
  90   2.0000      -0.279447        -7.6041
  91   2.0000      -0.269164        -7.3243
  92   2.0000      -0.266607        -7.2547
  93   2.0000      -0.262649        -7.1470
  94   2.0000      -0.252209        -6.8630
  95   2.0000      -0.235285        -6.4024
  96   2.0000      -0.217744        -5.9251
  97   2.0000      -0.209934        -5.7126
  98   2.0000      -0.201001        -5.4695
  99   2.0000      -0.188006        -5.1159
 100   2.0000      -0.176525        -4.8035
 101   0.0000      -0.039551        -1.0762
 102   0.0000      -0.025526        -0.6946
 103   0.0000      -0.018905        -0.5144
 104   0.0000       0.003887         0.1058
 105   0.0000       0.022756         0.6192

MULLIKEN ATOMIC CHARGES
-----------------------
   0 C :   -0.321188
   1 C :   -0.000334
   2 O :   -0.378095
   3 P :    0.601427
   4 S :   -0.308634
   5 O :   -0.333466
   6 C :   -0.005055
   7 C :   -0.288924
   8 S :   -0.098599
   9 C :   -0.363056
  10 S :   -0.106054
  11 P :    0.626814
  12 S :   -0.309059
  13 O :   -0.385022
  14 C :   -0.004044
  15 C :   -0.287536
  16 O :   -0.376618
  17 C :   -0.006085
  18 C :   -0.289848
  19 H :    0.117891
  20 H :    0.129081
  21 H :    0.115173
  22 H :    0.114255
  23 H :    0.105676
  24 H :    0.107528
  25 H :    0.097373
  26 H :    0.124381
  27 H :    0.106902
  28 H :    0.117160
  29 H :    0.183678
  30 H :    0.214084
  31 H :    0.096813
  32 H :    0.101122
  33 H :    0.112742
  34 H :    0.107631
  35 H :    0.113940
  36 H :    0.100575
  37 H :    0.115142
  38 H :    0.110950
  39 H :    0.108362
  40 H :    0.132918
Sum of atomic charges:    0.0000000

LOEWDIN ATOMIC CHARGES
----------------------
   0 C :   -0.372119
   1 C :   -0.116303
   2 O :   -0.244943
   3 P :    0.571007
   4 S :   -0.295604
   5 O :   -0.221576
   6 C :   -0.115471
   7 C :   -0.359465
   8 S :    0.071681
   9 C :   -0.476832
  10 S :    0.067140
  11 P :    0.562526
  12 S :   -0.301049
  13 O :   -0.254312
  14 C :   -0.124156
  15 C :   -0.355084
  16 O :   -0.241295
  17 C :   -0.116855
  18 C :   -0.354470
  19 H :    0.123448
  20 H :    0.121746
  21 H :    0.132269
  22 H :    0.113690
  23 H :    0.118808
  24 H :    0.119153
  25 H :    0.100870
  26 H :    0.130874
  27 H :    0.128280
  28 H :    0.124004
  29 H :    0.138766
  30 H :    0.132228
  31 H :    0.111747
  32 H :    0.102438
  33 H :    0.123922
  34 H :    0.128577
  35 H :    0.124920
  36 H :    0.110618
  37 H :    0.111560
  38 H :    0.124275
  39 H :    0.129623
  40 H :    0.125366

  Mayer bond orders larger than 0.100000
B(  0-C ,  1-C ) :   1.1662 B(  0-C , 19-H ) :   0.9437 B(  0-C , 20-H ) :   0.9339
B(  0-C , 21-H ) :   0.9369 B(  1-C ,  2-O ) :   0.9042 B(  1-C , 22-H ) :   0.9179
B(  1-C , 23-H ) :   0.9339 B(  2-O ,  3-P ) :   1.0877 B(  3-P ,  4-S ) :   1.6306
B(  3-P ,  5-O ) :   1.1580 B(  3-P ,  8-S ) :   0.9432 B(  4-S ,  8-S ) :   0.1054
B(  5-O ,  6-C ) :   0.8890 B(  6-C ,  7-C ) :   1.1637 B(  6-C , 24-H ) :   0.9304
B(  6-C , 25-H ) :   0.9117 B(  7-C , 26-H ) :   0.9465 B(  7-C , 27-H ) :   0.9401
B(  7-C , 28-H ) :   0.9427 B(  8-S ,  9-C ) :   1.0001 B(  9-C , 10-S ) :   0.9959
B(  9-C , 29-H ) :   0.9112 B(  9-C , 30-H ) :   0.8629 B( 10-S , 11-P ) :   0.9556
B( 10-S , 12-S ) :   0.1058 B( 11-P , 12-S ) :   1.6439 B( 11-P , 13-O ) :   1.0849
B( 11-P , 16-O ) :   1.1173 B( 13-O , 14-C ) :   0.9159 B( 14-C , 15-C ) :   1.1640
B( 14-C , 31-H ) :   0.9326 B( 14-C , 32-H ) :   0.8944 B( 15-C , 33-H ) :   0.9509
B( 15-C , 34-H ) :   0.9416 B( 15-C , 35-H ) :   0.9473 B( 16-O , 17-C ) :   0.8888
B( 17-C , 18-C ) :   1.1647 B( 17-C , 36-H ) :   0.9308 B( 17-C , 37-H ) :   0.9095
B( 18-C , 38-H ) :   0.9490 B( 18-C , 39-H ) :   0.9410 B( 18-C , 40-H ) :   0.9431

Dispersion correction           -0.066805057
FINAL SINGLE POINT ENERGY     -2929.512487957269

DIPOLE MOMENT
-------------

Method             : SCF
Type of density    : Electron Density
Multiplicity       :   1
Irrep              :   0
Energy             : -2929.6305208263465829 Eh
Relativity type    :
Basis              : AO
                                X                 Y                 Z
Electronic contribution:      1.567256649      -4.382033116       3.128924259
Nuclear contribution   :     -1.231358398       3.721670719      -3.065023732
                        -----------------------------------------
Total Dipole Moment    :      0.335898251      -0.660362396       0.063900527
                        -----------------------------------------
Magnitude (a.u.)       :      0.743632575
Magnitude (Debye)      :      1.890163792

Rotational constants in cm-1:             0.012372             0.005452             0.004877
Rotational constants in MHz :           370.889579           163.439010           146.204087

                             ****ORCA TERMINATED NORMALLY****
TOTAL RUN TIME: 0 days 0 hours 0 minutes 21 seconds 343 msec
