                         Program Version 6.0.0  -   RELEASE  -
|  1> ! pbe def2-sv(p) def2/J RI DEFGRID1 loosescf d4 GCP(DFT/SV(P)) printgap
|  2> %output
|  3>     printlevel normal
|  4> end
|  5> * xyz 0 1
|  6> C 3.3821507166 -1.8674832238 -2.5399827908
|  7> C 4.0926537984 -0.5893512571 -2.1433501138
|  8> O 3.7314021477 -0.1390199966 -0.8263869696
|  9> P 2.2536725173 0.3185032427 -0.4219134005
| 10> S 1.3380661335 1.3585042574 -1.7987298229
| 11> O 2.5656827412 1.1393379627 0.8827133242
| 12> C 3.2164618395 0.5661533975 2.044085637
| 13> C 2.8546146017 1.4177229132 3.2421725504
| 14> S 1.3189943998 -1.4907372191 0.2138241882
| 15> C -0.1263653509 -1.5019366115 -0.8996732125
| 16> S -1.7172603163 -1.730026119 -0.064523505
| 17> P -2.1186372867 0.1997763519 0.741665447
| 18> S -0.5508215795 1.1993188611 1.3633595035
| 19> O -3.1274071363 -0.0656437372 1.9149893886
| 20> C -4.5420328089 -0.3576422516 1.7735374596
| 21> C -4.799688643 -1.6458781539 1.0228501664
| 22> O -3.0356547235 0.9790068129 -0.3057384955
| 23> C -2.534878692 1.5855589446 -1.5089630289
| 24> C -2.7999841173 0.698709063 -2.7105584484
| 25> H 3.5030046208 -2.623809044 -1.768558531
| 26> H 2.3211545943 -1.6701082702 -2.6844877354
| 27> H 3.8012303292 -2.232221797 -3.4722310644
| 28> H 3.8658277399 0.2120800615 -2.8531838173
| 29> H 5.1723213513 -0.7318039365 -2.0777134559
| 30> H 2.8664029785 -0.4630866996 2.1695403451
| 31> H 4.2917127634 0.5636829131 1.8533315467
| 32> H 3.2086467464 2.4344021268 3.098571865
| 33> H 1.7735603686 1.4424140118 3.359905638
| 34> H 3.3072184182 0.9954774608 4.1332640719
| 35> H -0.0346768284 -2.3676454447 -1.5513071365
| 36> H -0.1177327789 -0.5688260042 -1.469911672
| 37> H -4.8820987429 -0.419115075 2.8084582178
| 38> H -5.0150495399 0.4901850212 1.2751499069
| 39> H -4.2463626121 -2.4656171884 1.4740647263
| 40> H -5.8616570332 -1.8687167663 1.0587981717
| 41> H -4.4937517083 -1.5482022672 -0.0164420779
| 42> H -3.0749566578 2.5307854451 -1.5927433471
| 43> H -1.4670031412 1.8017273852 -1.3952104382
| 44> H -2.4166032891 1.1904775363 -3.5988065793
| 45> H -2.3035314892 -0.2621626528 -2.5999356677
| 46> H -3.8675046515 0.5312598696 -2.8211226206
| 47> *
| 48>
| 49>                          ****END OF INPUT****

CARTESIAN COORDINATES (ANGSTROEM)
---------------------------------
  C      3.382151   -1.867483   -2.539983
  C      4.092654   -0.589351   -2.143350
  O      3.731402   -0.139020   -0.826387
  P      2.253673    0.318503   -0.421913
  S      1.338066    1.358504   -1.798730
  O      2.565683    1.139338    0.882713
  C      3.216462    0.566153    2.044086
  C      2.854615    1.417723    3.242173
  S      1.318994   -1.490737    0.213824
  C     -0.126365   -1.501937   -0.899673
  S     -1.717260   -1.730026   -0.064524
  P     -2.118637    0.199776    0.741665
  S     -0.550822    1.199319    1.363360
  O     -3.127407   -0.065644    1.914989
  C     -4.542033   -0.357642    1.773537
  C     -4.799689   -1.645878    1.022850
  O     -3.035655    0.979007   -0.305738
  C     -2.534879    1.585559   -1.508963
  C     -2.799984    0.698709   -2.710558
  H      3.503005   -2.623809   -1.768559
  H      2.321155   -1.670108   -2.684488
  H      3.801230   -2.232222   -3.472231
  H      3.865828    0.212080   -2.853184
  H      5.172321   -0.731804   -2.077713
  H      2.866403   -0.463087    2.169540
  H      4.291713    0.563683    1.853332
  H      3.208647    2.434402    3.098572
  H      1.773560    1.442414    3.359906
  H      3.307218    0.995477    4.133264
  H     -0.034677   -2.367645   -1.551307
  H     -0.117733   -0.568826   -1.469912
  H     -4.882099   -0.419115    2.808458
  H     -5.015050    0.490185    1.275150
  H     -4.246363   -2.465617    1.474065
  H     -5.861657   -1.868717    1.058798
  H     -4.493752   -1.548202   -0.016442
  H     -3.074957    2.530785   -1.592743
  H     -1.467003    1.801727   -1.395210
  H     -2.416603    1.190478   -3.598807
  H     -2.303531   -0.262163   -2.599936
  H     -3.867505    0.531260   -2.821123

 Total Charge           Charge          ....    0
 Multiplicity           Mult            ....    1
 Number of Electrons    NEL             ....  202
 Basis Dimension        Dim             ....  334

ORBITAL ENERGIES
----------------

  NO   OCC          E(Eh)            E(eV)
   0   2.0000     -88.041515     -2395.7314
   1   2.0000     -88.037577     -2395.6243
   2   2.0000     -87.986713     -2394.2402
   3   2.0000     -87.974178     -2393.8991
   4   2.0000     -76.423604     -2079.5920
   5   2.0000     -76.420650     -2079.5116
   6   2.0000     -18.789116      -511.2778
   7   2.0000     -18.786050      -511.1944
   8   2.0000     -18.785759      -511.1865
   9   2.0000     -18.783603      -511.1278
  10   2.0000      -9.957019      -270.9443
  11   2.0000      -9.955270      -270.8967
  12   2.0000      -9.951774      -270.8015
  13   2.0000      -9.950353      -270.7629
  14   2.0000      -9.946303      -270.6527
  15   2.0000      -9.890771      -269.1416
  16   2.0000      -9.884767      -268.9782
  17   2.0000      -9.883392      -268.9408
  18   2.0000      -9.879219      -268.8272
  19   2.0000      -7.686235      -209.1531
  20   2.0000      -7.682236      -209.0443
  21   2.0000      -7.631698      -207.6691
  22   2.0000      -7.618975      -207.3229
  23   2.0000      -6.420754      -174.7176
  24   2.0000      -6.417961      -174.6416
  25   2.0000      -5.714181      -155.4908
  26   2.0000      -5.710537      -155.3916
  27   2.0000      -5.710137      -155.3807
  28   2.0000      -5.706922      -155.2932
  29   2.0000      -5.703410      -155.1977
  30   2.0000      -5.699082      -155.0799
  31   2.0000      -5.660508      -154.0303
  32   2.0000      -5.652501      -153.8124
  33   2.0000      -5.651690      -153.7903
  34   2.0000      -5.648028      -153.6907
  35   2.0000      -5.639698      -153.4640
  36   2.0000      -5.638931      -153.4431
  37   2.0000      -4.643466      -126.3551
  38   2.0000      -4.642339      -126.3245
  39   2.0000      -4.641360      -126.2978
  40   2.0000      -4.640974      -126.2873
  41   2.0000      -4.639675      -126.2520
  42   2.0000      -4.638077      -126.2085
  43   2.0000      -0.984278       -26.7836
  44   2.0000      -0.982174       -26.7263
  45   2.0000      -0.939772       -25.5725
  46   2.0000      -0.937391       -25.5077
  47   2.0000      -0.757188       -20.6041
  48   2.0000      -0.718435       -19.5496
  49   2.0000      -0.710652       -19.3378
  50   2.0000      -0.689593       -18.7648
  51   2.0000      -0.685470       -18.6526
  52   2.0000      -0.675987       -18.3945
  53   2.0000      -0.648759       -17.6536
  54   2.0000      -0.631472       -17.1832
  55   2.0000      -0.594119       -16.1668
  56   2.0000      -0.586242       -15.9525
  57   2.0000      -0.575764       -15.6673
  58   2.0000      -0.567093       -15.4314
  59   2.0000      -0.561143       -15.2695
  60   2.0000      -0.502846       -13.6831
  61   2.0000      -0.495714       -13.4891
  62   2.0000      -0.472787       -12.8652
  63   2.0000      -0.468636       -12.7522
  64   2.0000      -0.453487       -12.3400
  65   2.0000      -0.449166       -12.2224
  66   2.0000      -0.440006       -11.9732
  67   2.0000      -0.434774       -11.8308
  68   2.0000      -0.424464       -11.5503
  69   2.0000      -0.422427       -11.4948
  70   2.0000      -0.413295       -11.2463
  71   2.0000      -0.390383       -10.6229
  72   2.0000      -0.390026       -10.6131
  73   2.0000      -0.387060       -10.5324
  74   2.0000      -0.381450       -10.3798
  75   2.0000      -0.367313        -9.9951
  76   2.0000      -0.360171        -9.8008
  77   2.0000      -0.359521        -9.7831
  78   2.0000      -0.350970        -9.5504
  79   2.0000      -0.349867        -9.5204
  80   2.0000      -0.346768        -9.4360
  81   2.0000      -0.342392        -9.3170
  82   2.0000      -0.341043        -9.2802
  83   2.0000      -0.333450        -9.0736
  84   2.0000      -0.331334        -9.0160
  85   2.0000      -0.313332        -8.5262
  86   2.0000      -0.311122        -8.4660
  87   2.0000      -0.296549        -8.0695
  88   2.0000      -0.294433        -8.0119
  89   2.0000      -0.292236        -7.9522
  90   2.0000      -0.288229        -7.8431
  91   2.0000      -0.273155        -7.4329
  92   2.0000      -0.266161        -7.2426
  93   2.0000      -0.258889        -7.0447
  94   2.0000      -0.252170        -6.8619
  95   2.0000      -0.232372        -6.3232
  96   2.0000      -0.219379        -5.9696
  97   2.0000      -0.210932        -5.7398
  98   2.0000      -0.202651        -5.5144
  99   2.0000      -0.184336        -5.0160
 100   2.0000      -0.182625        -4.9695
 101   0.0000      -0.038294        -1.0420
 102   0.0000      -0.030685        -0.8350
 103   0.0000      -0.018061        -0.4915
 104   0.0000       0.004134         0.1125
 105   0.0000       0.018072         0.4918

MULLIKEN ATOMIC CHARGES
-----------------------
   0 C :   -0.321442
   1 C :    0.006423
   2 O :   -0.386358
   3 P :    0.618761
   4 S :   -0.304293
   5 O :   -0.353786
   6 C :   -0.016351
   7 C :   -0.286568
   8 S :   -0.096219
   9 C :   -0.352001
  10 S :   -0.122492
  11 P :    0.608416
  12 S :   -0.299043
  13 O :   -0.360653
  14 C :    0.007072
  15 C :   -0.337246
  16 O :   -0.386752
  17 C :   -0.027081
  18 C :   -0.297440
  19 H :    0.121047
  20 H :    0.118909
  21 H :    0.111422
  22 H :    0.109351
  23 H :    0.102984
  24 H :    0.110522
  25 H :    0.107320
  26 H :    0.118898
  27 H :    0.138394
  28 H :    0.107260
  29 H :    0.181456
  30 H :    0.193708
  31 H :    0.111534
  32 H :    0.112632
  33 H :    0.130426
  34 H :    0.118193
  35 H :    0.131612
  36 H :    0.104956
  37 H :    0.133423
  38 H :    0.113496
  39 H :    0.119757
  40 H :    0.109754
Sum of atomic charges:    0.0000000

LOEWDIN ATOMIC CHARGES
----------------------
   0 C :   -0.371557
   1 C :   -0.115559
   2 O :   -0.256507
   3 P :    0.580023
   4 S :   -0.294620
   5 O :   -0.229061
   6 C :   -0.111525
   7 C :   -0.352231
   8 S :    0.072150
   9 C :   -0.484733
  10 S :    0.071893
  11 P :    0.559018
  12 S :   -0.300894
  13 O :   -0.234797
  14 C :   -0.107615
  15 C :   -0.375039
  16 O :   -0.251628
  17 C :   -0.122249
  18 C :   -0.360135
  19 H :    0.124287
  20 H :    0.118064
  21 H :    0.129820
  22 H :    0.110893
  23 H :    0.118027
  24 H :    0.105794
  25 H :    0.114523
  26 H :    0.128853
  27 H :    0.132245
  28 H :    0.128848
  29 H :    0.134447
  30 H :    0.116736
  31 H :    0.123087
  32 H :    0.116387
  33 H :    0.128415
  34 H :    0.134053
  35 H :    0.119835
  36 H :    0.119048
  37 H :    0.108403
  38 H :    0.131949
  39 H :    0.118248
  40 H :    0.123103

  Mayer bond orders larger than 0.100000
B(  0-C ,  1-C ) :   1.1635 B(  0-C , 19-H ) :   0.9408 B(  0-C , 20-H ) :   0.9370
B(  0-C , 21-H ) :   0.9366 B(  1-C ,  2-O ) :   0.9218 B(  1-C , 22-H ) :   0.9197
B(  1-C , 23-H ) :   0.9349 B(  2-O ,  3-P ) :   1.0725 B(  3-P ,  4-S ) :   1.5986
B(  3-P ,  5-O ) :   1.1463 B(  3-P ,  8-S ) :   0.9556 B(  4-S ,  8-S ) :   0.1149
B(  4-S , 30-H ) :   0.1277 B(  5-O ,  6-C ) :   0.8901 B(  6-C ,  7-C ) :   1.1646
B(  6-C , 24-H ) :   0.9132 B(  6-C , 25-H ) :   0.9301 B(  7-C , 26-H ) :   0.9497
B(  7-C , 27-H ) :   0.9418 B(  7-C , 28-H ) :   0.9402 B(  8-S ,  9-C ) :   1.0029
B(  9-C , 10-S ) :   0.9928 B(  9-C , 29-H ) :   0.9043 B(  9-C , 30-H ) :   0.8415
B( 10-S , 11-P ) :   0.9379 B( 10-S , 12-S ) :   0.1151 B( 11-P , 12-S ) :   1.6828
B( 11-P , 13-O ) :   1.1464 B( 11-P , 16-O ) :   1.0615 B( 13-O , 14-C ) :   0.8963
B( 14-C , 15-C ) :   1.1721 B( 14-C , 31-H ) :   0.9343 B( 14-C , 32-H ) :   0.9266
B( 15-C , 33-H ) :   0.9406 B( 15-C , 34-H ) :   0.9345 B( 15-C , 35-H ) :   0.9321
B( 16-O , 17-C ) :   0.9058 B( 17-C , 18-C ) :   1.1657 B( 17-C , 36-H ) :   0.9346
B( 17-C , 37-H ) :   0.8957 B( 18-C , 38-H ) :   0.9409 B( 18-C , 39-H ) :   0.9366
B( 18-C , 40-H ) :   0.9470

Dispersion correction           -0.066437021
FINAL SINGLE POINT ENERGY     -2929.511825997443

DIPOLE MOMENT
-------------

Method             : SCF
Type of density    : Electron Density
Multiplicity       :   1
Irrep              :   0
Energy             : -2929.6301797221331071 Eh
Relativity type    :
Basis              : AO
                                X                 Y                 Z
Electronic contribution:      3.231320698       4.096825591       6.037625075
Nuclear contribution   :     -3.572878082      -5.133453511      -6.510891966
                        -----------------------------------------
Total Dipole Moment    :     -0.341557384      -1.036627919      -0.473266891
                        -----------------------------------------
Magnitude (a.u.)       :      1.189638785
Magnitude (Debye)      :      3.023821485

Rotational constants in cm-1:             0.012253             0.005184             0.004677
Rotational constants in MHz :           367.324172           155.422543           140.222784

                             ****ORCA TERMINATED NORMALLY****
TOTAL RUN TIME: 0 days 0 hours 0 minutes 21 seconds 552 msec
