                         Program Version 6.0.0  -   RELEASE  -
|  1> ! wb97x-v def2-tzvp def2/J RIJCOSX DEFGRID2 scfconv7 GCP(DFT/TZ) printgap
|  2> %output
|  3>     printlevel normal
|  4> end
|  5> %cpcm
|  6>     smd true
|  7>     smdsolvent "water"
|  8> end
|  9> * xyz 0 1
| 10> C 1.8636463268638201 0.10320152378271821 0.21634806956425487
| 11> C 0.6841600618656221 0.1912385490224387 -0.39310019729002144
| 12> C -0.5234009012479374 -0.5820754941839624 0.017921372973163027
| 13> O -1.6130355769595803 0.34495734701584274 0.22013452761039445
| 14> H 2.727848650193252 0.6566422400646711 -0.1402282847944802
| 15> H 2.0041056267782267 -0.5344546807868953 1.0865945542151334
| 16> H 0.5591324281639455 0.8373289741352214 -1.2620496079003238
| 17> H -0.32144344544976544 -1.1507839267151734 0.9357050273359627
| 18> H -0.7911804659751186 -1.2935448876566698 -0.7773011746671226
| 19> H -2.416013977701457 -0.17975846373294516 0.33123511062948935
| 20> *
| 21>
| 22>                          ****END OF INPUT****

CARTESIAN COORDINATES (ANGSTROEM)
---------------------------------
  C      1.863646    0.103202    0.216348
  C      0.684160    0.191239   -0.393100
  C     -0.523401   -0.582075    0.017921
  O     -1.613036    0.344957    0.220135
  H      2.727849    0.656642   -0.140228
  H      2.004106   -0.534455    1.086595
  H      0.559132    0.837329   -1.262050
  H     -0.321443   -1.150784    0.935705
  H     -0.791180   -1.293545   -0.777301
  H     -2.416014   -0.179758    0.331235

 Total Charge           Charge          ....    0
 Multiplicity           Mult            ....    1
 Number of Electrons    NEL             ....   32
 Basis Dimension        Dim             ....  160

ORBITAL ENERGIES
----------------

  NO   OCC          E(Eh)            E(eV)
   0   2.0000     -21.674636      -589.7968
   1   2.0000     -12.091103      -329.0156
   2   2.0000     -12.049799      -327.8917
   3   2.0000     -12.041064      -327.6540
   4   2.0000      -1.672079       -45.4996
   5   2.0000      -1.311193       -35.6794
   6   2.0000      -1.199889       -32.6506
   7   2.0000      -1.043006       -28.3816
   8   2.0000      -1.028946       -27.9990
   9   2.0000      -0.953587       -25.9484
  10   2.0000      -0.938229       -25.5305
  11   2.0000      -0.889735       -24.2109
  12   2.0000      -0.870485       -23.6871
  13   2.0000      -0.800773       -21.7901
  14   2.0000      -0.775892       -21.1131
  15   2.0000      -0.659608       -17.9489
  16   0.0000      -0.216887        -5.9018
  17   0.0000      -0.112262        -3.0548
  18   0.0000      -0.018664        -0.5079
  19   0.0000       0.001465         0.0399
  20   0.0000       0.023893         0.6502

MULLIKEN ATOMIC CHARGES
-----------------------
   0 C :   -0.343537
   1 C :   -0.163748
   2 C :   -0.012355
   3 O :   -0.553236
   4 H :    0.161366
   5 H :    0.159713
   6 H :    0.150184
   7 H :    0.115274
   8 H :    0.123259
   9 H :    0.363081
Sum of atomic charges:    0.0000000

LOEWDIN ATOMIC CHARGES
----------------------
   0 C :   -0.210790
   1 C :   -0.218173
   2 C :   -0.312568
   3 O :   -0.104072
   4 H :    0.127574
   5 H :    0.128676
   6 H :    0.144903
   7 H :    0.126354
   8 H :    0.129150
   9 H :    0.188945

  Mayer bond orders larger than 0.100000
B(  0-C ,  1-C ) :   1.9502 B(  0-C ,  4-H ) :   0.9643 B(  0-C ,  5-H ) :   0.9601
B(  1-C ,  2-C ) :   0.9773 B(  1-C ,  6-H ) :   0.9497 B(  2-C ,  3-O ) :   1.0046
B(  2-C ,  7-H ) :   0.9737 B(  2-C ,  8-H ) :   0.9661 B(  3-O ,  9-H ) :   0.8681

FINAL SINGLE POINT ENERGY      -193.132392688971

DIPOLE MOMENT
-------------

Method             : SCF
Type of density    : Electron Density
Multiplicity       :   1
Irrep              :   0
Energy             :  -193.1382130220710565 Eh
Relativity type    :
Basis              : AO
                                X                 Y                 Z
Electronic contribution:     -1.711003168       0.655082078      -0.048712165
Nuclear contribution   :      1.601964324      -1.594097169      -0.007441774
                        -----------------------------------------
Total Dipole Moment    :     -0.109038844      -0.939015091      -0.056153939
                        -----------------------------------------
Magnitude (a.u.)       :      0.946991064
Magnitude (Debye)      :      2.407059992

Rotational constants in cm-1:             0.914825             0.143032             0.137780
Rotational constants in MHz :         27425.752566          4287.986646          4130.526730

                             ****ORCA TERMINATED NORMALLY****
TOTAL RUN TIME: 0 days 0 hours 0 minutes 29 seconds 329 msec
