                         Program Version 6.0.0  -   RELEASE  -
|  1> ! pbe def2-sv(p) def2/J RI DEFGRID1 loosescf d4 GCP(DFT/SV(P)) printgap
|  2> %output
|  3>     printlevel normal
|  4> end
|  5> * xyz 0 1
|  6> C -0.6736184334 -1.1710694916 0.3573815558
|  7> C 0.6520105137 -1.120769368 -0.3922775424
|  8> O 1.4444219994 -0.0062177062 0.0009438844
|  9> C 0.6782475636 1.143839733 0.3451039199
| 10> C -0.6784435888 1.1496935967 -0.3604599684
| 11> N -1.4889179874 -0.0090197288 0.0012534743
| 12> H -0.4573533064 -1.2214178453 1.4352873875
| 13> H -1.219612957 -2.0747964055 0.0745195386
| 14> H 1.2564900328 -2.0027694441 -0.1726137894
| 15> H 0.4622844848 -1.0795089865 -1.4726766681
| 16> H 0.5328259248 1.1658744925 1.4357662178
| 17> H 1.2785813886 2.0089894497 0.0551094446
| 18> H -1.2162117313 2.0659579287 -0.1200949895
| 19> H -0.5103510305 1.1268798337 -1.4429280075
| 20> H -2.1041288294 0.2146367198 0.7740384558
| 21> *
| 22>
| 23>                          ****END OF INPUT****

CARTESIAN COORDINATES (ANGSTROEM)
---------------------------------
  C     -0.673618   -1.171069    0.357382
  C      0.652011   -1.120769   -0.392278
  O      1.444422   -0.006218    0.000944
  C      0.678248    1.143840    0.345104
  C     -0.678444    1.149694   -0.360460
  N     -1.488918   -0.009020    0.001253
  H     -0.457353   -1.221418    1.435287
  H     -1.219613   -2.074796    0.074520
  H      1.256490   -2.002769   -0.172614
  H      0.462284   -1.079509   -1.472677
  H      0.532826    1.165874    1.435766
  H      1.278581    2.008989    0.055109
  H     -1.216212    2.065958   -0.120095
  H     -0.510351    1.126880   -1.442928
  H     -2.104129    0.214637    0.774038

 Total Charge           Charge          ....    0
 Multiplicity           Mult            ....    1
 Number of Electrons    NEL             ....   48
 Basis Dimension        Dim             ....  102

ORBITAL ENERGIES
----------------

  NO   OCC          E(Eh)            E(eV)
   0   2.0000     -18.744934      -510.0756
   1   2.0000     -13.973829      -380.2472
   2   2.0000      -9.928997      -270.1817
   3   2.0000      -9.926632      -270.1174
   4   2.0000      -9.911190      -269.6972
   5   2.0000      -9.910618      -269.6816
   6   2.0000      -0.929724       -25.2991
   7   2.0000      -0.816685       -22.2231
   8   2.0000      -0.689650       -18.7663
   9   2.0000      -0.609322       -16.5805
  10   2.0000      -0.590522       -16.0689
  11   2.0000      -0.489620       -13.3232
  12   2.0000      -0.467406       -12.7188
  13   2.0000      -0.447733       -12.1834
  14   2.0000      -0.420917       -11.4537
  15   2.0000      -0.384785       -10.4705
  16   2.0000      -0.372770       -10.1436
  17   2.0000      -0.344615        -9.3774
  18   2.0000      -0.337201        -9.1757
  19   2.0000      -0.332373        -9.0443
  20   2.0000      -0.327020        -8.8987
  21   2.0000      -0.255729        -6.9588
  22   2.0000      -0.195358        -5.3160
  23   2.0000      -0.172269        -4.6877
  24   0.0000       0.024685         0.6717
  25   0.0000       0.057465         1.5637
  26   0.0000       0.073724         2.0061
  27   0.0000       0.079878         2.1736
  28   0.0000       0.094315         2.5664

MULLIKEN ATOMIC CHARGES
-----------------------
   0 C :   -0.082839
   1 C :    0.000842
   2 O :   -0.353301
   3 C :    0.028577
   4 C :   -0.109011
   5 N :   -0.363484
   6 H :    0.075259
   7 H :    0.090490
   8 H :    0.096164
   9 H :    0.081347
  10 H :    0.062967
  11 H :    0.088212
  12 H :    0.092459
  13 H :    0.090812
  14 H :    0.201506
Sum of atomic charges:    0.0000000

LOEWDIN ATOMIC CHARGES
----------------------
   0 C :   -0.187159
   1 C :   -0.116858
   2 O :   -0.188254
   3 C :   -0.125019
   4 C :   -0.190805
   5 N :   -0.275123
   6 H :    0.100023
   7 H :    0.115316
   8 H :    0.116789
   9 H :    0.101875
  10 H :    0.093977
  11 H :    0.111755
  12 H :    0.120159
  13 H :    0.113777
  14 H :    0.209548

  Mayer bond orders larger than 0.100000
B(  0-C ,  1-C ) :   1.1555 B(  0-C ,  5-N ) :   1.0779 B(  0-C ,  6-H ) :   0.9028
B(  0-C ,  7-H ) :   0.9165 B(  1-C ,  2-O ) :   1.0266 B(  1-C ,  8-H ) :   0.9296
B(  1-C ,  9-H ) :   0.9090 B(  2-O ,  3-C ) :   1.0200 B(  3-C ,  4-C ) :   1.1255
B(  3-C , 10-H ) :   0.9102 B(  3-C , 11-H ) :   0.9222 B(  4-C ,  5-N ) :   1.1100
B(  4-C , 12-H ) :   0.9247 B(  4-C , 13-H ) :   0.9095 B(  5-N , 14-H ) :   0.8821

Dispersion correction           -0.011731149
FINAL SINGLE POINT ENERGY      -287.122086122005

DIPOLE MOMENT
-------------

Method             : SCF
Type of density    : Electron Density
Multiplicity       :   1
Irrep              :   0
Energy             :  -287.1857489443940494 Eh
Relativity type    :
Basis              : AO
                                X                 Y                 Z
Electronic contribution:      1.422957802      -0.058634960      -0.178677013
Nuclear contribution   :     -1.841946645       0.191100443       0.531409135
                        -----------------------------------------
Total Dipole Moment    :     -0.418988843       0.132465483       0.352732121
                        -----------------------------------------
Magnitude (a.u.)       :      0.563487980
Magnitude (Debye)      :      1.432272622

Rotational constants in cm-1:             0.167409             0.148930             0.092104
Rotational constants in MHz :          5018.787863          4464.801668          2761.216532

                             ****ORCA TERMINATED NORMALLY****
TOTAL RUN TIME: 0 days 0 hours 0 minutes 6 seconds 215 msec
