                         Program Version 6.0.0  -   RELEASE  -
|  1> ! pbe def2-sv(p) def2/J RI DEFGRID1 loosescf d4 GCP(DFT/SV(P)) printgap
|  2> %output
|  3>     printlevel normal
|  4> end
|  5> * xyz 0 1
|  6> C 4.1087308591 1.0486339135 -2.0976764945
|  7> C 2.7498425016 0.4040212319 -2.2806315315
|  8> O 2.4391092847 -0.487584929 -1.1963950812
|  9> P 2.0742596684 0.0382043265 0.2638229966
| 10> S 1.3712960729 1.8478650082 0.4638950159
| 11> O 3.4250769931 -0.0666836879 1.1027225909
| 12> C 4.1991260998 -1.2879294598 1.1729232551
| 13> C 4.1215524384 -1.8758046179 2.5681432464
| 14> S 0.9100575078 -1.5960962389 0.9271690614
| 15> C -0.4045331178 -0.6908004825 1.8152651864
| 16> S -2.0599939165 -1.0034626456 1.1603869778
| 17> P -2.0200681056 0.3035984725 -0.5218177416
| 18> S -0.6941427357 -0.0984954723 -1.9094287155
| 19> O -1.8401661233 1.7593827557 0.055137865
| 20> C -2.884841466 2.5993120588 0.605758461
| 21> C -3.5029055501 2.0253632393 1.8631318625
| 22> O -3.5245574768 0.3034344736 -1.0275643642
| 23> C -4.0224205612 -0.662001765 -1.9717692119
| 24> C -4.0162593813 -2.0681873529 -1.4094135529
| 25> H 4.1099826534 1.6521711476 -1.1897417967
| 26> H 4.8797941469 0.2866370909 -2.0182215255
| 27> H 4.3195845307 1.6888293293 -2.9484139382
| 28> H 2.709777655 -0.2334952386 -3.1650582665
| 29> H 1.9606719343 1.1599387867 -2.3474777797
| 30> H 3.8288483637 -1.9919707922 0.4218675468
| 31> H 5.2204432543 -0.992031179 0.925920089
| 32> H 3.1090709082 -2.2058433473 2.7859259139
| 33> H 4.7937796827 -2.7254538376 2.6319552458
| 34> H 4.4154386332 -1.1281291742 3.2994244402
| 35> H -0.1818462363 0.3788335006 1.7641986289
| 36> H -0.4203682317 -1.0487861305 2.8408323094
| 37> H -2.3609680237 3.5358947376 0.8049996458
| 38> H -3.6399784013 2.750421357 -0.1676226599
| 39> H -2.7358534202 1.8227613129 2.6064597562
| 40> H -4.2046733387 2.7486534792 2.2669238882
| 41> H -4.0332948673 1.1026157707 1.639406852
| 42> H -5.034520486 -0.315224463 -2.1850297356
| 43> H -3.4092554388 -0.6068427369 -2.8765741818
| 44> H -4.5100484993 -2.7358009625 -2.1081513555
| 45> H -2.9905746561 -2.405666158 -1.2656644702
| 46> H -4.5317621573 -2.0981830702 -0.452859504
| 47> *
| 48>
| 49>                          ****END OF INPUT****

CARTESIAN COORDINATES (ANGSTROEM)
---------------------------------
  C      4.108731    1.048634   -2.097676
  C      2.749843    0.404021   -2.280632
  O      2.439109   -0.487585   -1.196395
  P      2.074260    0.038204    0.263823
  S      1.371296    1.847865    0.463895
  O      3.425077   -0.066684    1.102723
  C      4.199126   -1.287929    1.172923
  C      4.121552   -1.875805    2.568143
  S      0.910058   -1.596096    0.927169
  C     -0.404533   -0.690800    1.815265
  S     -2.059994   -1.003463    1.160387
  P     -2.020068    0.303598   -0.521818
  S     -0.694143   -0.098495   -1.909429
  O     -1.840166    1.759383    0.055138
  C     -2.884841    2.599312    0.605758
  C     -3.502906    2.025363    1.863132
  O     -3.524557    0.303434   -1.027564
  C     -4.022421   -0.662002   -1.971769
  C     -4.016259   -2.068187   -1.409414
  H      4.109983    1.652171   -1.189742
  H      4.879794    0.286637   -2.018222
  H      4.319585    1.688829   -2.948414
  H      2.709778   -0.233495   -3.165058
  H      1.960672    1.159939   -2.347478
  H      3.828848   -1.991971    0.421868
  H      5.220443   -0.992031    0.925920
  H      3.109071   -2.205843    2.785926
  H      4.793780   -2.725454    2.631955
  H      4.415439   -1.128129    3.299424
  H     -0.181846    0.378834    1.764199
  H     -0.420368   -1.048786    2.840832
  H     -2.360968    3.535895    0.805000
  H     -3.639978    2.750421   -0.167623
  H     -2.735853    1.822761    2.606460
  H     -4.204673    2.748653    2.266924
  H     -4.033295    1.102616    1.639407
  H     -5.034520   -0.315224   -2.185030
  H     -3.409255   -0.606843   -2.876574
  H     -4.510048   -2.735801   -2.108151
  H     -2.990575   -2.405666   -1.265664
  H     -4.531762   -2.098183   -0.452860

 Total Charge           Charge          ....    0
 Multiplicity           Mult            ....    1
 Number of Electrons    NEL             ....  202
 Basis Dimension        Dim             ....  334

ORBITAL ENERGIES
----------------

  NO   OCC          E(Eh)            E(eV)
   0   2.0000     -88.039207     -2395.6686
   1   2.0000     -88.034115     -2395.5300
   2   2.0000     -87.978090     -2394.0055
   3   2.0000     -87.975555     -2393.9365
   4   2.0000     -76.422290     -2079.5562
   5   2.0000     -76.416048     -2079.3864
   6   2.0000     -18.793724      -511.4032
   7   2.0000     -18.784464      -511.1513
   8   2.0000     -18.781604      -511.0734
   9   2.0000     -18.777795      -510.9698
  10   2.0000      -9.953866      -270.8585
  11   2.0000      -9.953565      -270.8503
  12   2.0000      -9.953496      -270.8484
  13   2.0000      -9.950198      -270.7587
  14   2.0000      -9.941953      -270.5343
  15   2.0000      -9.885681      -269.0031
  16   2.0000      -9.884681      -268.9758
  17   2.0000      -9.881052      -268.8771
  18   2.0000      -9.877631      -268.7840
  19   2.0000      -7.684181      -209.0972
  20   2.0000      -7.679435      -208.9681
  21   2.0000      -7.623406      -207.4434
  22   2.0000      -7.620426      -207.3623
  23   2.0000      -6.419495      -174.6833
  24   2.0000      -6.413926      -174.5318
  25   2.0000      -5.711903      -155.4288
  26   2.0000      -5.708757      -155.3432
  27   2.0000      -5.707261      -155.3025
  28   2.0000      -5.704207      -155.2194
  29   2.0000      -5.701241      -155.1387
  30   2.0000      -5.696101      -154.9988
  31   2.0000      -5.652471      -153.8116
  32   2.0000      -5.649398      -153.7279
  33   2.0000      -5.644480      -153.5941
  34   2.0000      -5.642850      -153.5497
  35   2.0000      -5.641190      -153.5046
  36   2.0000      -5.640403      -153.4832
  37   2.0000      -4.642766      -126.3361
  38   2.0000      -4.641133      -126.2916
  39   2.0000      -4.639469      -126.2464
  40   2.0000      -4.636630      -126.1691
  41   2.0000      -4.635294      -126.1328
  42   2.0000      -4.634649      -126.1152
  43   2.0000      -0.986232       -26.8367
  44   2.0000      -0.974497       -26.5174
  45   2.0000      -0.942096       -25.6357
  46   2.0000      -0.932846       -25.3840
  47   2.0000      -0.757296       -20.6071
  48   2.0000      -0.715971       -19.4826
  49   2.0000      -0.705938       -19.2096
  50   2.0000      -0.690462       -18.7884
  51   2.0000      -0.684314       -18.6211
  52   2.0000      -0.670987       -18.2585
  53   2.0000      -0.647127       -17.6092
  54   2.0000      -0.629570       -17.1315
  55   2.0000      -0.594391       -16.1742
  56   2.0000      -0.583311       -15.8727
  57   2.0000      -0.578426       -15.7398
  58   2.0000      -0.567455       -15.4412
  59   2.0000      -0.554524       -15.0894
  60   2.0000      -0.495140       -13.4735
  61   2.0000      -0.492453       -13.4003
  62   2.0000      -0.469628       -12.7792
  63   2.0000      -0.468329       -12.7439
  64   2.0000      -0.453927       -12.3520
  65   2.0000      -0.445717       -12.1286
  66   2.0000      -0.441446       -12.0124
  67   2.0000      -0.427140       -11.6231
  68   2.0000      -0.424557       -11.5528
  69   2.0000      -0.418102       -11.3771
  70   2.0000      -0.404475       -11.0063
  71   2.0000      -0.397349       -10.8124
  72   2.0000      -0.391204       -10.6452
  73   2.0000      -0.378514       -10.2999
  74   2.0000      -0.376852       -10.2547
  75   2.0000      -0.364861        -9.9284
  76   2.0000      -0.363676        -9.8961
  77   2.0000      -0.354472        -9.6457
  78   2.0000      -0.351588        -9.5672
  79   2.0000      -0.350546        -9.5388
  80   2.0000      -0.341771        -9.3001
  81   2.0000      -0.340429        -9.2635
  82   2.0000      -0.340025        -9.2526
  83   2.0000      -0.333458        -9.0739
  84   2.0000      -0.329771        -8.9735
  85   2.0000      -0.318264        -8.6604
  86   2.0000      -0.305948        -8.3253
  87   2.0000      -0.301343        -8.2000
  88   2.0000      -0.294598        -8.0164
  89   2.0000      -0.292227        -7.9519
  90   2.0000      -0.272485        -7.4147
  91   2.0000      -0.269398        -7.3307
  92   2.0000      -0.262426        -7.1410
  93   2.0000      -0.260490        -7.0883
  94   2.0000      -0.254207        -6.9173
  95   2.0000      -0.231368        -6.2958
  96   2.0000      -0.214819        -5.8455
  97   2.0000      -0.202028        -5.4975
  98   2.0000      -0.199082        -5.4173
  99   2.0000      -0.184644        -5.0244
 100   2.0000      -0.179575        -4.8865
 101   0.0000      -0.037843        -1.0298
 102   0.0000      -0.027827        -0.7572
 103   0.0000      -0.011151        -0.3034
 104   0.0000       0.003086         0.0840
 105   0.0000       0.030817         0.8386

MULLIKEN ATOMIC CHARGES
-----------------------
   0 C :   -0.307978
   1 C :   -0.009331
   2 O :   -0.384126
   3 P :    0.611497
   4 S :   -0.294669
   5 O :   -0.367227
   6 C :   -0.028479
   7 C :   -0.278755
   8 S :   -0.082839
   9 C :   -0.353676
  10 S :   -0.105670
  11 P :    0.612211
  12 S :   -0.307090
  13 O :   -0.354237
  14 C :    0.008918
  15 C :   -0.318518
  16 O :   -0.385342
  17 C :    0.001457
  18 C :   -0.328102
  19 H :    0.130247
  20 H :    0.107781
  21 H :    0.110586
  22 H :    0.103510
  23 H :    0.125539
  24 H :    0.107393
  25 H :    0.107333
  26 H :    0.114805
  27 H :    0.105464
  28 H :    0.116859
  29 H :    0.195627
  30 H :    0.180249
  31 H :    0.112579
  32 H :    0.107742
  33 H :    0.121352
  34 H :    0.111917
  35 H :    0.124181
  36 H :    0.103504
  37 H :    0.114189
  38 H :    0.115872
  39 H :    0.137159
  40 H :    0.118068
Sum of atomic charges:    0.0000000

LOEWDIN ATOMIC CHARGES
----------------------
   0 C :   -0.365737
   1 C :   -0.118950
   2 O :   -0.248340
   3 P :    0.571101
   4 S :   -0.289403
   5 O :   -0.253482
   6 C :   -0.120916
   7 C :   -0.360395
   8 S :    0.080667
   9 C :   -0.480700
  10 S :    0.076897
  11 P :    0.572022
  12 S :   -0.305461
  13 O :   -0.231666
  14 C :   -0.106533
  15 C :   -0.369355
  16 O :   -0.247352
  17 C :   -0.117462
  18 C :   -0.373381
  19 H :    0.125573
  20 H :    0.120900
  21 H :    0.130154
  22 H :    0.118295
  23 H :    0.112421
  24 H :    0.106413
  25 H :    0.118036
  26 H :    0.118414
  27 H :    0.127477
  28 H :    0.127822
  29 H :    0.121838
  30 H :    0.135807
  31 H :    0.123695
  32 H :    0.114290
  33 H :    0.125993
  34 H :    0.130433
  35 H :    0.118501
  36 H :    0.117869
  37 H :    0.113485
  38 H :    0.132927
  39 H :    0.125150
  40 H :    0.122953

  Mayer bond orders larger than 0.100000
B(  0-C ,  1-C ) :   1.1599 B(  0-C , 19-H ) :   0.9352 B(  0-C , 20-H ) :   0.9464
B(  0-C , 21-H ) :   0.9400 B(  1-C ,  2-O ) :   0.9024 B(  1-C , 22-H ) :   0.9357
B(  1-C , 23-H ) :   0.9124 B(  2-O ,  3-P ) :   1.0928 B(  3-P ,  4-S ) :   1.6280
B(  3-P ,  5-O ) :   1.0965 B(  3-P ,  8-S ) :   0.9473 B(  4-S ,  8-S ) :   0.1090
B(  4-S , 29-H ) :   0.1088 B(  5-O ,  6-C ) :   0.9052 B(  6-C ,  7-C ) :   1.1629
B(  6-C , 24-H ) :   0.9161 B(  6-C , 25-H ) :   0.9334 B(  7-C , 26-H ) :   0.9380
B(  7-C , 27-H ) :   0.9403 B(  7-C , 28-H ) :   0.9464 B(  8-S ,  9-C ) :   1.0049
B(  9-C , 10-S ) :   1.0006 B(  9-C , 29-H ) :   0.8487 B(  9-C , 30-H ) :   0.9125
B( 10-S , 11-P ) :   0.9433 B( 10-S , 12-S ) :   0.1130 B( 11-P , 12-S ) :   1.6589
B( 11-P , 13-O ) :   1.1288 B( 11-P , 16-O ) :   1.0725 B( 13-O , 14-C ) :   0.8999
B( 14-C , 15-C ) :   1.1703 B( 14-C , 31-H ) :   0.9337 B( 14-C , 32-H ) :   0.9277
B( 15-C , 33-H ) :   0.9450 B( 15-C , 34-H ) :   0.9356 B( 15-C , 35-H ) :   0.9382
B( 16-O , 17-C ) :   0.9029 B( 17-C , 18-C ) :   1.1662 B( 17-C , 36-H ) :   0.9336
B( 17-C , 37-H ) :   0.9156 B( 18-C , 38-H ) :   0.9369 B( 18-C , 39-H ) :   0.9309
B( 18-C , 40-H ) :   0.9433

Dispersion correction           -0.067281828
FINAL SINGLE POINT ENERGY     -2929.510023440620

DIPOLE MOMENT
-------------

Method             : SCF
Type of density    : Electron Density
Multiplicity       :   1
Irrep              :   0
Energy             : -2929.6280038285867704 Eh
Relativity type    :
Basis              : AO
                                X                 Y                 Z
Electronic contribution:     -1.726099790       1.156218313      -1.131832355
Nuclear contribution   :      1.186889356      -1.534992874       1.381149583
                        -----------------------------------------
Total Dipole Moment    :     -0.539210435      -0.378774561       0.249317228
                        -----------------------------------------
Magnitude (a.u.)       :      0.704540376
Magnitude (Debye)      :      1.790799318

Rotational constants in cm-1:             0.012690             0.005070             0.004865
Rotational constants in MHz :           380.442882           152.007982           145.859724

                             ****ORCA TERMINATED NORMALLY****
TOTAL RUN TIME: 0 days 0 hours 0 minutes 21 seconds 6 msec
