                         Program Version 6.0.0  -   RELEASE  -
|  1> ! pbe def2-sv(p) def2/J RI DEFGRID1 loosescf d4 GCP(DFT/SV(P)) printgap
|  2> %output
|  3>     printlevel normal
|  4> end
|  5> * xyz 0 1
|  6> C -0.6919902175 -1.2068776785 7.474e-07
|  7> C 0.6919942014 -1.2068781191 1.72519e-05
|  8> C 1.3724953827 -6.958e-07 4.6756e-06
|  9> C 0.6920012386 1.2068828297 -2.3316e-06
| 10> C -0.6919859004 1.2068787529 1.67918e-05
| 11> C -1.3724918027 1.3764e-06 4.77087e-05
| 12> Cl -3.1096060062 -1.457e-07 -1.57317e-05
| 13> Cl 3.1095975853 -2.4759e-06 -1.02167e-05
| 14> H -1.2355773346 -2.1371650636 -5.80174e-05
| 15> H 1.2355741093 -2.1371626307 -3.0452e-06
| 16> H 1.2355945589 2.137183134 3.3316e-06
| 17> H -1.2355680422 2.137159728 -4.05798e-05
| 18> *
| 19>
| 20>                          ****END OF INPUT****

CARTESIAN COORDINATES (ANGSTROEM)
---------------------------------
  C     -0.691990   -1.206878    0.000001
  C      0.691994   -1.206878    0.000017
  C      1.372495   -0.000001    0.000005
  C      0.692001    1.206883   -0.000002
  C     -0.691986    1.206879    0.000017
  C     -1.372492    0.000001    0.000048
  Cl    -3.109606   -0.000000   -0.000016
  Cl     3.109598   -0.000002   -0.000010
  H     -1.235577   -2.137165   -0.000058
  H      1.235574   -2.137163   -0.000003
  H      1.235595    2.137183    0.000003
  H     -1.235568    2.137160   -0.000041

 Total Charge           Charge          ....    0
 Multiplicity           Mult            ....    1
 Number of Electrons    NEL             ....   74
 Basis Dimension        Dim             ....  128

ORBITAL ENERGIES
----------------

  NO   OCC          E(Eh)            E(eV)
   0   2.0000    -100.644912     -2738.6873
   1   2.0000    -100.644888     -2738.6866
   2   2.0000      -9.961930      -271.0779
   3   2.0000      -9.961904      -271.0772
   4   2.0000      -9.916974      -269.8546
   5   2.0000      -9.916929      -269.8534
   6   2.0000      -9.916735      -269.8481
   7   2.0000      -9.916673      -269.8464
   8   2.0000      -9.180949      -249.8263
   9   2.0000      -9.180932      -249.8259
  10   2.0000      -7.012285      -190.8140
  11   2.0000      -7.012279      -190.8138
  12   2.0000      -7.000916      -190.5046
  13   2.0000      -7.000915      -190.5046
  14   2.0000      -7.000324      -190.4885
  15   2.0000      -7.000319      -190.4884
  16   2.0000      -0.831477       -22.6256
  17   2.0000      -0.803918       -21.8757
  18   2.0000      -0.751981       -20.4624
  19   2.0000      -0.698811       -19.0156
  20   2.0000      -0.651930       -17.7399
  21   2.0000      -0.575721       -15.6662
  22   2.0000      -0.545381       -14.8406
  23   2.0000      -0.480370       -13.0715
  24   2.0000      -0.446195       -12.1416
  25   2.0000      -0.427215       -11.6251
  26   2.0000      -0.402641       -10.9564
  27   2.0000      -0.401370       -10.9218
  28   2.0000      -0.377962       -10.2849
  29   2.0000      -0.344579        -9.3765
  30   2.0000      -0.338638        -9.2148
  31   2.0000      -0.331093        -9.0095
  32   2.0000      -0.278128        -7.5682
  33   2.0000      -0.276098        -7.5130
  34   2.0000      -0.271388        -7.3848
  35   2.0000      -0.254150        -6.9158
  36   2.0000      -0.216848        -5.9007
  37   0.0000      -0.058648        -1.5959
  38   0.0000      -0.053685        -1.4608
  39   0.0000      -0.006955        -0.1892
  40   0.0000       0.021086         0.5738
  41   0.0000       0.069583         1.8934

MULLIKEN ATOMIC CHARGES
-----------------------
   0 C :   -0.078178
   1 C :   -0.078170
   2 C :    0.118108
   3 C :   -0.078173
   4 C :   -0.078180
   5 C :    0.118117
   6 Cl:   -0.082032
   7 Cl:   -0.082031
   8 H :    0.060135
   9 H :    0.060132
  10 H :    0.060143
  11 H :    0.060131
Sum of atomic charges:    0.0000000

LOEWDIN ATOMIC CHARGES
----------------------
   0 C :   -0.131260
   1 C :   -0.131262
   2 C :   -0.134413
   3 C :   -0.131260
   4 C :   -0.131261
   5 C :   -0.134410
   6 Cl:    0.126372
   7 Cl:    0.126379
   8 H :    0.135279
   9 H :    0.135279
  10 H :    0.135280
  11 H :    0.135279

  Mayer bond orders larger than 0.100000
B(  0-C ,  1-C ) :   1.3572 B(  0-C ,  5-C ) :   1.3821 B(  0-C ,  8-H ) :   0.9629
B(  1-C ,  2-C ) :   1.3821 B(  1-C ,  9-H ) :   0.9629 B(  2-C ,  3-C ) :   1.3821
B(  2-C ,  7-Cl) :   0.9729 B(  3-C ,  4-C ) :   1.3572 B(  3-C , 10-H ) :   0.9629
B(  4-C ,  5-C ) :   1.3821 B(  4-C , 11-H ) :   0.9629 B(  5-C ,  6-Cl) :   0.9729

Dispersion correction           -0.015347410
FINAL SINGLE POINT ENERGY     -1150.284723485946

DIPOLE MOMENT
-------------

Method             : SCF
Type of density    : Electron Density
Multiplicity       :   1
Irrep              :   0
Energy             : -1150.3098063985180488 Eh
Relativity type    :
Basis              : AO
                                X                 Y                 Z
Electronic contribution:     -0.000017710      -0.000017496       0.000030280
Nuclear contribution   :      0.000033154       0.000017749      -0.000057405
                        -----------------------------------------
Total Dipole Moment    :      0.000015444       0.000000252      -0.000027125
                        -----------------------------------------
Magnitude (a.u.)       :      0.000031215
Magnitude (Debye)      :      0.000079341

Rotational constants in cm-1:             0.190708             0.022180             0.019869
Rotational constants in MHz :          5717.288250           664.931860           595.655908

                             ****ORCA TERMINATED NORMALLY****
TOTAL RUN TIME: 0 days 0 hours 0 minutes 7 seconds 86 msec
