                         Program Version 6.0.0  -   RELEASE  -
|  1> ! pbe def2-sv(p) def2/J RI DEFGRID1 loosescf d4 GCP(DFT/SV(P)) printgap
|  2> %output
|  3>     printlevel normal
|  4> end
|  5> * xyz 0 1
|  6> C 2.2802436545 -2.1780428859 2.5702767963
|  7> C 1.0253785207 -1.976645463 1.7484360244
|  8> O 0.9795102761 -0.6572616093 1.163235772
|  9> P 1.9988569434 -0.2055990646 0.0411594333
| 10> S 2.7150551412 -1.6038130161 -1.1362086018
| 11> O 3.0781158336 0.5801692164 0.8986175331
| 12> C 4.2797443878 1.1111314241 0.3042809527
| 13> C 5.2740891336 1.3715968821 1.4176998577
| 14> S 0.9228746652 1.3553201985 -0.9015081452
| 15> C 0.11305681 0.324698637 -2.1559196032
| 16> S -0.9361626678 -0.959027743 -1.4419985048
| 17> P -2.3775242285 0.3403766782 -0.544733409
| 18> S -2.7090122971 2.0272355157 -1.4732322478
| 19> O -1.9416760162 0.491460375 0.980700832
| 20> C -1.4129918696 1.6866021784 1.576521299
| 21> C -2.3338695114 2.1307838004 2.6957156503
| 22> O -3.6691521135 -0.5581365339 -0.4759532544
| 23> C -3.7202388956 -1.9863162974 -0.2458803817
| 24> C -3.1234392446 -2.3764420895 1.0886323534
| 25> H 3.1538255586 -2.1446083939 1.9200209792
| 26> H 2.3694015724 -1.3960772927 3.3197198292
| 27> H 2.2402867705 -3.1469203962 3.0580418316
| 28> H 0.1261282965 -2.0204681731 2.3647685276
| 29> H 0.9635013754 -2.7149889299 0.9424790297
| 30> H 4.6643179961 0.3815179318 -0.4164372728
| 31> H 4.0206337616 2.032643809 -0.2240515148
| 32> H 5.5237777004 0.4430981842 1.9231333204
| 33> H 6.1757882799 1.802587835 0.9952955361
| 34> H 4.8482799671 2.0626907982 2.1391721239
| 35> H 0.8677650158 -0.1890099905 -2.7505311987
| 36> H -0.4898394098 0.9983234756 -2.7644637929
| 37> H -0.4170063639 1.434067309 1.9489230855
| 38> H -1.3270171448 2.4650755659 0.8106193859
| 39> H -2.4425463995 1.3380194099 3.4300988965
| 40> H -1.9138468021 3.0100856822 3.1731574323
| 41> H -3.3133083047 2.3771159129 2.2921753733
| 42> H -4.7872868132 -2.2084338977 -0.2950340982
| 43> H -3.1987716483 -2.4845726861 -1.0676113487
| 44> H -2.0642171907 -2.1277614186 1.1047980082
| 45> H -3.6232225634 -1.8457955699 1.8944557559
| 46> H -3.2394750282 -3.4460867465 1.232373754
| 47> *
| 48>
| 49>                          ****END OF INPUT****

CARTESIAN COORDINATES (ANGSTROEM)
---------------------------------
  C      2.280244   -2.178043    2.570277
  C      1.025379   -1.976645    1.748436
  O      0.979510   -0.657262    1.163236
  P      1.998857   -0.205599    0.041159
  S      2.715055   -1.603813   -1.136209
  O      3.078116    0.580169    0.898618
  C      4.279744    1.111131    0.304281
  C      5.274089    1.371597    1.417700
  S      0.922875    1.355320   -0.901508
  C      0.113057    0.324699   -2.155920
  S     -0.936163   -0.959028   -1.441999
  P     -2.377524    0.340377   -0.544733
  S     -2.709012    2.027236   -1.473232
  O     -1.941676    0.491460    0.980701
  C     -1.412992    1.686602    1.576521
  C     -2.333870    2.130784    2.695716
  O     -3.669152   -0.558137   -0.475953
  C     -3.720239   -1.986316   -0.245880
  C     -3.123439   -2.376442    1.088632
  H      3.153826   -2.144608    1.920021
  H      2.369402   -1.396077    3.319720
  H      2.240287   -3.146920    3.058042
  H      0.126128   -2.020468    2.364769
  H      0.963501   -2.714989    0.942479
  H      4.664318    0.381518   -0.416437
  H      4.020634    2.032644   -0.224052
  H      5.523778    0.443098    1.923133
  H      6.175788    1.802588    0.995296
  H      4.848280    2.062691    2.139172
  H      0.867765   -0.189010   -2.750531
  H     -0.489839    0.998323   -2.764464
  H     -0.417006    1.434067    1.948923
  H     -1.327017    2.465076    0.810619
  H     -2.442546    1.338019    3.430099
  H     -1.913847    3.010086    3.173157
  H     -3.313308    2.377116    2.292175
  H     -4.787287   -2.208434   -0.295034
  H     -3.198772   -2.484573   -1.067611
  H     -2.064217   -2.127761    1.104798
  H     -3.623223   -1.845796    1.894456
  H     -3.239475   -3.446087    1.232374

 Total Charge           Charge          ....    0
 Multiplicity           Mult            ....    1
 Number of Electrons    NEL             ....  202
 Basis Dimension        Dim             ....  334

ORBITAL ENERGIES
----------------

  NO   OCC          E(Eh)            E(eV)
   0   2.0000     -88.044688     -2395.8178
   1   2.0000     -88.041031     -2395.7183
   2   2.0000     -87.992516     -2394.3981
   3   2.0000     -87.982375     -2394.1221
   4   2.0000     -76.430325     -2079.7749
   5   2.0000     -76.424584     -2079.6187
   6   2.0000     -18.798783      -511.5409
   7   2.0000     -18.795382      -511.4484
   8   2.0000     -18.793348      -511.3930
   9   2.0000     -18.785358      -511.1756
  10   2.0000      -9.961149      -271.0566
  11   2.0000      -9.957103      -270.9465
  12   2.0000      -9.956082      -270.9188
  13   2.0000      -9.954727      -270.8819
  14   2.0000      -9.940870      -270.5048
  15   2.0000      -9.892417      -269.1864
  16   2.0000      -9.891970      -269.1742
  17   2.0000      -9.887775      -269.0600
  18   2.0000      -9.879789      -268.8427
  19   2.0000      -7.689507      -209.2421
  20   2.0000      -7.685702      -209.1386
  21   2.0000      -7.637431      -207.8251
  22   2.0000      -7.627650      -207.5589
  23   2.0000      -6.427889      -174.9117
  24   2.0000      -6.421947      -174.7501
  25   2.0000      -5.717350      -155.5770
  26   2.0000      -5.714098      -155.4885
  27   2.0000      -5.713552      -155.4737
  28   2.0000      -5.710262      -155.3841
  29   2.0000      -5.706455      -155.2805
  30   2.0000      -5.702713      -155.1787
  31   2.0000      -5.666215      -154.1856
  32   2.0000      -5.658076      -153.9641
  33   2.0000      -5.657732      -153.9547
  34   2.0000      -5.656692      -153.9264
  35   2.0000      -5.648278      -153.6974
  36   2.0000      -5.647613      -153.6794
  37   2.0000      -4.650275      -126.5404
  38   2.0000      -4.649677      -126.5241
  39   2.0000      -4.648458      -126.4910
  40   2.0000      -4.644630      -126.3868
  41   2.0000      -4.643637      -126.3598
  42   2.0000      -4.642422      -126.3267
  43   2.0000      -0.992530       -27.0081
  44   2.0000      -0.983560       -26.7640
  45   2.0000      -0.951235       -25.8844
  46   2.0000      -0.941703       -25.6250
  47   2.0000      -0.765942       -20.8423
  48   2.0000      -0.724002       -19.7011
  49   2.0000      -0.713492       -19.4151
  50   2.0000      -0.693200       -18.8629
  51   2.0000      -0.689727       -18.7684
  52   2.0000      -0.673334       -18.3224
  53   2.0000      -0.650930       -17.7127
  54   2.0000      -0.639424       -17.3996
  55   2.0000      -0.602749       -16.4016
  56   2.0000      -0.595496       -16.2043
  57   2.0000      -0.572240       -15.5714
  58   2.0000      -0.568983       -15.4828
  59   2.0000      -0.563813       -15.3421
  60   2.0000      -0.509672       -13.8689
  61   2.0000      -0.495559       -13.4848
  62   2.0000      -0.480948       -13.0873
  63   2.0000      -0.478489       -13.0203
  64   2.0000      -0.459010       -12.4903
  65   2.0000      -0.450578       -12.2609
  66   2.0000      -0.440948       -11.9988
  67   2.0000      -0.438733       -11.9385
  68   2.0000      -0.427030       -11.6201
  69   2.0000      -0.414432       -11.2773
  70   2.0000      -0.407507       -11.0888
  71   2.0000      -0.401566       -10.9272
  72   2.0000      -0.393208       -10.6997
  73   2.0000      -0.386043       -10.5048
  74   2.0000      -0.380463       -10.3529
  75   2.0000      -0.376845       -10.2545
  76   2.0000      -0.368799       -10.0355
  77   2.0000      -0.361595        -9.8395
  78   2.0000      -0.356964        -9.7135
  79   2.0000      -0.355863        -9.6835
  80   2.0000      -0.352330        -9.5874
  81   2.0000      -0.348792        -9.4911
  82   2.0000      -0.346470        -9.4279
  83   2.0000      -0.343216        -9.3394
  84   2.0000      -0.334091        -9.0911
  85   2.0000      -0.320452        -8.7200
  86   2.0000      -0.312164        -8.4944
  87   2.0000      -0.304973        -8.2987
  88   2.0000      -0.295458        -8.0398
  89   2.0000      -0.289613        -7.8808
  90   2.0000      -0.284360        -7.7378
  91   2.0000      -0.280695        -7.6381
  92   2.0000      -0.274943        -7.4816
  93   2.0000      -0.266956        -7.2642
  94   2.0000      -0.254321        -6.9204
  95   2.0000      -0.236129        -6.4254
  96   2.0000      -0.216585        -5.8936
  97   2.0000      -0.214945        -5.8489
  98   2.0000      -0.209545        -5.7020
  99   2.0000      -0.198671        -5.4061
 100   2.0000      -0.196908        -5.3582
 101   0.0000      -0.047488        -1.2922
 102   0.0000      -0.026170        -0.7121
 103   0.0000      -0.000955        -0.0260
 104   0.0000       0.004460         0.1214
 105   0.0000       0.008766         0.2385

MULLIKEN ATOMIC CHARGES
-----------------------
   0 C :   -0.291962
   1 C :   -0.027468
   2 O :   -0.360295
   3 P :    0.617954
   4 S :   -0.333157
   5 O :   -0.376874
   6 C :   -0.013217
   7 C :   -0.281549
   8 S :   -0.088167
   9 C :   -0.342973
  10 S :   -0.120249
  11 P :    0.618791
  12 S :   -0.318498
  13 O :   -0.379122
  14 C :   -0.020253
  15 C :   -0.274276
  16 O :   -0.362244
  17 C :   -0.015456
  18 C :   -0.333797
  19 H :    0.123413
  20 H :    0.115267
  21 H :    0.112034
  22 H :    0.119140
  23 H :    0.114972
  24 H :    0.107613
  25 H :    0.105086
  26 H :    0.119272
  27 H :    0.114246
  28 H :    0.117619
  29 H :    0.191503
  30 H :    0.194360
  31 H :    0.102952
  32 H :    0.113350
  33 H :    0.106882
  34 H :    0.106829
  35 H :    0.115295
  36 H :    0.115716
  37 H :    0.121232
  38 H :    0.149683
  39 H :    0.122499
  40 H :    0.113849
Sum of atomic charges:   -0.0000000

LOEWDIN ATOMIC CHARGES
----------------------
   0 C :   -0.365284
   1 C :   -0.118359
   2 O :   -0.231179
   3 P :    0.570207
   4 S :   -0.323208
   5 O :   -0.247195
   6 C :   -0.120387
   7 C :   -0.350180
   8 S :    0.093259
   9 C :   -0.478708
  10 S :    0.070704
  11 P :    0.571773
  12 S :   -0.311408
  13 O :   -0.243644
  14 C :   -0.128784
  15 C :   -0.354127
  16 O :   -0.237536
  17 C :   -0.113053
  18 C :   -0.368541
  19 H :    0.121942
  20 H :    0.126055
  21 H :    0.131012
  22 H :    0.118714
  23 H :    0.111897
  24 H :    0.109005
  25 H :    0.111338
  26 H :    0.127928
  27 H :    0.132007
  28 H :    0.127449
  29 H :    0.131429
  30 H :    0.131796
  31 H :    0.106936
  32 H :    0.102673
  33 H :    0.121238
  34 H :    0.128410
  35 H :    0.126330
  36 H :    0.125001
  37 H :    0.110444
  38 H :    0.122922
  39 H :    0.129695
  40 H :    0.131429

  Mayer bond orders larger than 0.100000
B(  0-C ,  1-C ) :   1.1634 B(  0-C , 19-H ) :   0.9313 B(  0-C , 20-H ) :   0.9451
B(  0-C , 21-H ) :   0.9384 B(  1-C ,  2-O ) :   0.8990 B(  1-C , 22-H ) :   0.9237
B(  1-C , 23-H ) :   0.9175 B(  2-O ,  3-P ) :   1.1200 B(  3-P ,  4-S ) :   1.5978
B(  3-P ,  5-O ) :   1.1100 B(  3-P ,  8-S ) :   0.9585 B(  4-S ,  8-S ) :   0.1083
B(  5-O ,  6-C ) :   0.9020 B(  6-C ,  7-C ) :   1.1608 B(  6-C , 24-H ) :   0.9100
B(  6-C , 25-H ) :   0.9289 B(  7-C , 26-H ) :   0.9515 B(  7-C , 27-H ) :   0.9417
B(  7-C , 28-H ) :   0.9504 B(  8-S ,  9-C ) :   0.9957 B(  9-C , 10-S ) :   1.0214
B(  9-C , 29-H ) :   0.8850 B(  9-C , 30-H ) :   0.8796 B( 10-S , 11-P ) :   0.9239
B( 10-S , 12-S ) :   0.1020 B( 11-P , 12-S ) :   1.6305 B( 11-P , 13-O ) :   1.0916
B( 11-P , 16-O ) :   1.1475 B( 13-O , 14-C ) :   0.9003 B( 14-C , 15-C ) :   1.1577
B( 14-C , 31-H ) :   0.9231 B( 14-C , 32-H ) :   0.9002 B( 15-C , 33-H ) :   0.9505
B( 15-C , 34-H ) :   0.9422 B( 15-C , 35-H ) :   0.9481 B( 16-O , 17-C ) :   0.9053
B( 17-C , 18-C ) :   1.1664 B( 17-C , 36-H ) :   0.9341 B( 17-C , 37-H ) :   0.9178
B( 18-C , 38-H ) :   0.9279 B( 18-C , 39-H ) :   0.9435 B( 18-C , 40-H ) :   0.9351

Dispersion correction           -0.066305683
FINAL SINGLE POINT ENERGY     -2929.523197458143

DIPOLE MOMENT
-------------

Method             : SCF
Type of density    : Electron Density
Multiplicity       :   1
Irrep              :   0
Energy             : -2929.6425401850742674 Eh
Relativity type    :
Basis              : AO
                                X                 Y                 Z
Electronic contribution:     -7.293495171       4.552006637     -22.687049872
Nuclear contribution   :      7.949609854      -5.193175205      24.114807500
                        -----------------------------------------
Total Dipole Moment    :      0.656114684      -0.641168569       1.427757628
                        -----------------------------------------
Magnitude (a.u.)       :      1.697078506
Magnitude (Debye)      :      4.313630752

Rotational constants in cm-1:             0.011762             0.005286             0.005075
Rotational constants in MHz :           352.617759           158.470569           152.156261

                             ****ORCA TERMINATED NORMALLY****
TOTAL RUN TIME: 0 days 0 hours 0 minutes 21 seconds 912 msec
