                         Program Version 6.0.1  -  RELEASE   -
|  1> ! pbe def2-sv(p) def2/J RI DEFGRID1 loosescf d4 GCP(DFT/SV(P)) printgap
|  2> %output
|  3>     printlevel normal
|  4> end
|  5> * xyz 0 1
|  6> C 3.3216920622 -1.564243469 1.5938353446
|  7> C 3.0448156635 -2.1923476942 0.2383657102
|  8> O 2.7080305312 -1.1749296485 -0.7234902036
|  9> C 1.4665231914 -1.0403736088 -1.1251380197
| 10> O 0.5363599937 -1.7353761729 -0.7612045638
| 11> C 1.3211598496 0.0794507452 -2.1336955843
| 12> C 0.1760607705 1.0165544856 -1.7623879692
| 13> H 0.0433252254 1.7665854963 -2.5485333432
| 14> C 0.3653390069 1.7560456572 -0.4494207376
| 15> O -0.569659917 2.2394909792 0.1601216403
| 16> O 1.6180208341 1.8360904252 -0.0967074695
| 17> C 1.9382419439 2.5026804198 1.1425140589
| 18> C 3.4333000695 2.7456828383 1.1651246192
| 19> S -1.4457574502 0.1750376582 -1.6880124155
| 20> P -1.6703866633 -0.3146518138 0.3747606088
| 21> S -0.26881656 -0.3924546807 1.7402804693
| 22> O -2.8017902618 0.6589116242 0.9079912655
| 23> C -4.040483256 0.900102979 0.220496629
| 24> O -2.5409533368 -1.6553233745 0.261176256
| 25> C -2.0289208229 -2.9519917203 -0.0461958466
| 26> H 3.6232974262 -2.3381910625 2.2915525279
| 27> H 4.1149986498 -0.8274873125 1.5101339594
| 28> H 2.4224805612 -1.0812096278 1.9727554959
| 29> H 2.2179238822 -2.904806386 0.3003215052
| 30> H 3.9363002639 -2.6782952179 -0.1619773428
| 31> H 1.098061783 -0.369284161 -3.1034535367
| 32> H 2.2572221401 0.6338148992 -2.1844307084
| 33> H 1.363257185 3.4320520579 1.193430364
| 34> H 1.6143380729 1.8501341111 1.9601112566
| 35> H 3.9600622207 1.8023781538 1.0598528504
| 36> H 3.7199266656 3.4045231768 0.3510522065
| 37> H 3.7038118893 3.2032741594 2.1104611002
| 38> H -4.5379699262 1.6729164982 0.8005972359
| 39> H -4.633213518 -0.0128787171 0.1965695454
| 40> H -3.8440146047 1.248093481 -0.7939815623
| 41> H -2.8492660278 -3.6383513337 0.1490890155
| 42> H -1.1745026187 -3.1782204764 0.5910361136
| 43> H -1.7220933093 -2.9949448135 -1.0900207152
| 44> *
| 45>
| 46>                          ****END OF INPUT****

CARTESIAN COORDINATES (ANGSTROEM)
---------------------------------
  C      3.321692   -1.564243    1.593835
  C      3.044816   -2.192348    0.238366
  O      2.708031   -1.174930   -0.723490
  C      1.466523   -1.040374   -1.125138
  O      0.536360   -1.735376   -0.761205
  C      1.321160    0.079451   -2.133696
  C      0.176061    1.016554   -1.762388
  H      0.043325    1.766585   -2.548533
  C      0.365339    1.756046   -0.449421
  O     -0.569660    2.239491    0.160122
  O      1.618021    1.836090   -0.096707
  C      1.938242    2.502680    1.142514
  C      3.433300    2.745683    1.165125
  S     -1.445757    0.175038   -1.688012
  P     -1.670387   -0.314652    0.374761
  S     -0.268817   -0.392455    1.740280
  O     -2.801790    0.658912    0.907991
  C     -4.040483    0.900103    0.220497
  O     -2.540953   -1.655323    0.261176
  C     -2.028921   -2.951992   -0.046196
  H      3.623297   -2.338191    2.291553
  H      4.114999   -0.827487    1.510134
  H      2.422481   -1.081210    1.972755
  H      2.217924   -2.904806    0.300322
  H      3.936300   -2.678295   -0.161977
  H      1.098062   -0.369284   -3.103454
  H      2.257222    0.633815   -2.184431
  H      1.363257    3.432052    1.193430
  H      1.614338    1.850134    1.960111
  H      3.960062    1.802378    1.059853
  H      3.719927    3.404523    0.351052
  H      3.703812    3.203274    2.110461
  H     -4.537970    1.672916    0.800597
  H     -4.633214   -0.012879    0.196570
  H     -3.844015    1.248093   -0.793982
  H     -2.849266   -3.638351    0.149089
  H     -1.174503   -3.178220    0.591036
  H     -1.722093   -2.994945   -1.090021

 Total Charge           Charge          ....    0
 Multiplicity           Mult            ....    1
 Number of Electrons    NEL             ....  174
 Basis Dimension        Dim             ....  316

ORBITAL ENERGIES
----------------

  NO   OCC          E(Eh)            E(eV)
   0   2.0000     -88.030567     -2395.4335
   1   2.0000     -87.968002     -2393.7310
   2   2.0000     -76.415285     -2079.3656
   3   2.0000     -18.810933      -511.8715
   4   2.0000     -18.805360      -511.7199
   5   2.0000     -18.777919      -510.9732
   6   2.0000     -18.770263      -510.7648
   7   2.0000     -18.739075      -509.9161
   8   2.0000     -18.735495      -509.8187
   9   2.0000     -10.015530      -272.5364
  10   2.0000     -10.011985      -272.4400
  11   2.0000      -9.951571      -270.7960
  12   2.0000      -9.945807      -270.6392
  13   2.0000      -9.945742      -270.6374
  14   2.0000      -9.931530      -270.2507
  15   2.0000      -9.928253      -270.1615
  16   2.0000      -9.912391      -269.7299
  17   2.0000      -9.889318      -269.1020
  18   2.0000      -9.882464      -268.9155
  19   2.0000      -7.675482      -208.8605
  20   2.0000      -7.613271      -207.1676
  21   2.0000      -6.410968      -174.4513
  22   2.0000      -5.703753      -155.2070
  23   2.0000      -5.700209      -155.1106
  24   2.0000      -5.691811      -154.8821
  25   2.0000      -5.642600      -153.5429
  26   2.0000      -5.633837      -153.3045
  27   2.0000      -5.632900      -153.2790
  28   2.0000      -4.633719      -126.0899
  29   2.0000      -4.633106      -126.0732
  30   2.0000      -4.631342      -126.0252
  31   2.0000      -1.018951       -27.7271
  32   2.0000      -1.011828       -27.5332
  33   2.0000      -0.968375       -26.3508
  34   2.0000      -0.923591       -25.1322
  35   2.0000      -0.917750       -24.9732
  36   2.0000      -0.916220       -24.9316
  37   2.0000      -0.763309       -20.7707
  38   2.0000      -0.710527       -19.3344
  39   2.0000      -0.707878       -19.2623
  40   2.0000      -0.685731       -18.6597
  41   2.0000      -0.654452       -17.8085
  42   2.0000      -0.622586       -16.9414
  43   2.0000      -0.616371       -16.7723
  44   2.0000      -0.604667       -16.4538
  45   2.0000      -0.591733       -16.1019
  46   2.0000      -0.563448       -15.3322
  47   2.0000      -0.512665       -13.9503
  48   2.0000      -0.502892       -13.6844
  49   2.0000      -0.498377       -13.5615
  50   2.0000      -0.482013       -13.1162
  51   2.0000      -0.460690       -12.5360
  52   2.0000      -0.452986       -12.3264
  53   2.0000      -0.449226       -12.2241
  54   2.0000      -0.437537       -11.9060
  55   2.0000      -0.423650       -11.5281
  56   2.0000      -0.417501       -11.3608
  57   2.0000      -0.410946       -11.1824
  58   2.0000      -0.407962       -11.1012
  59   2.0000      -0.402979       -10.9656
  60   2.0000      -0.397352       -10.8125
  61   2.0000      -0.393259       -10.7011
  62   2.0000      -0.383770       -10.4429
  63   2.0000      -0.375597       -10.2205
  64   2.0000      -0.371474       -10.1083
  65   2.0000      -0.369234       -10.0474
  66   2.0000      -0.360147        -9.8001
  67   2.0000      -0.355959        -9.6861
  68   2.0000      -0.346376        -9.4254
  69   2.0000      -0.337015        -9.1706
  70   2.0000      -0.333265        -9.0686
  71   2.0000      -0.326722        -8.8906
  72   2.0000      -0.318849        -8.6763
  73   2.0000      -0.305226        -8.3056
  74   2.0000      -0.301236        -8.1970
  75   2.0000      -0.292407        -7.9568
  76   2.0000      -0.284564        -7.7434
  77   2.0000      -0.281167        -7.6509
  78   2.0000      -0.265574        -7.2266
  79   2.0000      -0.260722        -7.0946
  80   2.0000      -0.253255        -6.8914
  81   2.0000      -0.247871        -6.7449
  82   2.0000      -0.237368        -6.4591
  83   2.0000      -0.224821        -6.1177
  84   2.0000      -0.195984        -5.3330
  85   2.0000      -0.187284        -5.0963
  86   2.0000      -0.177894        -4.8407
  87   0.0000      -0.042645        -1.1604
  88   0.0000      -0.034435        -0.9370
  89   0.0000      -0.026227        -0.7137
  90   0.0000       0.008066         0.2195
  91   0.0000       0.029653         0.8069

MULLIKEN ATOMIC CHARGES
-----------------------
   0 C :   -0.319048
   1 C :   -0.022207
   2 O :   -0.218808
   3 C :    0.096496
   4 O :   -0.198773
   5 C :   -0.006412
   6 C :   -0.303937
   7 H :    0.153934
   8 C :    0.160831
   9 O :   -0.185245
  10 O :   -0.217480
  11 C :   -0.029767
  12 C :   -0.287400
  13 S :   -0.099896
  14 P :    0.649369
  15 S :   -0.332521
  16 O :   -0.355240
  17 C :   -0.103188
  18 O :   -0.396479
  19 C :   -0.086862
  20 H :    0.108836
  21 H :    0.118487
  22 H :    0.144966
  23 H :    0.115188
  24 H :    0.101406
  25 H :    0.116650
  26 H :    0.109350
  27 H :    0.110434
  28 H :    0.126436
  29 H :    0.124662
  30 H :    0.110790
  31 H :    0.113634
  32 H :    0.125683
  33 H :    0.114338
  34 H :    0.115704
  35 H :    0.113271
  36 H :    0.118552
  37 H :    0.114246
Sum of atomic charges:   -0.0000000

LOEWDIN ATOMIC CHARGES
----------------------
   0 C :   -0.359074
   1 C :   -0.110031
   2 O :   -0.045976
   3 C :    0.029395
   4 O :   -0.171422
   5 C :   -0.253014
   6 C :   -0.258125
   7 H :    0.152666
   8 C :   -0.009231
   9 O :   -0.161565
  10 O :   -0.039293
  11 C :   -0.106538
  12 C :   -0.352005
  13 S :    0.105469
  14 P :    0.594200
  15 S :   -0.296751
  16 O :   -0.235754
  17 C :   -0.213519
  18 O :   -0.258262
  19 C :   -0.209742
  20 H :    0.130068
  21 H :    0.120948
  22 H :    0.125495
  23 H :    0.121209
  24 H :    0.116400
  25 H :    0.145790
  26 H :    0.138978
  27 H :    0.119718
  28 H :    0.119935
  29 H :    0.126440
  30 H :    0.124586
  31 H :    0.132312
  32 H :    0.123630
  33 H :    0.111042
  34 H :    0.105077
  35 H :    0.114944
  36 H :    0.111760
  37 H :    0.110241

  Mayer bond orders larger than 0.100000
B(  0-C ,  1-C ) :   1.1797 B(  0-C , 20-H ) :   0.9401 B(  0-C , 21-H ) :   0.9413
B(  0-C , 22-H ) :   0.9293 B(  1-C ,  2-O ) :   0.9074 B(  1-C , 23-H ) :   0.9053
B(  1-C , 24-H ) :   0.9356 B(  2-O ,  3-C ) :   1.2561 B(  3-C ,  4-O ) :   1.9715
B(  3-C ,  5-C ) :   1.0032 B(  5-C ,  6-C ) :   1.0328 B(  5-C , 25-H ) :   0.8796
B(  5-C , 26-H ) :   0.8831 B(  6-C ,  7-H ) :   0.8709 B(  6-C ,  8-C ) :   0.8977
B(  6-C , 13-S ) :   1.0296 B(  8-C ,  9-O ) :   2.0328 B(  8-C , 10-O ) :   1.2743
B( 10-O , 11-C ) :   0.8872 B( 11-C , 12-C ) :   1.1536 B( 11-C , 27-H ) :   0.9256
B( 11-C , 28-H ) :   0.9185 B( 12-C , 29-H ) :   0.9421 B( 12-C , 30-H ) :   0.9499
B( 12-C , 31-H ) :   0.9430 B( 13-S , 14-P ) :   0.9305 B( 13-S , 15-S ) :   0.1211
B( 14-P , 15-S ) :   1.5647 B( 14-P , 16-O ) :   1.1284 B( 14-P , 18-O ) :   1.0786
B( 16-O , 17-C ) :   0.9303 B( 17-C , 32-H ) :   0.9605 B( 17-C , 33-H ) :   0.9476
B( 17-C , 34-H ) :   0.9344 B( 18-O , 19-C ) :   0.9323 B( 19-C , 35-H ) :   0.9560
B( 19-C , 36-H ) :   0.9422 B( 19-C , 37-H ) :   0.9493

Dispersion correction           -0.056412101
FINAL SINGLE POINT ENERGY     -1979.003258353682

DIPOLE MOMENT
-------------

Method             : SCF
Type of density    : Electron Density
Multiplicity       :   1
Irrep              :   0
Energy             : -1979.1310953951297051 Eh
Relativity type    :
Basis              : AO
                                X                 Y                 Z
Electronic contribution:    -14.890876988       0.581333669      -4.910451291
Nuclear contribution   :     15.893690558      -0.657518184       3.979773760
                        -----------------------------------------
Total Dipole Moment    :      1.002813570      -0.076184515      -0.930677531
                        -----------------------------------------
Magnitude (a.u.)       :      1.370255379
Magnitude (Debye)      :      3.482912382

Rotational constants in cm-1:             0.013689             0.008817             0.007448
Rotational constants in MHz :           410.395028           264.330721           223.284879

                             ****ORCA TERMINATED NORMALLY****
TOTAL RUN TIME: 0 days 0 hours 1 minutes 31 seconds 396 msec
