                         Program Version 6.0.0  -   RELEASE  -
|  1> ! r2scan-3c def2/J RI DEFGRID2 scfconv6 printgap
|  2> %output
|  3>     printlevel normal
|  4> end
|  5> * xyz 0 1
|  6> C 3.3445762463 0.2253979704 -2.5358482591
|  7> C 1.944317734 0.6212582269 -2.1213935701
|  8> O 1.3457812335 -0.3579867956 -1.2514248402
|  9> P 1.8969967428 -0.6463446594 0.2030890501
| 10> S 2.6046109354 0.872571589 1.2290001936
| 11> O 2.9248588725 -1.8217386128 -0.1058416338
| 12> C 3.7072608466 -2.4524948485 0.9273123211
| 13> C 5.0842592923 -1.8243625618 1.0233015312
| 14> S 0.3227862919 -1.7166689708 1.0917465767
| 15> C -0.4981470996 -0.4128556648 2.0695453731
| 16> S -2.2126332339 -0.1472674175 1.5717034312
| 17> P -1.8461318013 0.8576500595 -0.2667733721
| 18> S -0.4393653428 2.2160970547 -0.18038081
| 19> O -3.290921451 1.3997949968 -0.6406647812
| 20> C -3.902871443 2.4714814985 0.1075521196
| 21> C -5.0555761496 3.0112830498 -0.7140446276
| 22> O -1.5902681506 -0.2026875916 -1.3996521227
| 23> C -2.555518184 -1.2050864946 -1.8237836335
| 24> C -2.2192487374 -2.5615376719 -1.2388678797
| 25> H 3.9996586349 0.2313102787 -1.6653714084
| 26> H 3.3397343974 -0.7719630095 -2.9677497046
| 27> H 3.7178300687 0.9382211827 -3.2644916809
| 28> H 1.2589843063 0.6660769642 -2.9693802051
| 29> H 1.9452666826 1.588195291 -1.6064509015
| 30> H 3.1761764014 -2.3768982185 1.8804979787
| 31> H 3.7670743678 -3.4998877307 0.6260071955
| 32> H 5.6673626702 -2.3542387951 1.7694191234
| 33> H 5.5899997971 -1.8821177495 0.0634994595
| 34> H 5.0005043235 -0.7798116355 1.3158304973
| 35> H 0.0702439838 0.515916653 1.9654499037
| 36> H -0.5300632384 -0.7403175518 3.1053128329
| 37> H -4.2455144658 2.0659204282 1.0629994615
| 38> H -3.1464605173 3.2406784096 0.2944059513
| 39> H -5.7799592637 2.2242640531 -0.9015107238
| 40> H -5.5336598939 3.8172296249 -0.1672535501
| 41> H -4.6910939003 3.3898503208 -1.6648785141
| 42> H -3.5555062977 -0.8789939006 -1.5349110089
| 43> H -2.4687227461 -1.2104385046 -2.9114079418
| 44> H -1.1874346108 -2.8203194643 -1.4633325045
| 45> H -2.349145541 -2.5641427179 -0.1592905802
| 46> H -2.8778014761 -3.305078569 -1.676545672
| 47> *
| 48>
| 49>                          ****END OF INPUT****

CARTESIAN COORDINATES (ANGSTROEM)
---------------------------------
  C      3.344576    0.225398   -2.535848
  C      1.944318    0.621258   -2.121394
  O      1.345781   -0.357987   -1.251425
  P      1.896997   -0.646345    0.203089
  S      2.604611    0.872572    1.229000
  O      2.924859   -1.821739   -0.105842
  C      3.707261   -2.452495    0.927312
  C      5.084259   -1.824363    1.023302
  S      0.322786   -1.716669    1.091747
  C     -0.498147   -0.412856    2.069545
  S     -2.212633   -0.147267    1.571703
  P     -1.846132    0.857650   -0.266773
  S     -0.439365    2.216097   -0.180381
  O     -3.290921    1.399795   -0.640665
  C     -3.902871    2.471481    0.107552
  C     -5.055576    3.011283   -0.714045
  O     -1.590268   -0.202688   -1.399652
  C     -2.555518   -1.205086   -1.823784
  C     -2.219249   -2.561538   -1.238868
  H      3.999659    0.231310   -1.665371
  H      3.339734   -0.771963   -2.967750
  H      3.717830    0.938221   -3.264492
  H      1.258984    0.666077   -2.969380
  H      1.945267    1.588195   -1.606451
  H      3.176176   -2.376898    1.880498
  H      3.767074   -3.499888    0.626007
  H      5.667363   -2.354239    1.769419
  H      5.590000   -1.882118    0.063499
  H      5.000504   -0.779812    1.315830
  H      0.070244    0.515917    1.965450
  H     -0.530063   -0.740318    3.105313
  H     -4.245514    2.065920    1.062999
  H     -3.146461    3.240678    0.294406
  H     -5.779959    2.224264   -0.901511
  H     -5.533660    3.817230   -0.167254
  H     -4.691094    3.389850   -1.664879
  H     -3.555506   -0.878994   -1.534911
  H     -2.468723   -1.210439   -2.911408
  H     -1.187435   -2.820319   -1.463333
  H     -2.349146   -2.564143   -0.159291
  H     -2.877801   -3.305079   -1.676546

 Total Charge           Charge          ....    0
 Multiplicity           Mult            ....    1
 Number of Electrons    NEL             ....  202
 Basis Dimension        Dim             ....  539

ORBITAL ENERGIES
----------------

  NO   OCC          E(Eh)            E(eV)
   0   2.0000     -88.575761     -2410.2690
   1   2.0000     -88.571775     -2410.1605
   2   2.0000     -88.512526     -2408.5483
   3   2.0000     -88.512136     -2408.5377
   4   2.0000     -76.911170     -2092.8593
   5   2.0000     -76.907607     -2092.7624
   6   2.0000     -18.992942      -516.8242
   7   2.0000     -18.989521      -516.7311
   8   2.0000     -18.985578      -516.6238
   9   2.0000     -18.978769      -516.4386
  10   2.0000     -10.104880      -274.9678
  11   2.0000     -10.101610      -274.8788
  12   2.0000     -10.099838      -274.8306
  13   2.0000     -10.095573      -274.7145
  14   2.0000     -10.084012      -274.3999
  15   2.0000     -10.034528      -273.0534
  16   2.0000     -10.026557      -272.8365
  17   2.0000     -10.021982      -272.7120
  18   2.0000     -10.019363      -272.6407
  19   2.0000      -7.870256      -214.1606
  20   2.0000      -7.866509      -214.0586
  21   2.0000      -7.807382      -212.4497
  22   2.0000      -7.806885      -212.4361
  23   2.0000      -6.589618      -179.3126
  24   2.0000      -6.585894      -179.2113
  25   2.0000      -5.817035      -158.2896
  26   2.0000      -5.813957      -158.2058
  27   2.0000      -5.813304      -158.1880
  28   2.0000      -5.810264      -158.1053
  29   2.0000      -5.807596      -158.0327
  30   2.0000      -5.803704      -157.9268
  31   2.0000      -5.755187      -156.6066
  32   2.0000      -5.754545      -156.5891
  33   2.0000      -5.747562      -156.3991
  34   2.0000      -5.747337      -156.3930
  35   2.0000      -5.747310      -156.3923
  36   2.0000      -5.746717      -156.3761
  37   2.0000      -4.735501      -128.8595
  38   2.0000      -4.734625      -128.8357
  39   2.0000      -4.732917      -128.7892
  40   2.0000      -4.731310      -128.7455
  41   2.0000      -4.730771      -128.7308
  42   2.0000      -4.729782      -128.7039
  43   2.0000      -1.050807       -28.5939
  44   2.0000      -1.042049       -28.3556
  45   2.0000      -1.008983       -27.4558
  46   2.0000      -1.001639       -27.2560
  47   2.0000      -0.798461       -21.7272
  48   2.0000      -0.757748       -20.6194
  49   2.0000      -0.745849       -20.2956
  50   2.0000      -0.735523       -20.0146
  51   2.0000      -0.723557       -19.6890
  52   2.0000      -0.707587       -19.2544
  53   2.0000      -0.681468       -18.5437
  54   2.0000      -0.661563       -18.0020
  55   2.0000      -0.624002       -16.9800
  56   2.0000      -0.615781       -16.7563
  57   2.0000      -0.606326       -16.4990
  58   2.0000      -0.597993       -16.2722
  59   2.0000      -0.590573       -16.0703
  60   2.0000      -0.534108       -14.5338
  61   2.0000      -0.517417       -14.0796
  62   2.0000      -0.496778       -13.5180
  63   2.0000      -0.485365       -13.2075
  64   2.0000      -0.467243       -12.7143
  65   2.0000      -0.463238       -12.6053
  66   2.0000      -0.452226       -12.3057
  67   2.0000      -0.451323       -12.2811
  68   2.0000      -0.450781       -12.2664
  69   2.0000      -0.431206       -11.7337
  70   2.0000      -0.420016       -11.4292
  71   2.0000      -0.411968       -11.2102
  72   2.0000      -0.401792       -10.9333
  73   2.0000      -0.398758       -10.8508
  74   2.0000      -0.395286       -10.7563
  75   2.0000      -0.384132       -10.4528
  76   2.0000      -0.381316       -10.3761
  77   2.0000      -0.368693       -10.0327
  78   2.0000      -0.367024        -9.9872
  79   2.0000      -0.364674        -9.9233
  80   2.0000      -0.357189        -9.7196
  81   2.0000      -0.355897        -9.6845
  82   2.0000      -0.351317        -9.5598
  83   2.0000      -0.347289        -9.4502
  84   2.0000      -0.342402        -9.3172
  85   2.0000      -0.328842        -8.9483
  86   2.0000      -0.322607        -8.7786
  87   2.0000      -0.318538        -8.6679
  88   2.0000      -0.310899        -8.4600
  89   2.0000      -0.305502        -8.3131
  90   2.0000      -0.291849        -7.9416
  91   2.0000      -0.286415        -7.7937
  92   2.0000      -0.278301        -7.5730
  93   2.0000      -0.274682        -7.4745
  94   2.0000      -0.270721        -7.3667
  95   2.0000      -0.246618        -6.7108
  96   2.0000      -0.233303        -6.3485
  97   2.0000      -0.225223        -6.1286
  98   2.0000      -0.213550        -5.8110
  99   2.0000      -0.203544        -5.5387
 100   2.0000      -0.195448        -5.3184
 101   0.0000      -0.041008        -1.1159
 102   0.0000      -0.030118        -0.8196
 103   0.0000      -0.005392        -0.1467
 104   0.0000       0.014555         0.3961
 105   0.0000       0.017602         0.4790

MULLIKEN ATOMIC CHARGES
-----------------------
   0 C :   -0.454406
   1 C :   -0.146390
   2 O :   -0.265885
   3 P :    0.631709
   4 S :   -0.457508
   5 O :   -0.289335
   6 C :   -0.131063
   7 C :   -0.461421
   8 S :   -0.134780
   9 C :   -0.213201
  10 S :   -0.177498
  11 P :    0.709235
  12 S :   -0.424046
  13 O :   -0.316086
  14 C :   -0.162935
  15 C :   -0.439575
  16 O :   -0.255776
  17 C :   -0.135976
  18 C :   -0.441616
  19 H :    0.167391
  20 H :    0.155136
  21 H :    0.145975
  22 H :    0.154742
  23 H :    0.182114
  24 H :    0.153361
  25 H :    0.148602
  26 H :    0.143557
  27 H :    0.150539
  28 H :    0.184981
  29 H :    0.218850
  30 H :    0.196171
  31 H :    0.149243
  32 H :    0.173262
  33 H :    0.149994
  34 H :    0.147696
  35 H :    0.159257
  36 H :    0.160209
  37 H :    0.151463
  38 H :    0.165359
  39 H :    0.166349
  40 H :    0.142300
Sum of atomic charges:   -0.0000000

LOEWDIN ATOMIC CHARGES
----------------------
   0 C :   -0.401315
   1 C :    0.012405
   2 O :   -0.664379
   3 P :    0.366862
   4 S :   -0.126877
   5 O :   -0.667569
   6 C :    0.018563
   7 C :   -0.403478
   8 S :    0.166378
   9 C :   -0.413199
  10 S :    0.122555
  11 P :    0.376040
  12 S :   -0.073447
  13 O :   -0.680952
  14 C :    0.019666
  15 C :   -0.385673
  16 O :   -0.641879
  17 C :    0.031429
  18 C :   -0.405887
  19 H :    0.164937
  20 H :    0.160035
  21 H :    0.158573
  22 H :    0.182664
  23 H :    0.184802
  24 H :    0.176060
  25 H :    0.177446
  26 H :    0.157405
  27 H :    0.157132
  28 H :    0.169464
  29 H :    0.203550
  30 H :    0.180165
  31 H :    0.171349
  32 H :    0.182119
  33 H :    0.158129
  34 H :    0.160534
  35 H :    0.162263
  36 H :    0.178776
  37 H :    0.181158
  38 H :    0.165172
  39 H :    0.162628
  40 H :    0.156398

  Mayer bond orders larger than 0.100000
B(  0-C ,  1-C ) :   0.9105 B(  0-C , 19-H ) :   0.9611 B(  0-C , 20-H ) :   0.9730
B(  0-C , 21-H ) :   0.9617 B(  1-C ,  2-O ) :   0.8010 B(  1-C , 22-H ) :   0.9621
B(  1-C , 23-H ) :   0.9623 B(  2-O ,  3-P ) :   1.1798 B(  3-P ,  4-S ) :   1.7664
B(  3-P ,  5-O ) :   1.0493 B(  3-P ,  8-S ) :   1.1285 B(  5-O ,  6-C ) :   0.7861
B(  6-C ,  7-C ) :   0.9494 B(  6-C , 24-H ) :   0.9649 B(  6-C , 25-H ) :   0.9647
B(  7-C , 26-H ) :   0.9646 B(  7-C , 27-H ) :   0.9743 B(  7-C , 28-H ) :   0.9582
B(  8-S ,  9-C ) :   0.8936 B(  9-C , 10-S ) :   0.9171 B(  9-C , 29-H ) :   0.9044
B(  9-C , 30-H ) :   0.9134 B( 10-S , 11-P ) :   0.9670 B( 11-P , 12-S ) :   1.8290
B( 11-P , 13-O ) :   1.0711 B( 11-P , 16-O ) :   1.1379 B( 13-O , 14-C ) :   0.7887
B( 14-C , 15-C ) :   0.9568 B( 14-C , 31-H ) :   0.9418 B( 14-C , 32-H ) :   0.9493
B( 15-C , 33-H ) :   0.9717 B( 15-C , 34-H ) :   0.9640 B( 15-C , 35-H ) :   0.9711
B( 16-O , 17-C ) :   0.7455 B( 17-C , 18-C ) :   0.9510 B( 17-C , 36-H ) :   0.9754
B( 17-C , 37-H ) :   0.9617 B( 18-C , 38-H ) :   0.9647 B( 18-C , 39-H ) :   0.9607
B( 18-C , 40-H ) :   0.9616

Dispersion correction           -0.021999332
FINAL SINGLE POINT ENERGY     -2932.458960767651

DIPOLE MOMENT
-------------

Method             : SCF
Type of density    : Electron Density
Multiplicity       :   1
Irrep              :   0
Energy             : -2932.4834861616686794 Eh
Relativity type    :
Basis              : AO
                                X                 Y                 Z
Electronic contribution:     -2.021510335       3.452271350       9.847868408
Nuclear contribution   :      1.032828332      -4.466720969     -10.298002620
                        -----------------------------------------
Total Dipole Moment    :     -0.988682003      -1.014449619      -0.450134212
                        -----------------------------------------
Magnitude (a.u.)       :      1.486344826
Magnitude (Debye)      :      3.777988305

Rotational constants in cm-1:             0.013770             0.004982             0.004794
Rotational constants in MHz :           412.813014           149.359550           143.713564

                             ****ORCA TERMINATED NORMALLY****
TOTAL RUN TIME: 0 days 0 hours 1 minutes 23 seconds 913 msec
