                         Program Version 6.0.0  -   RELEASE  -
|  1> ! r2scan-3c def2/J RI DEFGRID2 scfconv6 printgap
|  2> %output
|  3>     printlevel normal
|  4> end
|  5> %cpcm
|  6>     smd true
|  7>     smdsolvent "water"
|  8> end
|  9> * xyz 0 1
| 10> C 3.3445762463 0.2253979704 -2.5358482591
| 11> C 1.944317734 0.6212582269 -2.1213935701
| 12> O 1.3457812335 -0.3579867956 -1.2514248402
| 13> P 1.8969967428 -0.6463446594 0.2030890501
| 14> S 2.6046109354 0.872571589 1.2290001936
| 15> O 2.9248588725 -1.8217386128 -0.1058416338
| 16> C 3.7072608466 -2.4524948485 0.9273123211
| 17> C 5.0842592923 -1.8243625618 1.0233015312
| 18> S 0.3227862919 -1.7166689708 1.0917465767
| 19> C -0.4981470996 -0.4128556648 2.0695453731
| 20> S -2.2126332339 -0.1472674175 1.5717034312
| 21> P -1.8461318013 0.8576500595 -0.2667733721
| 22> S -0.4393653428 2.2160970547 -0.18038081
| 23> O -3.290921451 1.3997949968 -0.6406647812
| 24> C -3.902871443 2.4714814985 0.1075521196
| 25> C -5.0555761496 3.0112830498 -0.7140446276
| 26> O -1.5902681506 -0.2026875916 -1.3996521227
| 27> C -2.555518184 -1.2050864946 -1.8237836335
| 28> C -2.2192487374 -2.5615376719 -1.2388678797
| 29> H 3.9996586349 0.2313102787 -1.6653714084
| 30> H 3.3397343974 -0.7719630095 -2.9677497046
| 31> H 3.7178300687 0.9382211827 -3.2644916809
| 32> H 1.2589843063 0.6660769642 -2.9693802051
| 33> H 1.9452666826 1.588195291 -1.6064509015
| 34> H 3.1761764014 -2.3768982185 1.8804979787
| 35> H 3.7670743678 -3.4998877307 0.6260071955
| 36> H 5.6673626702 -2.3542387951 1.7694191234
| 37> H 5.5899997971 -1.8821177495 0.0634994595
| 38> H 5.0005043235 -0.7798116355 1.3158304973
| 39> H 0.0702439838 0.515916653 1.9654499037
| 40> H -0.5300632384 -0.7403175518 3.1053128329
| 41> H -4.2455144658 2.0659204282 1.0629994615
| 42> H -3.1464605173 3.2406784096 0.2944059513
| 43> H -5.7799592637 2.2242640531 -0.9015107238
| 44> H -5.5336598939 3.8172296249 -0.1672535501
| 45> H -4.6910939003 3.3898503208 -1.6648785141
| 46> H -3.5555062977 -0.8789939006 -1.5349110089
| 47> H -2.4687227461 -1.2104385046 -2.9114079418
| 48> H -1.1874346108 -2.8203194643 -1.4633325045
| 49> H -2.349145541 -2.5641427179 -0.1592905802
| 50> H -2.8778014761 -3.305078569 -1.676545672
| 51> *
| 52>
| 53>                          ****END OF INPUT****

CARTESIAN COORDINATES (ANGSTROEM)
---------------------------------
  C      3.344576    0.225398   -2.535848
  C      1.944318    0.621258   -2.121394
  O      1.345781   -0.357987   -1.251425
  P      1.896997   -0.646345    0.203089
  S      2.604611    0.872572    1.229000
  O      2.924859   -1.821739   -0.105842
  C      3.707261   -2.452495    0.927312
  C      5.084259   -1.824363    1.023302
  S      0.322786   -1.716669    1.091747
  C     -0.498147   -0.412856    2.069545
  S     -2.212633   -0.147267    1.571703
  P     -1.846132    0.857650   -0.266773
  S     -0.439365    2.216097   -0.180381
  O     -3.290921    1.399795   -0.640665
  C     -3.902871    2.471481    0.107552
  C     -5.055576    3.011283   -0.714045
  O     -1.590268   -0.202688   -1.399652
  C     -2.555518   -1.205086   -1.823784
  C     -2.219249   -2.561538   -1.238868
  H      3.999659    0.231310   -1.665371
  H      3.339734   -0.771963   -2.967750
  H      3.717830    0.938221   -3.264492
  H      1.258984    0.666077   -2.969380
  H      1.945267    1.588195   -1.606451
  H      3.176176   -2.376898    1.880498
  H      3.767074   -3.499888    0.626007
  H      5.667363   -2.354239    1.769419
  H      5.590000   -1.882118    0.063499
  H      5.000504   -0.779812    1.315830
  H      0.070244    0.515917    1.965450
  H     -0.530063   -0.740318    3.105313
  H     -4.245514    2.065920    1.062999
  H     -3.146461    3.240678    0.294406
  H     -5.779959    2.224264   -0.901511
  H     -5.533660    3.817230   -0.167254
  H     -4.691094    3.389850   -1.664879
  H     -3.555506   -0.878994   -1.534911
  H     -2.468723   -1.210439   -2.911408
  H     -1.187435   -2.820319   -1.463333
  H     -2.349146   -2.564143   -0.159291
  H     -2.877801   -3.305079   -1.676546

 Total Charge           Charge          ....    0
 Multiplicity           Mult            ....    1
 Number of Electrons    NEL             ....  202
 Basis Dimension        Dim             ....  539

ORBITAL ENERGIES
----------------

  NO   OCC          E(Eh)            E(eV)
   0   2.0000     -88.579220     -2410.3631
   1   2.0000     -88.577311     -2410.3112
   2   2.0000     -88.523915     -2408.8582
   3   2.0000     -88.523303     -2408.8415
   4   2.0000     -76.917837     -2093.0407
   5   2.0000     -76.917382     -2093.0284
   6   2.0000     -18.994555      -516.8681
   7   2.0000     -18.994468      -516.8657
   8   2.0000     -18.992191      -516.8038
   9   2.0000     -18.989678      -516.7354
  10   2.0000     -10.104912      -274.9686
  11   2.0000     -10.091989      -274.6170
  12   2.0000     -10.090660      -274.5808
  13   2.0000     -10.089715      -274.5551
  14   2.0000     -10.086287      -274.4618
  15   2.0000     -10.019777      -272.6520
  16   2.0000     -10.017444      -272.5885
  17   2.0000     -10.016804      -272.5711
  18   2.0000     -10.015922      -272.5471
  19   2.0000      -7.873630      -214.2524
  20   2.0000      -7.871967      -214.2071
  21   2.0000      -7.818989      -212.7655
  22   2.0000      -7.818513      -212.7526
  23   2.0000      -6.596328      -179.4952
  24   2.0000      -6.595719      -179.4786
  25   2.0000      -5.820423      -158.3818
  26   2.0000      -5.818773      -158.3369
  27   2.0000      -5.817352      -158.2982
  28   2.0000      -5.815728      -158.2540
  29   2.0000      -5.810947      -158.1239
  30   2.0000      -5.809162      -158.0753
  31   2.0000      -5.766579      -156.9166
  32   2.0000      -5.766199      -156.9062
  33   2.0000      -5.759440      -156.7223
  34   2.0000      -5.758830      -156.7057
  35   2.0000      -5.758673      -156.7015
  36   2.0000      -5.758512      -156.6971
  37   2.0000      -4.742157      -129.0407
  38   2.0000      -4.741297      -129.0172
  39   2.0000      -4.741100      -129.0119
  40   2.0000      -4.740601      -128.9983
  41   2.0000      -4.739757      -128.9753
  42   2.0000      -4.739662      -128.9728
  43   2.0000      -1.053831       -28.6762
  44   2.0000      -1.050353       -28.5816
  45   2.0000      -1.011658       -27.5286
  46   2.0000      -1.009569       -27.4718
  47   2.0000      -0.801250       -21.8031
  48   2.0000      -0.756163       -20.5762
  49   2.0000      -0.744627       -20.2623
  50   2.0000      -0.726274       -19.7629
  51   2.0000      -0.721799       -19.6411
  52   2.0000      -0.709564       -19.3082
  53   2.0000      -0.687651       -18.7119
  54   2.0000      -0.669478       -18.2174
  55   2.0000      -0.627673       -17.0799
  56   2.0000      -0.613784       -16.7019
  57   2.0000      -0.599291       -16.3075
  58   2.0000      -0.596358       -16.2277
  59   2.0000      -0.591532       -16.0964
  60   2.0000      -0.531278       -14.4568
  61   2.0000      -0.518824       -14.1179
  62   2.0000      -0.493559       -13.4304
  63   2.0000      -0.489384       -13.3168
  64   2.0000      -0.468823       -12.7573
  65   2.0000      -0.463556       -12.6140
  66   2.0000      -0.452498       -12.3131
  67   2.0000      -0.451107       -12.2753
  68   2.0000      -0.444459       -12.0943
  69   2.0000      -0.433108       -11.7855
  70   2.0000      -0.419088       -11.4040
  71   2.0000      -0.413726       -11.2581
  72   2.0000      -0.402793       -10.9606
  73   2.0000      -0.395642       -10.7660
  74   2.0000      -0.391110       -10.6426
  75   2.0000      -0.384419       -10.4606
  76   2.0000      -0.380885       -10.3644
  77   2.0000      -0.365989        -9.9591
  78   2.0000      -0.362908        -9.8752
  79   2.0000      -0.356947        -9.7130
  80   2.0000      -0.352921        -9.6035
  81   2.0000      -0.351260        -9.5583
  82   2.0000      -0.349836        -9.5195
  83   2.0000      -0.345672        -9.4062
  84   2.0000      -0.342128        -9.3098
  85   2.0000      -0.326097        -8.8736
  86   2.0000      -0.325223        -8.8498
  87   2.0000      -0.316553        -8.6139
  88   2.0000      -0.306968        -8.3530
  89   2.0000      -0.304627        -8.2893
  90   2.0000      -0.296363        -8.0644
  91   2.0000      -0.288973        -7.8633
  92   2.0000      -0.282699        -7.6926
  93   2.0000      -0.278789        -7.5862
  94   2.0000      -0.273873        -7.4525
  95   2.0000      -0.251018        -6.8305
  96   2.0000      -0.241067        -6.5598
  97   2.0000      -0.236440        -6.4339
  98   2.0000      -0.225036        -6.1235
  99   2.0000      -0.213678        -5.8145
 100   2.0000      -0.207488        -5.6460
 101   0.0000      -0.045756        -1.2451
 102   0.0000      -0.037365        -1.0167
 103   0.0000      -0.009943        -0.2706
 104   0.0000       0.009211         0.2506
 105   0.0000       0.012134         0.3302

MULLIKEN ATOMIC CHARGES
-----------------------
   0 C :   -0.497249
   1 C :   -0.144641
   2 O :   -0.295666
   3 P :    0.663445
   4 S :   -0.511803
   5 O :   -0.317010
   6 C :   -0.128401
   7 C :   -0.496281
   8 S :   -0.131084
   9 C :   -0.213404
  10 S :   -0.173030
  11 P :    0.719242
  12 S :   -0.478720
  13 O :   -0.335718
  14 C :   -0.152343
  15 C :   -0.481069
  16 O :   -0.289490
  17 C :   -0.127902
  18 C :   -0.477564
  19 H :    0.168648
  20 H :    0.170631
  21 H :    0.171469
  22 H :    0.177478
  23 H :    0.180963
  24 H :    0.164499
  25 H :    0.175674
  26 H :    0.168935
  27 H :    0.166134
  28 H :    0.173391
  29 H :    0.211266
  30 H :    0.237421
  31 H :    0.168806
  32 H :    0.173487
  33 H :    0.165992
  34 H :    0.169698
  35 H :    0.166272
  36 H :    0.178539
  37 H :    0.177009
  38 H :    0.166647
  39 H :    0.167527
  40 H :    0.168204
Sum of atomic charges:    0.0000000

LOEWDIN ATOMIC CHARGES
----------------------
   0 C :   -0.403296
   1 C :    0.012991
   2 O :   -0.684167
   3 P :    0.370730
   4 S :   -0.160770
   5 O :   -0.680798
   6 C :    0.024034
   7 C :   -0.407041
   8 S :    0.171663
   9 C :   -0.408019
  10 S :    0.133503
  11 P :    0.377330
  12 S :   -0.114556
  13 O :   -0.688369
  14 C :    0.024043
  15 C :   -0.388937
  16 O :   -0.663192
  17 C :    0.038212
  18 C :   -0.406947
  19 H :    0.163209
  20 H :    0.164210
  21 H :    0.168316
  22 H :    0.190541
  23 H :    0.183443
  24 H :    0.180037
  25 H :    0.189111
  26 H :    0.166905
  27 H :    0.161704
  28 H :    0.163008
  29 H :    0.200224
  30 H :    0.196665
  31 H :    0.179326
  32 H :    0.181698
  33 H :    0.163104
  34 H :    0.169125
  35 H :    0.163312
  36 H :    0.186745
  37 H :    0.191819
  38 H :    0.163469
  39 H :    0.160979
  40 H :    0.166632

  Mayer bond orders larger than 0.100000
B(  0-C ,  1-C ) :   0.9072 B(  0-C , 19-H ) :   0.9605 B(  0-C , 20-H ) :   0.9712
B(  0-C , 21-H ) :   0.9549 B(  1-C ,  2-O ) :   0.7853 B(  1-C , 22-H ) :   0.9503
B(  1-C , 23-H ) :   0.9588 B(  2-O ,  3-P ) :   1.1757 B(  3-P ,  4-S ) :   1.7147
B(  3-P ,  5-O ) :   1.0564 B(  3-P ,  8-S ) :   1.1557 B(  5-O ,  6-C ) :   0.7723
B(  6-C ,  7-C ) :   0.9407 B(  6-C , 24-H ) :   0.9583 B(  6-C , 25-H ) :   0.9540
B(  7-C , 26-H ) :   0.9593 B(  7-C , 27-H ) :   0.9710 B(  7-C , 28-H ) :   0.9628
B(  8-S ,  9-C ) :   0.8878 B(  9-C , 10-S ) :   0.9109 B(  9-C , 29-H ) :   0.9090
B(  9-C , 30-H ) :   0.8974 B( 10-S , 11-P ) :   0.9910 B( 11-P , 12-S ) :   1.8001
B( 11-P , 13-O ) :   1.0799 B( 11-P , 16-O ) :   1.1389 B( 13-O , 14-C ) :   0.7804
B( 14-C , 15-C ) :   0.9550 B( 14-C , 31-H ) :   0.9330 B( 14-C , 32-H ) :   0.9460
B( 15-C , 33-H ) :   0.9684 B( 15-C , 34-H ) :   0.9582 B( 15-C , 35-H ) :   0.9691
B( 16-O , 17-C ) :   0.7349 B( 17-C , 18-C ) :   0.9411 B( 17-C , 36-H ) :   0.9652
B( 17-C , 37-H ) :   0.9514 B( 18-C , 38-H ) :   0.9650 B( 18-C , 39-H ) :   0.9613
B( 18-C , 40-H ) :   0.9563

Dispersion correction           -0.021999332
FINAL SINGLE POINT ENERGY     -2932.468582922771

DIPOLE MOMENT
-------------

Method             : SCF
Type of density    : Electron Density
Multiplicity       :   1
Irrep              :   0
Energy             : -2932.4931083167894030 Eh
Relativity type    :
Basis              : AO
                                X                 Y                 Z
Electronic contribution:     -2.464250408       2.897762864       9.937776163
Nuclear contribution   :      1.032828332      -4.466720969     -10.298002620
                        -----------------------------------------
Total Dipole Moment    :     -1.431422077      -1.568958104      -0.360226456
                        -----------------------------------------
Magnitude (a.u.)       :      2.154149900
Magnitude (Debye)      :      5.475413909

Rotational constants in cm-1:             0.013770             0.004982             0.004794
Rotational constants in MHz :           412.813014           149.359550           143.713564

                             ****ORCA TERMINATED NORMALLY****
TOTAL RUN TIME: 0 days 0 hours 1 minutes 56 seconds 560 msec
