                         Program Version 6.0.0  -   RELEASE  -
|  1> ! pbe def2-sv(p) def2/J RI DEFGRID1 loosescf d4 GCP(DFT/SV(P)) printgap
|  2> %output
|  3>     printlevel normal
|  4> end
|  5> * xyz 0 1
|  6> C 4.5027805834 -1.1798992697 -2.4023341151
|  7> C 3.7990045802 -2.1307833756 -1.4574841706
|  8> O 3.420677689 -1.5061378228 -0.2155565386
|  9> P 2.5495420871 -0.1848840666 -0.0731136245
| 10> S 3.3979516081 1.5472927462 -0.3974402679
| 11> O 2.0983894132 -0.2755593634 1.432676097
| 12> C 1.4895796282 -1.4569152027 2.0134630782
| 13> C 0.5917860693 -1.0131178373 3.1497044502
| 14> S 0.8406682233 -0.6134292867 -1.2834050299
| 15> C 0.2070684182 1.074956045 -1.3007879864
| 16> S -0.4527858563 1.5871759032 0.3082148162
| 17> P -2.2602843342 0.5016453408 0.1665171981
| 18> S -3.1346789945 0.5345058679 -1.5929250751
| 19> O -3.1054860463 1.0548235578 1.3943080812
| 20> C -3.7504661404 2.3446221769 1.3718612501
| 21> C -5.2010600131 2.2110657494 0.9503776304
| 22> O -1.8552659609 -0.9267672777 0.7026413135
| 23> C -2.5907123771 -2.1285290043 0.3661196391
| 24> C -1.6085561296 -3.2480504419 0.08900986
| 25> H 4.8389548899 -1.7248682994 -3.2785000495
| 26> H 3.8232504186 -0.388487973 -2.7154655124
| 27> H 5.3582808551 -0.7211091469 -1.9123110146
| 28> H 4.4571713508 -2.9429201851 -1.1439451504
| 29> H 2.8969521094 -2.5392905478 -1.9211405699
| 30> H 0.9225387265 -1.9774671176 1.2363114915
| 31> H 2.2988692775 -2.0991177041 2.3656550744
| 32> H -0.2339731006 -0.4163172984 2.7688519975
| 33> H 0.1956785527 -1.8882150351 3.6549320541
| 34> H 1.1580825927 -0.4130577108 3.8562181542
| 35> H -0.5862852412 1.1158833581 -2.0482483754
| 36> H 1.0213449501 1.7606185982 -1.5386282929
| 37> H -3.6646785608 2.7144352772 2.3952615847
| 38> H -3.20453039 3.01107958 0.6980000723
| 39> H -5.6796648184 3.1836261895 1.0023952762
| 40> H -5.2642785478 1.8391485579 -0.0699481777
| 41> H -5.718113974 1.5189987284 1.6089521316
| 42> H -3.2315879585 -2.3581199238 1.2193661186
| 43> H -3.2130181622 -1.9243860763 -0.5116788683
| 44> H -0.9557606178 -2.9764404324 -0.7373027833
| 45> H -1.0069276839 -3.4480749525 0.9709692275
| 46> H -2.1625621625 -4.1430608351 -0.1751669392
| 47> *
| 48>
| 49>                          ****END OF INPUT****

CARTESIAN COORDINATES (ANGSTROEM)
---------------------------------
  C      4.502781   -1.179899   -2.402334
  C      3.799005   -2.130783   -1.457484
  O      3.420678   -1.506138   -0.215557
  P      2.549542   -0.184884   -0.073114
  S      3.397952    1.547293   -0.397440
  O      2.098389   -0.275559    1.432676
  C      1.489580   -1.456915    2.013463
  C      0.591786   -1.013118    3.149704
  S      0.840668   -0.613429   -1.283405
  C      0.207068    1.074956   -1.300788
  S     -0.452786    1.587176    0.308215
  P     -2.260284    0.501645    0.166517
  S     -3.134679    0.534506   -1.592925
  O     -3.105486    1.054824    1.394308
  C     -3.750466    2.344622    1.371861
  C     -5.201060    2.211066    0.950378
  O     -1.855266   -0.926767    0.702641
  C     -2.590712   -2.128529    0.366120
  C     -1.608556   -3.248050    0.089010
  H      4.838955   -1.724868   -3.278500
  H      3.823250   -0.388488   -2.715466
  H      5.358281   -0.721109   -1.912311
  H      4.457171   -2.942920   -1.143945
  H      2.896952   -2.539291   -1.921141
  H      0.922539   -1.977467    1.236311
  H      2.298869   -2.099118    2.365655
  H     -0.233973   -0.416317    2.768852
  H      0.195679   -1.888215    3.654932
  H      1.158083   -0.413058    3.856218
  H     -0.586285    1.115883   -2.048248
  H      1.021345    1.760619   -1.538628
  H     -3.664679    2.714435    2.395262
  H     -3.204530    3.011080    0.698000
  H     -5.679665    3.183626    1.002395
  H     -5.264279    1.839149   -0.069948
  H     -5.718114    1.518999    1.608952
  H     -3.231588   -2.358120    1.219366
  H     -3.213018   -1.924386   -0.511679
  H     -0.955761   -2.976440   -0.737303
  H     -1.006928   -3.448075    0.970969
  H     -2.162562   -4.143061   -0.175167

 Total Charge           Charge          ....    0
 Multiplicity           Mult            ....    1
 Number of Electrons    NEL             ....  202
 Basis Dimension        Dim             ....  334

ORBITAL ENERGIES
----------------

  NO   OCC          E(Eh)            E(eV)
   0   2.0000     -88.044678     -2395.8175
   1   2.0000     -88.044589     -2395.8151
   2   2.0000     -87.992138     -2394.3878
   3   2.0000     -87.982698     -2394.1309
   4   2.0000     -76.430569     -2079.7815
   5   2.0000     -76.425931     -2079.6553
   6   2.0000     -18.797099      -511.4951
   7   2.0000     -18.796528      -511.4795
   8   2.0000     -18.796409      -511.4763
   9   2.0000     -18.788044      -511.2487
  10   2.0000      -9.960627      -271.0424
  11   2.0000      -9.957480      -270.9568
  12   2.0000      -9.956652      -270.9343
  13   2.0000      -9.952721      -270.8273
  14   2.0000      -9.950857      -270.7766
  15   2.0000      -9.891065      -269.1496
  16   2.0000      -9.884117      -268.9605
  17   2.0000      -9.883677      -268.9485
  18   2.0000      -9.880723      -268.8681
  19   2.0000      -7.689785      -209.2497
  20   2.0000      -7.689367      -209.2383
  21   2.0000      -7.637049      -207.8147
  22   2.0000      -7.628050      -207.5698
  23   2.0000      -6.428259      -174.9218
  24   2.0000      -6.423146      -174.7827
  25   2.0000      -5.717598      -155.5838
  26   2.0000      -5.716989      -155.5672
  27   2.0000      -5.714350      -155.4954
  28   2.0000      -5.713889      -155.4828
  29   2.0000      -5.706743      -155.2884
  30   2.0000      -5.706648      -155.2858
  31   2.0000      -5.665765      -154.1733
  32   2.0000      -5.657630      -153.9519
  33   2.0000      -5.657445      -153.9469
  34   2.0000      -5.657116      -153.9379
  35   2.0000      -5.648590      -153.7060
  36   2.0000      -5.648092      -153.6924
  37   2.0000      -4.650792      -126.5545
  38   2.0000      -4.650026      -126.5336
  39   2.0000      -4.648697      -126.4975
  40   2.0000      -4.646001      -126.4241
  41   2.0000      -4.645176      -126.4017
  42   2.0000      -4.643160      -126.3468
  43   2.0000      -0.991523       -26.9807
  44   2.0000      -0.988464       -26.8975
  45   2.0000      -0.950004       -25.8509
  46   2.0000      -0.943723       -25.6800
  47   2.0000      -0.767008       -20.8714
  48   2.0000      -0.724937       -19.7265
  49   2.0000      -0.713036       -19.4027
  50   2.0000      -0.690453       -18.7882
  51   2.0000      -0.689708       -18.7679
  52   2.0000      -0.677443       -18.4342
  53   2.0000      -0.651016       -17.7150
  54   2.0000      -0.639610       -17.4047
  55   2.0000      -0.599110       -16.3026
  56   2.0000      -0.589737       -16.0476
  57   2.0000      -0.575389       -15.6571
  58   2.0000      -0.568992       -15.4831
  59   2.0000      -0.562660       -15.3108
  60   2.0000      -0.512755       -13.9528
  61   2.0000      -0.503107       -13.6902
  62   2.0000      -0.484122       -13.1736
  63   2.0000      -0.474484       -12.9114
  64   2.0000      -0.461592       -12.5606
  65   2.0000      -0.445865       -12.1326
  66   2.0000      -0.441808       -12.0222
  67   2.0000      -0.434281       -11.8174
  68   2.0000      -0.432248       -11.7621
  69   2.0000      -0.418206       -11.3800
  70   2.0000      -0.411875       -11.2077
  71   2.0000      -0.403521       -10.9804
  72   2.0000      -0.393042       -10.6952
  73   2.0000      -0.387531       -10.5453
  74   2.0000      -0.384312       -10.4577
  75   2.0000      -0.376877       -10.2553
  76   2.0000      -0.364069        -9.9068
  77   2.0000      -0.356905        -9.7119
  78   2.0000      -0.352403        -9.5894
  79   2.0000      -0.350434        -9.5358
  80   2.0000      -0.347955        -9.4683
  81   2.0000      -0.344336        -9.3699
  82   2.0000      -0.343470        -9.3463
  83   2.0000      -0.338489        -9.2108
  84   2.0000      -0.337001        -9.1703
  85   2.0000      -0.322217        -8.7680
  86   2.0000      -0.314189        -8.5495
  87   2.0000      -0.302044        -8.2190
  88   2.0000      -0.298042        -8.1101
  89   2.0000      -0.294769        -8.0211
  90   2.0000      -0.292302        -7.9539
  91   2.0000      -0.281794        -7.6680
  92   2.0000      -0.275179        -7.4880
  93   2.0000      -0.268030        -7.2935
  94   2.0000      -0.257549        -7.0083
  95   2.0000      -0.237504        -6.4628
  96   2.0000      -0.223428        -6.0798
  97   2.0000      -0.211735        -5.7616
  98   2.0000      -0.205782        -5.5996
  99   2.0000      -0.200541        -5.4570
 100   2.0000      -0.197983        -5.3874
 101   0.0000      -0.045669        -1.2427
 102   0.0000      -0.025809        -0.7023
 103   0.0000      -0.008514        -0.2317
 104   0.0000      -0.003109        -0.0846
 105   0.0000       0.011576         0.3150

MULLIKEN ATOMIC CHARGES
-----------------------
   0 C :   -0.308925
   1 C :   -0.009230
   2 O :   -0.383016
   3 P :    0.597150
   4 S :   -0.307179
   5 O :   -0.349174
   6 C :   -0.020302
   7 C :   -0.286028
   8 S :   -0.108520
   9 C :   -0.377818
  10 S :   -0.053762
  11 P :    0.608992
  12 S :   -0.334274
  13 O :   -0.376646
  14 C :   -0.009636
  15 C :   -0.292262
  16 O :   -0.363791
  17 C :   -0.013268
  18 C :   -0.296556
  19 H :    0.111470
  20 H :    0.126062
  21 H :    0.127816
  22 H :    0.109059
  23 H :    0.111116
  24 H :    0.108914
  25 H :    0.104390
  26 H :    0.129237
  27 H :    0.101692
  28 H :    0.117712
  29 H :    0.193563
  30 H :    0.196948
  31 H :    0.109567
  32 H :    0.105250
  33 H :    0.109567
  34 H :    0.129264
  35 H :    0.111745
  36 H :    0.105378
  37 H :    0.111390
  38 H :    0.128580
  39 H :    0.123083
  40 H :    0.112443
Sum of atomic charges:    0.0000000

LOEWDIN ATOMIC CHARGES
----------------------
   0 C :   -0.368509
   1 C :   -0.113960
   2 O :   -0.247359
   3 P :    0.567319
   4 S :   -0.304492
   5 O :   -0.231805
   6 C :   -0.115336
   7 C :   -0.354049
   8 S :    0.069287
   9 C :   -0.489844
  10 S :    0.101287
  11 P :    0.568026
  12 S :   -0.319526
  13 O :   -0.248091
  14 C :   -0.115211
  15 C :   -0.362399
  16 O :   -0.236973
  17 C :   -0.115984
  18 C :   -0.356210
  19 H :    0.130200
  20 H :    0.121833
  21 H :    0.131088
  22 H :    0.121173
  23 H :    0.107412
  24 H :    0.103266
  25 H :    0.114200
  26 H :    0.122913
  27 H :    0.125760
  28 H :    0.128574
  29 H :    0.127691
  30 H :    0.129307
  31 H :    0.119920
  32 H :    0.109357
  33 H :    0.129732
  34 H :    0.125042
  35 H :    0.125023
  36 H :    0.115538
  37 H :    0.107804
  38 H :    0.124104
  39 H :    0.122712
  40 H :    0.131183

  Mayer bond orders larger than 0.100000
B(  0-C ,  1-C ) :   1.1667 B(  0-C , 19-H ) :   0.9349 B(  0-C , 20-H ) :   0.9325
B(  0-C , 21-H ) :   0.9434 B(  1-C ,  2-O ) :   0.9135 B(  1-C , 22-H ) :   0.9335
B(  1-C , 23-H ) :   0.9266 B(  2-O ,  3-P ) :   1.0868 B(  3-P ,  4-S ) :   1.6472
B(  3-P ,  5-O ) :   1.1452 B(  3-P ,  8-S ) :   0.9343 B(  4-S ,  8-S ) :   0.1090
B(  5-O ,  6-C ) :   0.8846 B(  6-C ,  7-C ) :   1.1689 B(  6-C , 24-H ) :   0.9036
B(  6-C , 25-H ) :   0.9324 B(  7-C , 26-H ) :   0.9376 B(  7-C , 27-H ) :   0.9405
B(  7-C , 28-H ) :   0.9473 B(  8-S ,  9-C ) :   1.0060 B(  9-C , 10-S ) :   1.0060
B(  9-C , 29-H ) :   0.8674 B(  9-C , 30-H ) :   0.8675 B( 10-S , 11-P ) :   0.9785
B( 10-S , 12-S ) :   0.1079 B( 11-P , 12-S ) :   1.5952 B( 11-P , 13-O ) :   1.1128
B( 11-P , 16-O ) :   1.1219 B( 13-O , 14-C ) :   0.9005 B( 14-C , 15-C ) :   1.1673
B( 14-C , 31-H ) :   0.9354 B( 14-C , 32-H ) :   0.9155 B( 15-C , 33-H ) :   0.9397
B( 15-C , 34-H ) :   0.9335 B( 15-C , 35-H ) :   0.9477 B( 16-O , 17-C ) :   0.8962
B( 17-C , 18-C ) :   1.1700 B( 17-C , 36-H ) :   0.9325 B( 17-C , 37-H ) :   0.9006
B( 18-C , 38-H ) :   0.9416 B( 18-C , 39-H ) :   0.9395 B( 18-C , 40-H ) :   0.9382

Dispersion correction           -0.065229855
FINAL SINGLE POINT ENERGY     -2929.523068651802

DIPOLE MOMENT
-------------

Method             : SCF
Type of density    : Electron Density
Multiplicity       :   1
Irrep              :   0
Energy             : -2929.6426681911943888 Eh
Relativity type    :
Basis              : AO
                                X                 Y                 Z
Electronic contribution:      7.077373812      12.829983134      -4.971381301
Nuclear contribution   :     -7.727741086     -14.296993912       5.422107167
                        -----------------------------------------
Total Dipole Moment    :     -0.650367274      -1.467010779       0.450725865
                        -----------------------------------------
Magnitude (a.u.)       :      1.666808934
Magnitude (Debye)      :      4.236691614

Rotational constants in cm-1:             0.013204             0.004729             0.004559
Rotational constants in MHz :           395.853402           141.761516           136.661546

                             ****ORCA TERMINATED NORMALLY****
TOTAL RUN TIME: 0 days 0 hours 0 minutes 21 seconds 509 msec
