                         Program Version 6.0.0  -   RELEASE  -
|  1> ! pbe def2-sv(p) def2/J RI DEFGRID1 loosescf d4 GCP(DFT/SV(P)) printgap
|  2> %output
|  3>     printlevel normal
|  4> end
|  5> * xyz 0 1
|  6> C 5.8997597778 -0.2795250148 -1.0313769156
|  7> C 4.5830530697 0.4646270535 -0.944173648
|  8> O 3.6217554073 -0.4084810219 -0.3139311337
|  9> P 2.2636529161 0.1636645354 0.2809816697
| 10> S 2.4517506331 1.6669453848 1.5144013514
| 11> O 1.6391556937 -1.1139530791 0.9545881125
| 12> C 1.6339812904 -2.4191976894 0.3139020611
| 13> C 0.7955436455 -3.3454100149 1.1671976076
| 14> S 1.1365180563 0.5693775154 -1.4862342032
| 15> C -0.0271717482 1.7380157752 -0.7248984033
| 16> S -0.9297662949 1.057696496 0.6864220147
| 17> P -2.3198910146 -0.1446003006 -0.4175517334
| 18> S -1.5838434229 -1.7143209077 -1.32348736
| 19> O -3.0161483879 0.8436362449 -1.4329874175
| 20> C -4.14187964 1.7092932948 -1.1394581605
| 21> C -3.809234044 2.786712634 -0.1289923697
| 22> O -3.471436371 -0.459320113 0.629957408
| 23> C -3.4005661003 -1.5841418844 1.5229562291
| 24> C -2.472863545 -1.3165189498 2.6909891585
| 25> H 5.7760320744 -1.1874145167 -1.6145825449
| 26> H 6.6363467566 0.3576112552 -1.5095195268
| 27> H 6.2454366087 -0.5432439891 -0.0358211918
| 28> H 4.2042802112 0.7275102495 -1.9355668518
| 29> H 4.6733512211 1.3739213289 -0.3408162768
| 30> H 1.2111088168 -2.3151223227 -0.6899301075
| 31> H 2.6678912634 -2.7592372453 0.241085145
| 32> H -0.2455445593 -3.0358691766 1.1413362812
| 33> H 0.8708308392 -4.3524331619 0.7704981236
| 34> H 1.1492023948 -3.3291170445 2.1940077601
| 35> H -0.7203821068 2.033921021 -1.5094459234
| 36> H 0.530693299 2.5899539145 -0.3375593477
| 37> H -4.3865924161 2.1330729281 -2.1148255721
| 38> H -4.9656853475 1.0870767379 -0.7865033184
| 39> H -3.5757134862 2.3429827042 0.8361282338
| 40> H -2.9581734914 3.3772348485 -0.459232879
| 41> H -4.6696790783 3.4394053766 -0.0178399634
| 42> H -4.4302160256 -1.7242950931 1.8552211446
| 43> H -3.0727592191 -2.4599083181 0.9525660875
| 44> H -2.7799071107 -0.4189322999 3.2210954633
| 45> H -2.498486005 -2.1620598976 3.3709253619
| 46> H -1.4506625412 -1.1756275903 2.3412586482
| 47> *
| 48>
| 49>                          ****END OF INPUT****

CARTESIAN COORDINATES (ANGSTROEM)
---------------------------------
  C      5.899760   -0.279525   -1.031377
  C      4.583053    0.464627   -0.944174
  O      3.621755   -0.408481   -0.313931
  P      2.263653    0.163665    0.280982
  S      2.451751    1.666945    1.514401
  O      1.639156   -1.113953    0.954588
  C      1.633981   -2.419198    0.313902
  C      0.795544   -3.345410    1.167198
  S      1.136518    0.569378   -1.486234
  C     -0.027172    1.738016   -0.724898
  S     -0.929766    1.057696    0.686422
  P     -2.319891   -0.144600   -0.417552
  S     -1.583843   -1.714321   -1.323487
  O     -3.016148    0.843636   -1.432987
  C     -4.141880    1.709293   -1.139458
  C     -3.809234    2.786713   -0.128992
  O     -3.471436   -0.459320    0.629957
  C     -3.400566   -1.584142    1.522956
  C     -2.472864   -1.316519    2.690989
  H      5.776032   -1.187415   -1.614583
  H      6.636347    0.357611   -1.509520
  H      6.245437   -0.543244   -0.035821
  H      4.204280    0.727510   -1.935567
  H      4.673351    1.373921   -0.340816
  H      1.211109   -2.315122   -0.689930
  H      2.667891   -2.759237    0.241085
  H     -0.245545   -3.035869    1.141336
  H      0.870831   -4.352433    0.770498
  H      1.149202   -3.329117    2.194008
  H     -0.720382    2.033921   -1.509446
  H      0.530693    2.589954   -0.337559
  H     -4.386592    2.133073   -2.114826
  H     -4.965685    1.087077   -0.786503
  H     -3.575713    2.342983    0.836128
  H     -2.958173    3.377235   -0.459233
  H     -4.669679    3.439405   -0.017840
  H     -4.430216   -1.724295    1.855221
  H     -3.072759   -2.459908    0.952566
  H     -2.779907   -0.418932    3.221095
  H     -2.498486   -2.162060    3.370925
  H     -1.450663   -1.175628    2.341259

 Total Charge           Charge          ....    0
 Multiplicity           Mult            ....    1
 Number of Electrons    NEL             ....  202
 Basis Dimension        Dim             ....  334

ORBITAL ENERGIES
----------------

  NO   OCC          E(Eh)            E(eV)
   0   2.0000     -88.039921     -2395.6881
   1   2.0000     -88.033470     -2395.5125
   2   2.0000     -87.983015     -2394.1396
   3   2.0000     -87.980632     -2394.0747
   4   2.0000     -76.427555     -2079.6995
   5   2.0000     -76.420512     -2079.5078
   6   2.0000     -18.799748      -511.5672
   7   2.0000     -18.795603      -511.4544
   8   2.0000     -18.790466      -511.3146
   9   2.0000     -18.785317      -511.1745
  10   2.0000      -9.961362      -271.0624
  11   2.0000      -9.956997      -270.9437
  12   2.0000      -9.954002      -270.8622
  13   2.0000      -9.950800      -270.7750
  14   2.0000      -9.943870      -270.5865
  15   2.0000      -9.890960      -269.1467
  16   2.0000      -9.887554      -269.0540
  17   2.0000      -9.887054      -269.0404
  18   2.0000      -9.878268      -268.8013
  19   2.0000      -7.684071      -209.0942
  20   2.0000      -7.678641      -208.9464
  21   2.0000      -7.628120      -207.5717
  22   2.0000      -7.625971      -207.5132
  23   2.0000      -6.425019      -174.8337
  24   2.0000      -6.417986      -174.6423
  25   2.0000      -5.711887      -155.4284
  26   2.0000      -5.708842      -155.3455
  27   2.0000      -5.706424      -155.2797
  28   2.0000      -5.703224      -155.1926
  29   2.0000      -5.700980      -155.1316
  30   2.0000      -5.695632      -154.9860
  31   2.0000      -5.657017      -153.9352
  32   2.0000      -5.654919      -153.8782
  33   2.0000      -5.649005      -153.7172
  34   2.0000      -5.647989      -153.6896
  35   2.0000      -5.646544      -153.6503
  36   2.0000      -5.646111      -153.6385
  37   2.0000      -4.648380      -126.4888
  38   2.0000      -4.646612      -126.4407
  39   2.0000      -4.644903      -126.3942
  40   2.0000      -4.640908      -126.2855
  41   2.0000      -4.639719      -126.2532
  42   2.0000      -4.638179      -126.2113
  43   2.0000      -0.993210       -27.0266
  44   2.0000      -0.983892       -26.7731
  45   2.0000      -0.950164       -25.8553
  46   2.0000      -0.939185       -25.5565
  47   2.0000      -0.759995       -20.6805
  48   2.0000      -0.720717       -19.6117
  49   2.0000      -0.710263       -19.3272
  50   2.0000      -0.695234       -18.9183
  51   2.0000      -0.687142       -18.6981
  52   2.0000      -0.671625       -18.2758
  53   2.0000      -0.647683       -17.6243
  54   2.0000      -0.634216       -17.2579
  55   2.0000      -0.596768       -16.2389
  56   2.0000      -0.584122       -15.8948
  57   2.0000      -0.579862       -15.7788
  58   2.0000      -0.563313       -15.3285
  59   2.0000      -0.560486       -15.2516
  60   2.0000      -0.506758       -13.7896
  61   2.0000      -0.500538       -13.6203
  62   2.0000      -0.477919       -13.0048
  63   2.0000      -0.477171       -12.9845
  64   2.0000      -0.463469       -12.6116
  65   2.0000      -0.449927       -12.2431
  66   2.0000      -0.438317       -11.9272
  67   2.0000      -0.432147       -11.7593
  68   2.0000      -0.430926       -11.7261
  69   2.0000      -0.417704       -11.3663
  70   2.0000      -0.404600       -11.0097
  71   2.0000      -0.400542       -10.8993
  72   2.0000      -0.388736       -10.5780
  73   2.0000      -0.381195       -10.3728
  74   2.0000      -0.374986       -10.2039
  75   2.0000      -0.370930       -10.0935
  76   2.0000      -0.364888        -9.9291
  77   2.0000      -0.361286        -9.8311
  78   2.0000      -0.356565        -9.7026
  79   2.0000      -0.353987        -9.6325
  80   2.0000      -0.346370        -9.4252
  81   2.0000      -0.344762        -9.3814
  82   2.0000      -0.342304        -9.3146
  83   2.0000      -0.333250        -9.0682
  84   2.0000      -0.330913        -9.0046
  85   2.0000      -0.325330        -8.8527
  86   2.0000      -0.310167        -8.4401
  87   2.0000      -0.301937        -8.2161
  88   2.0000      -0.299812        -8.1583
  89   2.0000      -0.296691        -8.0734
  90   2.0000      -0.293478        -7.9859
  91   2.0000      -0.276207        -7.5160
  92   2.0000      -0.266283        -7.2459
  93   2.0000      -0.261556        -7.1173
  94   2.0000      -0.253372        -6.8946
  95   2.0000      -0.238592        -6.4924
  96   2.0000      -0.214835        -5.8460
  97   2.0000      -0.206462        -5.6181
  98   2.0000      -0.200630        -5.4594
  99   2.0000      -0.194720        -5.2986
 100   2.0000      -0.185852        -5.0573
 101   0.0000      -0.042356        -1.1526
 102   0.0000      -0.025709        -0.6996
 103   0.0000      -0.007376        -0.2007
 104   0.0000       0.006945         0.1890
 105   0.0000       0.016281         0.4430

MULLIKEN ATOMIC CHARGES
-----------------------
   0 C :   -0.280492
   1 C :   -0.009039
   2 O :   -0.389841
   3 P :    0.611776
   4 S :   -0.322863
   5 O :   -0.357127
   6 C :   -0.020445
   7 C :   -0.291997
   8 S :   -0.091147
   9 C :   -0.356766
  10 S :   -0.081579
  11 P :    0.608043
  12 S :   -0.307024
  13 O :   -0.374337
  14 C :    0.006118
  15 C :   -0.319413
  16 O :   -0.383266
  17 C :   -0.013941
  18 C :   -0.337038
  19 H :    0.115208
  20 H :    0.111997
  21 H :    0.120574
  22 H :    0.102947
  23 H :    0.104735
  24 H :    0.121970
  25 H :    0.104082
  26 H :    0.127528
  27 H :    0.105929
  28 H :    0.114452
  29 H :    0.181057
  30 H :    0.193658
  31 H :    0.111251
  32 H :    0.112002
  33 H :    0.131577
  34 H :    0.119486
  35 H :    0.114199
  36 H :    0.105594
  37 H :    0.117805
  38 H :    0.119496
  39 H :    0.116441
  40 H :    0.158391
Sum of atomic charges:    0.0000000

LOEWDIN ATOMIC CHARGES
----------------------
   0 C :   -0.350507
   1 C :   -0.120363
   2 O :   -0.251202
   3 P :    0.567900
   4 S :   -0.319760
   5 O :   -0.233930
   6 C :   -0.115713
   7 C :   -0.354201
   8 S :    0.064308
   9 C :   -0.482240
  10 S :    0.092630
  11 P :    0.567909
  12 S :   -0.303158
  13 O :   -0.244001
  14 C :   -0.107332
  15 C :   -0.368487
  16 O :   -0.245261
  17 C :   -0.120363
  18 C :   -0.370409
  19 H :    0.126023
  20 H :    0.130968
  21 H :    0.128981
  22 H :    0.108686
  23 H :    0.108982
  24 H :    0.108658
  25 H :    0.110684
  26 H :    0.120854
  27 H :    0.129817
  28 H :    0.126145
  29 H :    0.129058
  30 H :    0.132130
  31 H :    0.122285
  32 H :    0.116461
  33 H :    0.121897
  34 H :    0.125415
  35 H :    0.131834
  36 H :    0.118985
  37 H :    0.109833
  38 H :    0.126891
  39 H :    0.133467
  40 H :    0.126125

  Mayer bond orders larger than 0.100000
B(  0-C ,  1-C ) :   1.1596 B(  0-C , 19-H ) :   0.9511 B(  0-C , 20-H ) :   0.9420
B(  0-C , 21-H ) :   0.9509 B(  1-C ,  2-O ) :   0.9048 B(  1-C , 22-H ) :   0.9274
B(  1-C , 23-H ) :   0.9105 B(  2-O ,  3-P ) :   1.0799 B(  3-P ,  4-S ) :   1.6337
B(  3-P ,  5-O ) :   1.1451 B(  3-P ,  8-S ) :   0.9581 B(  4-S ,  8-S ) :   0.1114
B(  5-O ,  6-C ) :   0.8861 B(  6-C ,  7-C ) :   1.1699 B(  6-C , 24-H ) :   0.9073
B(  6-C , 25-H ) :   0.9291 B(  7-C , 26-H ) :   0.9307 B(  7-C , 27-H ) :   0.9395
B(  7-C , 28-H ) :   0.9489 B(  8-S ,  9-C ) :   1.0021 B(  9-C , 10-S ) :   1.0025
B(  9-C , 29-H ) :   0.8936 B(  9-C , 30-H ) :   0.8865 B( 10-S , 11-P ) :   0.9458
B( 10-S , 12-S ) :   0.1119 B( 11-P , 12-S ) :   1.6714 B( 11-P , 13-O ) :   1.1074
B( 11-P , 16-O ) :   1.0712 B( 13-O , 14-C ) :   0.8935 B( 14-C , 15-C ) :   1.1695
B( 14-C , 31-H ) :   0.9355 B( 14-C , 32-H ) :   0.9272 B( 15-C , 33-H ) :   0.9363
B( 15-C , 34-H ) :   0.9457 B( 15-C , 35-H ) :   0.9352 B( 16-O , 17-C ) :   0.9046
B( 17-C , 18-C ) :   1.1666 B( 17-C , 36-H ) :   0.9319 B( 17-C , 37-H ) :   0.9099
B( 18-C , 38-H ) :   0.9443 B( 18-C , 39-H ) :   0.9387 B( 18-C , 40-H ) :   0.9215

Dispersion correction           -0.065500846
FINAL SINGLE POINT ENERGY     -2929.518804133505

DIPOLE MOMENT
-------------

Method             : SCF
Type of density    : Electron Density
Multiplicity       :   1
Irrep              :   0
Energy             : -2929.6379914681774608 Eh
Relativity type    :
Basis              : AO
                                X                 Y                 Z
Electronic contribution:      0.961387265       5.726100125      -5.521349978
Nuclear contribution   :     -1.677066932      -5.709183527       5.365189607
                        -----------------------------------------
Total Dipole Moment    :     -0.715679667       0.016916598      -0.156160371
                        -----------------------------------------
Magnitude (a.u.)       :      0.732713872
Magnitude (Debye)      :      1.862410655

Rotational constants in cm-1:             0.012761             0.005034             0.004551
Rotational constants in MHz :           382.561926           150.906703           136.430490

                             ****ORCA TERMINATED NORMALLY****
TOTAL RUN TIME: 0 days 0 hours 0 minutes 21 seconds 184 msec
