                         Program Version 6.0.0  -   RELEASE  -
|  1> ! pbe def2-sv(p) def2/J RI DEFGRID1 loosescf d4 GCP(DFT/SV(P)) printgap
|  2> %output
|  3>     printlevel normal
|  4> end
|  5> * xyz 0 1
|  6> C 4.6864049812 1.549490625 -0.0925018888
|  7> C 3.9724509072 1.0322134548 -1.324177115
|  8> O 3.1453373997 -0.1156523373 -1.0557042479
|  9> P 2.0613332635 -0.2305024944 0.0977710001
| 10> S 2.7070323577 -0.584675787 1.9191426556
| 11> O 1.1201551439 -1.3610776524 -0.4895391649
| 12> C 1.2181023825 -2.7402603036 -0.0940453618
| 13> C 2.4878582691 -3.3736674462 -0.6208006748
| 14> S 0.8737263276 1.4941532262 -0.1626720924
| 15> C 0.01565994 1.3945339849 1.4290616143
| 16> S -1.0449740965 -0.0713060112 1.5930725416
| 17> P -2.2560285243 0.1672151855 -0.1328705361
| 18> S -1.6791850565 -0.4887481724 -1.8925436641
| 19> O -2.5612060994 1.7128699036 -0.0202138638
| 20> C -2.8313883082 2.5694019217 -1.1536983839
| 21> C -1.9505431761 3.7994371747 -1.0640653536
| 22> O -3.6453291705 -0.4637685719 0.326164285
| 23> C -3.9592151332 -1.8502164611 0.1257008416
| 24> C -3.1209113695 -2.7457110628 1.0156848741
| 25> H 3.9645822271 1.9279269928 0.6302620045
| 26> H 5.2591305348 0.753395111 0.3775203051
| 27> H 5.3565206511 2.354142255 -0.3775580985
| 28> H 4.6787691949 0.6681197946 -2.072544855
| 29> H 3.3394593441 1.8098824529 -1.7612984795
| 30> H 1.1773268192 -2.7938024678 0.9995201036
| 31> H 0.3261438272 -3.1998943352 -0.5238428261
| 32> H 2.5049404641 -4.4262138218 -0.3564841853
| 33> H 2.5379347513 -3.2665470029 -1.7012122856
| 34> H 3.3521680035 -2.8789044829 -0.1781113145
| 35> H -0.5846700929 2.2953775075 1.5246400466
| 36> H 0.7495051307 1.3141995256 2.2322152647
| 37> H -2.6385305557 2.0087584452 -2.0746957777
| 38> H -3.8904350193 2.8283315077 -1.1004881523
| 39> H -0.9010344706 3.5141436827 -1.1069785688
| 40> H -2.1753353758 4.4560608837 -1.8981030124
| 41> H -2.1371378962 4.3268364063 -0.1329553067
| 42> H -5.0210540551 -1.9207675558 0.3643260061
| 43> H -3.7963795486 -2.092376796 -0.9301211304
| 44> H -3.2397139586 -2.4620809457 2.0583251756
| 45> H -3.4241568801 -3.7791960139 0.8832395733
| 46> H -2.0679986139 -2.6468283881 0.7484445843
| 47> *
| 48>
| 49>                          ****END OF INPUT****

CARTESIAN COORDINATES (ANGSTROEM)
---------------------------------
  C      4.686405    1.549491   -0.092502
  C      3.972451    1.032213   -1.324177
  O      3.145337   -0.115652   -1.055704
  P      2.061333   -0.230502    0.097771
  S      2.707032   -0.584676    1.919143
  O      1.120155   -1.361078   -0.489539
  C      1.218102   -2.740260   -0.094045
  C      2.487858   -3.373667   -0.620801
  S      0.873726    1.494153   -0.162672
  C      0.015660    1.394534    1.429062
  S     -1.044974   -0.071306    1.593073
  P     -2.256029    0.167215   -0.132871
  S     -1.679185   -0.488748   -1.892544
  O     -2.561206    1.712870   -0.020214
  C     -2.831388    2.569402   -1.153698
  C     -1.950543    3.799437   -1.064065
  O     -3.645329   -0.463769    0.326164
  C     -3.959215   -1.850216    0.125701
  C     -3.120911   -2.745711    1.015685
  H      3.964582    1.927927    0.630262
  H      5.259131    0.753395    0.377520
  H      5.356521    2.354142   -0.377558
  H      4.678769    0.668120   -2.072545
  H      3.339459    1.809882   -1.761298
  H      1.177327   -2.793802    0.999520
  H      0.326144   -3.199894   -0.523843
  H      2.504940   -4.426214   -0.356484
  H      2.537935   -3.266547   -1.701212
  H      3.352168   -2.878904   -0.178111
  H     -0.584670    2.295378    1.524640
  H      0.749505    1.314200    2.232215
  H     -2.638531    2.008758   -2.074696
  H     -3.890435    2.828332   -1.100488
  H     -0.901034    3.514144   -1.106979
  H     -2.175335    4.456061   -1.898103
  H     -2.137138    4.326836   -0.132955
  H     -5.021054   -1.920768    0.364326
  H     -3.796380   -2.092377   -0.930121
  H     -3.239714   -2.462081    2.058325
  H     -3.424157   -3.779196    0.883240
  H     -2.067999   -2.646828    0.748445

 Total Charge           Charge          ....    0
 Multiplicity           Mult            ....    1
 Number of Electrons    NEL             ....  202
 Basis Dimension        Dim             ....  334

ORBITAL ENERGIES
----------------

  NO   OCC          E(Eh)            E(eV)
   0   2.0000     -88.045682     -2395.8448
   1   2.0000     -88.039069     -2395.6649
   2   2.0000     -87.984910     -2394.1911
   3   2.0000     -87.980661     -2394.0755
   4   2.0000     -76.425542     -2079.6447
   5   2.0000     -76.423182     -2079.5805
   6   2.0000     -18.792981      -511.3830
   7   2.0000     -18.792279      -511.3639
   8   2.0000     -18.785802      -511.1877
   9   2.0000     -18.780418      -511.0412
  10   2.0000      -9.958326      -270.9798
  11   2.0000      -9.957458      -270.9562
  12   2.0000      -9.952522      -270.8219
  13   2.0000      -9.949131      -270.7296
  14   2.0000      -9.942144      -270.5395
  15   2.0000      -9.889024      -269.0940
  16   2.0000      -9.885638      -269.0019
  17   2.0000      -9.883767      -268.9510
  18   2.0000      -9.876313      -268.7481
  19   2.0000      -7.690429      -209.2672
  20   2.0000      -7.684082      -209.0945
  21   2.0000      -7.629883      -207.6197
  22   2.0000      -7.625663      -207.5048
  23   2.0000      -6.422685      -174.7701
  24   2.0000      -6.420661      -174.7151
  25   2.0000      -5.718205      -155.6003
  26   2.0000      -5.714992      -155.5128
  27   2.0000      -5.712264      -155.4386
  28   2.0000      -5.708576      -155.3382
  29   2.0000      -5.707450      -155.3076
  30   2.0000      -5.700764      -155.1257
  31   2.0000      -5.658711      -153.9814
  32   2.0000      -5.654507      -153.8670
  33   2.0000      -5.650703      -153.7635
  34   2.0000      -5.649950      -153.7429
  35   2.0000      -5.646514      -153.6495
  36   2.0000      -5.645684      -153.6269
  37   2.0000      -4.645170      -126.4015
  38   2.0000      -4.644568      -126.3851
  39   2.0000      -4.643357      -126.3522
  40   2.0000      -4.643186      -126.3475
  41   2.0000      -4.642456      -126.3277
  42   2.0000      -4.640953      -126.2868
  43   2.0000      -0.984527       -26.7903
  44   2.0000      -0.982990       -26.7485
  45   2.0000      -0.944321       -25.6963
  46   2.0000      -0.940765       -25.5995
  47   2.0000      -0.764920       -20.8145
  48   2.0000      -0.720601       -19.6086
  49   2.0000      -0.708030       -19.2665
  50   2.0000      -0.686591       -18.6831
  51   2.0000      -0.684339       -18.6218
  52   2.0000      -0.671706       -18.2781
  53   2.0000      -0.649847       -17.6832
  54   2.0000      -0.638395       -17.3716
  55   2.0000      -0.598449       -16.2846
  56   2.0000      -0.592377       -16.1194
  57   2.0000      -0.572325       -15.5738
  58   2.0000      -0.571690       -15.5565
  59   2.0000      -0.560591       -15.2545
  60   2.0000      -0.501491       -13.6463
  61   2.0000      -0.492003       -13.3881
  62   2.0000      -0.471248       -12.8233
  63   2.0000      -0.466087       -12.6829
  64   2.0000      -0.459972       -12.5165
  65   2.0000      -0.441088       -12.0026
  66   2.0000      -0.438943       -11.9442
  67   2.0000      -0.431233       -11.7344
  68   2.0000      -0.427770       -11.6402
  69   2.0000      -0.417449       -11.3594
  70   2.0000      -0.412704       -11.2303
  71   2.0000      -0.394004       -10.7214
  72   2.0000      -0.390436       -10.6243
  73   2.0000      -0.386111       -10.5066
  74   2.0000      -0.383104       -10.4248
  75   2.0000      -0.375961       -10.2304
  76   2.0000      -0.370366       -10.0782
  77   2.0000      -0.358487        -9.7549
  78   2.0000      -0.354772        -9.6538
  79   2.0000      -0.347227        -9.4485
  80   2.0000      -0.345854        -9.4112
  81   2.0000      -0.343528        -9.3479
  82   2.0000      -0.341986        -9.3059
  83   2.0000      -0.338919        -9.2225
  84   2.0000      -0.331334        -9.0160
  85   2.0000      -0.319516        -8.6945
  86   2.0000      -0.307355        -8.3636
  87   2.0000      -0.296653        -8.0723
  88   2.0000      -0.294740        -8.0203
  89   2.0000      -0.284409        -7.7392
  90   2.0000      -0.282349        -7.6831
  91   2.0000      -0.273350        -7.4382
  92   2.0000      -0.268758        -7.3133
  93   2.0000      -0.260886        -7.0991
  94   2.0000      -0.258545        -7.0354
  95   2.0000      -0.235405        -6.4057
  96   2.0000      -0.218707        -5.9513
  97   2.0000      -0.207074        -5.6348
  98   2.0000      -0.199401        -5.4260
  99   2.0000      -0.196126        -5.3369
 100   2.0000      -0.189755        -5.1635
 101   0.0000      -0.049103        -1.3362
 102   0.0000      -0.025117        -0.6835
 103   0.0000      -0.016062        -0.4371
 104   0.0000       0.000473         0.0129
 105   0.0000       0.017419         0.4740

MULLIKEN ATOMIC CHARGES
-----------------------
   0 C :   -0.310023
   1 C :   -0.009830
   2 O :   -0.370913
   3 P :    0.626868
   4 S :   -0.337488
   5 O :   -0.342568
   6 C :   -0.020822
   7 C :   -0.296457
   8 S :   -0.106919
   9 C :   -0.343628
  10 S :   -0.091405
  11 P :    0.608411
  12 S :   -0.315639
  13 O :   -0.377113
  14 C :   -0.003464
  15 C :   -0.306942
  16 O :   -0.367199
  17 C :    0.000861
  18 C :   -0.342822
  19 H :    0.122883
  20 H :    0.127196
  21 H :    0.111073
  22 H :    0.110545
  23 H :    0.113397
  24 H :    0.111681
  25 H :    0.113526
  26 H :    0.107558
  27 H :    0.116185
  28 H :    0.120485
  29 H :    0.188369
  30 H :    0.192253
  31 H :    0.112365
  32 H :    0.106533
  33 H :    0.129114
  34 H :    0.113697
  35 H :    0.116438
  36 H :    0.104993
  37 H :    0.108091
  38 H :    0.123516
  39 H :    0.114802
  40 H :    0.142394
Sum of atomic charges:    0.0000000

LOEWDIN ATOMIC CHARGES
----------------------
   0 C :   -0.370168
   1 C :   -0.112752
   2 O :   -0.241936
   3 P :    0.576691
   4 S :   -0.321974
   5 O :   -0.227206
   6 C :   -0.121313
   7 C :   -0.364038
   8 S :    0.088448
   9 C :   -0.475788
  10 S :    0.087706
  11 P :    0.565840
  12 S :   -0.309286
  13 O :   -0.243863
  14 C :   -0.115757
  15 C :   -0.358161
  16 O :   -0.247291
  17 C :   -0.121748
  18 C :   -0.371352
  19 H :    0.119783
  20 H :    0.129899
  21 H :    0.129793
  22 H :    0.122318
  23 H :    0.109905
  24 H :    0.107775
  25 H :    0.116935
  26 H :    0.128467
  27 H :    0.126433
  28 H :    0.121295
  29 H :    0.132899
  30 H :    0.130555
  31 H :    0.108518
  32 H :    0.117091
  33 H :    0.119600
  34 H :    0.132245
  35 H :    0.124536
  36 H :    0.118703
  37 H :    0.107816
  38 H :    0.126878
  39 H :    0.131896
  40 H :    0.120608

  Mayer bond orders larger than 0.100000
B(  0-C ,  1-C ) :   1.1635 B(  0-C , 19-H ) :   0.9331 B(  0-C , 20-H ) :   0.9422
B(  0-C , 21-H ) :   0.9348 B(  1-C ,  2-O ) :   0.9146 B(  1-C , 22-H ) :   0.9343
B(  1-C , 23-H ) :   0.9287 B(  2-O ,  3-P ) :   1.1151 B(  3-P ,  4-S ) :   1.5897
B(  3-P ,  5-O ) :   1.1446 B(  3-P ,  8-S ) :   0.9370 B(  4-S ,  8-S ) :   0.1069
B(  5-O ,  6-C ) :   0.9073 B(  6-C ,  7-C ) :   1.1620 B(  6-C , 24-H ) :   0.9145
B(  6-C , 25-H ) :   0.9234 B(  7-C , 26-H ) :   0.9401 B(  7-C , 27-H ) :   0.9456
B(  7-C , 28-H ) :   0.9349 B(  8-S ,  9-C ) :   1.0141 B(  9-C , 10-S ) :   1.0035
B(  9-C , 29-H ) :   0.8996 B(  9-C , 30-H ) :   0.8797 B( 10-S , 11-P ) :   0.9514
B( 10-S , 12-S ) :   0.1075 B( 11-P , 12-S ) :   1.6323 B( 11-P , 13-O ) :   1.1149
B( 11-P , 16-O ) :   1.1059 B( 13-O , 14-C ) :   0.8963 B( 14-C , 15-C ) :   1.1645
B( 14-C , 31-H ) :   0.8999 B( 14-C , 32-H ) :   0.9334 B( 15-C , 33-H ) :   0.9387
B( 15-C , 34-H ) :   0.9398 B( 15-C , 35-H ) :   0.9481 B( 16-O , 17-C ) :   0.9168
B( 17-C , 18-C ) :   1.1602 B( 17-C , 36-H ) :   0.9327 B( 17-C , 37-H ) :   0.9114
B( 18-C , 38-H ) :   0.9431 B( 18-C , 39-H ) :   0.9388 B( 18-C , 40-H ) :   0.9280

Dispersion correction           -0.067505412
FINAL SINGLE POINT ENERGY     -2929.517383148398

DIPOLE MOMENT
-------------

Method             : SCF
Type of density    : Electron Density
Multiplicity       :   1
Irrep              :   0
Energy             : -2929.6342614744062303 Eh
Relativity type    :
Basis              : AO
                                X                 Y                 Z
Electronic contribution:     -3.528417995       1.605440902       3.765509879
Nuclear contribution   :      3.282089156      -1.091598489      -4.153279027
                        -----------------------------------------
Total Dipole Moment    :     -0.246328839       0.513842413      -0.387769148
                        -----------------------------------------
Magnitude (a.u.)       :      0.689258177
Magnitude (Debye)      :      1.751955056

Rotational constants in cm-1:             0.011318             0.005927             0.004893
Rotational constants in MHz :           339.308909           177.688952           146.683629

                             ****ORCA TERMINATED NORMALLY****
TOTAL RUN TIME: 0 days 0 hours 0 minutes 21 seconds 408 msec
