                         Program Version 6.0.0  -   RELEASE  -
|  1> ! pbe def2-sv(p) def2/J RI DEFGRID1 loosescf d4 GCP(DFT/SV(P)) printgap
|  2> %output
|  3>     printlevel normal
|  4> end
|  5> * xyz 0 1
|  6> C 2.4594133647 -0.3997156522 -3.0286299395
|  7> C 3.1958368071 -1.4108756072 -2.1751374312
|  8> O 3.3990501502 -0.9528801977 -0.8246772972
|  9> P 2.2565028149 -0.3876798741 0.1222700173
| 10> S 1.8051524651 1.517133313 -0.0853233674
| 11> O 2.8050864923 -0.7433334528 1.5699722253
| 12> C 3.5997328972 0.181430527 2.3361814444
| 13> C 4.984274937 0.33412483 1.7437328447
| 14> S 0.7411396203 -1.8398479064 -0.0377759591
| 15> C -0.3451748433 -1.2380752897 1.3014027883
| 16> S -2.0834349727 -1.2516468836 0.826000569
| 17> P -2.1133183653 0.7235799853 0.019671704
| 18> S -1.5205999308 2.0835210293 1.3005125545
| 19> O -3.5765446033 0.9096618706 -0.5606152
| 20> C -4.6732860205 1.371866639 0.2490910216
| 21> C -5.0519368682 0.3739354206 1.3234108765
| 22> O -1.2236036436 0.6805994956 -1.2833072405
| 23> C -1.6718048705 0.2446352515 -2.5926206873
| 24> C -2.0064332975 -1.2316875339 -2.6324492937
| 25> H 2.3563643597 -0.7823743666 -4.0388260659
| 26> H 1.4696103632 -0.2176666096 -2.6102373866
| 27> H 2.9982026133 0.5448916286 -3.050702146
| 28> H 4.2080408335 -1.5865966601 -2.543356017
| 29> H 2.6458684788 -2.3553316245 -2.1315236554
| 30> H 3.0820977204 1.1466308465 2.3656718471
| 31> H 3.6263761981 -0.256257937 3.3348857337
| 32> H 4.9062834155 0.7723774936 0.7491026403
| 33> H 5.5793238056 0.9864676198 2.3749748621
| 34> H 5.4665226524 -0.6361732466 1.6624813678
| 35> H -0.0572621035 -0.2146519041 1.5581199705
| 36> H -0.2365983967 -1.9046972937 2.1524485
| 37> H -4.3923426231 2.3303666274 0.6961292839
| 38> H -5.4804850063 1.5179512406 -0.4701443476
| 39> H -4.2553706384 0.3037968814 2.0623020239
| 40> H -5.959852588 0.7066718725 1.8159768496
| 41> H -5.2145933392 -0.609143654 0.8893868632
| 42> H -2.5341236057 0.8508442656 -2.875024592
| 43> H -0.8243894734 0.4872305228 -3.2366015254
| 44> H -2.2191995203 -1.5135985724 -3.6588480431
| 45> H -1.1719968265 -1.8247230888 -2.2642959188
| 46> H -2.8808184994 -1.4375675158 -2.0190354381
| 47> *
| 48>
| 49>                          ****END OF INPUT****

CARTESIAN COORDINATES (ANGSTROEM)
---------------------------------
  C      2.459413   -0.399716   -3.028630
  C      3.195837   -1.410876   -2.175137
  O      3.399050   -0.952880   -0.824677
  P      2.256503   -0.387680    0.122270
  S      1.805152    1.517133   -0.085323
  O      2.805086   -0.743333    1.569972
  C      3.599733    0.181431    2.336181
  C      4.984275    0.334125    1.743733
  S      0.741140   -1.839848   -0.037776
  C     -0.345175   -1.238075    1.301403
  S     -2.083435   -1.251647    0.826001
  P     -2.113318    0.723580    0.019672
  S     -1.520600    2.083521    1.300513
  O     -3.576545    0.909662   -0.560615
  C     -4.673286    1.371867    0.249091
  C     -5.051937    0.373935    1.323411
  O     -1.223604    0.680599   -1.283307
  C     -1.671805    0.244635   -2.592621
  C     -2.006433   -1.231688   -2.632449
  H      2.356364   -0.782374   -4.038826
  H      1.469610   -0.217667   -2.610237
  H      2.998203    0.544892   -3.050702
  H      4.208041   -1.586597   -2.543356
  H      2.645868   -2.355332   -2.131524
  H      3.082098    1.146631    2.365672
  H      3.626376   -0.256258    3.334886
  H      4.906283    0.772377    0.749103
  H      5.579324    0.986468    2.374975
  H      5.466523   -0.636173    1.662481
  H     -0.057262   -0.214652    1.558120
  H     -0.236598   -1.904697    2.152449
  H     -4.392343    2.330367    0.696129
  H     -5.480485    1.517951   -0.470144
  H     -4.255371    0.303797    2.062302
  H     -5.959853    0.706672    1.815977
  H     -5.214593   -0.609144    0.889387
  H     -2.534124    0.850844   -2.875025
  H     -0.824389    0.487231   -3.236602
  H     -2.219200   -1.513599   -3.658848
  H     -1.171997   -1.824723   -2.264296
  H     -2.880818   -1.437568   -2.019035

 Total Charge           Charge          ....    0
 Multiplicity           Mult            ....    1
 Number of Electrons    NEL             ....  202
 Basis Dimension        Dim             ....  334

ORBITAL ENERGIES
----------------

  NO   OCC          E(Eh)            E(eV)
   0   2.0000     -88.041475     -2395.7303
   1   2.0000     -88.039498     -2395.6765
   2   2.0000     -87.977846     -2393.9989
   3   2.0000     -87.974762     -2393.9150
   4   2.0000     -76.424333     -2079.6118
   5   2.0000     -76.420149     -2079.4980
   6   2.0000     -18.798964      -511.5458
   7   2.0000     -18.789619      -511.2915
   8   2.0000     -18.787142      -511.2241
   9   2.0000     -18.782830      -511.1068
  10   2.0000      -9.959654      -271.0160
  11   2.0000      -9.956356      -270.9262
  12   2.0000      -9.955604      -270.9058
  13   2.0000      -9.953541      -270.8496
  14   2.0000      -9.943221      -270.5688
  15   2.0000      -9.887018      -269.0394
  16   2.0000      -9.886091      -269.0142
  17   2.0000      -9.883363      -268.9400
  18   2.0000      -9.877294      -268.7748
  19   2.0000      -7.686563      -209.1620
  20   2.0000      -7.684852      -209.1154
  21   2.0000      -7.622972      -207.4316
  22   2.0000      -7.619623      -207.3405
  23   2.0000      -6.421712      -174.7437
  24   2.0000      -6.417491      -174.6288
  25   2.0000      -5.714343      -155.4952
  26   2.0000      -5.712739      -155.4515
  27   2.0000      -5.711231      -155.4105
  28   2.0000      -5.709369      -155.3598
  29   2.0000      -5.703457      -155.1990
  30   2.0000      -5.701743      -155.1523
  31   2.0000      -5.652093      -153.8013
  32   2.0000      -5.648592      -153.7060
  33   2.0000      -5.643666      -153.5720
  34   2.0000      -5.642857      -153.5499
  35   2.0000      -5.640168      -153.4768
  36   2.0000      -5.639876      -153.4688
  37   2.0000      -4.644923      -126.3948
  38   2.0000      -4.643238      -126.3489
  39   2.0000      -4.641789      -126.3095
  40   2.0000      -4.640148      -126.2648
  41   2.0000      -4.639528      -126.2480
  42   2.0000      -4.637621      -126.1961
  43   2.0000      -0.989545       -26.9269
  44   2.0000      -0.981717       -26.7139
  45   2.0000      -0.944124       -25.6909
  46   2.0000      -0.941571       -25.6214
  47   2.0000      -0.761895       -20.7322
  48   2.0000      -0.718972       -19.5642
  49   2.0000      -0.708187       -19.2708
  50   2.0000      -0.692023       -18.8309
  51   2.0000      -0.687434       -18.7060
  52   2.0000      -0.673011       -18.3136
  53   2.0000      -0.648334       -17.6421
  54   2.0000      -0.630255       -17.1501
  55   2.0000      -0.597005       -16.2453
  56   2.0000      -0.589581       -16.0433
  57   2.0000      -0.578694       -15.7471
  58   2.0000      -0.570948       -15.5363
  59   2.0000      -0.558634       -15.2012
  60   2.0000      -0.496463       -13.5094
  61   2.0000      -0.492376       -13.3982
  62   2.0000      -0.470997       -12.8165
  63   2.0000      -0.467746       -12.7280
  64   2.0000      -0.457083       -12.4379
  65   2.0000      -0.450724       -12.2648
  66   2.0000      -0.444235       -12.0883
  67   2.0000      -0.431623       -11.7451
  68   2.0000      -0.426005       -11.5922
  69   2.0000      -0.420652       -11.4465
  70   2.0000      -0.413658       -11.2562
  71   2.0000      -0.401204       -10.9173
  72   2.0000      -0.393360       -10.7039
  73   2.0000      -0.387412       -10.5420
  74   2.0000      -0.379553       -10.3282
  75   2.0000      -0.368455       -10.0262
  76   2.0000      -0.365948        -9.9580
  77   2.0000      -0.356385        -9.6977
  78   2.0000      -0.351734        -9.5712
  79   2.0000      -0.348504        -9.4833
  80   2.0000      -0.345100        -9.3906
  81   2.0000      -0.342900        -9.3308
  82   2.0000      -0.341296        -9.2871
  83   2.0000      -0.335664        -9.1339
  84   2.0000      -0.333210        -9.0671
  85   2.0000      -0.321230        -8.7411
  86   2.0000      -0.310604        -8.4520
  87   2.0000      -0.296830        -8.0772
  88   2.0000      -0.294338        -8.0094
  89   2.0000      -0.294112        -8.0032
  90   2.0000      -0.284581        -7.7439
  91   2.0000      -0.272071        -7.4034
  92   2.0000      -0.265488        -7.2243
  93   2.0000      -0.258849        -7.0436
  94   2.0000      -0.257071        -6.9953
  95   2.0000      -0.233860        -6.3636
  96   2.0000      -0.218464        -5.9447
  97   2.0000      -0.210138        -5.7182
  98   2.0000      -0.190276        -5.1777
  99   2.0000      -0.189279        -5.1505
 100   2.0000      -0.179353        -4.8805
 101   0.0000      -0.038389        -1.0446
 102   0.0000      -0.030748        -0.8367
 103   0.0000      -0.021118        -0.5747
 104   0.0000       0.008650         0.2354
 105   0.0000       0.023080         0.6280

MULLIKEN ATOMIC CHARGES
-----------------------
   0 C :   -0.343321
   1 C :   -0.011541
   2 O :   -0.373910
   3 P :    0.577153
   4 S :   -0.289482
   5 O :   -0.371745
   6 C :   -0.008580
   7 C :   -0.303084
   8 S :   -0.107384
   9 C :   -0.339423
  10 S :   -0.103070
  11 P :    0.607819
  12 S :   -0.291877
  13 O :   -0.383533
  14 C :    0.000582
  15 C :   -0.326131
  16 O :   -0.355503
  17 C :    0.001003
  18 C :   -0.325625
  19 H :    0.109922
  20 H :    0.156252
  21 H :    0.129167
  22 H :    0.111552
  23 H :    0.114744
  24 H :    0.114941
  25 H :    0.101022
  26 H :    0.123353
  27 H :    0.109741
  28 H :    0.112937
  29 H :    0.198132
  30 H :    0.188920
  31 H :    0.115398
  32 H :    0.104826
  33 H :    0.134217
  34 H :    0.117086
  35 H :    0.117640
  36 H :    0.109588
  37 H :    0.118222
  38 H :    0.108407
  39 H :    0.132675
  40 H :    0.118910
Sum of atomic charges:   -0.0000000

LOEWDIN ATOMIC CHARGES
----------------------
   0 C :   -0.373251
   1 C :   -0.112855
   2 O :   -0.246232
   3 P :    0.561182
   4 S :   -0.296504
   5 O :   -0.248465
   6 C :   -0.121629
   7 C :   -0.364068
   8 S :    0.069595
   9 C :   -0.472044
  10 S :    0.075188
  11 P :    0.579203
  12 S :   -0.302469
  13 O :   -0.243703
  14 C :   -0.116695
  15 C :   -0.372501
  16 O :   -0.232191
  17 C :   -0.108032
  18 C :   -0.372937
  19 H :    0.128647
  20 H :    0.123719
  21 H :    0.132028
  22 H :    0.122633
  23 H :    0.108683
  24 H :    0.110521
  25 H :    0.116548
  26 H :    0.123465
  27 H :    0.129192
  28 H :    0.124641
  29 H :    0.125613
  30 H :    0.138775
  31 H :    0.114476
  32 H :    0.118445
  33 H :    0.123895
  34 H :    0.133549
  35 H :    0.123347
  36 H :    0.113803
  37 H :    0.120138
  38 H :    0.128877
  39 H :    0.119754
  40 H :    0.117661

  Mayer bond orders larger than 0.100000
B(  0-C ,  1-C ) :   1.1623 B(  0-C , 19-H ) :   0.9349 B(  0-C , 20-H ) :   0.9185
B(  0-C , 21-H ) :   0.9407 B(  1-C ,  2-O ) :   0.9190 B(  1-C , 22-H ) :   0.9341
B(  1-C , 23-H ) :   0.9261 B(  2-O ,  3-P ) :   1.0941 B(  3-P ,  4-S ) :   1.6479
B(  3-P ,  5-O ) :   1.0997 B(  3-P ,  8-S ) :   0.9512 B(  4-S ,  8-S ) :   0.1141
B(  5-O ,  6-C ) :   0.9079 B(  6-C ,  7-C ) :   1.1663 B(  6-C , 24-H ) :   0.9103
B(  6-C , 25-H ) :   0.9337 B(  7-C , 26-H ) :   0.9352 B(  7-C , 27-H ) :   0.9396
B(  7-C , 28-H ) :   0.9467 B(  8-S ,  9-C ) :   0.9746 B(  9-C , 10-S ) :   1.0194
B(  9-C , 29-H ) :   0.8469 B(  9-C , 30-H ) :   0.9110 B( 10-S , 11-P ) :   0.9277
B( 10-S , 12-S ) :   0.1083 B( 11-P , 12-S ) :   1.6516 B( 11-P , 13-O ) :   1.0796
B( 11-P , 16-O ) :   1.1390 B( 13-O , 14-C ) :   0.9009 B( 14-C , 15-C ) :   1.1662
B( 14-C , 31-H ) :   0.9160 B( 14-C , 32-H ) :   0.9336 B( 15-C , 33-H ) :   0.9314
B( 15-C , 34-H ) :   0.9370 B( 15-C , 35-H ) :   0.9443 B( 16-O , 17-C ) :   0.8954
B( 17-C , 18-C ) :   1.1738 B( 17-C , 36-H ) :   0.9277 B( 17-C , 37-H ) :   0.9230
B( 18-C , 38-H ) :   0.9353 B( 18-C , 39-H ) :   0.9349 B( 18-C , 40-H ) :   0.9391

Dispersion correction           -0.066857054
FINAL SINGLE POINT ENERGY     -2929.507639356103

DIPOLE MOMENT
-------------

Method             : SCF
Type of density    : Electron Density
Multiplicity       :   1
Irrep              :   0
Energy             : -2929.6268372953963990 Eh
Relativity type    :
Basis              : AO
                                X                 Y                 Z
Electronic contribution:     -1.376189210       2.725302306       8.059552680
Nuclear contribution   :      0.966401944      -3.779747814      -8.867090960
                        -----------------------------------------
Total Dipole Moment    :     -0.409787266      -1.054445508      -0.807538280
                        -----------------------------------------
Magnitude (a.u.)       :      1.389927698
Magnitude (Debye)      :      3.532915444

Rotational constants in cm-1:             0.013232             0.005141             0.004631
Rotational constants in MHz :           396.690063           154.135686           138.828973

                             ****ORCA TERMINATED NORMALLY****
TOTAL RUN TIME: 0 days 0 hours 0 minutes 21 seconds 196 msec
