                         Program Version 6.0.0  -   RELEASE  -
|  1> ! pbe def2-sv(p) def2/J RI DEFGRID1 loosescf d4 GCP(DFT/SV(P)) printgap
|  2> %output
|  3>     printlevel normal
|  4> end
|  5> * xyz 0 1
|  6> C 1.1318944439 -0.0070777885 2.9256096256
|  7> C 2.6282101487 -0.0587589248 2.6945743093
|  8> O 3.0006618739 0.5297221626 1.436418107
|  9> P 2.6646508826 -0.1562956942 0.0413958826
| 10> S 2.8227281541 -2.1148382957 0.0243739853
| 11> O 3.6195387354 0.6308496553 -0.9455284086
| 12> C 4.9756913008 0.2116864028 -1.2057907939
| 13> C 5.86345497 0.3499495655 0.0134381423
| 14> S 0.8359614222 0.6935697533 -0.616400546
| 15> C -0.102204435 -0.8281710622 -0.9525141052
| 16> S -1.4084812553 -1.1294292998 0.2577322012
| 17> P -2.7720401347 0.3060935958 -0.5371876775
| 18> S -2.9078117685 0.3579093173 -2.4867657781
| 19> O -2.3117247231 1.6920589215 0.0515979387
| 20> C -2.1832060004 1.9475660714 1.4744527484
| 21> C -1.1957859089 3.0822546826 1.6516768023
| 22> O -4.1203223565 0.0371369882 0.261287326
| 23> C -5.1104251125 -0.9154897315 -0.1692222555
| 24> C -4.5889505315 -2.3374961416 -0.1543031347
| 25> H 0.6194751524 -0.6471954789 2.2070716458
| 26> H 0.9101095211 -0.3625541423 3.9266962838
| 27> H 0.7706123118 1.0120801439 2.8162800651
| 28> H 2.9843533224 -1.0939315341 2.7122786021
| 29> H 3.1701651845 0.5342894876 3.4324372285
| 30> H 4.9548207849 -0.8262246351 -1.5534508728
| 31> H 5.2969350288 0.8668341892 -2.0166864828
| 32> H 5.5560107088 -0.3587409291 0.781015344
| 33> H 6.8913997954 0.1416173487 -0.2667398214
| 34> H 5.7939928288 1.3572755194 0.4154311664
| 35> H 0.5759709538 -1.6833947781 -0.9147902514
| 36> H -0.5601179753 -0.7262614159 -1.9369907439
| 37> H -3.1728508966 2.2100327614 1.8524524121
| 38> H -1.8404964519 1.0316399989 1.9651420234
| 39> H -0.2321287606 2.8090134919 1.2280574175
| 40> H -1.5547302177 3.9702790853 1.1397212932
| 41> H -1.0839614378 3.297175367 2.7096971484
| 42> H -5.9261317371 -0.777408415 0.5419127487
| 43> H -5.4405853226 -0.6374089004 -1.1746195
| 44> H -5.4071315929 -3.0205563711 -0.3588001345
| 45> H -3.8266909317 -2.4632053621 -0.9218779746
| 46> H -4.15426593 -2.57263503 0.8140099807
| 47> *
| 48>
| 49>                          ****END OF INPUT****

CARTESIAN COORDINATES (ANGSTROEM)
---------------------------------
  C      1.131894   -0.007078    2.925610
  C      2.628210   -0.058759    2.694574
  O      3.000662    0.529722    1.436418
  P      2.664651   -0.156296    0.041396
  S      2.822728   -2.114838    0.024374
  O      3.619539    0.630850   -0.945528
  C      4.975691    0.211686   -1.205791
  C      5.863455    0.349950    0.013438
  S      0.835961    0.693570   -0.616401
  C     -0.102204   -0.828171   -0.952514
  S     -1.408481   -1.129429    0.257732
  P     -2.772040    0.306094   -0.537188
  S     -2.907812    0.357909   -2.486766
  O     -2.311725    1.692059    0.051598
  C     -2.183206    1.947566    1.474453
  C     -1.195786    3.082255    1.651677
  O     -4.120322    0.037137    0.261287
  C     -5.110425   -0.915490   -0.169222
  C     -4.588951   -2.337496   -0.154303
  H      0.619475   -0.647195    2.207072
  H      0.910110   -0.362554    3.926696
  H      0.770612    1.012080    2.816280
  H      2.984353   -1.093932    2.712279
  H      3.170165    0.534289    3.432437
  H      4.954821   -0.826225   -1.553451
  H      5.296935    0.866834   -2.016686
  H      5.556011   -0.358741    0.781015
  H      6.891400    0.141617   -0.266740
  H      5.793993    1.357276    0.415431
  H      0.575971   -1.683395   -0.914790
  H     -0.560118   -0.726261   -1.936991
  H     -3.172851    2.210033    1.852452
  H     -1.840496    1.031640    1.965142
  H     -0.232129    2.809013    1.228057
  H     -1.554730    3.970279    1.139721
  H     -1.083961    3.297175    2.709697
  H     -5.926132   -0.777408    0.541913
  H     -5.440585   -0.637409   -1.174619
  H     -5.407132   -3.020556   -0.358800
  H     -3.826691   -2.463205   -0.921878
  H     -4.154266   -2.572635    0.814010

 Total Charge           Charge          ....    0
 Multiplicity           Mult            ....    1
 Number of Electrons    NEL             ....  202
 Basis Dimension        Dim             ....  334

ORBITAL ENERGIES
----------------

  NO   OCC          E(Eh)            E(eV)
   0   2.0000     -88.044170     -2395.8037
   1   2.0000     -88.042004     -2395.7447
   2   2.0000     -87.996862     -2394.5163
   3   2.0000     -87.986685     -2394.2394
   4   2.0000     -76.429508     -2079.7526
   5   2.0000     -76.426585     -2079.6731
   6   2.0000     -18.796648      -511.4828
   7   2.0000     -18.795506      -511.4517
   8   2.0000     -18.792621      -511.3732
   9   2.0000     -18.791619      -511.3460
  10   2.0000      -9.956191      -270.9217
  11   2.0000      -9.956132      -270.9201
  12   2.0000      -9.955269      -270.8966
  13   2.0000      -9.954324      -270.8709
  14   2.0000      -9.949751      -270.7465
  15   2.0000      -9.887653      -269.0567
  16   2.0000      -9.886579      -269.0275
  17   2.0000      -9.886431      -269.0235
  18   2.0000      -9.886001      -269.0118
  19   2.0000      -7.688639      -209.2185
  20   2.0000      -7.687052      -209.1753
  21   2.0000      -7.641624      -207.9392
  22   2.0000      -7.631947      -207.6758
  23   2.0000      -6.427432      -174.8993
  24   2.0000      -6.424323      -174.8147
  25   2.0000      -5.716236      -155.5467
  26   2.0000      -5.714900      -155.5103
  27   2.0000      -5.713249      -155.4654
  28   2.0000      -5.711699      -155.4232
  29   2.0000      -5.705873      -155.2647
  30   2.0000      -5.703873      -155.2103
  31   2.0000      -5.670300      -154.2967
  32   2.0000      -5.662527      -154.0852
  33   2.0000      -5.661778      -154.0648
  34   2.0000      -5.660919      -154.0414
  35   2.0000      -5.652486      -153.8120
  36   2.0000      -5.652104      -153.8016
  37   2.0000      -4.649714      -126.5252
  38   2.0000      -4.649038      -126.5067
  39   2.0000      -4.648242      -126.4851
  40   2.0000      -4.647239      -126.4578
  41   2.0000      -4.645962      -126.4231
  42   2.0000      -4.644553      -126.3847
  43   2.0000      -0.990233       -26.9456
  44   2.0000      -0.989571       -26.9276
  45   2.0000      -0.948326       -25.8052
  46   2.0000      -0.946901       -25.7665
  47   2.0000      -0.762574       -20.7507
  48   2.0000      -0.724358       -19.7108
  49   2.0000      -0.712490       -19.3878
  50   2.0000      -0.691383       -18.8135
  51   2.0000      -0.690370       -18.7859
  52   2.0000      -0.677451       -18.4344
  53   2.0000      -0.653935       -17.7945
  54   2.0000      -0.639965       -17.4143
  55   2.0000      -0.606780       -16.5113
  56   2.0000      -0.593596       -16.1526
  57   2.0000      -0.575704       -15.6657
  58   2.0000      -0.572643       -15.5824
  59   2.0000      -0.557744       -15.1770
  60   2.0000      -0.507255       -13.8031
  61   2.0000      -0.495904       -13.4942
  62   2.0000      -0.476522       -12.9668
  63   2.0000      -0.475935       -12.9508
  64   2.0000      -0.461065       -12.5462
  65   2.0000      -0.445949       -12.1349
  66   2.0000      -0.442948       -12.0532
  67   2.0000      -0.439596       -11.9620
  68   2.0000      -0.433850       -11.8057
  69   2.0000      -0.422514       -11.4972
  70   2.0000      -0.409508       -11.1433
  71   2.0000      -0.396483       -10.7888
  72   2.0000      -0.392653       -10.6846
  73   2.0000      -0.392480       -10.6799
  74   2.0000      -0.384714       -10.4686
  75   2.0000      -0.376435       -10.2433
  76   2.0000      -0.365474        -9.9451
  77   2.0000      -0.359564        -9.7842
  78   2.0000      -0.357077        -9.7166
  79   2.0000      -0.355827        -9.6825
  80   2.0000      -0.351153        -9.5554
  81   2.0000      -0.344122        -9.3640
  82   2.0000      -0.343728        -9.3533
  83   2.0000      -0.340752        -9.2723
  84   2.0000      -0.336005        -9.1432
  85   2.0000      -0.319056        -8.6820
  86   2.0000      -0.314065        -8.5461
  87   2.0000      -0.303348        -8.2545
  88   2.0000      -0.299545        -8.1510
  89   2.0000      -0.296158        -8.0589
  90   2.0000      -0.288432        -7.8486
  91   2.0000      -0.276735        -7.5303
  92   2.0000      -0.272014        -7.4019
  93   2.0000      -0.266654        -7.2560
  94   2.0000      -0.260919        -7.1000
  95   2.0000      -0.232938        -6.3386
  96   2.0000      -0.221343        -6.0230
  97   2.0000      -0.218346        -5.9415
  98   2.0000      -0.210290        -5.7223
  99   2.0000      -0.206879        -5.6295
 100   2.0000      -0.199924        -5.4402
 101   0.0000      -0.043783        -1.1914
 102   0.0000      -0.032426        -0.8823
 103   0.0000      -0.012134        -0.3302
 104   0.0000       0.003340         0.0909
 105   0.0000       0.017855         0.4859

MULLIKEN ATOMIC CHARGES
-----------------------
   0 C :   -0.342732
   1 C :    0.000932
   2 O :   -0.370864
   3 P :    0.613166
   4 S :   -0.333053
   5 O :   -0.366349
   6 C :   -0.001793
   7 C :   -0.309779
   8 S :   -0.067616
   9 C :   -0.370820
  10 S :   -0.100080
  11 P :    0.597901
  12 S :   -0.305988
  13 O :   -0.355485
  14 C :   -0.018657
  15 C :   -0.292387
  16 O :   -0.385626
  17 C :    0.001688
  18 C :   -0.322399
  19 H :    0.135008
  20 H :    0.111558
  21 H :    0.126680
  22 H :    0.111457
  23 H :    0.104849
  24 H :    0.113034
  25 H :    0.109388
  26 H :    0.122411
  27 H :    0.113316
  28 H :    0.119351
  29 H :    0.196328
  30 H :    0.196921
  31 H :    0.107730
  32 H :    0.109367
  33 H :    0.138045
  34 H :    0.121263
  35 H :    0.107724
  36 H :    0.105565
  37 H :    0.113917
  38 H :    0.115639
  39 H :    0.132066
  40 H :    0.118326
Sum of atomic charges:   -0.0000000

LOEWDIN ATOMIC CHARGES
----------------------
   0 C :   -0.372115
   1 C :   -0.118523
   2 O :   -0.244054
   3 P :    0.571971
   4 S :   -0.311615
   5 O :   -0.242694
   6 C :   -0.113870
   7 C :   -0.365028
   8 S :    0.099287
   9 C :   -0.490374
  10 S :    0.086043
  11 P :    0.568301
  12 S :   -0.306206
  13 O :   -0.235845
  14 C :   -0.115398
  15 C :   -0.355931
  16 O :   -0.249608
  17 C :   -0.114473
  18 C :   -0.371734
  19 H :    0.114187
  20 H :    0.131052
  21 H :    0.125489
  22 H :    0.109698
  23 H :    0.118723
  24 H :    0.112335
  25 H :    0.121216
  26 H :    0.122480
  27 H :    0.130996
  28 H :    0.127603
  29 H :    0.125811
  30 H :    0.128024
  31 H :    0.115787
  32 H :    0.103556
  33 H :    0.124126
  34 H :    0.130295
  35 H :    0.127970
  36 H :    0.119056
  37 H :    0.114450
  38 H :    0.132472
  39 H :    0.123230
  40 H :    0.123309

  Mayer bond orders larger than 0.100000
B(  0-C ,  1-C ) :   1.1624 B(  0-C , 19-H ) :   0.9269 B(  0-C , 20-H ) :   0.9366
B(  0-C , 21-H ) :   0.9365 B(  1-C ,  2-O ) :   0.9131 B(  1-C , 22-H ) :   0.9149
B(  1-C , 23-H ) :   0.9327 B(  2-O ,  3-P ) :   1.1020 B(  3-P ,  4-S ) :   1.5820
B(  3-P ,  5-O ) :   1.1401 B(  3-P ,  8-S ) :   0.9638 B(  4-S ,  8-S ) :   0.1164
B(  4-S , 29-H ) :   0.1083 B(  5-O ,  6-C ) :   0.9094 B(  6-C ,  7-C ) :   1.1628
B(  6-C , 24-H ) :   0.9202 B(  6-C , 25-H ) :   0.9353 B(  7-C , 26-H ) :   0.9385
B(  7-C , 27-H ) :   0.9380 B(  7-C , 28-H ) :   0.9457 B(  8-S ,  9-C ) :   1.0062
B(  9-C , 10-S ) :   1.0049 B(  9-C , 29-H ) :   0.8533 B(  9-C , 30-H ) :   0.8653
B( 10-S , 11-P ) :   0.9475 B( 10-S , 12-S ) :   0.1072 B( 11-P , 12-S ) :   1.6424
B( 11-P , 13-O ) :   1.1428 B( 11-P , 16-O ) :   1.0907 B( 13-O , 14-C ) :   0.8859
B( 14-C , 15-C ) :   1.1701 B( 14-C , 31-H ) :   0.9305 B( 14-C , 32-H ) :   0.9078
B( 15-C , 33-H ) :   0.9337 B( 15-C , 34-H ) :   0.9458 B( 15-C , 35-H ) :   0.9385
B( 16-O , 17-C ) :   0.9055 B( 17-C , 18-C ) :   1.1659 B( 17-C , 36-H ) :   0.9345
B( 17-C , 37-H ) :   0.9204 B( 18-C , 38-H ) :   0.9367 B( 18-C , 39-H ) :   0.9341
B( 18-C , 40-H ) :   0.9433

Dispersion correction           -0.063905825
FINAL SINGLE POINT ENERGY     -2929.523097482164

DIPOLE MOMENT
-------------

Method             : SCF
Type of density    : Electron Density
Multiplicity       :   1
Irrep              :   0
Energy             : -2929.6440990009041343 Eh
Relativity type    :
Basis              : AO
                                X                 Y                 Z
Electronic contribution:     -3.985360500      -1.758730437     -15.237459617
Nuclear contribution   :      4.175137754       1.905737706      16.859103844
                        -----------------------------------------
Total Dipole Moment    :      0.189777254       0.147007269       1.621644227
                        -----------------------------------------
Magnitude (a.u.)       :      1.639315876
Magnitude (Debye)      :      4.166809815

Rotational constants in cm-1:             0.014192             0.004113             0.003954
Rotational constants in MHz :           425.456424           123.307149           118.548647

                             ****ORCA TERMINATED NORMALLY****
TOTAL RUN TIME: 0 days 0 hours 0 minutes 20 seconds 611 msec
