                         Program Version 6.0.0  -   RELEASE  -
|  1> ! pbe def2-sv(p) def2/J RI DEFGRID1 loosescf d4 GCP(DFT/SV(P)) printgap
|  2> %output
|  3>     printlevel normal
|  4> end
|  5> * xyz 0 1
|  6> C 4.007173574 0.4651070052 -2.740373322
|  7> C 2.8939464255 0.8372300679 -1.7837734626
|  8> O 3.2544339297 0.3511490691 -0.463191759
|  9> P 2.1700877642 -0.1349135468 0.5810069715
| 10> S 2.9610068902 -0.7853023618 2.2410843167
| 11> O 1.2123004012 -1.1724097495 -0.1667117707
| 12> C 1.4248247971 -2.5935138961 -0.0783136711
| 13> C 2.6569978202 -3.0166866956 -0.8498598338
| 14> S 0.8769075056 1.526351271 0.7379611871
| 15> C -0.1350334679 0.8887961322 2.0961456473
| 16> S -1.2287212029 -0.4836264862 1.6296924695
| 17> P -2.0515658368 0.3163827516 -0.1684437562
| 18> S -1.1058523949 0.1490903195 -1.8819952181
| 19> O -2.3229717168 1.807235675 0.2923145811
| 20> C -2.3839334493 2.8997586483 -0.6451256629
| 21> C -3.6841111097 2.874385158 -1.4203837678
| 22> O -3.5223703932 -0.2888488647 -0.1710830709
| 23> C -3.8668665413 -1.6683910413 0.0426929088
| 24> C -3.0052785784 -2.6208780383 -0.7600823246
| 25> H 4.1062253203 -0.6148618727 -2.8054370133
| 26> H 3.7755310589 0.8633428205 -3.722911755
| 27> H 4.94790183 0.8823892591 -2.3927110087
| 28> H 1.9384818176 0.3962292582 -2.083470966
| 29> H 2.7786385012 1.9208370183 -1.706954047
| 30> H 1.5113177143 -2.8658381983 0.9784144586
| 31> H 0.5154767372 -3.0242176903 -0.5007182798
| 32> H 3.5393389037 -2.5420311045 -0.4198220994
| 33> H 2.7688829546 -4.0944735342 -0.7870432226
| 34> H 2.5655580944 -2.7232276337 -1.8928088483
| 35> H -0.7366176852 1.7209075091 2.4533990526
| 36> H 0.5168477935 0.5027170848 2.881429253
| 37> H -2.2937153373 3.7910797001 -0.0232584277
| 38> H -1.5250797397 2.8311675611 -1.3209826368
| 39> H -3.7349070335 1.9627589795 -2.0149644695
| 40> H -4.5293536795 2.8937754496 -0.7378836541
| 41> H -3.729442711 3.7339561161 -2.0813861345
| 42> H -3.7754400576 -1.8763396964 1.1127691522
| 43> H -4.9145010646 -1.724450832 -0.2584900354
| 44> H -1.9671058898 -2.5341026511 -0.4376901829
| 45> H -3.3420942104 -3.6398088111 -0.5987370188
| 46> H -3.0601510512 -2.3838625931 -1.8202717977
| 47> *
| 48>
| 49>                          ****END OF INPUT****

CARTESIAN COORDINATES (ANGSTROEM)
---------------------------------
  C      4.007174    0.465107   -2.740373
  C      2.893946    0.837230   -1.783773
  O      3.254434    0.351149   -0.463192
  P      2.170088   -0.134914    0.581007
  S      2.961007   -0.785302    2.241084
  O      1.212300   -1.172410   -0.166712
  C      1.424825   -2.593514   -0.078314
  C      2.656998   -3.016687   -0.849860
  S      0.876908    1.526351    0.737961
  C     -0.135033    0.888796    2.096146
  S     -1.228721   -0.483626    1.629692
  P     -2.051566    0.316383   -0.168444
  S     -1.105852    0.149090   -1.881995
  O     -2.322972    1.807236    0.292315
  C     -2.383933    2.899759   -0.645126
  C     -3.684111    2.874385   -1.420384
  O     -3.522370   -0.288849   -0.171083
  C     -3.866867   -1.668391    0.042693
  C     -3.005279   -2.620878   -0.760082
  H      4.106225   -0.614862   -2.805437
  H      3.775531    0.863343   -3.722912
  H      4.947902    0.882389   -2.392711
  H      1.938482    0.396229   -2.083471
  H      2.778639    1.920837   -1.706954
  H      1.511318   -2.865838    0.978414
  H      0.515477   -3.024218   -0.500718
  H      3.539339   -2.542031   -0.419822
  H      2.768883   -4.094474   -0.787043
  H      2.565558   -2.723228   -1.892809
  H     -0.736618    1.720908    2.453399
  H      0.516848    0.502717    2.881429
  H     -2.293715    3.791080   -0.023258
  H     -1.525080    2.831168   -1.320983
  H     -3.734907    1.962759   -2.014964
  H     -4.529354    2.893775   -0.737884
  H     -3.729443    3.733956   -2.081386
  H     -3.775440   -1.876340    1.112769
  H     -4.914501   -1.724451   -0.258490
  H     -1.967106   -2.534103   -0.437690
  H     -3.342094   -3.639809   -0.598737
  H     -3.060151   -2.383863   -1.820272

 Total Charge           Charge          ....    0
 Multiplicity           Mult            ....    1
 Number of Electrons    NEL             ....  202
 Basis Dimension        Dim             ....  334

ORBITAL ENERGIES
----------------

  NO   OCC          E(Eh)            E(eV)
   0   2.0000     -88.041001     -2395.7174
   1   2.0000     -88.040513     -2395.7042
   2   2.0000     -87.982615     -2394.1287
   3   2.0000     -87.982466     -2394.1246
   4   2.0000     -76.427933     -2079.7098
   5   2.0000     -76.422051     -2079.5497
   6   2.0000     -18.793118      -511.3867
   7   2.0000     -18.792483      -511.3695
   8   2.0000     -18.789783      -511.2960
   9   2.0000     -18.784573      -511.1542
  10   2.0000      -9.960127      -271.0288
  11   2.0000      -9.958255      -270.9779
  12   2.0000      -9.953523      -270.8491
  13   2.0000      -9.951315      -270.7891
  14   2.0000      -9.945871      -270.6409
  15   2.0000      -9.888949      -269.0920
  16   2.0000      -9.888604      -269.0826
  17   2.0000      -9.882838      -268.9257
  18   2.0000      -9.882622      -268.9198
  19   2.0000      -7.686220      -209.1527
  20   2.0000      -7.685547      -209.1344
  21   2.0000      -7.627969      -207.5676
  22   2.0000      -7.627402      -207.5522
  23   2.0000      -6.424792      -174.8275
  24   2.0000      -6.419987      -174.6967
  25   2.0000      -5.714108      -155.4888
  26   2.0000      -5.713689      -155.4774
  27   2.0000      -5.710818      -155.3993
  28   2.0000      -5.710102      -155.3798
  29   2.0000      -5.703016      -155.1870
  30   2.0000      -5.702205      -155.1649
  31   2.0000      -5.656930      -153.9329
  32   2.0000      -5.656312      -153.9161
  33   2.0000      -5.648780      -153.7111
  34   2.0000      -5.648142      -153.6937
  35   2.0000      -5.647821      -153.6850
  36   2.0000      -5.647447      -153.6748
  37   2.0000      -4.647491      -126.4647
  38   2.0000      -4.646886      -126.4482
  39   2.0000      -4.644943      -126.3953
  40   2.0000      -4.642953      -126.3412
  41   2.0000      -4.641388      -126.2986
  42   2.0000      -4.640422      -126.2723
  43   2.0000      -0.987117       -26.8608
  44   2.0000      -0.982259       -26.7286
  45   2.0000      -0.947039       -25.7702
  46   2.0000      -0.941080       -25.6081
  47   2.0000      -0.764091       -20.7920
  48   2.0000      -0.720665       -19.6103
  49   2.0000      -0.709565       -19.3082
  50   2.0000      -0.690325       -18.7847
  51   2.0000      -0.687626       -18.7112
  52   2.0000      -0.671697       -18.2778
  53   2.0000      -0.652282       -17.7495
  54   2.0000      -0.639007       -17.3883
  55   2.0000      -0.595485       -16.2040
  56   2.0000      -0.587881       -15.9971
  57   2.0000      -0.575612       -15.6632
  58   2.0000      -0.571567       -15.5531
  59   2.0000      -0.564171       -15.3519
  60   2.0000      -0.505246       -13.7485
  61   2.0000      -0.494045       -13.4436
  62   2.0000      -0.475988       -12.9523
  63   2.0000      -0.471763       -12.8373
  64   2.0000      -0.459720       -12.5096
  65   2.0000      -0.443285       -12.0624
  66   2.0000      -0.439695       -11.9647
  67   2.0000      -0.438165       -11.9231
  68   2.0000      -0.424960       -11.5637
  69   2.0000      -0.420124       -11.4322
  70   2.0000      -0.403640       -10.9836
  71   2.0000      -0.395042       -10.7496
  72   2.0000      -0.393931       -10.7194
  73   2.0000      -0.388892       -10.5823
  74   2.0000      -0.385418       -10.4878
  75   2.0000      -0.374839       -10.1999
  76   2.0000      -0.364126        -9.9084
  77   2.0000      -0.356914        -9.7121
  78   2.0000      -0.353825        -9.6281
  79   2.0000      -0.349712        -9.5161
  80   2.0000      -0.348331        -9.4786
  81   2.0000      -0.345804        -9.4098
  82   2.0000      -0.344261        -9.3678
  83   2.0000      -0.341929        -9.3044
  84   2.0000      -0.333972        -9.0878
  85   2.0000      -0.319366        -8.6904
  86   2.0000      -0.311622        -8.4797
  87   2.0000      -0.307795        -8.3755
  88   2.0000      -0.297726        -8.1015
  89   2.0000      -0.289978        -7.8907
  90   2.0000      -0.276739        -7.5305
  91   2.0000      -0.275219        -7.4891
  92   2.0000      -0.270341        -7.3564
  93   2.0000      -0.265992        -7.2380
  94   2.0000      -0.257124        -6.9967
  95   2.0000      -0.234279        -6.3750
  96   2.0000      -0.217654        -5.9227
  97   2.0000      -0.205821        -5.6007
  98   2.0000      -0.202476        -5.5097
  99   2.0000      -0.194573        -5.2946
 100   2.0000      -0.187496        -5.1020
 101   0.0000      -0.050662        -1.3786
 102   0.0000      -0.023577        -0.6416
 103   0.0000      -0.019652        -0.5348
 104   0.0000       0.007191         0.1957
 105   0.0000       0.017836         0.4853

MULLIKEN ATOMIC CHARGES
-----------------------
   0 C :   -0.281372
   1 C :   -0.046607
   2 O :   -0.373039
   3 P :    0.620646
   4 S :   -0.317935
   5 O :   -0.364929
   6 C :   -0.018949
   7 C :   -0.321245
   8 S :   -0.097995
   9 C :   -0.321988
  10 S :   -0.117283
  11 P :    0.615010
  12 S :   -0.318705
  13 O :   -0.371214
  14 C :   -0.009401
  15 C :   -0.299108
  16 O :   -0.371239
  17 C :   -0.004117
  18 C :   -0.343790
  19 H :    0.119624
  20 H :    0.112862
  21 H :    0.121476
  22 H :    0.134148
  23 H :    0.111062
  24 H :    0.109748
  25 H :    0.117659
  26 H :    0.130701
  27 H :    0.111425
  28 H :    0.119412
  29 H :    0.188447
  30 H :    0.186156
  31 H :    0.101994
  32 H :    0.112642
  33 H :    0.123639
  34 H :    0.115059
  35 H :    0.110386
  36 H :    0.113160
  37 H :    0.111442
  38 H :    0.149203
  39 H :    0.113265
  40 H :    0.129749
Sum of atomic charges:   -0.0000000

LOEWDIN ATOMIC CHARGES
----------------------
   0 C :   -0.349797
   1 C :   -0.122103
   2 O :   -0.244355
   3 P :    0.571285
   4 S :   -0.315225
   5 O :   -0.242484
   6 C :   -0.122669
   7 C :   -0.366345
   8 S :    0.086918
   9 C :   -0.470472
  10 S :    0.068318
  11 P :    0.575432
  12 S :   -0.313604
  13 O :   -0.240664
  14 C :   -0.121752
  15 C :   -0.362884
  16 O :   -0.246887
  17 C :   -0.113953
  18 C :   -0.373085
  19 H :    0.126623
  20 H :    0.131668
  21 H :    0.129864
  22 H :    0.112943
  23 H :    0.114759
  24 H :    0.108619
  25 H :    0.116073
  26 H :    0.124639
  27 H :    0.130700
  28 H :    0.123139
  29 H :    0.135363
  30 H :    0.131344
  31 H :    0.116679
  32 H :    0.108226
  33 H :    0.124004
  34 H :    0.125885
  35 H :    0.129806
  36 H :    0.110004
  37 H :    0.122717
  38 H :    0.120082
  39 H :    0.130612
  40 H :    0.130577

  Mayer bond orders larger than 0.100000
B(  0-C ,  1-C ) :   1.1678 B(  0-C , 19-H ) :   0.9478 B(  0-C , 20-H ) :   0.9402
B(  0-C , 21-H ) :   0.9480 B(  1-C ,  2-O ) :   0.8893 B(  1-C , 22-H ) :   0.9044
B(  1-C , 23-H ) :   0.9304 B(  2-O ,  3-P ) :   1.1306 B(  3-P ,  4-S ) :   1.6384
B(  3-P ,  5-O ) :   1.0892 B(  3-P ,  8-S ) :   0.9542 B(  5-O ,  6-C ) :   0.9095
B(  6-C ,  7-C ) :   1.1629 B(  6-C , 24-H ) :   0.9133 B(  6-C , 25-H ) :   0.9206
B(  7-C , 26-H ) :   0.9335 B(  7-C , 27-H ) :   0.9386 B(  7-C , 28-H ) :   0.9420
B(  8-S ,  9-C ) :   1.0221 B(  9-C , 10-S ) :   0.9986 B(  9-C , 29-H ) :   0.9053
B(  9-C , 30-H ) :   0.8797 B( 10-S , 11-P ) :   0.9397 B( 10-S , 12-S ) :   0.1120
B( 11-P , 12-S ) :   1.6160 B( 11-P , 13-O ) :   1.1115 B( 11-P , 16-O ) :   1.1040
B( 13-O , 14-C ) :   0.8995 B( 14-C , 15-C ) :   1.1658 B( 14-C , 31-H ) :   0.9333
B( 14-C , 32-H ) :   0.9094 B( 15-C , 33-H ) :   0.9353 B( 15-C , 34-H ) :   0.9467
B( 15-C , 35-H ) :   0.9399 B( 16-O , 17-C ) :   0.9206 B( 17-C , 18-C ) :   1.1642
B( 17-C , 36-H ) :   0.9248 B( 17-C , 37-H ) :   0.9340 B( 18-C , 38-H ) :   0.9249
B( 18-C , 39-H ) :   0.9335 B( 18-C , 40-H ) :   0.9391

Dispersion correction           -0.067813657
FINAL SINGLE POINT ENERGY     -2929.513141674169

DIPOLE MOMENT
-------------

Method             : SCF
Type of density    : Electron Density
Multiplicity       :   1
Irrep              :   0
Energy             : -2929.6306703377563281 Eh
Relativity type    :
Basis              : AO
                                X                 Y                 Z
Electronic contribution:      3.491293592       6.260472629      16.691659644
Nuclear contribution   :     -4.526899678      -6.284269930     -17.510614711
                        -----------------------------------------
Total Dipole Moment    :     -1.035606087      -0.023797301      -0.818955067
                        -----------------------------------------
Magnitude (a.u.)       :      1.320505085
Magnitude (Debye)      :      3.356457185

Rotational constants in cm-1:             0.011350             0.005619             0.005317
Rotational constants in MHz :           340.270674           168.454530           159.409611

                             ****ORCA TERMINATED NORMALLY****
TOTAL RUN TIME: 0 days 0 hours 0 minutes 21 seconds 764 msec
