                         Program Version 6.0.0  -   RELEASE  -
|  1> ! r2scan-3c def2/J RI DEFGRID2 scfconv6 printgap
|  2> %output
|  3>     printlevel normal
|  4> end
|  5> * xyz 0 1
|  6> C 0.848633244 1.3900916638 -0.5828872168
|  7> C 1.5965942498 0.1595491527 -0.0524300703
|  8> H 2.5540971839 0.0978426043 -0.5871323809
|  9> C 0.7664391701 -1.1152801519 -0.3411631365
| 10> H 1.1963916783 -1.9640558221 0.2116468972
| 11> C -0.6730825973 -0.9138024272 0.1656519085
| 12> H -1.2896550206 -1.7643323578 -0.1411907592
| 13> C -1.2615037739 0.368488988 -0.4576768775
| 14> H -1.2774511461 0.2742741361 -1.5545890501
| 15> O -0.4661305775 1.4796428385 -0.079789748
| 16> O -2.5565246871 0.5947973474 -0.0469899996
| 17> O -0.7400233693 -0.8471515218 1.5658511802
| 18> O 0.7019695909 -1.3878834305 -1.7188641632
| 19> O 1.8093598529 0.3317456462 1.3317861751
| 20> H 0.8271205059 1.3462693763 -1.6795142223
| 21> H 1.3468165373 2.2996278753 -0.2472479605
| 22> H -2.5910728326 0.5298728777 0.9233017221
| 23> H -0.1284397795 -0.1477230194 1.8635120123
| 24> H 1.5413150917 -1.7633667454 -2.0230806431
| 25> H 2.4660061057 -0.3030488812 1.6515524
| 26> *
| 27>
| 28>                          ****END OF INPUT****

CARTESIAN COORDINATES (ANGSTROEM)
---------------------------------
  C      0.848633    1.390092   -0.582887
  C      1.596594    0.159549   -0.052430
  H      2.554097    0.097843   -0.587132
  C      0.766439   -1.115280   -0.341163
  H      1.196392   -1.964056    0.211647
  C     -0.673083   -0.913802    0.165652
  H     -1.289655   -1.764332   -0.141191
  C     -1.261504    0.368489   -0.457677
  H     -1.277451    0.274274   -1.554589
  O     -0.466131    1.479643   -0.079790
  O     -2.556525    0.594797   -0.046990
  O     -0.740023   -0.847152    1.565851
  O      0.701970   -1.387883   -1.718864
  O      1.809360    0.331746    1.331786
  H      0.827121    1.346269   -1.679514
  H      1.346817    2.299628   -0.247248
  H     -2.591073    0.529873    0.923302
  H     -0.128440   -0.147723    1.863512
  H      1.541315   -1.763367   -2.023081
  H      2.466006   -0.303049    1.651552

 Total Charge           Charge          ....    0
 Multiplicity           Mult            ....    1
 Number of Electrons    NEL             ....   80
 Basis Dimension        Dim             ....  265

ORBITAL ENERGIES
----------------

  NO   OCC          E(Eh)            E(eV)
   0   2.0000     -18.980118      -516.4753
   1   2.0000     -18.975379      -516.3463
   2   2.0000     -18.957728      -515.8660
   3   2.0000     -18.952337      -515.7193
   4   2.0000     -18.951749      -515.7033
   5   2.0000     -10.123434      -275.4727
   6   2.0000     -10.102868      -274.9130
   7   2.0000     -10.099812      -274.8299
   8   2.0000     -10.085880      -274.4507
   9   2.0000     -10.084430      -274.4113
  10   2.0000      -1.042736       -28.3743
  11   2.0000      -1.019181       -27.7333
  12   2.0000      -1.010553       -27.4985
  13   2.0000      -0.987897       -26.8820
  14   2.0000      -0.970836       -26.4178
  15   2.0000      -0.748378       -20.3644
  16   2.0000      -0.716746       -19.5037
  17   2.0000      -0.624191       -16.9851
  18   2.0000      -0.615992       -16.7620
  19   2.0000      -0.561331       -15.2746
  20   2.0000      -0.525689       -14.3047
  21   2.0000      -0.515083       -14.0161
  22   2.0000      -0.496865       -13.5204
  23   2.0000      -0.462203       -12.5772
  24   2.0000      -0.452317       -12.3082
  25   2.0000      -0.445509       -12.1229
  26   2.0000      -0.424533       -11.5521
  27   2.0000      -0.401570       -10.9273
  28   2.0000      -0.387443       -10.5429
  29   2.0000      -0.372252       -10.1295
  30   2.0000      -0.362091        -9.8530
  31   2.0000      -0.336409        -9.1542
  32   2.0000      -0.321531        -8.7493
  33   2.0000      -0.307289        -8.3618
  34   2.0000      -0.295459        -8.0398
  35   2.0000      -0.282486        -7.6868
  36   2.0000      -0.279697        -7.6110
  37   2.0000      -0.256387        -6.9766
  38   2.0000      -0.234858        -6.3908
  39   2.0000      -0.216661        -5.8956
  40   0.0000       0.026560         0.7227
  41   0.0000       0.029436         0.8010
  42   0.0000       0.078455         2.1349
  43   0.0000       0.091790         2.4977
  44   0.0000       0.099637         2.7113

MULLIKEN ATOMIC CHARGES
-----------------------
   0 C :   -0.227576
   1 C :   -0.004787
   2 H :    0.140485
   3 C :   -0.080824
   4 H :    0.145017
   5 C :    0.032693
   6 H :    0.162240
   7 C :   -0.077951
   8 H :    0.155576
   9 O :   -0.207773
  10 O :   -0.371637
  11 O :   -0.438064
  12 O :   -0.399295
  13 O :   -0.411934
  14 H :    0.158465
  15 H :    0.159508
  16 H :    0.321996
  17 H :    0.343259
  18 H :    0.298626
  19 H :    0.301974
Sum of atomic charges:   -0.0000000

LOEWDIN ATOMIC CHARGES
----------------------
   0 C :    0.052961
   1 C :    0.085930
   2 H :    0.174355
   3 C :    0.103955
   4 H :    0.176232
   5 C :    0.117717
   6 H :    0.200954
   7 C :    0.282595
   8 H :    0.201970
   9 O :   -0.674273
  10 O :   -0.479682
  11 O :   -0.565270
  12 O :   -0.587658
  13 O :   -0.589703
  14 H :    0.180558
  15 H :    0.194056
  16 H :    0.286034
  17 H :    0.289234
  18 H :    0.274428
  19 H :    0.275608

  Mayer bond orders larger than 0.100000
B(  0-C ,  1-C ) :   0.9217 B(  0-C ,  9-O ) :   0.9377 B(  0-C , 14-H ) :   0.9762
B(  0-C , 15-H ) :   0.9519 B(  1-C ,  2-H ) :   0.9693 B(  1-C ,  3-C ) :   0.8384
B(  1-C , 13-O ) :   0.9196 B(  3-C ,  4-H ) :   0.9887 B(  3-C ,  5-C ) :   0.9008
B(  3-C , 12-O ) :   0.9368 B(  5-C ,  6-H ) :   0.9410 B(  5-C ,  7-C ) :   0.8959
B(  5-C , 11-O ) :   1.0036 B(  7-C ,  8-H ) :   0.9913 B(  7-C ,  9-O ) :   0.9145
B(  7-C , 10-O ) :   1.1379 B( 10-O , 16-H ) :   0.8565 B( 11-O , 17-H ) :   0.8229
B( 12-O , 18-H ) :   0.8965 B( 13-O , 19-H ) :   0.8962

Dispersion correction           -0.006471728
FINAL SINGLE POINT ENERGY      -572.560547619779

DIPOLE MOMENT
-------------

Method             : SCF
Type of density    : Electron Density
Multiplicity       :   1
Irrep              :   0
Energy             :  -572.5710453053432047 Eh
Relativity type    :
Basis              : AO
                                X                 Y                 Z
Electronic contribution:     -2.456097538       0.619860865       1.267718755
Nuclear contribution   :      4.339382486      -1.305874019      -1.469296487
                        -----------------------------------------
Total Dipole Moment    :      1.883284948      -0.686013154      -0.201577732
                        -----------------------------------------
Magnitude (a.u.)       :      2.014450253
Magnitude (Debye)      :      5.120325625

Rotational constants in cm-1:             0.058424             0.040754             0.038481
Rotational constants in MHz :          1751.515268          1221.776588          1153.619878

                             ****ORCA TERMINATED NORMALLY****
TOTAL RUN TIME: 0 days 0 hours 0 minutes 36 seconds 957 msec
