                         Program Version 6.0.0  -   RELEASE  -
|  1> ! r2scan-3c def2/J RI DEFGRID2 scfconv6 printgap
|  2> %output
|  3>     printlevel normal
|  4> end
|  5> %cpcm
|  6>     smd true
|  7>     smdsolvent "water"
|  8> end
|  9> * xyz 0 1
| 10> C 0.848633244 1.3900916638 -0.5828872168
| 11> C 1.5965942498 0.1595491527 -0.0524300703
| 12> H 2.5540971839 0.0978426043 -0.5871323809
| 13> C 0.7664391701 -1.1152801519 -0.3411631365
| 14> H 1.1963916783 -1.9640558221 0.2116468972
| 15> C -0.6730825973 -0.9138024272 0.1656519085
| 16> H -1.2896550206 -1.7643323578 -0.1411907592
| 17> C -1.2615037739 0.368488988 -0.4576768775
| 18> H -1.2774511461 0.2742741361 -1.5545890501
| 19> O -0.4661305775 1.4796428385 -0.079789748
| 20> O -2.5565246871 0.5947973474 -0.0469899996
| 21> O -0.7400233693 -0.8471515218 1.5658511802
| 22> O 0.7019695909 -1.3878834305 -1.7188641632
| 23> O 1.8093598529 0.3317456462 1.3317861751
| 24> H 0.8271205059 1.3462693763 -1.6795142223
| 25> H 1.3468165373 2.2996278753 -0.2472479605
| 26> H -2.5910728326 0.5298728777 0.9233017221
| 27> H -0.1284397795 -0.1477230194 1.8635120123
| 28> H 1.5413150917 -1.7633667454 -2.0230806431
| 29> H 2.4660061057 -0.3030488812 1.6515524
| 30> *
| 31>
| 32>                          ****END OF INPUT****

CARTESIAN COORDINATES (ANGSTROEM)
---------------------------------
  C      0.848633    1.390092   -0.582887
  C      1.596594    0.159549   -0.052430
  H      2.554097    0.097843   -0.587132
  C      0.766439   -1.115280   -0.341163
  H      1.196392   -1.964056    0.211647
  C     -0.673083   -0.913802    0.165652
  H     -1.289655   -1.764332   -0.141191
  C     -1.261504    0.368489   -0.457677
  H     -1.277451    0.274274   -1.554589
  O     -0.466131    1.479643   -0.079790
  O     -2.556525    0.594797   -0.046990
  O     -0.740023   -0.847152    1.565851
  O      0.701970   -1.387883   -1.718864
  O      1.809360    0.331746    1.331786
  H      0.827121    1.346269   -1.679514
  H      1.346817    2.299628   -0.247248
  H     -2.591073    0.529873    0.923302
  H     -0.128440   -0.147723    1.863512
  H      1.541315   -1.763367   -2.023081
  H      2.466006   -0.303049    1.651552

 Total Charge           Charge          ....    0
 Multiplicity           Mult            ....    1
 Number of Electrons    NEL             ....   80
 Basis Dimension        Dim             ....  265

ORBITAL ENERGIES
----------------

  NO   OCC          E(Eh)            E(eV)
   0   2.0000     -18.967162      -516.1227
   1   2.0000     -18.966136      -516.0948
   2   2.0000     -18.963219      -516.0154
   3   2.0000     -18.961998      -515.9822
   4   2.0000     -18.959065      -515.9024
   5   2.0000     -10.129138      -275.6279
   6   2.0000     -10.086200      -274.4595
   7   2.0000     -10.085438      -274.4387
   8   2.0000     -10.083469      -274.3851
   9   2.0000     -10.077486      -274.2223
  10   2.0000      -1.049794       -28.5664
  11   2.0000      -1.008559       -27.4443
  12   2.0000      -0.995617       -27.0921
  13   2.0000      -0.992749       -27.0141
  14   2.0000      -0.980164       -26.6716
  15   2.0000      -0.737700       -20.0738
  16   2.0000      -0.714248       -19.4357
  17   2.0000      -0.619137       -16.8476
  18   2.0000      -0.612776       -16.6745
  19   2.0000      -0.556680       -15.1480
  20   2.0000      -0.519212       -14.1285
  21   2.0000      -0.507718       -13.8157
  22   2.0000      -0.485794       -13.2191
  23   2.0000      -0.459650       -12.5077
  24   2.0000      -0.456590       -12.4245
  25   2.0000      -0.440174       -11.9777
  26   2.0000      -0.419832       -11.4242
  27   2.0000      -0.395380       -10.7588
  28   2.0000      -0.385595       -10.4926
  29   2.0000      -0.369390       -10.0516
  30   2.0000      -0.359822        -9.7912
  31   2.0000      -0.335502        -9.1295
  32   2.0000      -0.321723        -8.7545
  33   2.0000      -0.311238        -8.4692
  34   2.0000      -0.296178        -8.0594
  35   2.0000      -0.290872        -7.9150
  36   2.0000      -0.272597        -7.4177
  37   2.0000      -0.264855        -7.2071
  38   2.0000      -0.228735        -6.2242
  39   2.0000      -0.219726        -5.9790
  40   0.0000       0.043776         1.1912
  41   0.0000       0.063978         1.7409
  42   0.0000       0.086741         2.3603
  43   0.0000       0.102564         2.7909
  44   0.0000       0.109305         2.9743

MULLIKEN ATOMIC CHARGES
-----------------------
   0 C :   -0.261298
   1 C :    0.017832
   2 H :    0.175662
   3 C :   -0.080762
   4 H :    0.175591
   5 C :    0.014305
   6 H :    0.178805
   7 C :   -0.058113
   8 H :    0.173339
   9 O :   -0.260969
  10 O :   -0.440686
  11 O :   -0.486269
  12 O :   -0.468357
  13 O :   -0.470895
  14 H :    0.179638
  15 H :    0.176454
  16 H :    0.363312
  17 H :    0.367308
  18 H :    0.353071
  19 H :    0.352031
Sum of atomic charges:   -0.0000000

LOEWDIN ATOMIC CHARGES
----------------------
   0 C :    0.052061
   1 C :    0.096547
   2 H :    0.191986
   3 C :    0.112303
   4 H :    0.189788
   5 C :    0.114514
   6 H :    0.205442
   7 C :    0.278632
   8 H :    0.209517
   9 O :   -0.708614
  10 O :   -0.512808
  11 O :   -0.590307
  12 O :   -0.606778
  13 O :   -0.604470
  14 H :    0.188522
  15 H :    0.199602
  16 H :    0.298726
  17 H :    0.295297
  18 H :    0.295175
  19 H :    0.294864

  Mayer bond orders larger than 0.100000
B(  0-C ,  1-C ) :   0.9041 B(  0-C ,  9-O ) :   0.9124 B(  0-C , 14-H ) :   0.9735
B(  0-C , 15-H ) :   0.9462 B(  1-C ,  2-H ) :   0.9607 B(  1-C ,  3-C ) :   0.8442
B(  1-C , 13-O ) :   0.9216 B(  3-C ,  4-H ) :   0.9884 B(  3-C ,  5-C ) :   0.8981
B(  3-C , 12-O ) :   0.9408 B(  5-C ,  6-H ) :   0.9418 B(  5-C ,  7-C ) :   0.8931
B(  5-C , 11-O ) :   0.9768 B(  7-C ,  8-H ) :   0.9851 B(  7-C ,  9-O ) :   0.9123
B(  7-C , 10-O ) :   1.1082 B( 10-O , 16-H ) :   0.8363 B( 11-O , 17-H ) :   0.8117
B( 12-O , 18-H ) :   0.8690 B( 13-O , 19-H ) :   0.8702

Dispersion correction           -0.006471728
FINAL SINGLE POINT ENERGY      -572.589756362862

DIPOLE MOMENT
-------------

Method             : SCF
Type of density    : Electron Density
Multiplicity       :   1
Irrep              :   0
Energy             :  -572.6002540484264500 Eh
Relativity type    :
Basis              : AO
                                X                 Y                 Z
Electronic contribution:     -1.697943092       0.279702178       1.158931556
Nuclear contribution   :      4.339382486      -1.305874019      -1.469296487
                        -----------------------------------------
Total Dipole Moment    :      2.641439394      -1.026171841      -0.310364931
                        -----------------------------------------
Magnitude (a.u.)       :      2.850711685
Magnitude (Debye)      :      7.245933259

Rotational constants in cm-1:             0.058424             0.040754             0.038481
Rotational constants in MHz :          1751.515268          1221.776588          1153.619878

                             ****ORCA TERMINATED NORMALLY****
TOTAL RUN TIME: 0 days 0 hours 0 minutes 45 seconds 305 msec
