                         Program Version 6.0.0  -   RELEASE  -
|  1> ! r2scan-3c def2/J RI DEFGRID2 scfconv6 printgap
|  2> %output
|  3>     printlevel normal
|  4> end
|  5> * xyz 0 1
|  6> C 4.3204593579 0.0231650242 -2.1785973963
|  7> C 4.5062827114 -0.3561118407 -0.7229815557
|  8> O 3.257664067 -0.6656184898 -0.0829304032
|  9> P 2.1809016846 0.4638270241 0.2539740383
| 10> S 2.9178023929 2.1896148646 0.8087155164
| 11> O 1.2589645803 -0.2740775939 1.3075993553
| 12> C 1.5099463656 -0.2141120184 2.725341307
| 13> C 2.7339844905 -1.0161120721 3.1132752899
| 14> S 0.8676374723 0.4974058798 -1.4030122639
| 15> C 0.4527698875 -1.2653735261 -1.524541871
| 16> S -0.6885406557 -1.8693141494 -0.2403294291
| 17> P -2.0860024421 -0.299372847 -0.3178593361
| 18> S -2.5900642433 0.3643333824 -2.09691016
| 19> O -1.4632944622 0.7489899393 0.69584056
| 20> C -1.7279415868 2.1602028828 0.5891187239
| 21> C -3.1415391316 2.4885480816 1.0188075372
| 22> O -3.2911819516 -0.870715665 0.5438214619
| 23> C -4.2269119693 -1.821302506 -0.006462964
| 24> C -5.46302413 -1.8206362588 0.8699102538
| 25> H 3.7377997306 0.9413557635 -2.2515721871
| 26> H 5.2922831029 0.1877321774 -2.6328164864
| 27> H 3.8016708585 -0.7648244273 -2.7184188298
| 28> H 4.9824649119 0.4624965807 -0.1739353356
| 29> H 5.0933760085 -1.2690724545 -0.6143205141
| 30> H 1.626339668 0.8362444237 3.0120300452
| 31> H 0.5984426421 -0.6208118233 3.1663286781
| 32> H 2.8202684012 -1.0376130483 4.1951482739
| 33> H 2.6511717513 -2.0317968704 2.7354590955
| 34> H 3.6273002185 -0.5536926176 2.6960009096
| 35> H 1.3542796154 -1.8673963481 -1.4401927075
| 36> H -0.0159595635 -1.3794121982 -2.5005872548
| 37> H -0.9821427874 2.6230157838 1.2385711936
| 38> H -1.5511444966 2.4716432306 -0.4465633763
| 39> H -3.2841867722 3.5643387559 0.9989935819
| 40> H -3.847871686 2.0228138757 0.3323751239
| 41> H -3.3248467799 2.1138080307 2.0222269754
| 42> H -4.4611028388 -1.52327808 -1.034051269
| 43> H -3.746691061 -2.8033949192 -0.0193550233
| 44> H -6.1669980196 -2.5544813246 0.4916346372
| 45> H -5.1923214297 -2.0728906602 1.8909971383
| 46> H -5.9290974932 -0.8394638178 0.8614047953
| 47> *
| 48>
| 49>                          ****END OF INPUT****

CARTESIAN COORDINATES (ANGSTROEM)
---------------------------------
  C      4.320459    0.023165   -2.178597
  C      4.506283   -0.356112   -0.722982
  O      3.257664   -0.665618   -0.082930
  P      2.180902    0.463827    0.253974
  S      2.917802    2.189615    0.808716
  O      1.258965   -0.274078    1.307599
  C      1.509946   -0.214112    2.725341
  C      2.733984   -1.016112    3.113275
  S      0.867637    0.497406   -1.403012
  C      0.452770   -1.265374   -1.524542
  S     -0.688541   -1.869314   -0.240329
  P     -2.086002   -0.299373   -0.317859
  S     -2.590064    0.364333   -2.096910
  O     -1.463294    0.748990    0.695841
  C     -1.727942    2.160203    0.589119
  C     -3.141539    2.488548    1.018808
  O     -3.291182   -0.870716    0.543821
  C     -4.226912   -1.821303   -0.006463
  C     -5.463024   -1.820636    0.869910
  H      3.737800    0.941356   -2.251572
  H      5.292283    0.187732   -2.632816
  H      3.801671   -0.764824   -2.718419
  H      4.982465    0.462497   -0.173935
  H      5.093376   -1.269072   -0.614321
  H      1.626340    0.836244    3.012030
  H      0.598443   -0.620812    3.166329
  H      2.820268   -1.037613    4.195148
  H      2.651172   -2.031797    2.735459
  H      3.627300   -0.553693    2.696001
  H      1.354280   -1.867396   -1.440193
  H     -0.015960   -1.379412   -2.500587
  H     -0.982143    2.623016    1.238571
  H     -1.551144    2.471643   -0.446563
  H     -3.284187    3.564339    0.998994
  H     -3.847872    2.022814    0.332375
  H     -3.324847    2.113808    2.022227
  H     -4.461103   -1.523278   -1.034051
  H     -3.746691   -2.803395   -0.019355
  H     -6.166998   -2.554481    0.491635
  H     -5.192321   -2.072891    1.890997
  H     -5.929097   -0.839464    0.861405

 Total Charge           Charge          ....    0
 Multiplicity           Mult            ....    1
 Number of Electrons    NEL             ....  202
 Basis Dimension        Dim             ....  539

ORBITAL ENERGIES
----------------

  NO   OCC          E(Eh)            E(eV)
   0   2.0000     -88.574907     -2410.2458
   1   2.0000     -88.572366     -2410.1766
   2   2.0000     -88.522800     -2408.8278
   3   2.0000     -88.517747     -2408.6904
   4   2.0000     -76.913023     -2092.9097
   5   2.0000     -76.911743     -2092.8749
   6   2.0000     -18.992547      -516.8135
   7   2.0000     -18.991018      -516.7719
   8   2.0000     -18.985363      -516.6180
   9   2.0000     -18.984271      -516.5883
  10   2.0000     -10.111471      -275.1471
  11   2.0000     -10.099868      -274.8314
  12   2.0000     -10.097874      -274.7771
  13   2.0000     -10.095848      -274.7220
  14   2.0000     -10.089614      -274.5524
  15   2.0000     -10.033153      -273.0160
  16   2.0000     -10.030520      -272.9443
  17   2.0000     -10.028658      -272.8937
  18   2.0000     -10.023035      -272.7407
  19   2.0000      -7.869078      -214.1285
  20   2.0000      -7.867051      -214.0733
  21   2.0000      -7.817435      -212.7232
  22   2.0000      -7.812477      -212.5883
  23   2.0000      -6.591523      -179.3645
  24   2.0000      -6.590174      -179.3278
  25   2.0000      -5.816483      -158.2745
  26   2.0000      -5.814035      -158.2079
  27   2.0000      -5.812581      -158.1684
  28   2.0000      -5.810904      -158.1227
  29   2.0000      -5.806013      -157.9897
  30   2.0000      -5.803986      -157.9345
  31   2.0000      -5.765011      -156.8739
  32   2.0000      -5.760092      -156.7401
  33   2.0000      -5.757823      -156.6783
  34   2.0000      -5.757422      -156.6674
  35   2.0000      -5.752813      -156.5420
  36   2.0000      -5.752475      -156.5328
  37   2.0000      -4.736806      -128.8950
  38   2.0000      -4.736613      -128.8898
  39   2.0000      -4.735521      -128.8601
  40   2.0000      -4.735316      -128.8545
  41   2.0000      -4.735161      -128.8503
  42   2.0000      -4.734015      -128.8191
  43   2.0000      -1.049041       -28.5459
  44   2.0000      -1.046585       -28.4790
  45   2.0000      -1.010315       -27.4921
  46   2.0000      -1.007197       -27.4072
  47   2.0000      -0.801509       -21.8102
  48   2.0000      -0.757826       -20.6215
  49   2.0000      -0.747881       -20.3509
  50   2.0000      -0.731786       -19.9129
  51   2.0000      -0.728382       -19.8203
  52   2.0000      -0.709820       -19.3152
  53   2.0000      -0.687561       -18.7095
  54   2.0000      -0.668327       -18.1861
  55   2.0000      -0.631511       -17.1843
  56   2.0000      -0.624194       -16.9852
  57   2.0000      -0.606108       -16.4930
  58   2.0000      -0.599026       -16.3003
  59   2.0000      -0.593168       -16.1409
  60   2.0000      -0.526531       -14.3276
  61   2.0000      -0.518835       -14.1182
  62   2.0000      -0.493655       -13.4330
  63   2.0000      -0.491560       -13.3760
  64   2.0000      -0.476055       -12.9541
  65   2.0000      -0.460694       -12.5361
  66   2.0000      -0.459884       -12.5141
  67   2.0000      -0.451285       -12.2801
  68   2.0000      -0.443531       -12.0691
  69   2.0000      -0.432146       -11.7593
  70   2.0000      -0.424308       -11.5460
  71   2.0000      -0.414127       -11.2690
  72   2.0000      -0.409428       -11.1411
  73   2.0000      -0.406105       -11.0507
  74   2.0000      -0.396267       -10.7830
  75   2.0000      -0.387005       -10.5309
  76   2.0000      -0.385278       -10.4839
  77   2.0000      -0.373142       -10.1537
  78   2.0000      -0.371235       -10.1018
  79   2.0000      -0.366873        -9.9831
  80   2.0000      -0.363000        -9.8777
  81   2.0000      -0.359690        -9.7876
  82   2.0000      -0.354829        -9.6554
  83   2.0000      -0.353739        -9.6257
  84   2.0000      -0.342461        -9.3189
  85   2.0000      -0.334308        -9.0970
  86   2.0000      -0.325069        -8.8456
  87   2.0000      -0.315402        -8.5825
  88   2.0000      -0.308856        -8.4044
  89   2.0000      -0.304445        -8.2844
  90   2.0000      -0.295607        -8.0439
  91   2.0000      -0.288553        -7.8519
  92   2.0000      -0.279404        -7.6030
  93   2.0000      -0.278177        -7.5696
  94   2.0000      -0.274075        -7.4579
  95   2.0000      -0.241651        -6.5757
  96   2.0000      -0.231018        -6.2863
  97   2.0000      -0.224682        -6.1139
  98   2.0000      -0.220959        -6.0126
  99   2.0000      -0.211376        -5.7518
 100   2.0000      -0.210322        -5.7232
 101   0.0000      -0.045838        -1.2473
 102   0.0000      -0.021013        -0.5718
 103   0.0000      -0.007980        -0.2172
 104   0.0000       0.007000         0.1905
 105   0.0000       0.008140         0.2215

MULLIKEN ATOMIC CHARGES
-----------------------
   0 C :   -0.429687
   1 C :   -0.162152
   2 O :   -0.299955
   3 P :    0.683759
   4 S :   -0.472285
   5 O :   -0.234084
   6 C :   -0.174566
   7 C :   -0.432381
   8 S :   -0.123047
   9 C :   -0.248504
  10 S :   -0.131913
  11 P :    0.699609
  12 S :   -0.478315
  13 O :   -0.273758
  14 C :   -0.148541
  15 C :   -0.451233
  16 O :   -0.289468
  17 C :   -0.155211
  18 C :   -0.439785
  19 H :    0.174462
  20 H :    0.147944
  21 H :    0.147036
  22 H :    0.170831
  23 H :    0.148190
  24 H :    0.169773
  25 H :    0.158183
  26 H :    0.146767
  27 H :    0.155979
  28 H :    0.162326
  29 H :    0.188016
  30 H :    0.206002
  31 H :    0.162597
  32 H :    0.177423
  33 H :    0.147499
  34 H :    0.166938
  35 H :    0.153532
  36 H :    0.171903
  37 H :    0.150413
  38 H :    0.146699
  39 H :    0.153303
  40 H :    0.155701
Sum of atomic charges:   -0.0000000

LOEWDIN ATOMIC CHARGES
----------------------
   0 C :   -0.403069
   1 C :    0.017035
   2 O :   -0.680538
   3 P :    0.374015
   4 S :   -0.114633
   5 O :   -0.688739
   6 C :    0.023834
   7 C :   -0.398031
   8 S :    0.194314
   9 C :   -0.407546
  10 S :    0.182277
  11 P :    0.367467
  12 S :   -0.130003
  13 O :   -0.668141
  14 C :    0.017336
  15 C :   -0.399510
  16 O :   -0.663967
  17 C :    0.018354
  18 C :   -0.386036
  19 H :    0.167063
  20 H :    0.159629
  21 H :    0.156526
  22 H :    0.180266
  23 H :    0.178546
  24 H :    0.179963
  25 H :    0.182539
  26 H :    0.158964
  27 H :    0.161133
  28 H :    0.163255
  29 H :    0.186938
  30 H :    0.189342
  31 H :    0.183290
  32 H :    0.182861
  33 H :    0.159589
  34 H :    0.164329
  35 H :    0.159233
  36 H :    0.180895
  37 H :    0.171170
  38 H :    0.159825
  39 H :    0.159773
  40 H :    0.160451

  Mayer bond orders larger than 0.100000
B(  0-C ,  1-C ) :   0.9336 B(  0-C , 19-H ) :   0.9600 B(  0-C , 20-H ) :   0.9603
B(  0-C , 21-H ) :   0.9705 B(  1-C ,  2-O ) :   0.8094 B(  1-C , 22-H ) :   0.9613
B(  1-C , 23-H ) :   0.9598 B(  2-O ,  3-P ) :   1.0253 B(  3-P ,  4-S ) :   1.7966
B(  3-P ,  5-O ) :   1.1394 B(  3-P ,  8-S ) :   1.0458 B(  5-O ,  6-C ) :   0.7924
B(  6-C ,  7-C ) :   0.9221 B(  6-C , 24-H ) :   0.9615 B(  6-C , 25-H ) :   0.9641
B(  7-C , 26-H ) :   0.9631 B(  7-C , 27-H ) :   0.9737 B(  7-C , 28-H ) :   0.9612
B(  8-S ,  9-C ) :   0.9114 B(  9-C , 10-S ) :   0.9183 B(  9-C , 29-H ) :   0.9203
B(  9-C , 30-H ) :   0.9159 B( 10-S , 11-P ) :   1.0817 B( 11-P , 12-S ) :   1.7388
B( 11-P , 13-O ) :   1.1666 B( 11-P , 16-O ) :   1.0921 B( 13-O , 14-C ) :   0.7776
B( 14-C , 15-C ) :   0.9221 B( 14-C , 31-H ) :   0.9588 B( 14-C , 32-H ) :   0.9611
B( 15-C , 33-H ) :   0.9635 B( 15-C , 34-H ) :   0.9616 B( 15-C , 35-H ) :   0.9737
B( 16-O , 17-C ) :   0.7780 B( 17-C , 18-C ) :   0.9577 B( 17-C , 36-H ) :   0.9513
B( 17-C , 37-H ) :   0.9463 B( 18-C , 38-H ) :   0.9645 B( 18-C , 39-H ) :   0.9717
B( 18-C , 40-H ) :   0.9712

Dispersion correction           -0.021680749
FINAL SINGLE POINT ENERGY     -2932.459962282888

DIPOLE MOMENT
-------------

Method             : SCF
Type of density    : Electron Density
Multiplicity       :   1
Irrep              :   0
Energy             : -2932.4846812858072553 Eh
Relativity type    :
Basis              : AO
                                X                 Y                 Z
Electronic contribution:      2.959287125       2.817741775      -8.725623454
Nuclear contribution   :     -2.839602221      -4.038390513       9.381301481
                        -----------------------------------------
Total Dipole Moment    :      0.119684904      -1.220648738       0.655678028
                        -----------------------------------------
Magnitude (a.u.)       :      1.390762918
Magnitude (Debye)      :      3.535038403

Rotational constants in cm-1:             0.013160             0.004853             0.004717
Rotational constants in MHz :           394.527782           145.497324           141.426019

                             ****ORCA TERMINATED NORMALLY****
TOTAL RUN TIME: 0 days 0 hours 1 minutes 24 seconds 573 msec
