                         Program Version 6.0.0  -   RELEASE  -
|  1> ! r2scan-3c def2/J RI DEFGRID2 scfconv6 printgap
|  2> %output
|  3>     printlevel normal
|  4> end
|  5> %cpcm
|  6>     smd true
|  7>     smdsolvent "water"
|  8> end
|  9> * xyz 0 1
| 10> C 4.3204593579 0.0231650242 -2.1785973963
| 11> C 4.5062827114 -0.3561118407 -0.7229815557
| 12> O 3.257664067 -0.6656184898 -0.0829304032
| 13> P 2.1809016846 0.4638270241 0.2539740383
| 14> S 2.9178023929 2.1896148646 0.8087155164
| 15> O 1.2589645803 -0.2740775939 1.3075993553
| 16> C 1.5099463656 -0.2141120184 2.725341307
| 17> C 2.7339844905 -1.0161120721 3.1132752899
| 18> S 0.8676374723 0.4974058798 -1.4030122639
| 19> C 0.4527698875 -1.2653735261 -1.524541871
| 20> S -0.6885406557 -1.8693141494 -0.2403294291
| 21> P -2.0860024421 -0.299372847 -0.3178593361
| 22> S -2.5900642433 0.3643333824 -2.09691016
| 23> O -1.4632944622 0.7489899393 0.69584056
| 24> C -1.7279415868 2.1602028828 0.5891187239
| 25> C -3.1415391316 2.4885480816 1.0188075372
| 26> O -3.2911819516 -0.870715665 0.5438214619
| 27> C -4.2269119693 -1.821302506 -0.006462964
| 28> C -5.46302413 -1.8206362588 0.8699102538
| 29> H 3.7377997306 0.9413557635 -2.2515721871
| 30> H 5.2922831029 0.1877321774 -2.6328164864
| 31> H 3.8016708585 -0.7648244273 -2.7184188298
| 32> H 4.9824649119 0.4624965807 -0.1739353356
| 33> H 5.0933760085 -1.2690724545 -0.6143205141
| 34> H 1.626339668 0.8362444237 3.0120300452
| 35> H 0.5984426421 -0.6208118233 3.1663286781
| 36> H 2.8202684012 -1.0376130483 4.1951482739
| 37> H 2.6511717513 -2.0317968704 2.7354590955
| 38> H 3.6273002185 -0.5536926176 2.6960009096
| 39> H 1.3542796154 -1.8673963481 -1.4401927075
| 40> H -0.0159595635 -1.3794121982 -2.5005872548
| 41> H -0.9821427874 2.6230157838 1.2385711936
| 42> H -1.5511444966 2.4716432306 -0.4465633763
| 43> H -3.2841867722 3.5643387559 0.9989935819
| 44> H -3.847871686 2.0228138757 0.3323751239
| 45> H -3.3248467799 2.1138080307 2.0222269754
| 46> H -4.4611028388 -1.52327808 -1.034051269
| 47> H -3.746691061 -2.8033949192 -0.0193550233
| 48> H -6.1669980196 -2.5544813246 0.4916346372
| 49> H -5.1923214297 -2.0728906602 1.8909971383
| 50> H -5.9290974932 -0.8394638178 0.8614047953
| 51> *
| 52>
| 53>                          ****END OF INPUT****

CARTESIAN COORDINATES (ANGSTROEM)
---------------------------------
  C      4.320459    0.023165   -2.178597
  C      4.506283   -0.356112   -0.722982
  O      3.257664   -0.665618   -0.082930
  P      2.180902    0.463827    0.253974
  S      2.917802    2.189615    0.808716
  O      1.258965   -0.274078    1.307599
  C      1.509946   -0.214112    2.725341
  C      2.733984   -1.016112    3.113275
  S      0.867637    0.497406   -1.403012
  C      0.452770   -1.265374   -1.524542
  S     -0.688541   -1.869314   -0.240329
  P     -2.086002   -0.299373   -0.317859
  S     -2.590064    0.364333   -2.096910
  O     -1.463294    0.748990    0.695841
  C     -1.727942    2.160203    0.589119
  C     -3.141539    2.488548    1.018808
  O     -3.291182   -0.870716    0.543821
  C     -4.226912   -1.821303   -0.006463
  C     -5.463024   -1.820636    0.869910
  H      3.737800    0.941356   -2.251572
  H      5.292283    0.187732   -2.632816
  H      3.801671   -0.764824   -2.718419
  H      4.982465    0.462497   -0.173935
  H      5.093376   -1.269072   -0.614321
  H      1.626340    0.836244    3.012030
  H      0.598443   -0.620812    3.166329
  H      2.820268   -1.037613    4.195148
  H      2.651172   -2.031797    2.735459
  H      3.627300   -0.553693    2.696001
  H      1.354280   -1.867396   -1.440193
  H     -0.015960   -1.379412   -2.500587
  H     -0.982143    2.623016    1.238571
  H     -1.551144    2.471643   -0.446563
  H     -3.284187    3.564339    0.998994
  H     -3.847872    2.022814    0.332375
  H     -3.324847    2.113808    2.022227
  H     -4.461103   -1.523278   -1.034051
  H     -3.746691   -2.803395   -0.019355
  H     -6.166998   -2.554481    0.491635
  H     -5.192321   -2.072891    1.890997
  H     -5.929097   -0.839464    0.861405

 Total Charge           Charge          ....    0
 Multiplicity           Mult            ....    1
 Number of Electrons    NEL             ....  202
 Basis Dimension        Dim             ....  539

ORBITAL ENERGIES
----------------

  NO   OCC          E(Eh)            E(eV)
   0   2.0000     -88.577813     -2410.3248
   1   2.0000     -88.576077     -2410.2776
   2   2.0000     -88.530271     -2409.0311
   3   2.0000     -88.526407     -2408.9260
   4   2.0000     -76.918379     -2093.0555
   5   2.0000     -76.917622     -2093.0349
   6   2.0000     -18.994736      -516.8730
   7   2.0000     -18.992196      -516.8039
   8   2.0000     -18.991377      -516.7816
   9   2.0000     -18.988506      -516.7035
  10   2.0000     -10.107487      -275.0387
  11   2.0000     -10.089779      -274.5568
  12   2.0000     -10.088873      -274.5322
  13   2.0000     -10.088484      -274.5216
  14   2.0000     -10.088216      -274.5143
  15   2.0000     -10.019579      -272.6466
  16   2.0000     -10.018372      -272.6138
  17   2.0000     -10.018072      -272.6056
  18   2.0000     -10.017978      -272.6030
  19   2.0000      -7.872110      -214.2110
  20   2.0000      -7.870687      -214.1723
  21   2.0000      -7.825258      -212.9361
  22   2.0000      -7.821442      -212.8323
  23   2.0000      -6.596880      -179.5102
  24   2.0000      -6.596155      -179.4905
  25   2.0000      -5.819471      -158.3559
  26   2.0000      -5.817637      -158.3059
  27   2.0000      -5.815589      -158.2502
  28   2.0000      -5.814527      -158.2213
  29   2.0000      -5.809106      -158.0738
  30   2.0000      -5.807696      -158.0354
  31   2.0000      -5.772745      -157.0844
  32   2.0000      -5.768992      -156.9823
  33   2.0000      -5.765653      -156.8914
  34   2.0000      -5.765261      -156.8807
  35   2.0000      -5.761751      -156.7852
  36   2.0000      -5.761473      -156.7777
  37   2.0000      -4.742205      -129.0420
  38   2.0000      -4.741881      -129.0331
  39   2.0000      -4.741388      -129.0197
  40   2.0000      -4.741231      -129.0155
  41   2.0000      -4.740749      -129.0023
  42   2.0000      -4.740045      -128.9832
  43   2.0000      -1.052073       -28.6284
  44   2.0000      -1.049652       -28.5625
  45   2.0000      -1.012396       -27.5487
  46   2.0000      -1.010401       -27.4944
  47   2.0000      -0.801919       -21.8213
  48   2.0000      -0.755741       -20.5648
  49   2.0000      -0.742395       -20.2016
  50   2.0000      -0.723291       -19.6817
  51   2.0000      -0.722535       -19.6612
  52   2.0000      -0.709236       -19.2993
  53   2.0000      -0.691637       -18.8204
  54   2.0000      -0.674613       -18.3572
  55   2.0000      -0.629745       -17.1362
  56   2.0000      -0.621948       -16.9241
  57   2.0000      -0.599021       -16.3002
  58   2.0000      -0.594934       -16.1890
  59   2.0000      -0.589976       -16.0541
  60   2.0000      -0.525284       -14.2937
  61   2.0000      -0.514612       -14.0033
  62   2.0000      -0.493973       -13.4417
  63   2.0000      -0.488339       -13.2884
  64   2.0000      -0.475196       -12.9307
  65   2.0000      -0.459150       -12.4941
  66   2.0000      -0.454109       -12.3569
  67   2.0000      -0.447327       -12.1724
  68   2.0000      -0.440629       -11.9901
  69   2.0000      -0.430985       -11.7277
  70   2.0000      -0.421517       -11.4701
  71   2.0000      -0.411387       -11.1944
  72   2.0000      -0.405307       -11.0290
  73   2.0000      -0.402605       -10.9554
  74   2.0000      -0.396026       -10.7764
  75   2.0000      -0.384549       -10.4641
  76   2.0000      -0.382729       -10.4146
  77   2.0000      -0.366678        -9.9778
  78   2.0000      -0.363944        -9.9034
  79   2.0000      -0.362439        -9.8625
  80   2.0000      -0.353442        -9.6176
  81   2.0000      -0.352586        -9.5943
  82   2.0000      -0.348858        -9.4929
  83   2.0000      -0.347018        -9.4428
  84   2.0000      -0.340176        -9.2567
  85   2.0000      -0.331501        -9.0206
  86   2.0000      -0.322456        -8.7745
  87   2.0000      -0.313078        -8.5193
  88   2.0000      -0.303660        -8.2630
  89   2.0000      -0.303161        -8.2494
  90   2.0000      -0.297538        -8.0964
  91   2.0000      -0.289272        -7.8715
  92   2.0000      -0.279812        -7.6141
  93   2.0000      -0.277573        -7.5532
  94   2.0000      -0.275597        -7.4994
  95   2.0000      -0.246763        -6.7148
  96   2.0000      -0.236996        -6.4490
  97   2.0000      -0.233322        -6.3490
  98   2.0000      -0.229694        -6.2503
  99   2.0000      -0.218887        -5.9562
 100   2.0000      -0.217394        -5.9156
 101   0.0000      -0.049550        -1.3483
 102   0.0000      -0.026292        -0.7154
 103   0.0000      -0.011890        -0.3235
 104   0.0000       0.002843         0.0774
 105   0.0000       0.005286         0.1438

MULLIKEN ATOMIC CHARGES
-----------------------
   0 C :   -0.468805
   1 C :   -0.156404
   2 O :   -0.315744
   3 P :    0.719167
   4 S :   -0.528748
   5 O :   -0.264447
   6 C :   -0.169888
   7 C :   -0.472918
   8 S :   -0.151756
   9 C :   -0.256191
  10 S :   -0.137900
  11 P :    0.727164
  12 S :   -0.527904
  13 O :   -0.299983
  14 C :   -0.144141
  15 C :   -0.494082
  16 O :   -0.317193
  17 C :   -0.146315
  18 C :   -0.482774
  19 H :    0.165517
  20 H :    0.170740
  21 H :    0.168740
  22 H :    0.173778
  23 H :    0.174819
  24 H :    0.176085
  25 H :    0.178290
  26 H :    0.171664
  27 H :    0.169467
  28 H :    0.166771
  29 H :    0.226879
  30 H :    0.232870
  31 H :    0.179573
  32 H :    0.179414
  33 H :    0.171878
  34 H :    0.167656
  35 H :    0.169729
  36 H :    0.172485
  37 H :    0.170997
  38 H :    0.169632
  39 H :    0.165796
  40 H :    0.166082
Sum of atomic charges:   -0.0000000

LOEWDIN ATOMIC CHARGES
----------------------
   0 C :   -0.406905
   1 C :    0.023680
   2 O :   -0.683984
   3 P :    0.379112
   4 S :   -0.151996
   5 O :   -0.702102
   6 C :    0.027202
   7 C :   -0.401147
   8 S :    0.180192
   9 C :   -0.395637
  10 S :    0.181738
  11 P :    0.370495
  12 S :   -0.161637
  13 O :   -0.685326
  14 C :    0.018892
  15 C :   -0.402461
  16 O :   -0.678439
  17 C :    0.023179
  18 C :   -0.389538
  19 H :    0.161301
  20 H :    0.167612
  21 H :    0.162921
  22 H :    0.180919
  23 H :    0.190245
  24 H :    0.182057
  25 H :    0.190386
  26 H :    0.168334
  27 H :    0.164339
  28 H :    0.162714
  29 H :    0.201712
  30 H :    0.198817
  31 H :    0.189933
  32 H :    0.182797
  33 H :    0.168606
  34 H :    0.162482
  35 H :    0.163795
  36 H :    0.181543
  37 H :    0.179427
  38 H :    0.168929
  39 H :    0.163233
  40 H :    0.162579

  Mayer bond orders larger than 0.100000
B(  0-C ,  1-C ) :   0.9220 B(  0-C , 19-H ) :   0.9623 B(  0-C , 20-H ) :   0.9557
B(  0-C , 21-H ) :   0.9668 B(  1-C ,  2-O ) :   0.7964 B(  1-C , 22-H ) :   0.9606
B(  1-C , 23-H ) :   0.9498 B(  2-O ,  3-P ) :   1.0408 B(  3-P ,  4-S ) :   1.7519
B(  3-P ,  5-O ) :   1.1458 B(  3-P ,  8-S ) :   1.0560 B(  5-O ,  6-C ) :   0.7834
B(  6-C ,  7-C ) :   0.9125 B(  6-C , 24-H ) :   0.9560 B(  6-C , 25-H ) :   0.9550
B(  7-C , 26-H ) :   0.9570 B(  7-C , 27-H ) :   0.9720 B(  7-C , 28-H ) :   0.9595
B(  8-S ,  9-C ) :   0.9070 B(  9-C , 10-S ) :   0.9087 B(  9-C , 29-H ) :   0.9081
B(  9-C , 30-H ) :   0.9065 B( 10-S , 11-P ) :   1.1077 B( 11-P , 12-S ) :   1.6964
B( 11-P , 13-O ) :   1.1635 B( 11-P , 16-O ) :   1.0971 B( 13-O , 14-C ) :   0.7642
B( 14-C , 15-C ) :   0.9160 B( 14-C , 31-H ) :   0.9503 B( 14-C , 32-H ) :   0.9571
B( 15-C , 33-H ) :   0.9575 B( 15-C , 34-H ) :   0.9611 B( 15-C , 35-H ) :   0.9719
B( 16-O , 17-C ) :   0.7707 B( 17-C , 18-C ) :   0.9536 B( 17-C , 36-H ) :   0.9478
B( 17-C , 37-H ) :   0.9372 B( 18-C , 38-H ) :   0.9583 B( 18-C , 39-H ) :   0.9690
B( 18-C , 40-H ) :   0.9691

Dispersion correction           -0.021680749
FINAL SINGLE POINT ENERGY     -2932.469406358377

DIPOLE MOMENT
-------------

Method             : SCF
Type of density    : Electron Density
Multiplicity       :   1
Irrep              :   0
Energy             : -2932.4941253612964829 Eh
Relativity type    :
Basis              : AO
                                X                 Y                 Z
Electronic contribution:      3.123529996       2.230417698      -8.643638464
Nuclear contribution   :     -2.839602221      -4.038390513       9.381301481
                        -----------------------------------------
Total Dipole Moment    :      0.283927775      -1.807972815       0.737663017
                        -----------------------------------------
Magnitude (a.u.)       :      1.973202324
Magnitude (Debye)      :      5.015481720

Rotational constants in cm-1:             0.013160             0.004853             0.004717
Rotational constants in MHz :           394.527782           145.497324           141.426019

                             ****ORCA TERMINATED NORMALLY****
TOTAL RUN TIME: 0 days 0 hours 1 minutes 51 seconds 489 msec
