                         Program Version 6.0.0  -   RELEASE  -
|  1> ! r2scan-3c def2/J RI DEFGRID2 scfconv6 printgap
|  2> %output
|  3>     printlevel normal
|  4> end
|  5> * xyz 0 1
|  6> C 1.9364831219 0.0516445912 -2.7944005639
|  7> C 2.3103121291 -1.1280895338 -1.9193093279
|  8> O 1.4768271115 -1.1644245175 -0.7371396517
|  9> P 2.022048835 -0.7617284717 0.6976059756
| 10> S 3.3017007483 0.7264007509 0.7802165659
| 11> O 2.5728344366 -2.168940397 1.1951394849
| 12> C 3.2568195342 -2.3268772522 2.4569433041
| 13> C 4.7595555384 -2.3187331559 2.2551588806
| 14> S 0.2273960081 -0.5499472411 1.7744846145
| 15> C -0.010455699 1.2299427764 1.498610709
| 16> S -0.0147023614 1.7042370115 -0.256148319
| 17> P -1.9567478652 1.0731026759 -0.7946124204
| 18> S -2.3807648002 1.1758855791 -2.7025523966
| 19> O -2.790704778 1.9943706654 0.1894380666
| 20> C -4.188439099 2.2763943842 -0.0359593316
| 21> C -5.0466591497 1.0367406046 0.1013669294
| 22> O -2.159946966 -0.3632375752 -0.1397467161
| 23> C -1.9270409434 -1.5973370684 -0.8397352175
| 24> C -2.7305367018 -2.6778158506 -0.1449001673
| 25> H 0.8747957805 0.0294836484 -3.0315498075
| 26> H 2.1556343337 0.9867178368 -2.2826622557
| 27> H 2.5074698028 0.0082253361 -3.7161305339
| 28> H 3.359412069 -1.0695171358 -1.6170967297
| 29> H 2.125335471 -2.0768665438 -2.4255455984
| 30> H 2.9496341301 -1.5282621926 3.1374596634
| 31> H 2.9103813374 -3.2877520315 2.8413064414
| 32> H 5.0815302108 -1.3526416004 1.8723973809
| 33> H 5.2489499199 -2.5032997826 3.2059253182
| 34> H 5.0457285283 -3.0910687051 1.54685496
| 35> H 0.8221813868 1.7749296507 1.9412159831
| 36> H -0.9563887934 1.5008206971 1.9591576118
| 37> H -4.4267365008 3.0233789213 0.7223635757
| 38> H -4.2946656865 2.7116149863 -1.034400496
| 39> H -4.8579606881 0.5511657492 1.0553238969
| 40> H -6.0937301234 1.3159752086 0.0373623271
| 41> H -4.8175629108 0.339618219 -0.703531219
| 42> H -2.2311836887 -1.4687988687 -1.8842280584
| 43> H -0.8569574859 -1.8198061014 -0.8051182426
| 44> H -3.7909429974 -2.4459527725 -0.1883015629
| 45> H -2.5505090018 -3.6269425748 -0.6388047521
| 46> H -2.4249766843 -2.7482918247 0.8954581998
| 47> *
| 48>
| 49>                          ****END OF INPUT****

CARTESIAN COORDINATES (ANGSTROEM)
---------------------------------
  C      1.936483    0.051645   -2.794401
  C      2.310312   -1.128090   -1.919309
  O      1.476827   -1.164425   -0.737140
  P      2.022049   -0.761728    0.697606
  S      3.301701    0.726401    0.780217
  O      2.572834   -2.168940    1.195139
  C      3.256820   -2.326877    2.456943
  C      4.759556   -2.318733    2.255159
  S      0.227396   -0.549947    1.774485
  C     -0.010456    1.229943    1.498611
  S     -0.014702    1.704237   -0.256148
  P     -1.956748    1.073103   -0.794612
  S     -2.380765    1.175886   -2.702552
  O     -2.790705    1.994371    0.189438
  C     -4.188439    2.276394   -0.035959
  C     -5.046659    1.036741    0.101367
  O     -2.159947   -0.363238   -0.139747
  C     -1.927041   -1.597337   -0.839735
  C     -2.730537   -2.677816   -0.144900
  H      0.874796    0.029484   -3.031550
  H      2.155634    0.986718   -2.282662
  H      2.507470    0.008225   -3.716131
  H      3.359412   -1.069517   -1.617097
  H      2.125335   -2.076867   -2.425546
  H      2.949634   -1.528262    3.137460
  H      2.910381   -3.287752    2.841306
  H      5.081530   -1.352642    1.872397
  H      5.248950   -2.503300    3.205925
  H      5.045729   -3.091069    1.546855
  H      0.822181    1.774930    1.941216
  H     -0.956389    1.500821    1.959158
  H     -4.426737    3.023379    0.722364
  H     -4.294666    2.711615   -1.034400
  H     -4.857961    0.551166    1.055324
  H     -6.093730    1.315975    0.037362
  H     -4.817563    0.339618   -0.703531
  H     -2.231184   -1.468799   -1.884228
  H     -0.856957   -1.819806   -0.805118
  H     -3.790943   -2.445953   -0.188302
  H     -2.550509   -3.626943   -0.638805
  H     -2.424977   -2.748292    0.895458

 Total Charge           Charge          ....    0
 Multiplicity           Mult            ....    1
 Number of Electrons    NEL             ....  202
 Basis Dimension        Dim             ....  539

ORBITAL ENERGIES
----------------

  NO   OCC          E(Eh)            E(eV)
   0   2.0000     -88.579117     -2410.3603
   1   2.0000     -88.572545     -2410.1815
   2   2.0000     -88.523776     -2408.8544
   3   2.0000     -88.521267     -2408.7861
   4   2.0000     -76.917677     -2093.0364
   5   2.0000     -76.912750     -2092.9023
   6   2.0000     -18.994112      -516.8561
   7   2.0000     -18.990529      -516.7586
   8   2.0000     -18.990025      -516.7449
   9   2.0000     -18.988812      -516.7118
  10   2.0000     -10.110665      -275.1252
  11   2.0000     -10.102685      -274.9080
  12   2.0000     -10.099677      -274.8262
  13   2.0000     -10.097428      -274.7650
  14   2.0000     -10.090331      -274.5719
  15   2.0000     -10.030968      -272.9565
  16   2.0000     -10.029341      -272.9122
  17   2.0000     -10.028348      -272.8852
  18   2.0000     -10.019526      -272.6452
  19   2.0000      -7.873630      -214.2524
  20   2.0000      -7.866677      -214.0632
  21   2.0000      -7.818472      -212.7515
  22   2.0000      -7.815902      -212.6815
  23   2.0000      -6.595885      -179.4832
  24   2.0000      -6.591144      -179.3541
  25   2.0000      -5.820528      -158.3846
  26   2.0000      -5.817384      -158.2991
  27   2.0000      -5.814055      -158.2085
  28   2.0000      -5.810790      -158.1196
  29   2.0000      -5.810215      -158.1040
  30   2.0000      -5.803610      -157.9243
  31   2.0000      -5.766112      -156.9039
  32   2.0000      -5.763513      -156.8332
  33   2.0000      -5.758814      -156.7053
  34   2.0000      -5.758454      -156.6955
  35   2.0000      -5.756292      -156.6367
  36   2.0000      -5.755850      -156.6246
  37   2.0000      -4.741408      -129.0203
  38   2.0000      -4.740815      -129.0041
  39   2.0000      -4.739644      -128.9723
  40   2.0000      -4.736429      -128.8848
  41   2.0000      -4.736252      -128.8800
  42   2.0000      -4.734931      -128.8440
  43   2.0000      -1.050460       -28.5845
  44   2.0000      -1.048596       -28.5337
  45   2.0000      -1.010262       -27.4906
  46   2.0000      -1.009322       -27.4650
  47   2.0000      -0.803158       -21.8551
  48   2.0000      -0.760586       -20.6966
  49   2.0000      -0.748695       -20.3730
  50   2.0000      -0.732058       -19.9203
  51   2.0000      -0.728939       -19.8354
  52   2.0000      -0.708742       -19.2858
  53   2.0000      -0.689106       -18.7515
  54   2.0000      -0.670471       -18.2444
  55   2.0000      -0.629646       -17.1336
  56   2.0000      -0.623088       -16.9551
  57   2.0000      -0.607768       -16.5382
  58   2.0000      -0.597922       -16.2703
  59   2.0000      -0.591959       -16.1080
  60   2.0000      -0.532833       -14.4991
  61   2.0000      -0.524394       -14.2695
  62   2.0000      -0.496978       -13.5235
  63   2.0000      -0.496398       -13.5077
  64   2.0000      -0.478913       -13.0319
  65   2.0000      -0.461318       -12.5531
  66   2.0000      -0.456263       -12.4155
  67   2.0000      -0.450725       -12.2648
  68   2.0000      -0.443669       -12.0728
  69   2.0000      -0.432347       -11.7648
  70   2.0000      -0.424303       -11.5459
  71   2.0000      -0.418055       -11.3759
  72   2.0000      -0.416361       -11.3298
  73   2.0000      -0.399936       -10.8828
  74   2.0000      -0.393029       -10.6949
  75   2.0000      -0.387120       -10.5341
  76   2.0000      -0.380962       -10.3665
  77   2.0000      -0.371921       -10.1205
  78   2.0000      -0.370951       -10.0941
  79   2.0000      -0.366131        -9.9629
  80   2.0000      -0.363611        -9.8943
  81   2.0000      -0.360052        -9.7975
  82   2.0000      -0.356968        -9.7136
  83   2.0000      -0.352597        -9.5946
  84   2.0000      -0.345095        -9.3905
  85   2.0000      -0.334583        -9.1045
  86   2.0000      -0.319924        -8.7056
  87   2.0000      -0.314920        -8.5694
  88   2.0000      -0.309386        -8.4188
  89   2.0000      -0.306518        -8.3408
  90   2.0000      -0.302381        -8.2282
  91   2.0000      -0.292599        -7.9620
  92   2.0000      -0.290157        -7.8956
  93   2.0000      -0.281508        -7.6602
  94   2.0000      -0.270219        -7.3530
  95   2.0000      -0.245516        -6.6808
  96   2.0000      -0.230205        -6.2642
  97   2.0000      -0.221897        -6.0381
  98   2.0000      -0.220627        -6.0036
  99   2.0000      -0.218832        -5.9547
 100   2.0000      -0.214661        -5.8412
 101   0.0000      -0.047705        -1.2981
 102   0.0000      -0.016935        -0.4608
 103   0.0000      -0.011043        -0.3005
 104   0.0000       0.003919         0.1066
 105   0.0000       0.005518         0.1501

MULLIKEN ATOMIC CHARGES
-----------------------
   0 C :   -0.472735
   1 C :   -0.117502
   2 O :   -0.266489
   3 P :    0.644614
   4 S :   -0.461749
   5 O :   -0.296469
   6 C :   -0.124469
   7 C :   -0.454751
   8 S :   -0.112322
   9 C :   -0.251079
  10 S :   -0.108181
  11 P :    0.681650
  12 S :   -0.477121
  13 O :   -0.302333
  14 C :   -0.156840
  15 C :   -0.437803
  16 O :   -0.261061
  17 C :   -0.136835
  18 C :   -0.462379
  19 H :    0.171086
  20 H :    0.176622
  21 H :    0.142706
  22 H :    0.155295
  23 H :    0.148160
  24 H :    0.152678
  25 H :    0.150117
  26 H :    0.180585
  27 H :    0.145445
  28 H :    0.151595
  29 H :    0.212146
  30 H :    0.197587
  31 H :    0.148869
  32 H :    0.172614
  33 H :    0.154926
  34 H :    0.148217
  35 H :    0.168151
  36 H :    0.167719
  37 H :    0.174358
  38 H :    0.149134
  39 H :    0.146994
  40 H :    0.158849
Sum of atomic charges:   -0.0000000

LOEWDIN ATOMIC CHARGES
----------------------
   0 C :   -0.402172
   1 C :    0.025293
   2 O :   -0.687584
   3 P :    0.368000
   4 S :   -0.121104
   5 O :   -0.661919
   6 C :    0.021235
   7 C :   -0.400270
   8 S :    0.185163
   9 C :   -0.407172
  10 S :    0.194334
  11 P :    0.368859
  12 S :   -0.117680
  13 O :   -0.680015
  14 C :    0.024196
  15 C :   -0.400949
  16 O :   -0.687689
  17 C :    0.010087
  18 C :   -0.387088
  19 H :    0.165575
  20 H :    0.167089
  21 H :    0.157234
  22 H :    0.177215
  23 H :    0.176525
  24 H :    0.176049
  25 H :    0.177959
  26 H :    0.168425
  27 H :    0.158453
  28 H :    0.158188
  29 H :    0.191739
  30 H :    0.188978
  31 H :    0.179838
  32 H :    0.180389
  33 H :    0.160902
  34 H :    0.159605
  35 H :    0.165045
  36 H :    0.180633
  37 H :    0.189256
  38 H :    0.157273
  39 H :    0.159456
  40 H :    0.160652

  Mayer bond orders larger than 0.100000
B(  0-C ,  1-C ) :   0.9506 B(  0-C , 19-H ) :   0.9645 B(  0-C , 20-H ) :   0.9632
B(  0-C , 21-H ) :   0.9629 B(  1-C ,  2-O ) :   0.7532 B(  1-C , 22-H ) :   0.9635
B(  1-C , 23-H ) :   0.9591 B(  2-O ,  3-P ) :   1.1596 B(  3-P ,  4-S ) :   1.7555
B(  3-P ,  5-O ) :   1.0626 B(  3-P ,  8-S ) :   1.1170 B(  5-O ,  6-C ) :   0.7701
B(  6-C ,  7-C ) :   0.9585 B(  6-C , 24-H ) :   0.9620 B(  6-C , 25-H ) :   0.9631
B(  7-C , 26-H ) :   0.9582 B(  7-C , 27-H ) :   0.9648 B(  7-C , 28-H ) :   0.9749
B(  8-S ,  9-C ) :   0.9057 B(  9-C , 10-S ) :   0.9025 B(  9-C , 29-H ) :   0.9165
B(  9-C , 30-H ) :   0.9177 B( 10-S , 11-P ) :   1.0827 B( 11-P , 12-S ) :   1.7785
B( 11-P , 13-O ) :   1.1459 B( 11-P , 16-O ) :   1.0633 B( 13-O , 14-C ) :   0.8105
B( 14-C , 15-C ) :   0.9257 B( 14-C , 31-H ) :   0.9617 B( 14-C , 32-H ) :   0.9667
B( 15-C , 33-H ) :   0.9701 B( 15-C , 34-H ) :   0.9602 B( 15-C , 35-H ) :   0.9601
B( 16-O , 17-C ) :   0.7459 B( 17-C , 18-C ) :   0.9357 B( 17-C , 36-H ) :   0.9396
B( 17-C , 37-H ) :   0.9361 B( 18-C , 38-H ) :   0.9726 B( 18-C , 39-H ) :   0.9681
B( 18-C , 40-H ) :   0.9776

Dispersion correction           -0.021804441
FINAL SINGLE POINT ENERGY     -2932.464151120445

DIPOLE MOMENT
-------------

Method             : SCF
Type of density    : Electron Density
Multiplicity       :   1
Irrep              :   0
Energy             : -2932.4886904630930076 Eh
Relativity type    :
Basis              : AO
                                X                 Y                 Z
Electronic contribution:      3.631741198      13.074480715       0.030978131
Nuclear contribution   :     -4.064117870     -14.255522176       0.938475661
                        -----------------------------------------
Total Dipole Moment    :     -0.432376672      -1.181041461       0.969453793
                        -----------------------------------------
Magnitude (a.u.)       :      1.587970143
Magnitude (Debye)      :      4.036299334

Rotational constants in cm-1:             0.013824             0.004773             0.004600
Rotational constants in MHz :           414.440882           143.097112           137.902233

                             ****ORCA TERMINATED NORMALLY****
TOTAL RUN TIME: 0 days 0 hours 1 minutes 20 seconds 641 msec
