                         Program Version 6.0.0  -   RELEASE  -
|  1> ! r2scan-3c def2/J RI DEFGRID2 scfconv6 printgap
|  2> %output
|  3>     printlevel normal
|  4> end
|  5> %cpcm
|  6>     smd true
|  7>     smdsolvent "water"
|  8> end
|  9> * xyz 0 1
| 10> C 1.9364831219 0.0516445912 -2.7944005639
| 11> C 2.3103121291 -1.1280895338 -1.9193093279
| 12> O 1.4768271115 -1.1644245175 -0.7371396517
| 13> P 2.022048835 -0.7617284717 0.6976059756
| 14> S 3.3017007483 0.7264007509 0.7802165659
| 15> O 2.5728344366 -2.168940397 1.1951394849
| 16> C 3.2568195342 -2.3268772522 2.4569433041
| 17> C 4.7595555384 -2.3187331559 2.2551588806
| 18> S 0.2273960081 -0.5499472411 1.7744846145
| 19> C -0.010455699 1.2299427764 1.498610709
| 20> S -0.0147023614 1.7042370115 -0.256148319
| 21> P -1.9567478652 1.0731026759 -0.7946124204
| 22> S -2.3807648002 1.1758855791 -2.7025523966
| 23> O -2.790704778 1.9943706654 0.1894380666
| 24> C -4.188439099 2.2763943842 -0.0359593316
| 25> C -5.0466591497 1.0367406046 0.1013669294
| 26> O -2.159946966 -0.3632375752 -0.1397467161
| 27> C -1.9270409434 -1.5973370684 -0.8397352175
| 28> C -2.7305367018 -2.6778158506 -0.1449001673
| 29> H 0.8747957805 0.0294836484 -3.0315498075
| 30> H 2.1556343337 0.9867178368 -2.2826622557
| 31> H 2.5074698028 0.0082253361 -3.7161305339
| 32> H 3.359412069 -1.0695171358 -1.6170967297
| 33> H 2.125335471 -2.0768665438 -2.4255455984
| 34> H 2.9496341301 -1.5282621926 3.1374596634
| 35> H 2.9103813374 -3.2877520315 2.8413064414
| 36> H 5.0815302108 -1.3526416004 1.8723973809
| 37> H 5.2489499199 -2.5032997826 3.2059253182
| 38> H 5.0457285283 -3.0910687051 1.54685496
| 39> H 0.8221813868 1.7749296507 1.9412159831
| 40> H -0.9563887934 1.5008206971 1.9591576118
| 41> H -4.4267365008 3.0233789213 0.7223635757
| 42> H -4.2946656865 2.7116149863 -1.034400496
| 43> H -4.8579606881 0.5511657492 1.0553238969
| 44> H -6.0937301234 1.3159752086 0.0373623271
| 45> H -4.8175629108 0.339618219 -0.703531219
| 46> H -2.2311836887 -1.4687988687 -1.8842280584
| 47> H -0.8569574859 -1.8198061014 -0.8051182426
| 48> H -3.7909429974 -2.4459527725 -0.1883015629
| 49> H -2.5505090018 -3.6269425748 -0.6388047521
| 50> H -2.4249766843 -2.7482918247 0.8954581998
| 51> *
| 52>
| 53>                          ****END OF INPUT****

CARTESIAN COORDINATES (ANGSTROEM)
---------------------------------
  C      1.936483    0.051645   -2.794401
  C      2.310312   -1.128090   -1.919309
  O      1.476827   -1.164425   -0.737140
  P      2.022049   -0.761728    0.697606
  S      3.301701    0.726401    0.780217
  O      2.572834   -2.168940    1.195139
  C      3.256820   -2.326877    2.456943
  C      4.759556   -2.318733    2.255159
  S      0.227396   -0.549947    1.774485
  C     -0.010456    1.229943    1.498611
  S     -0.014702    1.704237   -0.256148
  P     -1.956748    1.073103   -0.794612
  S     -2.380765    1.175886   -2.702552
  O     -2.790705    1.994371    0.189438
  C     -4.188439    2.276394   -0.035959
  C     -5.046659    1.036741    0.101367
  O     -2.159947   -0.363238   -0.139747
  C     -1.927041   -1.597337   -0.839735
  C     -2.730537   -2.677816   -0.144900
  H      0.874796    0.029484   -3.031550
  H      2.155634    0.986718   -2.282662
  H      2.507470    0.008225   -3.716131
  H      3.359412   -1.069517   -1.617097
  H      2.125335   -2.076867   -2.425546
  H      2.949634   -1.528262    3.137460
  H      2.910381   -3.287752    2.841306
  H      5.081530   -1.352642    1.872397
  H      5.248950   -2.503300    3.205925
  H      5.045729   -3.091069    1.546855
  H      0.822181    1.774930    1.941216
  H     -0.956389    1.500821    1.959158
  H     -4.426737    3.023379    0.722364
  H     -4.294666    2.711615   -1.034400
  H     -4.857961    0.551166    1.055324
  H     -6.093730    1.315975    0.037362
  H     -4.817563    0.339618   -0.703531
  H     -2.231184   -1.468799   -1.884228
  H     -0.856957   -1.819806   -0.805118
  H     -3.790943   -2.445953   -0.188302
  H     -2.550509   -3.626943   -0.638805
  H     -2.424977   -2.748292    0.895458

 Total Charge           Charge          ....    0
 Multiplicity           Mult            ....    1
 Number of Electrons    NEL             ....  202
 Basis Dimension        Dim             ....  539

ORBITAL ENERGIES
----------------

  NO   OCC          E(Eh)            E(eV)
   0   2.0000     -88.579848     -2410.3802
   1   2.0000     -88.576950     -2410.3013
   2   2.0000     -88.530050     -2409.0251
   3   2.0000     -88.528216     -2408.9752
   4   2.0000     -76.919866     -2093.0960
   5   2.0000     -76.918384     -2093.0556
   6   2.0000     -18.994100      -516.8557
   7   2.0000     -18.992164      -516.8031
   8   2.0000     -18.991674      -516.7897
   9   2.0000     -18.990527      -516.7585
  10   2.0000     -10.107212      -275.0312
  11   2.0000     -10.090869      -274.5865
  12   2.0000     -10.089731      -274.5555
  13   2.0000     -10.089542      -274.5504
  14   2.0000     -10.085395      -274.4376
  15   2.0000     -10.018631      -272.6208
  16   2.0000     -10.018199      -272.6091
  17   2.0000     -10.016807      -272.5712
  18   2.0000     -10.015812      -272.5441
  19   2.0000      -7.874300      -214.2706
  20   2.0000      -7.871202      -214.1863
  21   2.0000      -7.825032      -212.9299
  22   2.0000      -7.823209      -212.8804
  23   2.0000      -6.598123      -179.5440
  24   2.0000      -6.596820      -179.5086
  25   2.0000      -5.821208      -158.4031
  26   2.0000      -5.818500      -158.3294
  27   2.0000      -5.818060      -158.3174
  28   2.0000      -5.814675      -158.2253
  29   2.0000      -5.811459      -158.1378
  30   2.0000      -5.808273      -158.0511
  31   2.0000      -5.772551      -157.0791
  32   2.0000      -5.770782      -157.0310
  33   2.0000      -5.765389      -156.8842
  34   2.0000      -5.765042      -156.8748
  35   2.0000      -5.763541      -156.8339
  36   2.0000      -5.763213      -156.8250
  37   2.0000      -4.743613      -129.0803
  38   2.0000      -4.743039      -129.0647
  39   2.0000      -4.742050      -129.0377
  40   2.0000      -4.741954      -129.0351
  41   2.0000      -4.741909      -129.0339
  42   2.0000      -4.740715      -129.0014
  43   2.0000      -1.050747       -28.5923
  44   2.0000      -1.050212       -28.5777
  45   2.0000      -1.010846       -27.5065
  46   2.0000      -1.009576       -27.4720
  47   2.0000      -0.803070       -21.8527
  48   2.0000      -0.757685       -20.6177
  49   2.0000      -0.742855       -20.2141
  50   2.0000      -0.723585       -19.6897
  51   2.0000      -0.721308       -19.6278
  52   2.0000      -0.707642       -19.2559
  53   2.0000      -0.692100       -18.8330
  54   2.0000      -0.675336       -18.3768
  55   2.0000      -0.627028       -17.0623
  56   2.0000      -0.619449       -16.8561
  57   2.0000      -0.601444       -16.3661
  58   2.0000      -0.591219       -16.0879
  59   2.0000      -0.588947       -16.0261
  60   2.0000      -0.528598       -14.3839
  61   2.0000      -0.521061       -14.1788
  62   2.0000      -0.493614       -13.4319
  63   2.0000      -0.492446       -13.4001
  64   2.0000      -0.476613       -12.9693
  65   2.0000      -0.457259       -12.4426
  66   2.0000      -0.451458       -12.2848
  67   2.0000      -0.444874       -12.1056
  68   2.0000      -0.438801       -11.9404
  69   2.0000      -0.432445       -11.7674
  70   2.0000      -0.419663       -11.4196
  71   2.0000      -0.413353       -11.2479
  72   2.0000      -0.412570       -11.2266
  73   2.0000      -0.396965       -10.8020
  74   2.0000      -0.389861       -10.6087
  75   2.0000      -0.383091       -10.4244
  76   2.0000      -0.378166       -10.2904
  77   2.0000      -0.368228       -10.0200
  78   2.0000      -0.362443        -9.8626
  79   2.0000      -0.359494        -9.7823
  80   2.0000      -0.355583        -9.6759
  81   2.0000      -0.352795        -9.6000
  82   2.0000      -0.349385        -9.5073
  83   2.0000      -0.348513        -9.4835
  84   2.0000      -0.341871        -9.3028
  85   2.0000      -0.331217        -9.0129
  86   2.0000      -0.316743        -8.6190
  87   2.0000      -0.308699        -8.4001
  88   2.0000      -0.306796        -8.3484
  89   2.0000      -0.302864        -8.2413
  90   2.0000      -0.300973        -8.1899
  91   2.0000      -0.291236        -7.9249
  92   2.0000      -0.288162        -7.8413
  93   2.0000      -0.280449        -7.6314
  94   2.0000      -0.270447        -7.3592
  95   2.0000      -0.247507        -6.7350
  96   2.0000      -0.235944        -6.4204
  97   2.0000      -0.231670        -6.3041
  98   2.0000      -0.227057        -6.1785
  99   2.0000      -0.223270        -6.0755
 100   2.0000      -0.221057        -6.0153
 101   0.0000      -0.049566        -1.3488
 102   0.0000      -0.023219        -0.6318
 103   0.0000      -0.014518        -0.3950
 104   0.0000       0.001236         0.0336
 105   0.0000       0.003783         0.1029

MULLIKEN ATOMIC CHARGES
-----------------------
   0 C :   -0.503324
   1 C :   -0.119257
   2 O :   -0.286119
   3 P :    0.677820
   4 S :   -0.511459
   5 O :   -0.324309
   6 C :   -0.121473
   7 C :   -0.492823
   8 S :   -0.113620
   9 C :   -0.258963
  10 S :   -0.144048
  11 P :    0.706037
  12 S :   -0.529786
  13 O :   -0.325639
  14 C :   -0.148656
  15 C :   -0.478274
  16 O :   -0.276832
  17 C :   -0.120781
  18 C :   -0.501978
  19 H :    0.165798
  20 H :    0.171147
  21 H :    0.167613
  22 H :    0.169244
  23 H :    0.174813
  24 H :    0.164673
  25 H :    0.176110
  26 H :    0.171198
  27 H :    0.169778
  28 H :    0.166641
  29 H :    0.234426
  30 H :    0.231659
  31 H :    0.175131
  32 H :    0.175854
  33 H :    0.169417
  34 H :    0.172621
  35 H :    0.169201
  36 H :    0.169165
  37 H :    0.177699
  38 H :    0.164500
  39 H :    0.169962
  40 H :    0.166834
Sum of atomic charges:   -0.0000000

LOEWDIN ATOMIC CHARGES
----------------------
   0 C :   -0.407402
   1 C :    0.030391
   2 O :   -0.695455
   3 P :    0.373267
   4 S :   -0.152520
   5 O :   -0.674832
   6 C :    0.026405
   7 C :   -0.404808
   8 S :    0.188821
   9 C :   -0.398116
  10 S :    0.174319
  11 P :    0.372064
  12 S :   -0.154762
  13 O :   -0.688976
  14 C :    0.028793
  15 C :   -0.403512
  16 O :   -0.693312
  17 C :    0.015112
  18 C :   -0.390507
  19 H :    0.161917
  20 H :    0.162431
  21 H :    0.165576
  22 H :    0.181604
  23 H :    0.187708
  24 H :    0.180237
  25 H :    0.189063
  26 H :    0.162578
  27 H :    0.167482
  28 H :    0.162322
  29 H :    0.199341
  30 H :    0.201510
  31 H :    0.190954
  32 H :    0.181228
  33 H :    0.164486
  34 H :    0.168795
  35 H :    0.163019
  36 H :    0.182155
  37 H :    0.190119
  38 H :    0.161876
  39 H :    0.168140
  40 H :    0.162488

  Mayer bond orders larger than 0.100000
B(  0-C ,  1-C ) :   0.9401 B(  0-C , 19-H ) :   0.9659 B(  0-C , 20-H ) :   0.9660
B(  0-C , 21-H ) :   0.9587 B(  1-C ,  2-O ) :   0.7440 B(  1-C , 22-H ) :   0.9623
B(  1-C , 23-H ) :   0.9495 B(  2-O ,  3-P ) :   1.1650 B(  3-P ,  4-S ) :   1.7119
B(  3-P ,  5-O ) :   1.0667 B(  3-P ,  8-S ) :   1.1307 B(  5-O ,  6-C ) :   0.7573
B(  6-C ,  7-C ) :   0.9477 B(  6-C , 24-H ) :   0.9558 B(  6-C , 25-H ) :   0.9530
B(  7-C , 26-H ) :   0.9625 B(  7-C , 27-H ) :   0.9599 B(  7-C , 28-H ) :   0.9718
B(  8-S ,  9-C ) :   0.9029 B(  9-C , 10-S ) :   0.8959 B(  9-C , 29-H ) :   0.9079
B(  9-C , 30-H ) :   0.9066 B( 10-S , 11-P ) :   1.0959 B( 11-P , 12-S ) :   1.7452
B( 11-P , 13-O ) :   1.1532 B( 11-P , 16-O ) :   1.0704 B( 13-O , 14-C ) :   0.7985
B( 14-C , 15-C ) :   0.9140 B( 14-C , 31-H ) :   0.9511 B( 14-C , 32-H ) :   0.9628
B( 15-C , 33-H ) :   0.9693 B( 15-C , 34-H ) :   0.9544 B( 15-C , 35-H ) :   0.9589
B( 16-O , 17-C ) :   0.7410 B( 17-C , 18-C ) :   0.9334 B( 17-C , 36-H ) :   0.9373
B( 17-C , 37-H ) :   0.9319 B( 18-C , 38-H ) :   0.9695 B( 18-C , 39-H ) :   0.9619
B( 18-C , 40-H ) :   0.9741

Dispersion correction           -0.021804441
FINAL SINGLE POINT ENERGY     -2932.471810848997

DIPOLE MOMENT
-------------

Method             : SCF
Type of density    : Electron Density
Multiplicity       :   1
Irrep              :   0
Energy             : -2932.4963501916454334 Eh
Relativity type    :
Basis              : AO
                                X                 Y                 Z
Electronic contribution:      3.414843224      12.612109247       0.500942864
Nuclear contribution   :     -4.064117870     -14.255522176       0.938475661
                        -----------------------------------------
Total Dipole Moment    :     -0.649274646      -1.643412929       1.439418525
                        -----------------------------------------
Magnitude (a.u.)       :      2.279098355
Magnitude (Debye)      :      5.793007641

Rotational constants in cm-1:             0.013824             0.004773             0.004600
Rotational constants in MHz :           414.440882           143.097112           137.902233

                             ****ORCA TERMINATED NORMALLY****
TOTAL RUN TIME: 0 days 0 hours 1 minutes 50 seconds 381 msec
