                         Program Version 6.0.0  -   RELEASE  -
|  1> ! pbe def2-sv(p) def2/J RI DEFGRID1 loosescf d4 GCP(DFT/SV(P)) printgap
|  2> %output
|  3>     printlevel normal
|  4> end
|  5> * xyz 0 1
|  6> C 1.6432646564 -1.530649215 -3.2140902798
|  7> C 1.5260170182 -0.1994207417 -2.5005945662
|  8> O 1.0370339542 -0.3803696725 -1.1519165576
|  9> P 2.0667312959 -0.4567758819 0.0561353051
| 10> S 3.8023096109 -1.2892194424 -0.2957762922
| 11> O 1.1004567103 -1.1932283797 1.0735276699
| 12> C 1.4986610561 -1.4183725021 2.4414470646
| 13> C 2.1044925055 -2.7973402232 2.6107802497
| 14> S 2.2576868553 1.5313651163 0.7705752597
| 15> C 0.5606152929 2.1658289874 0.5773154596
| 16> S -0.7068205406 1.2757588169 1.5274102468
| 17> P -1.8395383351 0.4501850323 -0.048739901
| 18> S -1.6400173296 1.2434456095 -1.8352927659
| 19> O -3.3311695086 0.499712734 0.5108212405
| 20> C -4.2085859322 1.6181987939 0.3035752082
| 21> C -3.7475518064 2.8625893342 1.0352793083
| 22> O -1.5264157914 -1.0911135021 0.1088811115
| 23> C -1.760675312 -2.0352656344 -0.950313498
| 24> C -3.2373090016 -2.3042579193 -1.1540273412
| 25> H 1.9753012448 -1.3563220625 -4.2325209553
| 26> H 2.3686594493 -2.1624334806 -2.7057908757
| 27> H 0.6830830185 -2.0387709721 -3.231407092
| 28> H 0.7908968207 0.4507044219 -2.9816671145
| 29> H 2.4965080413 0.3054825799 -2.4669473627
| 30> H 2.2067771959 -0.6392963302 2.7455036014
| 31> H 0.5761657457 -1.3116600822 3.0169737763
| 32> H 3.012951814 -2.8844753609 2.0184427061
| 33> H 2.3463588282 -2.9538984639 3.6570889444
| 34> H 1.4004049428 -3.5578501495 2.2854406285
| 35> H 0.2773007538 2.1582070637 -0.47796622
| 36> H 0.6108430339 3.1816069002 0.9615893352
| 37> H -4.2751378752 1.8100457973 -0.7723954637
| 38> H -5.1713233029 1.2665040189 0.6769928534
| 39> H -4.5135528195 3.6273826276 0.9559358042
| 40> H -3.5661123657 2.639822279 2.0836492237
| 41> H -2.8273469401 3.2389955061 0.5907553896
| 42> H -1.3074898534 -1.6441091209 -1.8669101023
| 43> H -1.2226967992 -2.9286884447 -0.6295892205
| 44> H -3.3600740523 -3.1013424336 -1.8808285283
| 45> H -3.6981272405 -2.5959711589 -0.2140305823
| 46> H -3.7317681049 -1.4074589531 -1.5249745582
| 47> *
| 48>
| 49>                          ****END OF INPUT****

CARTESIAN COORDINATES (ANGSTROEM)
---------------------------------
  C      1.643265   -1.530649   -3.214090
  C      1.526017   -0.199421   -2.500595
  O      1.037034   -0.380370   -1.151917
  P      2.066731   -0.456776    0.056135
  S      3.802310   -1.289219   -0.295776
  O      1.100457   -1.193228    1.073528
  C      1.498661   -1.418373    2.441447
  C      2.104493   -2.797340    2.610780
  S      2.257687    1.531365    0.770575
  C      0.560615    2.165829    0.577315
  S     -0.706821    1.275759    1.527410
  P     -1.839538    0.450185   -0.048740
  S     -1.640017    1.243446   -1.835293
  O     -3.331170    0.499713    0.510821
  C     -4.208586    1.618199    0.303575
  C     -3.747552    2.862589    1.035279
  O     -1.526416   -1.091114    0.108881
  C     -1.760675   -2.035266   -0.950313
  C     -3.237309   -2.304258   -1.154027
  H      1.975301   -1.356322   -4.232521
  H      2.368659   -2.162433   -2.705791
  H      0.683083   -2.038771   -3.231407
  H      0.790897    0.450704   -2.981667
  H      2.496508    0.305483   -2.466947
  H      2.206777   -0.639296    2.745504
  H      0.576166   -1.311660    3.016974
  H      3.012952   -2.884475    2.018443
  H      2.346359   -2.953898    3.657089
  H      1.400405   -3.557850    2.285441
  H      0.277301    2.158207   -0.477966
  H      0.610843    3.181607    0.961589
  H     -4.275138    1.810046   -0.772395
  H     -5.171323    1.266504    0.676993
  H     -4.513553    3.627383    0.955936
  H     -3.566112    2.639822    2.083649
  H     -2.827347    3.238996    0.590755
  H     -1.307490   -1.644109   -1.866910
  H     -1.222697   -2.928688   -0.629589
  H     -3.360074   -3.101342   -1.880829
  H     -3.698127   -2.595971   -0.214031
  H     -3.731768   -1.407459   -1.524975

 Total Charge           Charge          ....    0
 Multiplicity           Mult            ....    1
 Number of Electrons    NEL             ....  202
 Basis Dimension        Dim             ....  334

ORBITAL ENERGIES
----------------

  NO   OCC          E(Eh)            E(eV)
   0   2.0000     -88.048623     -2395.9248
   1   2.0000     -88.042337     -2395.7538
   2   2.0000     -87.996505     -2394.5066
   3   2.0000     -87.985337     -2394.2027
   4   2.0000     -76.430951     -2079.7919
   5   2.0000     -76.424545     -2079.6176
   6   2.0000     -18.796516      -511.4792
   7   2.0000     -18.792047      -511.3576
   8   2.0000     -18.789101      -511.2774
   9   2.0000     -18.786330      -511.2020
  10   2.0000      -9.958594      -270.9871
  11   2.0000      -9.955295      -270.8974
  12   2.0000      -9.951044      -270.7817
  13   2.0000      -9.949276      -270.7336
  14   2.0000      -9.946698      -270.6634
  15   2.0000      -9.887178      -269.0438
  16   2.0000      -9.885061      -268.9862
  17   2.0000      -9.878490      -268.8074
  18   2.0000      -9.877481      -268.7799
  19   2.0000      -7.693565      -209.3525
  20   2.0000      -7.687484      -209.1871
  21   2.0000      -7.641224      -207.9283
  22   2.0000      -7.630544      -207.6376
  23   2.0000      -6.428512      -174.9287
  24   2.0000      -6.422155      -174.7557
  25   2.0000      -5.721429      -155.6880
  26   2.0000      -5.718228      -155.6009
  27   2.0000      -5.715617      -155.5299
  28   2.0000      -5.711490      -155.4176
  29   2.0000      -5.710327      -155.3859
  30   2.0000      -5.704752      -155.2342
  31   2.0000      -5.669893      -154.2856
  32   2.0000      -5.662225      -154.0770
  33   2.0000      -5.661228      -154.0498
  34   2.0000      -5.659472      -154.0021
  35   2.0000      -5.651250      -153.7783
  36   2.0000      -5.650589      -153.7603
  37   2.0000      -4.650682      -126.5515
  38   2.0000      -4.650155      -126.5371
  39   2.0000      -4.649461      -126.5183
  40   2.0000      -4.644591      -126.3857
  41   2.0000      -4.644369      -126.3797
  42   2.0000      -4.642315      -126.3238
  43   2.0000      -0.989921       -26.9371
  44   2.0000      -0.985508       -26.8170
  45   2.0000      -0.946760       -25.7626
  46   2.0000      -0.942914       -25.6580
  47   2.0000      -0.763158       -20.7666
  48   2.0000      -0.721333       -19.6285
  49   2.0000      -0.708105       -19.2685
  50   2.0000      -0.689163       -18.7531
  51   2.0000      -0.679466       -18.4892
  52   2.0000      -0.678089       -18.4517
  53   2.0000      -0.656462       -17.8632
  54   2.0000      -0.641250       -17.4493
  55   2.0000      -0.605024       -16.4635
  56   2.0000      -0.590079       -16.0569
  57   2.0000      -0.573939       -15.6177
  58   2.0000      -0.567701       -15.4479
  59   2.0000      -0.557588       -15.1727
  60   2.0000      -0.502874       -13.6839
  61   2.0000      -0.493366       -13.4252
  62   2.0000      -0.476368       -12.9626
  63   2.0000      -0.473382       -12.8814
  64   2.0000      -0.454105       -12.3568
  65   2.0000      -0.443550       -12.0696
  66   2.0000      -0.442026       -12.0281
  67   2.0000      -0.438846       -11.9416
  68   2.0000      -0.423103       -11.5132
  69   2.0000      -0.418903       -11.3989
  70   2.0000      -0.408532       -11.1167
  71   2.0000      -0.398997       -10.8573
  72   2.0000      -0.392064       -10.6686
  73   2.0000      -0.390687       -10.6311
  74   2.0000      -0.385975       -10.5029
  75   2.0000      -0.378052       -10.2873
  76   2.0000      -0.361595        -9.8395
  77   2.0000      -0.356815        -9.7094
  78   2.0000      -0.353973        -9.6321
  79   2.0000      -0.351450        -9.5634
  80   2.0000      -0.347302        -9.4506
  81   2.0000      -0.344665        -9.3788
  82   2.0000      -0.340871        -9.2756
  83   2.0000      -0.333595        -9.0776
  84   2.0000      -0.326256        -8.8779
  85   2.0000      -0.324701        -8.8356
  86   2.0000      -0.315548        -8.5865
  87   2.0000      -0.298883        -8.1330
  88   2.0000      -0.294723        -8.0198
  89   2.0000      -0.293653        -7.9907
  90   2.0000      -0.282436        -7.6855
  91   2.0000      -0.272889        -7.4257
  92   2.0000      -0.268633        -7.3099
  93   2.0000      -0.266565        -7.2536
  94   2.0000      -0.254929        -6.9370
  95   2.0000      -0.236799        -6.4436
  96   2.0000      -0.225269        -6.1299
  97   2.0000      -0.216003        -5.8777
  98   2.0000      -0.210542        -5.7291
  99   2.0000      -0.203613        -5.5406
 100   2.0000      -0.197267        -5.3679
 101   0.0000      -0.042026        -1.1436
 102   0.0000      -0.028443        -0.7740
 103   0.0000      -0.018527        -0.5042
 104   0.0000      -0.001465        -0.0399
 105   0.0000       0.014084         0.3832

MULLIKEN ATOMIC CHARGES
-----------------------
   0 C :   -0.294266
   1 C :   -0.014246
   2 O :   -0.368121
   3 P :    0.583532
   4 S :   -0.316842
   5 O :   -0.344448
   6 C :   -0.013136
   7 C :   -0.283875
   8 S :   -0.091544
   9 C :   -0.353328
  10 S :   -0.083680
  11 P :    0.633952
  12 S :   -0.336089
  13 O :   -0.373972
  14 C :   -0.004241
  15 C :   -0.308913
  16 O :   -0.349727
  17 C :   -0.024747
  18 C :   -0.299819
  19 H :    0.108082
  20 H :    0.123672
  21 H :    0.114174
  22 H :    0.115095
  23 H :    0.104299
  24 H :    0.099238
  25 H :    0.105754
  26 H :    0.127243
  27 H :    0.105693
  28 H :    0.110540
  29 H :    0.199758
  30 H :    0.182030
  31 H :    0.110186
  32 H :    0.105753
  33 H :    0.113098
  34 H :    0.119305
  35 H :    0.118028
  36 H :    0.126797
  37 H :    0.107913
  38 H :    0.111028
  39 H :    0.116912
  40 H :    0.118911
Sum of atomic charges:    0.0000000

LOEWDIN ATOMIC CHARGES
----------------------
   0 C :   -0.360759
   1 C :   -0.125614
   2 O :   -0.237233
   3 P :    0.560492
   4 S :   -0.315400
   5 O :   -0.229241
   6 C :   -0.120848
   7 C :   -0.362442
   8 S :    0.070177
   9 C :   -0.482877
  10 S :    0.103976
  11 P :    0.581872
  12 S :   -0.302605
  13 O :   -0.246397
  14 C :   -0.119682
  15 C :   -0.369163
  16 O :   -0.224769
  17 C :   -0.117367
  18 C :   -0.363144
  19 H :    0.130161
  20 H :    0.123695
  21 H :    0.120993
  22 H :    0.110424
  23 H :    0.108722
  24 H :    0.104105
  25 H :    0.114923
  26 H :    0.124240
  27 H :    0.127952
  28 H :    0.124365
  29 H :    0.123228
  30 H :    0.138451
  31 H :    0.109384
  32 H :    0.119073
  33 H :    0.130744
  34 H :    0.124502
  35 H :    0.118628
  36 H :    0.108922
  37 H :    0.119973
  38 H :    0.129837
  39 H :    0.126723
  40 H :    0.121981

  Mayer bond orders larger than 0.100000
B(  0-C ,  1-C ) :   1.1709 B(  0-C , 19-H ) :   0.9391 B(  0-C , 20-H ) :   0.9333
B(  0-C , 21-H ) :   0.9451 B(  1-C ,  2-O ) :   0.8904 B(  1-C , 22-H ) :   0.9131
B(  1-C , 23-H ) :   0.9109 B(  2-O ,  3-P ) :   1.0929 B(  3-P ,  4-S ) :   1.6444
B(  3-P ,  5-O ) :   1.1190 B(  3-P ,  8-S ) :   0.9754 B(  5-O ,  6-C ) :   0.9026
B(  6-C ,  7-C ) :   1.1677 B(  6-C , 24-H ) :   0.9113 B(  6-C , 25-H ) :   0.9308
B(  7-C , 26-H ) :   0.9323 B(  7-C , 27-H ) :   0.9401 B(  7-C , 28-H ) :   0.9478
B(  8-S ,  9-C ) :   0.9751 B(  9-C , 10-S ) :   1.0063 B(  9-C , 29-H ) :   0.8568
B(  9-C , 30-H ) :   0.9106 B( 10-S , 11-P ) :   0.9684 B( 10-S , 12-S ) :   0.1149
B( 11-P , 12-S ) :   1.5608 B( 11-P , 13-O ) :   1.1005 B( 11-P , 16-O ) :   1.1533
B( 12-S , 29-H ) :   0.1029 B( 13-O , 14-C ) :   0.9137 B( 14-C , 15-C ) :   1.1672
B( 14-C , 31-H ) :   0.9163 B( 14-C , 32-H ) :   0.9340 B( 15-C , 33-H ) :   0.9375
B( 15-C , 34-H ) :   0.9433 B( 15-C , 35-H ) :   0.9390 B( 16-O , 17-C ) :   0.9056
B( 17-C , 18-C ) :   1.1575 B( 17-C , 36-H ) :   0.9057 B( 17-C , 37-H ) :   0.9352
B( 18-C , 38-H ) :   0.9398 B( 18-C , 39-H ) :   0.9456 B( 18-C , 40-H ) :   0.9397

Dispersion correction           -0.068859126
FINAL SINGLE POINT ENERGY     -2929.522812915130

DIPOLE MOMENT
-------------

Method             : SCF
Type of density    : Electron Density
Multiplicity       :   1
Irrep              :   0
Energy             : -2929.6418897048665713 Eh
Relativity type    :
Basis              : AO
                                X                 Y                 Z
Electronic contribution:     12.886288109       9.519616689       4.018298134
Nuclear contribution   :    -14.356152497      -9.397317186      -3.749219713
                        -----------------------------------------
Total Dipole Moment    :     -1.469864389       0.122299503       0.269078421
                        -----------------------------------------
Magnitude (a.u.)       :      1.499287059
Magnitude (Debye)      :      3.810884848

Rotational constants in cm-1:             0.011558             0.005902             0.005495
Rotational constants in MHz :           346.512133           176.949305           164.738759

                             ****ORCA TERMINATED NORMALLY****
TOTAL RUN TIME: 0 days 0 hours 0 minutes 22 seconds 474 msec
