                         Program Version 6.0.0  -   RELEASE  -
|  1> ! pbe def2-sv(p) def2/J RI DEFGRID1 loosescf d4 GCP(DFT/SV(P)) printgap
|  2> %output
|  3>     printlevel normal
|  4> end
|  5> * xyz 0 1
|  6> C 2.9650032329 2.1362103125 -1.5409111282
|  7> C 3.6889870722 1.9171318644 -0.2283897327
|  8> O 3.5118600345 0.5778280815 0.2617409812
|  9> P 2.1082009183 0.0557237048 0.8008061702
| 10> S 1.1443958246 1.3571816973 1.8947882742
| 11> O 2.4851879367 -1.2447105535 1.607557837
| 12> C 3.4202698128 -2.2484799447 1.1304161128
| 13> C 4.8056912028 -1.9959633912 1.6884979367
| 14> S 1.2073246173 -0.7023570937 -0.9964654769
| 15> C 0.1112476955 -1.9612151111 -0.2884038027
| 16> S -1.07444654 -1.3066365541 0.9212437831
| 17> P -2.1096925482 -0.0409437238 -0.4162369252
| 18> S -2.3277536766 -0.733261723 -2.2400992686
| 19> O -1.3009808778 1.3076450004 -0.280047316
| 20> C -1.301729246 2.31932802 -1.3075114215
| 21> C -2.6655674771 2.9573934601 -1.4580252394
| 22> O -3.4329954652 0.3046635231 0.3907557565
| 23> C -4.4931263385 -0.6530338779 0.5886255083
| 24> C -5.5453993803 -0.5321542795 -0.496841139
| 25> H 3.2697762007 1.3921904858 -2.2724689104
| 26> H 1.8895636589 2.0512438227 -1.3862023186
| 27> H 3.1894924627 3.128686397 -1.9177814675
| 28> H 3.3271279056 2.6142468211 0.5343260009
| 29> H 4.7692457085 2.0166385363 -0.3419744992
| 30> H 3.0156314646 -3.1938687173 1.4977259025
| 31> H 3.428918167 -2.2399675728 0.0373692817
| 32> H 5.1997586555 -1.0568395037 1.3103835442
| 33> H 4.7661444543 -1.9484218934 2.7732905027
| 34> H 5.4614041157 -2.8074413033 1.3883076183
| 35> H 0.6878793567 -2.7234366547 0.228896664
| 36> H -0.4315766393 -2.3827243575 -1.1355976663
| 37> H -0.5533579524 3.0355944291 -0.9638047581
| 38> H -0.9797528356 1.8582780584 -2.2475647172
| 39> H -3.0031952131 3.3466068936 -0.5009323818
| 40> H -2.6090024894 3.7648299687 -2.1811754349
| 41> H -3.3808134346 2.2137645741 -1.8086237159
| 42> H -4.0687336544 -1.6611329485 0.6151011164
| 43> H -4.9028658481 -0.4066421332 1.5700691054
| 44> H -5.1166154571 -0.7728808985 -1.4671329393
| 45> H -6.3548998958 -1.2236173375 -0.2865948097
| 46> H -5.9364665438 0.4810375934 -0.5263312786
| 47> *
| 48>
| 49>                          ****END OF INPUT****

CARTESIAN COORDINATES (ANGSTROEM)
---------------------------------
  C      2.965003    2.136210   -1.540911
  C      3.688987    1.917132   -0.228390
  O      3.511860    0.577828    0.261741
  P      2.108201    0.055724    0.800806
  S      1.144396    1.357182    1.894788
  O      2.485188   -1.244711    1.607558
  C      3.420270   -2.248480    1.130416
  C      4.805691   -1.995963    1.688498
  S      1.207325   -0.702357   -0.996465
  C      0.111248   -1.961215   -0.288404
  S     -1.074447   -1.306637    0.921244
  P     -2.109693   -0.040944   -0.416237
  S     -2.327754   -0.733262   -2.240099
  O     -1.300981    1.307645   -0.280047
  C     -1.301729    2.319328   -1.307511
  C     -2.665567    2.957393   -1.458025
  O     -3.432995    0.304664    0.390756
  C     -4.493126   -0.653034    0.588626
  C     -5.545399   -0.532154   -0.496841
  H      3.269776    1.392190   -2.272469
  H      1.889564    2.051244   -1.386202
  H      3.189492    3.128686   -1.917781
  H      3.327128    2.614247    0.534326
  H      4.769246    2.016639   -0.341974
  H      3.015631   -3.193869    1.497726
  H      3.428918   -2.239968    0.037369
  H      5.199759   -1.056840    1.310384
  H      4.766144   -1.948422    2.773291
  H      5.461404   -2.807441    1.388308
  H      0.687879   -2.723437    0.228897
  H     -0.431577   -2.382724   -1.135598
  H     -0.553358    3.035594   -0.963805
  H     -0.979753    1.858278   -2.247565
  H     -3.003195    3.346607   -0.500932
  H     -2.609002    3.764830   -2.181175
  H     -3.380813    2.213765   -1.808624
  H     -4.068734   -1.661133    0.615101
  H     -4.902866   -0.406642    1.570069
  H     -5.116615   -0.772881   -1.467133
  H     -6.354900   -1.223617   -0.286595
  H     -5.936467    0.481038   -0.526331

 Total Charge           Charge          ....    0
 Multiplicity           Mult            ....    1
 Number of Electrons    NEL             ....  202
 Basis Dimension        Dim             ....  334

ORBITAL ENERGIES
----------------

  NO   OCC          E(Eh)            E(eV)
   0   2.0000     -88.039263     -2395.6701
   1   2.0000     -88.038672     -2395.6541
   2   2.0000     -87.985924     -2394.2187
   3   2.0000     -87.976786     -2393.9701
   4   2.0000     -76.423780     -2079.5968
   5   2.0000     -76.422969     -2079.5747
   6   2.0000     -18.794143      -511.4146
   7   2.0000     -18.792744      -511.3765
   8   2.0000     -18.790803      -511.3238
   9   2.0000     -18.782970      -511.1106
  10   2.0000      -9.960070      -271.0273
  11   2.0000      -9.956721      -270.9362
  12   2.0000      -9.953693      -270.8537
  13   2.0000      -9.953489      -270.8482
  14   2.0000      -9.945622      -270.6341
  15   2.0000      -9.888204      -269.0717
  16   2.0000      -9.888175      -269.0709
  17   2.0000      -9.880135      -268.8522
  18   2.0000      -9.878907      -268.8187
  19   2.0000      -7.683926      -209.0902
  20   2.0000      -7.683615      -209.0818
  21   2.0000      -7.630901      -207.6474
  22   2.0000      -7.622070      -207.4071
  23   2.0000      -6.421227      -174.7305
  24   2.0000      -6.420341      -174.7064
  25   2.0000      -5.711797      -155.4259
  26   2.0000      -5.711500      -155.4178
  27   2.0000      -5.708509      -155.3364
  28   2.0000      -5.708142      -155.3264
  29   2.0000      -5.700761      -155.1256
  30   2.0000      -5.700692      -155.1237
  31   2.0000      -5.659591      -154.0053
  32   2.0000      -5.651609      -153.7881
  33   2.0000      -5.651201      -153.7770
  34   2.0000      -5.651171      -153.7762
  35   2.0000      -5.642726      -153.5464
  36   2.0000      -5.641986      -153.5262
  37   2.0000      -4.643637      -126.3598
  38   2.0000      -4.643609      -126.3590
  39   2.0000      -4.642995      -126.3423
  40   2.0000      -4.642078      -126.3174
  41   2.0000      -4.641869      -126.3117
  42   2.0000      -4.640185      -126.2658
  43   2.0000      -0.988976       -26.9114
  44   2.0000      -0.983351       -26.7583
  45   2.0000      -0.947180       -25.7741
  46   2.0000      -0.941786       -25.6273
  47   2.0000      -0.761400       -20.7188
  48   2.0000      -0.718843       -19.5607
  49   2.0000      -0.708135       -19.2693
  50   2.0000      -0.692880       -18.8542
  51   2.0000      -0.683286       -18.5932
  52   2.0000      -0.670863       -18.2551
  53   2.0000      -0.649108       -17.6631
  54   2.0000      -0.637206       -17.3392
  55   2.0000      -0.595440       -16.2027
  56   2.0000      -0.590665       -16.0728
  57   2.0000      -0.578286       -15.7360
  58   2.0000      -0.567832       -15.4515
  59   2.0000      -0.559831       -15.2338
  60   2.0000      -0.504781       -13.7358
  61   2.0000      -0.496154       -13.5010
  62   2.0000      -0.477076       -12.9819
  63   2.0000      -0.470970       -12.8158
  64   2.0000      -0.457140       -12.4394
  65   2.0000      -0.446794       -12.1579
  66   2.0000      -0.436347       -11.8736
  67   2.0000      -0.432848       -11.7784
  68   2.0000      -0.429534       -11.6882
  69   2.0000      -0.416865       -11.3435
  70   2.0000      -0.403245       -10.9729
  71   2.0000      -0.398620       -10.8470
  72   2.0000      -0.388967       -10.5843
  73   2.0000      -0.387140       -10.5346
  74   2.0000      -0.380544       -10.3551
  75   2.0000      -0.374087       -10.1794
  76   2.0000      -0.363793        -9.8993
  77   2.0000      -0.361728        -9.8431
  78   2.0000      -0.356147        -9.6913
  79   2.0000      -0.350292        -9.5319
  80   2.0000      -0.348479        -9.4826
  81   2.0000      -0.347237        -9.4488
  82   2.0000      -0.342354        -9.3159
  83   2.0000      -0.332616        -9.0509
  84   2.0000      -0.330232        -8.9861
  85   2.0000      -0.321538        -8.7495
  86   2.0000      -0.311335        -8.4719
  87   2.0000      -0.300320        -8.1721
  88   2.0000      -0.295440        -8.0393
  89   2.0000      -0.292303        -7.9540
  90   2.0000      -0.281921        -7.6715
  91   2.0000      -0.270984        -7.3738
  92   2.0000      -0.270151        -7.3512
  93   2.0000      -0.261938        -7.1277
  94   2.0000      -0.257791        -7.0148
  95   2.0000      -0.235324        -6.4035
  96   2.0000      -0.216923        -5.9028
  97   2.0000      -0.207092        -5.6353
  98   2.0000      -0.201905        -5.4941
  99   2.0000      -0.192525        -5.2389
 100   2.0000      -0.185197        -5.0395
 101   0.0000      -0.045390        -1.2351
 102   0.0000      -0.019182        -0.5220
 103   0.0000      -0.010682        -0.2907
 104   0.0000       0.002330         0.0634
 105   0.0000       0.021583         0.5873

MULLIKEN ATOMIC CHARGES
-----------------------
   0 C :   -0.350487
   1 C :    0.002912
   2 O :   -0.382954
   3 P :    0.596607
   4 S :   -0.287667
   5 O :   -0.364349
   6 C :   -0.030727
   7 C :   -0.279831
   8 S :   -0.107066
   9 C :   -0.355463
  10 S :   -0.069388
  11 P :    0.617305
  12 S :   -0.345585
  13 O :   -0.343381
  14 C :   -0.024257
  15 C :   -0.294298
  16 O :   -0.368482
  17 C :   -0.011048
  18 C :   -0.295098
  19 H :    0.121984
  20 H :    0.152663
  21 H :    0.116207
  22 H :    0.110651
  23 H :    0.104087
  24 H :    0.110757
  25 H :    0.105916
  26 H :    0.124314
  27 H :    0.121500
  28 H :    0.108771
  29 H :    0.183942
  30 H :    0.192636
  31 H :    0.114615
  32 H :    0.113127
  33 H :    0.118504
  34 H :    0.108512
  35 H :    0.122392
  36 H :    0.101277
  37 H :    0.109875
  38 H :    0.129750
  39 H :    0.107251
  40 H :    0.114525
Sum of atomic charges:   -0.0000000

LOEWDIN ATOMIC CHARGES
----------------------
   0 C :   -0.373474
   1 C :   -0.119318
   2 O :   -0.249648
   3 P :    0.563774
   4 S :   -0.296638
   5 O :   -0.239949
   6 C :   -0.117596
   7 C :   -0.357081
   8 S :    0.069244
   9 C :   -0.480490
  10 S :    0.093564
  11 P :    0.573008
  12 S :   -0.327966
  13 O :   -0.224380
  14 C :   -0.118315
  15 C :   -0.365201
  16 O :   -0.242478
  17 C :   -0.115624
  18 C :   -0.364216
  19 H :    0.125959
  20 H :    0.123119
  21 H :    0.132771
  22 H :    0.110818
  23 H :    0.117886
  24 H :    0.118046
  25 H :    0.106899
  26 H :    0.127733
  27 H :    0.129792
  28 H :    0.129620
  29 H :    0.128810
  30 H :    0.130724
  31 H :    0.118019
  32 H :    0.109529
  33 H :    0.127582
  34 H :    0.129218
  35 H :    0.121326
  36 H :    0.106525
  37 H :    0.120061
  38 H :    0.124219
  39 H :    0.128625
  40 H :    0.125500

  Mayer bond orders larger than 0.100000
B(  0-C ,  1-C ) :   1.1635 B(  0-C , 19-H ) :   0.9420 B(  0-C , 20-H ) :   0.9246
B(  0-C , 21-H ) :   0.9378 B(  1-C ,  2-O ) :   0.9109 B(  1-C , 22-H ) :   0.9123
B(  1-C , 23-H ) :   0.9325 B(  2-O ,  3-P ) :   1.0620 B(  3-P ,  4-S ) :   1.6921
B(  3-P ,  5-O ) :   1.1182 B(  3-P ,  8-S ) :   0.9352 B(  4-S ,  8-S ) :   0.1101
B(  5-O ,  6-C ) :   0.8923 B(  6-C ,  7-C ) :   1.1693 B(  6-C , 24-H ) :   0.9308
B(  6-C , 25-H ) :   0.9088 B(  7-C , 26-H ) :   0.9416 B(  7-C , 27-H ) :   0.9469
B(  7-C , 28-H ) :   0.9390 B(  8-S ,  9-C ) :   0.9980 B(  9-C , 10-S ) :   1.0114
B(  9-C , 29-H ) :   0.9001 B(  9-C , 30-H ) :   0.8803 B( 10-S , 11-P ) :   0.9606
B( 10-S , 12-S ) :   0.1117 B( 11-P , 12-S ) :   1.5816 B( 11-P , 13-O ) :   1.1513
B( 11-P , 16-O ) :   1.1138 B( 13-O , 14-C ) :   0.9051 B( 14-C , 15-C ) :   1.1615
B( 14-C , 31-H ) :   0.9236 B( 14-C , 32-H ) :   0.9166 B( 15-C , 33-H ) :   0.9446
B( 15-C , 34-H ) :   0.9389 B( 15-C , 35-H ) :   0.9326 B( 16-O , 17-C ) :   0.9054
B( 17-C , 18-C ) :   1.1672 B( 17-C , 36-H ) :   0.9152 B( 17-C , 37-H ) :   0.9356
B( 18-C , 38-H ) :   0.9314 B( 18-C , 39-H ) :   0.9394 B( 18-C , 40-H ) :   0.9464

Dispersion correction           -0.066685806
FINAL SINGLE POINT ENERGY     -2929.517494184794

DIPOLE MOMENT
-------------

Method             : SCF
Type of density    : Electron Density
Multiplicity       :   1
Irrep              :   0
Energy             : -2929.6354714700078148 Eh
Relativity type    :
Basis              : AO
                                X                 Y                 Z
Electronic contribution:     -0.984078489      -5.496495290       6.609437989
Nuclear contribution   :      1.615001220       5.187835883      -6.945044378
                        -----------------------------------------
Total Dipole Moment    :      0.630922731      -0.308659407      -0.335606388
                        -----------------------------------------
Magnitude (a.u.)       :      0.778438032
Magnitude (Debye)      :      1.978632233

Rotational constants in cm-1:             0.013674             0.005026             0.004504
Rotational constants in MHz :           409.925082           150.689817           135.036102

                             ****ORCA TERMINATED NORMALLY****
TOTAL RUN TIME: 0 days 0 hours 0 minutes 21 seconds 231 msec
