                         Program Version 6.0.0  -   RELEASE  -
|  1> ! pbe def2-sv(p) def2/J RI DEFGRID1 loosescf d4 GCP(DFT/SV(P)) printgap
|  2> %output
|  3>     printlevel normal
|  4> end
|  5> * xyz 0 1
|  6> C 5.9829344838 -0.1453467601 0.3627011096
|  7> C 4.8281212902 -0.0988612035 1.3419088039
|  8> O 3.8362677316 -1.1066275349 1.0181508048
|  9> P 2.5357809963 -0.8160858108 0.1845463174
| 10> S 1.4427250321 -2.4326803025 0.0672063273
| 11> O 3.1380259473 -0.2069526115 -1.1580996109
| 12> C 2.3770132659 0.4215052668 -2.2031867318
| 13> C 1.6747993496 -0.5920240865 -3.083711416
| 14> S 1.622627364 0.8586537171 1.1669791963
| 15> C -0.0776914434 0.28253996 1.1050691492
| 16> S -0.800405948 0.5989015005 -0.5473708614
| 17> P -2.8270954791 0.512374642 0.0705004389
| 18> S -4.1874457748 0.7508281047 -1.3161950187
| 19> O -2.9038434292 1.5153971647 1.3024435193
| 20> C -3.2665602448 2.8970495385 1.1214418222
| 21> C -2.1910905637 3.6818500554 0.3957201749
| 22> O -2.9090244332 -0.8193577807 0.9351863498
| 23> C -3.3531310128 -2.0607630592 0.3600247793
| 24> C -2.4039181366 -2.579300829 -0.7021872059
| 25> H 5.6397427232 0.0948464738 -0.6396933688
| 26> H 6.7354690898 0.5751537955 0.6675096477
| 27> H 6.421336589 -1.139488357 0.3525178008
| 28> H 4.3471680165 0.8830084719 1.3476740234
| 29> H 5.1530445543 -0.3545975132 2.3519170494
| 30> H 1.6534221728 1.1109631418 -1.7566225685
| 31> H 3.1224407007 0.985693166 -2.7667992565
| 32> H 2.3916904711 -1.3013940366 -3.4885189379
| 33> H 0.9284110759 -1.138470689 -2.5113596118
| 34> H 1.1788789075 -0.0740117644 -3.8979577023
| 35> H -0.641743995 0.8338844483 1.8532608322
| 36> H -0.0964664083 -0.7914583009 1.2974991708
| 37> H -4.2101066422 2.9377540057 0.5682125481
| 38> H -3.4178125788 3.2624814128 2.138241745
| 39> H -2.4727774742 4.7296088304 0.3677297556
| 40> H -1.2339018135 3.5825393263 0.9024982775
| 41> H -2.0903952545 3.3169391243 -0.6260945952
| 42> H -3.4125538153 -2.7386341898 1.2125770609
| 43> H -4.3502580376 -1.9073172599 -0.064576299
| 44> H -1.3964980213 -2.6969534647 -0.3065065818
| 45> H -2.7553131799 -3.5429730589 -1.0564483475
| 46> H -2.3745013834 -1.8863690905 -1.5433368568
| 47> *
| 48>
| 49>                          ****END OF INPUT****

CARTESIAN COORDINATES (ANGSTROEM)
---------------------------------
  C      5.982934   -0.145347    0.362701
  C      4.828121   -0.098861    1.341909
  O      3.836268   -1.106628    1.018151
  P      2.535781   -0.816086    0.184546
  S      1.442725   -2.432680    0.067206
  O      3.138026   -0.206953   -1.158100
  C      2.377013    0.421505   -2.203187
  C      1.674799   -0.592024   -3.083711
  S      1.622627    0.858654    1.166979
  C     -0.077691    0.282540    1.105069
  S     -0.800406    0.598902   -0.547371
  P     -2.827095    0.512375    0.070500
  S     -4.187446    0.750828   -1.316195
  O     -2.903843    1.515397    1.302444
  C     -3.266560    2.897050    1.121442
  C     -2.191091    3.681850    0.395720
  O     -2.909024   -0.819358    0.935186
  C     -3.353131   -2.060763    0.360025
  C     -2.403918   -2.579301   -0.702187
  H      5.639743    0.094846   -0.639693
  H      6.735469    0.575154    0.667510
  H      6.421337   -1.139488    0.352518
  H      4.347168    0.883008    1.347674
  H      5.153045   -0.354598    2.351917
  H      1.653422    1.110963   -1.756623
  H      3.122441    0.985693   -2.766799
  H      2.391690   -1.301394   -3.488519
  H      0.928411   -1.138471   -2.511360
  H      1.178879   -0.074012   -3.897958
  H     -0.641744    0.833884    1.853261
  H     -0.096466   -0.791458    1.297499
  H     -4.210107    2.937754    0.568213
  H     -3.417813    3.262481    2.138242
  H     -2.472777    4.729609    0.367730
  H     -1.233902    3.582539    0.902498
  H     -2.090395    3.316939   -0.626095
  H     -3.412554   -2.738634    1.212577
  H     -4.350258   -1.907317   -0.064576
  H     -1.396498   -2.696953   -0.306507
  H     -2.755313   -3.542973   -1.056448
  H     -2.374501   -1.886369   -1.543337

 Total Charge           Charge          ....    0
 Multiplicity           Mult            ....    1
 Number of Electrons    NEL             ....  202
 Basis Dimension        Dim             ....  334

ORBITAL ENERGIES
----------------

  NO   OCC          E(Eh)            E(eV)
   0   2.0000     -88.053124     -2396.0473
   1   2.0000     -88.043366     -2395.7818
   2   2.0000     -87.992619     -2394.4009
   3   2.0000     -87.990372     -2394.3397
   4   2.0000     -76.432687     -2079.8392
   5   2.0000     -76.427354     -2079.6940
   6   2.0000     -18.798803      -511.5414
   7   2.0000     -18.798081      -511.5218
   8   2.0000     -18.791667      -511.3473
   9   2.0000     -18.788303      -511.2557
  10   2.0000      -9.965695      -271.1803
  11   2.0000      -9.957302      -270.9520
  12   2.0000      -9.955826      -270.9118
  13   2.0000      -9.954219      -270.8681
  14   2.0000      -9.948304      -270.7071
  15   2.0000      -9.892559      -269.1902
  16   2.0000      -9.886183      -269.0167
  17   2.0000      -9.879890      -268.8455
  18   2.0000      -9.874659      -268.7031
  19   2.0000      -7.697936      -209.4715
  20   2.0000      -7.687947      -209.1997
  21   2.0000      -7.637503      -207.8270
  22   2.0000      -7.635503      -207.7726
  23   2.0000      -6.430220      -174.9752
  24   2.0000      -6.424743      -174.8261
  25   2.0000      -5.725669      -155.8034
  26   2.0000      -5.722503      -155.7172
  27   2.0000      -5.716095      -155.5429
  28   2.0000      -5.715078      -155.5152
  29   2.0000      -5.712454      -155.4438
  30   2.0000      -5.704765      -155.2345
  31   2.0000      -5.666529      -154.1941
  32   2.0000      -5.664450      -154.1375
  33   2.0000      -5.658126      -153.9654
  34   2.0000      -5.657524      -153.9491
  35   2.0000      -5.656061      -153.9092
  36   2.0000      -5.655726      -153.9001
  37   2.0000      -4.652882      -126.6114
  38   2.0000      -4.652133      -126.5910
  39   2.0000      -4.650454      -126.5453
  40   2.0000      -4.646998      -126.4512
  41   2.0000      -4.646947      -126.4499
  42   2.0000      -4.645122      -126.4002
  43   2.0000      -0.994710       -27.0674
  44   2.0000      -0.987926       -26.8828
  45   2.0000      -0.951087       -25.8804
  46   2.0000      -0.944545       -25.7024
  47   2.0000      -0.766637       -20.8612
  48   2.0000      -0.725473       -19.7411
  49   2.0000      -0.713011       -19.4020
  50   2.0000      -0.693999       -18.8847
  51   2.0000      -0.682531       -18.5726
  52   2.0000      -0.677457       -18.4345
  53   2.0000      -0.656845       -17.8737
  54   2.0000      -0.643566       -17.5123
  55   2.0000      -0.597516       -16.2592
  56   2.0000      -0.593293       -16.1443
  57   2.0000      -0.580131       -15.7862
  58   2.0000      -0.568917       -15.4810
  59   2.0000      -0.567503       -15.4425
  60   2.0000      -0.507871       -13.8199
  61   2.0000      -0.494070       -13.4443
  62   2.0000      -0.484124       -13.1737
  63   2.0000      -0.464757       -12.6467
  64   2.0000      -0.456575       -12.4240
  65   2.0000      -0.449927       -12.2431
  66   2.0000      -0.446842       -12.1592
  67   2.0000      -0.441618       -12.0170
  68   2.0000      -0.432723       -11.7750
  69   2.0000      -0.420508       -11.4426
  70   2.0000      -0.409900       -11.1539
  71   2.0000      -0.404039       -10.9945
  72   2.0000      -0.396638       -10.7931
  73   2.0000      -0.391310       -10.6481
  74   2.0000      -0.388897       -10.5824
  75   2.0000      -0.377907       -10.2834
  76   2.0000      -0.366909        -9.9841
  77   2.0000      -0.361982        -9.8500
  78   2.0000      -0.352187        -9.5835
  79   2.0000      -0.349533        -9.5113
  80   2.0000      -0.346594        -9.4313
  81   2.0000      -0.346255        -9.4221
  82   2.0000      -0.338673        -9.2158
  83   2.0000      -0.335594        -9.1320
  84   2.0000      -0.331655        -9.0248
  85   2.0000      -0.325765        -8.8645
  86   2.0000      -0.320991        -8.7346
  87   2.0000      -0.301373        -8.2008
  88   2.0000      -0.299259        -8.1433
  89   2.0000      -0.295589        -8.0434
  90   2.0000      -0.287077        -7.8118
  91   2.0000      -0.283710        -7.7201
  92   2.0000      -0.271405        -7.3853
  93   2.0000      -0.264212        -7.1896
  94   2.0000      -0.261677        -7.1206
  95   2.0000      -0.234339        -6.3767
  96   2.0000      -0.223259        -6.0752
  97   2.0000      -0.212519        -5.7829
  98   2.0000      -0.210415        -5.7257
  99   2.0000      -0.207699        -5.6518
 100   2.0000      -0.201733        -5.4894
 101   0.0000      -0.050695        -1.3795
 102   0.0000      -0.036150        -0.9837
 103   0.0000      -0.022077        -0.6007
 104   0.0000       0.002478         0.0674
 105   0.0000       0.008694         0.2366

MULLIKEN ATOMIC CHARGES
-----------------------
   0 C :   -0.288658
   1 C :   -0.020622
   2 O :   -0.353071
   3 P :    0.600878
   4 S :   -0.292251
   5 O :   -0.374279
   6 C :   -0.025766
   7 C :   -0.304255
   8 S :   -0.120146
   9 C :   -0.342419
  10 S :   -0.089671
  11 P :    0.583147
  12 S :   -0.311596
  13 O :   -0.369014
  14 C :   -0.003265
  15 C :   -0.313132
  16 O :   -0.371373
  17 C :    0.000672
  18 C :   -0.336374
  19 H :    0.124662
  20 H :    0.111522
  21 H :    0.123793
  22 H :    0.108878
  23 H :    0.116651
  24 H :    0.115776
  25 H :    0.105285
  26 H :    0.115148
  27 H :    0.140760
  28 H :    0.110965
  29 H :    0.189595
  30 H :    0.199027
  31 H :    0.114112
  32 H :    0.107151
  33 H :    0.113321
  34 H :    0.112483
  35 H :    0.127964
  36 H :    0.106967
  37 H :    0.110155
  38 H :    0.142513
  39 H :    0.109636
  40 H :    0.124834
Sum of atomic charges:    0.0000000

LOEWDIN ATOMIC CHARGES
----------------------
   0 C :   -0.358519
   1 C :   -0.111198
   2 O :   -0.233417
   3 P :    0.566231
   4 S :   -0.277306
   5 O :   -0.243557
   6 C :   -0.120707
   7 C :   -0.366986
   8 S :    0.069737
   9 C :   -0.479716
  10 S :    0.080678
  11 P :    0.571277
  12 S :   -0.315647
  13 O :   -0.241031
  14 C :   -0.118201
  15 C :   -0.368709
  16 O :   -0.241103
  17 C :   -0.116615
  18 C :   -0.374540
  19 H :    0.127742
  20 H :    0.130363
  21 H :    0.131194
  22 H :    0.104996
  23 H :    0.124513
  24 H :    0.098030
  25 H :    0.118611
  26 H :    0.126901
  27 H :    0.122318
  28 H :    0.131094
  29 H :    0.132197
  30 H :    0.122070
  31 H :    0.111962
  32 H :    0.119221
  33 H :    0.130951
  34 H :    0.122524
  35 H :    0.121704
  36 H :    0.119919
  37 H :    0.110544
  38 H :    0.122287
  39 H :    0.130422
  40 H :    0.119766

  Mayer bond orders larger than 0.100000
B(  0-C ,  1-C ) :   1.1657 B(  0-C , 19-H ) :   0.9414 B(  0-C , 20-H ) :   0.9390
B(  0-C , 21-H ) :   0.9464 B(  1-C ,  2-O ) :   0.8913 B(  1-C , 22-H ) :   0.9163
B(  1-C , 23-H ) :   0.9352 B(  2-O ,  3-P ) :   1.1489 B(  3-P ,  4-S ) :   1.6569
B(  3-P ,  5-O ) :   1.0821 B(  3-P ,  8-S ) :   0.9283 B(  4-S ,  8-S ) :   0.1167
B(  5-O ,  6-C ) :   0.9092 B(  6-C ,  7-C ) :   1.1661 B(  6-C , 24-H ) :   0.9061
B(  6-C , 25-H ) :   0.9337 B(  7-C , 26-H ) :   0.9454 B(  7-C , 27-H ) :   0.9292
B(  7-C , 28-H ) :   0.9379 B(  8-S ,  9-C ) :   1.0212 B(  9-C , 10-S ) :   0.9613
B(  9-C , 29-H ) :   0.8860 B(  9-C , 30-H ) :   0.8624 B( 10-S , 11-P ) :   0.9771
B( 11-P , 12-S ) :   1.6371 B( 11-P , 13-O ) :   1.0892 B( 11-P , 16-O ) :   1.0945
B( 13-O , 14-C ) :   0.9089 B( 14-C , 15-C ) :   1.1627 B( 14-C , 31-H ) :   0.9159
B( 14-C , 32-H ) :   0.9350 B( 15-C , 33-H ) :   0.9379 B( 15-C , 34-H ) :   0.9460
B( 15-C , 35-H ) :   0.9357 B( 16-O , 17-C ) :   0.9061 B( 17-C , 18-C ) :   1.1626
B( 17-C , 36-H ) :   0.9338 B( 17-C , 37-H ) :   0.9199 B( 18-C , 38-H ) :   0.9298
B( 18-C , 39-H ) :   0.9364 B( 18-C , 40-H ) :   0.9344

Dispersion correction           -0.064114062
FINAL SINGLE POINT ENERGY     -2929.517223504609

DIPOLE MOMENT
-------------

Method             : SCF
Type of density    : Electron Density
Multiplicity       :   1
Irrep              :   0
Energy             : -2929.6391394365268752 Eh
Relativity type    :
Basis              : AO
                                X                 Y                 Z
Electronic contribution:     -7.698916752      -3.665247905       5.825370144
Nuclear contribution   :      8.888590253       4.716778829      -5.430744699
                        -----------------------------------------
Total Dipole Moment    :      1.189673501       1.051530925       0.394625445
                        -----------------------------------------
Magnitude (a.u.)       :      1.636083606
Magnitude (Debye)      :      4.158594038

Rotational constants in cm-1:             0.013459             0.004354             0.004008
Rotational constants in MHz :           403.494746           130.529752           120.146947

                             ****ORCA TERMINATED NORMALLY****
TOTAL RUN TIME: 0 days 0 hours 0 minutes 20 seconds 676 msec
