                         Program Version 6.0.0  -   RELEASE  -
|  1> ! pbe def2-sv(p) def2/J RI DEFGRID1 loosescf d4 GCP(DFT/SV(P)) printgap
|  2> %output
|  3>     printlevel normal
|  4> end
|  5> * xyz 0 1
|  6> C 2.9265575651 0.6337339394 -2.825148881
|  7> C 3.6511396968 1.2165654884 -1.6292586306
|  8> O 3.4886911444 0.4117033048 -0.4480228849
|  9> P 2.0806252752 0.186392004 0.2594585363
| 10> S 1.0088351844 1.8228977033 0.367279821
| 11> O 2.4880119399 -0.3078468144 1.695254558
| 12> C 3.3760246104 -1.4274237559 1.955984166
| 13> C 2.9340115365 -2.0814815999 3.2491049577
| 14> S 1.4207720545 -1.5583965776 -0.7776518424
| 15> C 0.1173255349 -2.208360058 0.3322421591
| 16> S -0.6752077054 -0.9585797257 1.3759545524
| 17> P -1.8979520968 -0.0711152498 -0.1041194828
| 18> S -1.2579322188 0.3072915423 -1.9198287161
| 19> O -2.5452438184 1.146196271 0.6760563528
| 20> C -2.2681113797 2.5395568149 0.452090774
| 21> C -3.5691140483 3.3103196768 0.5493770981
| 22> O -3.0312613272 -1.1814422139 -0.0510228014
| 23> C -4.0118467357 -1.3448621336 -1.0950457222
| 24> C -4.9649305555 -0.1705438618 -1.1654220375
| 25> H 3.2195250703 -0.4017947357 -2.9804699211
| 26> H 1.8481253118 0.6720717313 -2.6665582214
| 27> H 3.166229437 1.2145483526 -3.7099226093
| 28> H 3.2844075517 2.2247561039 -1.4120713414
| 29> H 4.7311278758 1.2368378248 -1.781398391
| 30> H 3.3315991784 -2.1204704396 1.1111821656
| 31> H 4.3866785721 -1.0230315884 2.0338872808
| 32> H 3.0073910232 -1.371839392 4.0679348167
| 33> H 1.9004291975 -2.4098572511 3.1735598464
| 34> H 3.5720312555 -2.9351783179 3.4533812186
| 35> H 0.5629935238 -2.9359209921 1.006363619
| 36> H -0.6249634083 -2.6795686461 -0.3101622537
| 37> H -1.5526424567 2.8609815277 1.2130840675
| 38> H -1.7992337126 2.6555960485 -0.5311216874
| 39> H -4.0369597187 3.1225726766 1.5114371838
| 40> H -3.3560706999 4.3697798045 0.4528440512
| 41> H -4.2505850131 3.0085189802 -0.2413104404
| 42> H -3.4857505368 -1.4690783649 -2.0470226385
| 43> H -4.525098067 -2.2690385878 -0.8263122378
| 44> H -5.4025649926 0.0176555393 -0.1883857076
| 45> H -4.4262099113 0.7190178487 -1.4901921795
| 46> H -5.7519879122 -0.3862363807 -1.8811832384
| 47> *
| 48>
| 49>                          ****END OF INPUT****

CARTESIAN COORDINATES (ANGSTROEM)
---------------------------------
  C      2.926558    0.633734   -2.825149
  C      3.651140    1.216565   -1.629259
  O      3.488691    0.411703   -0.448023
  P      2.080625    0.186392    0.259459
  S      1.008835    1.822898    0.367280
  O      2.488012   -0.307847    1.695255
  C      3.376025   -1.427424    1.955984
  C      2.934012   -2.081482    3.249105
  S      1.420772   -1.558397   -0.777652
  C      0.117326   -2.208360    0.332242
  S     -0.675208   -0.958580    1.375955
  P     -1.897952   -0.071115   -0.104119
  S     -1.257932    0.307292   -1.919829
  O     -2.545244    1.146196    0.676056
  C     -2.268111    2.539557    0.452091
  C     -3.569114    3.310320    0.549377
  O     -3.031261   -1.181442   -0.051023
  C     -4.011847   -1.344862   -1.095046
  C     -4.964931   -0.170544   -1.165422
  H      3.219525   -0.401795   -2.980470
  H      1.848125    0.672072   -2.666558
  H      3.166229    1.214548   -3.709923
  H      3.284408    2.224756   -1.412071
  H      4.731128    1.236838   -1.781398
  H      3.331599   -2.120470    1.111182
  H      4.386679   -1.023032    2.033887
  H      3.007391   -1.371839    4.067935
  H      1.900429   -2.409857    3.173560
  H      3.572031   -2.935178    3.453381
  H      0.562994   -2.935921    1.006364
  H     -0.624963   -2.679569   -0.310162
  H     -1.552642    2.860982    1.213084
  H     -1.799234    2.655596   -0.531122
  H     -4.036960    3.122573    1.511437
  H     -3.356071    4.369780    0.452844
  H     -4.250585    3.008519   -0.241310
  H     -3.485751   -1.469078   -2.047023
  H     -4.525098   -2.269039   -0.826312
  H     -5.402565    0.017656   -0.188386
  H     -4.426210    0.719018   -1.490192
  H     -5.751988   -0.386236   -1.881183

 Total Charge           Charge          ....    0
 Multiplicity           Mult            ....    1
 Number of Electrons    NEL             ....  202
 Basis Dimension        Dim             ....  334

ORBITAL ENERGIES
----------------

  NO   OCC          E(Eh)            E(eV)
   0   2.0000     -88.039400     -2395.6739
   1   2.0000     -88.036334     -2395.5904
   2   2.0000     -87.981609     -2394.1013
   3   2.0000     -87.973877     -2393.8909
   4   2.0000     -76.421892     -2079.5454
   5   2.0000     -76.420928     -2079.5192
   6   2.0000     -18.787648      -511.2379
   7   2.0000     -18.787144      -511.2242
   8   2.0000     -18.784905      -511.1633
   9   2.0000     -18.782747      -511.1045
  10   2.0000      -9.959890      -271.0224
  11   2.0000      -9.954440      -270.8741
  12   2.0000      -9.947262      -270.6787
  13   2.0000      -9.946227      -270.6506
  14   2.0000      -9.942724      -270.5553
  15   2.0000      -9.891177      -269.1526
  16   2.0000      -9.882222      -268.9089
  17   2.0000      -9.881725      -268.8954
  18   2.0000      -9.876979      -268.7663
  19   2.0000      -7.684404      -209.1033
  20   2.0000      -7.680827      -209.0059
  21   2.0000      -7.626298      -207.5221
  22   2.0000      -7.618980      -207.3230
  23   2.0000      -6.419009      -174.6701
  24   2.0000      -6.417851      -174.6386
  25   2.0000      -5.712389      -155.4420
  26   2.0000      -5.709186      -155.3548
  27   2.0000      -5.708922      -155.3477
  28   2.0000      -5.705273      -155.2484
  29   2.0000      -5.700883      -155.1289
  30   2.0000      -5.697734      -155.0432
  31   2.0000      -5.655157      -153.8846
  32   2.0000      -5.648124      -153.6933
  33   2.0000      -5.647216      -153.6686
  34   2.0000      -5.646251      -153.6423
  35   2.0000      -5.639278      -153.4526
  36   2.0000      -5.639192      -153.4502
  37   2.0000      -4.641486      -126.3013
  38   2.0000      -4.641018      -126.2885
  39   2.0000      -4.640825      -126.2833
  40   2.0000      -4.639692      -126.2524
  41   2.0000      -4.639577      -126.2493
  42   2.0000      -4.637826      -126.2017
  43   2.0000      -0.982145       -26.7255
  44   2.0000      -0.979732       -26.6599
  45   2.0000      -0.939766       -25.5723
  46   2.0000      -0.939715       -25.5710
  47   2.0000      -0.760636       -20.6980
  48   2.0000      -0.717450       -19.5228
  49   2.0000      -0.708895       -19.2900
  50   2.0000      -0.684838       -18.6354
  51   2.0000      -0.683742       -18.6056
  52   2.0000      -0.665982       -18.1223
  53   2.0000      -0.648591       -17.6491
  54   2.0000      -0.634123       -17.2554
  55   2.0000      -0.596706       -16.2372
  56   2.0000      -0.582233       -15.8434
  57   2.0000      -0.572927       -15.5901
  58   2.0000      -0.563015       -15.3204
  59   2.0000      -0.560807       -15.2603
  60   2.0000      -0.503946       -13.7131
  61   2.0000      -0.495869       -13.4933
  62   2.0000      -0.474214       -12.9040
  63   2.0000      -0.467870       -12.7314
  64   2.0000      -0.456195       -12.4137
  65   2.0000      -0.440860       -11.9964
  66   2.0000      -0.432318       -11.7640
  67   2.0000      -0.427588       -11.6353
  68   2.0000      -0.424912       -11.5624
  69   2.0000      -0.418394       -11.3851
  70   2.0000      -0.402463       -10.9516
  71   2.0000      -0.392408       -10.6780
  72   2.0000      -0.391793       -10.6612
  73   2.0000      -0.384086       -10.4515
  74   2.0000      -0.373716       -10.1693
  75   2.0000      -0.370950       -10.0941
  76   2.0000      -0.361694        -9.8422
  77   2.0000      -0.359272        -9.7763
  78   2.0000      -0.355886        -9.6841
  79   2.0000      -0.351943        -9.5769
  80   2.0000      -0.345730        -9.4078
  81   2.0000      -0.342096        -9.3089
  82   2.0000      -0.338664        -9.2155
  83   2.0000      -0.337493        -9.1836
  84   2.0000      -0.327749        -8.9185
  85   2.0000      -0.313684        -8.5358
  86   2.0000      -0.309150        -8.4124
  87   2.0000      -0.299333        -8.1453
  88   2.0000      -0.290811        -7.9134
  89   2.0000      -0.285576        -7.7709
  90   2.0000      -0.276968        -7.5367
  91   2.0000      -0.271535        -7.3888
  92   2.0000      -0.261302        -7.1104
  93   2.0000      -0.257000        -6.9933
  94   2.0000      -0.254793        -6.9333
  95   2.0000      -0.242023        -6.5858
  96   2.0000      -0.221665        -6.0318
  97   2.0000      -0.208855        -5.6832
  98   2.0000      -0.190141        -5.1740
  99   2.0000      -0.182621        -4.9694
 100   2.0000      -0.176904        -4.8138
 101   0.0000      -0.050325        -1.3694
 102   0.0000      -0.031904        -0.8681
 103   0.0000      -0.010694        -0.2910
 104   0.0000       0.012337         0.3357
 105   0.0000       0.020994         0.5713

MULLIKEN ATOMIC CHARGES
-----------------------
   0 C :   -0.342383
   1 C :    0.004550
   2 O :   -0.384341
   3 P :    0.610908
   4 S :   -0.319021
   5 O :   -0.358348
   6 C :   -0.014657
   7 C :   -0.286399
   8 S :   -0.112197
   9 C :   -0.320506
  10 S :   -0.080035
  11 P :    0.622829
  12 S :   -0.308408
  13 O :   -0.377706
  14 C :   -0.024185
  15 C :   -0.281345
  16 O :   -0.373424
  17 C :   -0.000242
  18 C :   -0.318935
  19 H :    0.117911
  20 H :    0.152866
  21 H :    0.112624
  22 H :    0.110626
  23 H :    0.100762
  24 H :    0.102411
  25 H :    0.110092
  26 H :    0.124480
  27 H :    0.115321
  28 H :    0.111553
  29 H :    0.181855
  30 H :    0.181350
  31 H :    0.116323
  32 H :    0.118582
  33 H :    0.114847
  34 H :    0.111048
  35 H :    0.117073
  36 H :    0.106281
  37 H :    0.101328
  38 H :    0.118584
  39 H :    0.127105
  40 H :    0.110826
Sum of atomic charges:   -0.0000000

LOEWDIN ATOMIC CHARGES
----------------------
   0 C :   -0.375946
   1 C :   -0.117811
   2 O :   -0.252685
   3 P :    0.564746
   4 S :   -0.306752
   5 O :   -0.236973
   6 C :   -0.117310
   7 C :   -0.351326
   8 S :    0.069142
   9 C :   -0.470643
  10 S :    0.103650
  11 P :    0.570377
  12 S :   -0.305537
  13 O :   -0.240580
  14 C :   -0.121537
  15 C :   -0.352532
  16 O :   -0.249743
  17 C :   -0.120665
  18 C :   -0.366463
  19 H :    0.121975
  20 H :    0.126975
  21 H :    0.131475
  22 H :    0.111439
  23 H :    0.116673
  24 H :    0.101739
  25 H :    0.118828
  26 H :    0.131498
  27 H :    0.122250
  28 H :    0.130031
  29 H :    0.129535
  30 H :    0.132617
  31 H :    0.112618
  32 H :    0.108494
  33 H :    0.126130
  34 H :    0.130853
  35 H :    0.124030
  36 H :    0.107668
  37 H :    0.116801
  38 H :    0.126444
  39 H :    0.120702
  40 H :    0.129813

  Mayer bond orders larger than 0.100000
B(  0-C ,  1-C ) :   1.1656 B(  0-C , 19-H ) :   0.9414 B(  0-C , 20-H ) :   0.9268
B(  0-C , 21-H ) :   0.9366 B(  1-C ,  2-O ) :   0.9081 B(  1-C , 22-H ) :   0.9163
B(  1-C , 23-H ) :   0.9335 B(  2-O ,  3-P ) :   1.0850 B(  3-P ,  4-S ) :   1.6139
B(  3-P ,  5-O ) :   1.1251 B(  3-P ,  8-S ) :   0.9666 B(  4-S ,  8-S ) :   0.1152
B(  5-O ,  6-C ) :   0.8963 B(  6-C ,  7-C ) :   1.1598 B(  6-C , 24-H ) :   0.9061
B(  6-C , 25-H ) :   0.9307 B(  7-C , 26-H ) :   0.9480 B(  7-C , 27-H ) :   0.9463
B(  7-C , 28-H ) :   0.9414 B(  8-S ,  9-C ) :   0.9711 B(  9-C , 10-S ) :   1.0286
B(  9-C , 29-H ) :   0.9073 B(  9-C , 30-H ) :   0.9008 B( 10-S , 11-P ) :   0.9315
B( 10-S , 12-S ) :   0.1152 B( 11-P , 12-S ) :   1.6158 B( 11-P , 13-O ) :   1.1310
B( 11-P , 16-O ) :   1.1022 B( 13-O , 14-C ) :   0.8947 B( 14-C , 15-C ) :   1.1526
B( 14-C , 31-H ) :   0.9271 B( 14-C , 32-H ) :   0.9080 B( 15-C , 33-H ) :   0.9488
B( 15-C , 34-H ) :   0.9417 B( 15-C , 35-H ) :   0.9470 B( 16-O , 17-C ) :   0.9145
B( 17-C , 18-C ) :   1.1647 B( 17-C , 36-H ) :   0.9134 B( 17-C , 37-H ) :   0.9342
B( 18-C , 38-H ) :   0.9461 B( 18-C , 39-H ) :   0.9303 B( 18-C , 40-H ) :   0.9379

Dispersion correction           -0.068188322
FINAL SINGLE POINT ENERGY     -2929.508486490273

DIPOLE MOMENT
-------------

Method             : SCF
Type of density    : Electron Density
Multiplicity       :   1
Irrep              :   0
Energy             : -2929.6240042185286256 Eh
Relativity type    :
Basis              : AO
                                X                 Y                 Z
Electronic contribution:      6.061516371      -2.689054162       2.092452403
Nuclear contribution   :     -5.989762798       1.879674876      -1.999601367
                        -----------------------------------------
Total Dipole Moment    :      0.071753574      -0.809379286       0.092851036
                        -----------------------------------------
Magnitude (a.u.)       :      0.817841499
Magnitude (Debye)      :      2.078787887

Rotational constants in cm-1:             0.011985             0.005473             0.005087
Rotational constants in MHz :           359.306713           164.065658           152.502737

                             ****ORCA TERMINATED NORMALLY****
TOTAL RUN TIME: 0 days 0 hours 0 minutes 21 seconds 223 msec
