                         Program Version 6.0.0  -   RELEASE  -
|  1> ! pbe def2-sv(p) def2/J RI DEFGRID1 loosescf d4 GCP(DFT/SV(P)) printgap
|  2> %output
|  3>     printlevel normal
|  4> end
|  5> * xyz 0 1
|  6> C 2.4053650453 -3.1159122039 1.2242880733
|  7> C 1.2083362462 -2.4307429467 0.5973352882
|  8> O 1.3052310286 -1.0012056728 0.7303319916
|  9> P 2.2255134782 -0.1031945186 -0.219559792
| 10> S 2.9204869149 -0.9660824588 -1.8267934566
| 11> O 3.3908711916 0.4320171933 0.7080405443
| 12> C 3.2029282198 0.9105500133 2.0629168027
| 13> C 3.0286682332 2.4154971034 2.0958116835
| 14> S 0.9712887107 1.5810437336 -0.5337203797
| 15> C 0.1084461428 0.9241961404 -1.981874857
| 16> S -0.8512438732 -0.5697637127 -1.6359241519
| 17> P -2.2008901087 0.3262970883 -0.2628982609
| 18> S -2.7891680639 2.1363120269 -0.6969541601
| 19> O -1.4085934148 0.1459569993 1.1139034958
| 20> C -1.35791253 1.168727709 2.124676484
| 21> C -2.6333919986 1.186699749 2.9421291069
| 22> O -3.4185321495 -0.6813872835 -0.1811771073
| 23> C -3.3295093984 -2.0316422032 0.3377978385
| 24> C -3.0884068642 -3.033706038 -0.7730115177
| 25> H 2.4910008122 -2.8496943475 2.2744722022
| 26> H 2.2929265101 -4.1914849155 1.132951012
| 27> H 3.3137051049 -2.8099798838 0.7060526334
| 28> H 0.2780325304 -2.6857812111 1.1071661902
| 29> H 1.1292826051 -2.682450543 -0.4647368803
| 30> H 2.3429319076 0.3996936064 2.501527415
| 31> H 4.1165670423 0.6084180248 2.5778104474
| 32> H 2.9802931227 2.7447037314 3.1290854792
| 33> H 3.8692486952 2.8980019781 1.6049266092
| 34> H 2.1137281142 2.7089988586 1.5847810535
| 35> H 0.8362591095 0.6529121539 -2.746430969
| 36> H -0.559627925 1.7131838585 -2.3269274132
| 37> H -0.4886560187 0.9062332972 2.7296043635
| 38> H -1.1932723059 2.1364510553 1.6409080769
| 39> H -2.5563055187 1.9471249023 3.7126039514
| 40> H -3.4778630733 1.4227744304 2.295332504
| 41> H -2.8033120786 0.2186149239 3.4058700934
| 42> H -2.5369296196 -2.0695486326 1.0883380431
| 43> H -4.2986042861 -2.195182301 0.8123922127
| 44> H -3.8587588695 -2.938777295 -1.5332444508
| 45> H -2.1191067611 -2.8672362388 -1.2390731788
| 46> H -3.1160774489 -4.036539544 -0.3583518526
| 47> *
| 48>
| 49>                          ****END OF INPUT****

CARTESIAN COORDINATES (ANGSTROEM)
---------------------------------
  C      2.405365   -3.115912    1.224288
  C      1.208336   -2.430743    0.597335
  O      1.305231   -1.001206    0.730332
  P      2.225513   -0.103195   -0.219560
  S      2.920487   -0.966082   -1.826793
  O      3.390871    0.432017    0.708041
  C      3.202928    0.910550    2.062917
  C      3.028668    2.415497    2.095812
  S      0.971289    1.581044   -0.533720
  C      0.108446    0.924196   -1.981875
  S     -0.851244   -0.569764   -1.635924
  P     -2.200890    0.326297   -0.262898
  S     -2.789168    2.136312   -0.696954
  O     -1.408593    0.145957    1.113903
  C     -1.357913    1.168728    2.124676
  C     -2.633392    1.186700    2.942129
  O     -3.418532   -0.681387   -0.181177
  C     -3.329509   -2.031642    0.337798
  C     -3.088407   -3.033706   -0.773012
  H      2.491001   -2.849694    2.274472
  H      2.292927   -4.191485    1.132951
  H      3.313705   -2.809980    0.706053
  H      0.278033   -2.685781    1.107166
  H      1.129283   -2.682451   -0.464737
  H      2.342932    0.399694    2.501527
  H      4.116567    0.608418    2.577810
  H      2.980293    2.744704    3.129085
  H      3.869249    2.898002    1.604927
  H      2.113728    2.708999    1.584781
  H      0.836259    0.652912   -2.746431
  H     -0.559628    1.713184   -2.326927
  H     -0.488656    0.906233    2.729604
  H     -1.193272    2.136451    1.640908
  H     -2.556306    1.947125    3.712604
  H     -3.477863    1.422774    2.295333
  H     -2.803312    0.218615    3.405870
  H     -2.536930   -2.069549    1.088338
  H     -4.298604   -2.195182    0.812392
  H     -3.858759   -2.938777   -1.533244
  H     -2.119107   -2.867236   -1.239073
  H     -3.116077   -4.036540   -0.358352

 Total Charge           Charge          ....    0
 Multiplicity           Mult            ....    1
 Number of Electrons    NEL             ....  202
 Basis Dimension        Dim             ....  334

ORBITAL ENERGIES
----------------

  NO   OCC          E(Eh)            E(eV)
   0   2.0000     -88.041775     -2395.7385
   1   2.0000     -88.041715     -2395.7369
   2   2.0000     -87.987895     -2394.2723
   3   2.0000     -87.987814     -2394.2701
   4   2.0000     -76.427497     -2079.6979
   5   2.0000     -76.427412     -2079.6956
   6   2.0000     -18.796956      -511.4912
   7   2.0000     -18.796884      -511.4892
   8   2.0000     -18.790187      -511.3070
   9   2.0000     -18.790085      -511.3042
  10   2.0000      -9.963176      -271.1118
  11   2.0000      -9.963167      -271.1116
  12   2.0000      -9.953116      -270.8380
  13   2.0000      -9.952457      -270.8201
  14   2.0000      -9.952307      -270.8160
  15   2.0000      -9.894051      -269.2308
  16   2.0000      -9.894032      -269.2303
  17   2.0000      -9.886514      -269.0257
  18   2.0000      -9.886321      -269.0205
  19   2.0000      -7.686532      -209.1612
  20   2.0000      -7.686471      -209.1595
  21   2.0000      -7.633141      -207.7083
  22   2.0000      -7.633059      -207.7061
  23   2.0000      -6.425095      -174.8357
  24   2.0000      -6.425016      -174.8336
  25   2.0000      -5.714399      -155.4967
  26   2.0000      -5.714325      -155.4947
  27   2.0000      -5.711181      -155.4091
  28   2.0000      -5.711136      -155.4079
  29   2.0000      -5.703395      -155.1973
  30   2.0000      -5.703334      -155.1956
  31   2.0000      -5.662156      -154.0751
  32   2.0000      -5.662093      -154.0734
  33   2.0000      -5.653688      -153.8447
  34   2.0000      -5.653587      -153.8419
  35   2.0000      -5.653223      -153.8320
  36   2.0000      -5.653144      -153.8299
  37   2.0000      -4.648036      -126.4795
  38   2.0000      -4.647948      -126.4771
  39   2.0000      -4.646435      -126.4359
  40   2.0000      -4.646344      -126.4334
  41   2.0000      -4.645650      -126.4146
  42   2.0000      -4.645592      -126.4130
  43   2.0000      -0.988055       -26.8863
  44   2.0000      -0.986948       -26.8562
  45   2.0000      -0.946178       -25.7468
  46   2.0000      -0.944793       -25.7091
  47   2.0000      -0.765558       -20.8319
  48   2.0000      -0.725026       -19.7290
  49   2.0000      -0.714440       -19.4409
  50   2.0000      -0.695968       -18.9382
  51   2.0000      -0.692764       -18.8511
  52   2.0000      -0.675519       -18.3818
  53   2.0000      -0.653773       -17.7901
  54   2.0000      -0.639722       -17.4077
  55   2.0000      -0.597707       -16.2644
  56   2.0000      -0.590048       -16.0560
  57   2.0000      -0.582803       -15.8589
  58   2.0000      -0.582503       -15.8507
  59   2.0000      -0.561369       -15.2756
  60   2.0000      -0.505453       -13.7541
  61   2.0000      -0.500391       -13.6163
  62   2.0000      -0.483036       -13.1441
  63   2.0000      -0.479062       -13.0359
  64   2.0000      -0.456049       -12.4097
  65   2.0000      -0.452088       -12.3019
  66   2.0000      -0.446832       -12.1589
  67   2.0000      -0.437905       -11.9160
  68   2.0000      -0.430812       -11.7230
  69   2.0000      -0.417202       -11.3527
  70   2.0000      -0.408678       -11.1207
  71   2.0000      -0.401355       -10.9214
  72   2.0000      -0.395798       -10.7702
  73   2.0000      -0.381125       -10.3710
  74   2.0000      -0.378070       -10.2878
  75   2.0000      -0.377219       -10.2647
  76   2.0000      -0.372372       -10.1328
  77   2.0000      -0.363523        -9.8920
  78   2.0000      -0.361343        -9.8326
  79   2.0000      -0.360386        -9.8066
  80   2.0000      -0.358339        -9.7509
  81   2.0000      -0.351925        -9.5764
  82   2.0000      -0.347068        -9.4442
  83   2.0000      -0.345743        -9.4082
  84   2.0000      -0.334561        -9.1039
  85   2.0000      -0.323311        -8.7977
  86   2.0000      -0.317188        -8.6311
  87   2.0000      -0.308525        -8.3954
  88   2.0000      -0.302033        -8.2187
  89   2.0000      -0.285452        -7.7675
  90   2.0000      -0.283994        -7.7279
  91   2.0000      -0.277445        -7.5497
  92   2.0000      -0.272322        -7.4103
  93   2.0000      -0.272175        -7.4063
  94   2.0000      -0.256844        -6.9891
  95   2.0000      -0.230472        -6.2715
  96   2.0000      -0.216121        -5.8809
  97   2.0000      -0.214608        -5.8398
  98   2.0000      -0.207802        -5.6546
  99   2.0000      -0.200422        -5.4538
 100   2.0000      -0.200278        -5.4498
 101   0.0000      -0.046245        -1.2584
 102   0.0000      -0.022072        -0.6006
 103   0.0000      -0.002921        -0.0795
 104   0.0000       0.000718         0.0195
 105   0.0000       0.002154         0.0586

MULLIKEN ATOMIC CHARGES
-----------------------
   0 C :   -0.299350
   1 C :   -0.016119
   2 O :   -0.380381
   3 P :    0.631491
   4 S :   -0.314026
   5 O :   -0.365369
   6 C :   -0.033208
   7 C :   -0.307912
   8 S :   -0.110583
   9 C :   -0.334036
  10 S :   -0.110855
  11 P :    0.632513
  12 S :   -0.314469
  13 O :   -0.380729
  14 C :   -0.015699
  15 C :   -0.299134
  16 O :   -0.365251
  17 C :   -0.033338
  18 C :   -0.308382
  19 H :    0.107251
  20 H :    0.110595
  21 H :    0.127235
  22 H :    0.101003
  23 H :    0.116554
  24 H :    0.116682
  25 H :    0.112541
  26 H :    0.112344
  27 H :    0.127174
  28 H :    0.138276
  29 H :    0.192792
  30 H :    0.192863
  31 H :    0.100849
  32 H :    0.116293
  33 H :    0.110455
  34 H :    0.127105
  35 H :    0.107202
  36 H :    0.116577
  37 H :    0.112605
  38 H :    0.127208
  39 H :    0.138839
  40 H :    0.112395
Sum of atomic charges:   -0.0000000

LOEWDIN ATOMIC CHARGES
----------------------
   0 C :   -0.363800
   1 C :   -0.123979
   2 O :   -0.247060
   3 P :    0.573893
   4 S :   -0.307162
   5 O :   -0.242145
   6 C :   -0.116133
   7 C :   -0.362650
   8 S :    0.086803
   9 C :   -0.480414
  10 S :    0.086855
  11 P :    0.574078
  12 S :   -0.307306
  13 O :   -0.247091
  14 C :   -0.123982
  15 C :   -0.363872
  16 O :   -0.242114
  17 C :   -0.116041
  18 C :   -0.362810
  19 H :    0.120885
  20 H :    0.130154
  21 H :    0.125635
  22 H :    0.112060
  23 H :    0.106976
  24 H :    0.109468
  25 H :    0.122636
  26 H :    0.131397
  27 H :    0.132642
  28 H :    0.118798
  29 H :    0.131928
  30 H :    0.131897
  31 H :    0.111983
  32 H :    0.106851
  33 H :    0.130104
  34 H :    0.125590
  35 H :    0.120865
  36 H :    0.109450
  37 H :    0.122695
  38 H :    0.132662
  39 H :    0.118819
  40 H :    0.131438

  Mayer bond orders larger than 0.100000
B(  0-C ,  1-C ) :   1.1615 B(  0-C , 19-H ) :   0.9477 B(  0-C , 20-H ) :   0.9407
B(  0-C , 21-H ) :   0.9364 B(  1-C ,  2-O ) :   0.9030 B(  1-C , 22-H ) :   0.9296
B(  1-C , 23-H ) :   0.9077 B(  2-O ,  3-P ) :   1.0712 B(  3-P ,  4-S ) :   1.6299
B(  3-P ,  5-O ) :   1.1314 B(  3-P ,  8-S ) :   0.9498 B(  4-S ,  8-S ) :   0.1015
B(  5-O ,  6-C ) :   0.9032 B(  6-C ,  7-C ) :   1.1687 B(  6-C , 24-H ) :   0.9128
B(  6-C , 25-H ) :   0.9333 B(  7-C , 26-H ) :   0.9381 B(  7-C , 27-H ) :   0.9456
B(  7-C , 28-H ) :   0.9309 B(  8-S ,  9-C ) :   1.0055 B(  9-C , 10-S ) :   1.0055
B(  9-C , 29-H ) :   0.8816 B(  9-C , 30-H ) :   0.8814 B( 10-S , 11-P ) :   0.9492
B( 10-S , 12-S ) :   0.1014 B( 11-P , 12-S ) :   1.6298 B( 11-P , 13-O ) :   1.0712
B( 11-P , 16-O ) :   1.1317 B( 13-O , 14-C ) :   0.9028 B( 14-C , 15-C ) :   1.1616
B( 14-C , 31-H ) :   0.9297 B( 14-C , 32-H ) :   0.9077 B( 15-C , 33-H ) :   0.9407
B( 15-C , 34-H ) :   0.9364 B( 15-C , 35-H ) :   0.9477 B( 16-O , 17-C ) :   0.9031
B( 17-C , 18-C ) :   1.1688 B( 17-C , 36-H ) :   0.9130 B( 17-C , 37-H ) :   0.9333
B( 18-C , 38-H ) :   0.9456 B( 18-C , 39-H ) :   0.9306 B( 18-C , 40-H ) :   0.9380

Dispersion correction           -0.067710347
FINAL SINGLE POINT ENERGY     -2929.518503588105

DIPOLE MOMENT
-------------

Method             : SCF
Type of density    : Electron Density
Multiplicity       :   1
Irrep              :   0
Energy             : -2929.6370618332812228 Eh
Relativity type    :
Basis              : AO
                                X                 Y                 Z
Electronic contribution:      1.092736992       9.613470545     -20.720639080
Nuclear contribution   :     -1.198808663     -10.570187326      22.775800506
                        -----------------------------------------
Total Dipole Moment    :     -0.106071671      -0.956716780       2.055161426
                        -----------------------------------------
Magnitude (a.u.)       :      2.269415494
Magnitude (Debye)      :      5.768395763

Rotational constants in cm-1:             0.010609             0.006059             0.005439
Rotational constants in MHz :           318.057296           181.658568           163.044845

                             ****ORCA TERMINATED NORMALLY****
TOTAL RUN TIME: 0 days 0 hours 0 minutes 22 seconds 393 msec
