                         Program Version 6.0.0  -   RELEASE  -
|  1> ! pbe def2-sv(p) def2/J RI DEFGRID1 loosescf d4 GCP(DFT/SV(P)) printgap
|  2> %output
|  3>     printlevel normal
|  4> end
|  5> * xyz 0 1
|  6> C 2.5605358394 2.9705980813 0.1648388914
|  7> C 3.6532160901 2.1015779984 0.7510830574
|  8> O 3.6120392076 0.7648085688 0.2193459434
|  9> P 2.4267555137 -0.2374689479 0.547015394
| 10> S 1.7066618742 -0.1093394384 2.3708945944
| 11> O 3.0372783242 -1.6503238864 0.1612024664
| 12> C 3.750319538 -2.4624779531 1.1173216006
| 13> C 5.0821820326 -1.8492861921 1.4947748325
| 14> S 1.1133450016 -0.034286685 -1.0975381773
| 15> C -0.074885031 -1.2958580654 -0.5572590449
| 16> S -1.2830983879 -0.6702376224 0.6333768184
| 17> P -2.6622136021 0.0324694369 -0.8393671899
| 18> S -3.0350278796 -1.2149988213 -2.2993832869
| 19> O -2.0647827884 1.3557891363 -1.4447088731
| 20> C -1.6589352163 2.5035471094 -0.6576095597
| 21> C -0.7805323488 3.3650509587 -1.5401964343
| 22> O -3.8692998363 0.5848732631 0.032804584
| 23> C -4.5253026469 -0.1344935814 1.0942797638
| 24> C -5.0344455053 -1.4903105593 0.6527496663
| 25> H 2.6126576266 2.9608315789 -0.9207989764
| 26> H 1.5873454798 2.5916136325 0.4749367192
| 27> H 2.6741861629 3.9881513738 0.524203251
| 28> H 3.5546955393 2.0437519175 1.8399547768
| 29> H 4.6474066794 2.4613370829 0.4836852997
| 30> H 3.1195356335 -2.5901825264 2.0033956348
| 31> H 3.8743469876 -3.4185651832 0.6067778238
| 32> H 4.9210835274 -0.9260612237 2.0495097575
| 33> H 5.6339700612 -2.5448085279 2.119403606
| 34> H 5.6592863074 -1.6272007352 0.6010161871
| 35> H 0.4607359429 -2.1145370176 -0.0826154275
| 36> H -0.6085873947 -1.6411968828 -1.4453792814
| 37> H -2.5603103875 3.0309622856 -0.3403679097
| 38> H -1.1208567647 2.1487092862 0.2272739488
| 39> H 0.0794046331 2.7913456035 -1.8758954652
| 40> H -1.3406210068 3.6932837799 -2.410681163
| 41> H -0.444033363 4.2300014693 -0.9781375782
| 42> H -3.8190450265 -0.2365194653 1.9231228087
| 43> H -5.3445704233 0.5262265675 1.383210934
| 44> H -4.1990983534 -2.1340173871 0.3799771788
| 45> H -5.5861081316 -1.9512633248 1.4656937363
| 46> H -5.6846721253 -1.3877716696 -0.2128704684
| 47> *
| 48>
| 49>                          ****END OF INPUT****

CARTESIAN COORDINATES (ANGSTROEM)
---------------------------------
  C      2.560536    2.970598    0.164839
  C      3.653216    2.101578    0.751083
  O      3.612039    0.764809    0.219346
  P      2.426756   -0.237469    0.547015
  S      1.706662   -0.109339    2.370895
  O      3.037278   -1.650324    0.161202
  C      3.750320   -2.462478    1.117322
  C      5.082182   -1.849286    1.494775
  S      1.113345   -0.034287   -1.097538
  C     -0.074885   -1.295858   -0.557259
  S     -1.283098   -0.670238    0.633377
  P     -2.662214    0.032469   -0.839367
  S     -3.035028   -1.214999   -2.299383
  O     -2.064783    1.355789   -1.444709
  C     -1.658935    2.503547   -0.657610
  C     -0.780532    3.365051   -1.540196
  O     -3.869300    0.584873    0.032805
  C     -4.525303   -0.134494    1.094280
  C     -5.034446   -1.490311    0.652750
  H      2.612658    2.960832   -0.920799
  H      1.587345    2.591614    0.474937
  H      2.674186    3.988151    0.524203
  H      3.554696    2.043752    1.839955
  H      4.647407    2.461337    0.483685
  H      3.119536   -2.590183    2.003396
  H      3.874347   -3.418565    0.606778
  H      4.921084   -0.926061    2.049510
  H      5.633970   -2.544809    2.119404
  H      5.659286   -1.627201    0.601016
  H      0.460736   -2.114537   -0.082615
  H     -0.608587   -1.641197   -1.445379
  H     -2.560310    3.030962   -0.340368
  H     -1.120857    2.148709    0.227274
  H      0.079405    2.791346   -1.875895
  H     -1.340621    3.693284   -2.410681
  H     -0.444033    4.230001   -0.978138
  H     -3.819045   -0.236519    1.923123
  H     -5.344570    0.526227    1.383211
  H     -4.199098   -2.134017    0.379977
  H     -5.586108   -1.951263    1.465694
  H     -5.684672   -1.387772   -0.212870

 Total Charge           Charge          ....    0
 Multiplicity           Mult            ....    1
 Number of Electrons    NEL             ....  202
 Basis Dimension        Dim             ....  334

ORBITAL ENERGIES
----------------

  NO   OCC          E(Eh)            E(eV)
   0   2.0000     -88.045092     -2395.8288
   1   2.0000     -88.040660     -2395.7082
   2   2.0000     -87.993834     -2394.4340
   3   2.0000     -87.977805     -2393.9978
   4   2.0000     -76.431491     -2079.8066
   5   2.0000     -76.421937     -2079.5466
   6   2.0000     -18.800619      -511.5908
   7   2.0000     -18.795823      -511.4603
   8   2.0000     -18.794151      -511.4148
   9   2.0000     -18.787969      -511.2466
  10   2.0000      -9.959860      -271.0216
  11   2.0000      -9.958820      -270.9933
  12   2.0000      -9.955595      -270.9055
  13   2.0000      -9.955470      -270.9021
  14   2.0000      -9.950543      -270.7680
  15   2.0000      -9.892630      -269.1921
  16   2.0000      -9.888133      -269.0698
  17   2.0000      -9.884172      -268.9620
  18   2.0000      -9.882213      -268.9087
  19   2.0000      -7.690278      -209.2631
  20   2.0000      -7.685254      -209.1264
  21   2.0000      -7.638615      -207.8573
  22   2.0000      -7.623212      -207.4382
  23   2.0000      -6.429156      -174.9462
  24   2.0000      -6.419514      -174.6839
  25   2.0000      -5.718053      -155.5961
  26   2.0000      -5.714964      -155.5121
  27   2.0000      -5.712851      -155.4546
  28   2.0000      -5.709858      -155.3731
  29   2.0000      -5.707129      -155.2989
  30   2.0000      -5.702487      -155.1726
  31   2.0000      -5.667339      -154.2161
  32   2.0000      -5.659255      -153.9962
  33   2.0000      -5.659037      -153.9902
  34   2.0000      -5.652264      -153.8059
  35   2.0000      -5.643875      -153.5776
  36   2.0000      -5.643138      -153.5576
  37   2.0000      -4.651717      -126.5796
  38   2.0000      -4.650901      -126.5575
  39   2.0000      -4.649613      -126.5224
  40   2.0000      -4.642464      -126.3279
  41   2.0000      -4.641461      -126.3006
  42   2.0000      -4.639422      -126.2451
  43   2.0000      -0.993234       -27.0273
  44   2.0000      -0.986875       -26.8542
  45   2.0000      -0.953181       -25.9374
  46   2.0000      -0.943560       -25.6756
  47   2.0000      -0.765195       -20.8220
  48   2.0000      -0.724084       -19.7033
  49   2.0000      -0.712688       -19.3932
  50   2.0000      -0.694065       -18.8865
  51   2.0000      -0.689115       -18.7518
  52   2.0000      -0.676213       -18.4007
  53   2.0000      -0.654041       -17.7974
  54   2.0000      -0.638205       -17.3664
  55   2.0000      -0.605035       -16.4638
  56   2.0000      -0.587739       -15.9932
  57   2.0000      -0.579135       -15.7591
  58   2.0000      -0.568386       -15.4666
  59   2.0000      -0.564001       -15.3473
  60   2.0000      -0.505980       -13.7684
  61   2.0000      -0.498843       -13.5742
  62   2.0000      -0.480835       -13.0842
  63   2.0000      -0.473973       -12.8975
  64   2.0000      -0.462937       -12.5972
  65   2.0000      -0.449066       -12.2197
  66   2.0000      -0.445871       -12.1328
  67   2.0000      -0.434144       -11.8137
  68   2.0000      -0.430038       -11.7019
  69   2.0000      -0.420417       -11.4401
  70   2.0000      -0.414793       -11.2871
  71   2.0000      -0.401996       -10.9389
  72   2.0000      -0.397027       -10.8037
  73   2.0000      -0.390448       -10.6246
  74   2.0000      -0.384552       -10.4642
  75   2.0000      -0.379210       -10.3188
  76   2.0000      -0.363706        -9.8969
  77   2.0000      -0.358299        -9.7498
  78   2.0000      -0.355164        -9.6645
  79   2.0000      -0.352268        -9.5857
  80   2.0000      -0.349116        -9.4999
  81   2.0000      -0.346724        -9.4348
  82   2.0000      -0.343869        -9.3572
  83   2.0000      -0.337876        -9.1941
  84   2.0000      -0.335558        -9.1310
  85   2.0000      -0.321904        -8.7595
  86   2.0000      -0.316684        -8.6174
  87   2.0000      -0.302794        -8.2394
  88   2.0000      -0.296098        -8.0572
  89   2.0000      -0.292101        -7.9485
  90   2.0000      -0.288686        -7.8555
  91   2.0000      -0.280019        -7.6197
  92   2.0000      -0.272931        -7.4268
  93   2.0000      -0.268983        -7.3194
  94   2.0000      -0.260446        -7.0871
  95   2.0000      -0.241829        -6.5805
  96   2.0000      -0.220543        -6.0013
  97   2.0000      -0.214001        -5.8233
  98   2.0000      -0.205505        -5.5921
  99   2.0000      -0.197577        -5.3764
 100   2.0000      -0.190568        -5.1856
 101   0.0000      -0.042049        -1.1442
 102   0.0000      -0.028013        -0.7623
 103   0.0000      -0.009532        -0.2594
 104   0.0000       0.001340         0.0365
 105   0.0000       0.014470         0.3937

MULLIKEN ATOMIC CHARGES
-----------------------
   0 C :   -0.348902
   1 C :    0.002682
   2 O :   -0.369299
   3 P :    0.592187
   4 S :   -0.327803
   5 O :   -0.369102
   6 C :   -0.006504
   7 C :   -0.306517
   8 S :   -0.060524
   9 C :   -0.356082
  10 S :   -0.086578
  11 P :    0.589773
  12 S :   -0.311551
  13 O :   -0.356747
  14 C :   -0.024000
  15 C :   -0.288043
  16 O :   -0.384412
  17 C :   -0.014526
  18 C :   -0.308794
  19 H :    0.126904
  20 H :    0.144963
  21 H :    0.116202
  22 H :    0.112646
  23 H :    0.108959
  24 H :    0.110756
  25 H :    0.108027
  26 H :    0.121267
  27 H :    0.113964
  28 H :    0.120072
  29 H :    0.188088
  30 H :    0.191994
  31 H :    0.104527
  32 H :    0.116355
  33 H :    0.129985
  34 H :    0.119160
  35 H :    0.107598
  36 H :    0.117113
  37 H :    0.109714
  38 H :    0.127532
  39 H :    0.111412
  40 H :    0.127502
Sum of atomic charges:    0.0000000

LOEWDIN ATOMIC CHARGES
----------------------
   0 C :   -0.370632
   1 C :   -0.117946
   2 O :   -0.240463
   3 P :    0.569406
   4 S :   -0.324064
   5 O :   -0.243241
   6 C :   -0.119069
   7 C :   -0.363973
   8 S :    0.099040
   9 C :   -0.481376
  10 S :    0.076144
  11 P :    0.566121
  12 S :   -0.315652
  13 O :   -0.235358
  14 C :   -0.118453
  15 C :   -0.353170
  16 O :   -0.246810
  17 C :   -0.113816
  18 C :   -0.368838
  19 H :    0.126560
  20 H :    0.122683
  21 H :    0.133070
  22 H :    0.111200
  23 H :    0.120678
  24 H :    0.109954
  25 H :    0.120002
  26 H :    0.122317
  27 H :    0.131378
  28 H :    0.127991
  29 H :    0.133762
  30 H :    0.129582
  31 H :    0.113677
  32 H :    0.103654
  33 H :    0.124311
  34 H :    0.128885
  35 H :    0.127405
  36 H :    0.109786
  37 H :    0.121463
  38 H :    0.122603
  39 H :    0.130142
  40 H :    0.131044

  Mayer bond orders larger than 0.100000
B(  0-C ,  1-C ) :   1.1638 B(  0-C , 19-H ) :   0.9413 B(  0-C , 20-H ) :   0.9280
B(  0-C , 21-H ) :   0.9366 B(  1-C ,  2-O ) :   0.9038 B(  1-C , 22-H ) :   0.9144
B(  1-C , 23-H ) :   0.9323 B(  2-O ,  3-P ) :   1.1107 B(  3-P ,  4-S ) :   1.6021
B(  3-P ,  5-O ) :   1.1097 B(  3-P ,  8-S ) :   0.9735 B(  4-S ,  8-S ) :   0.1143
B(  5-O ,  6-C ) :   0.9042 B(  6-C ,  7-C ) :   1.1670 B(  6-C , 24-H ) :   0.9151
B(  6-C , 25-H ) :   0.9340 B(  7-C , 26-H ) :   0.9379 B(  7-C , 27-H ) :   0.9388
B(  7-C , 28-H ) :   0.9459 B(  8-S ,  9-C ) :   0.9889 B(  9-C , 10-S ) :   1.0120
B(  9-C , 29-H ) :   0.8932 B(  9-C , 30-H ) :   0.8549 B( 10-S , 11-P ) :   0.9429
B( 10-S , 12-S ) :   0.1075 B( 11-P , 12-S ) :   1.6371 B( 11-P , 13-O ) :   1.1400
B( 11-P , 16-O ) :   1.0895 B( 12-S , 30-H ) :   0.1136 B( 13-O , 14-C ) :   0.8861
B( 14-C , 15-C ) :   1.1677 B( 14-C , 31-H ) :   0.9281 B( 14-C , 32-H ) :   0.9063
B( 15-C , 33-H ) :   0.9401 B( 15-C , 34-H ) :   0.9472 B( 15-C , 35-H ) :   0.9396
B( 16-O , 17-C ) :   0.9125 B( 17-C , 18-C ) :   1.1663 B( 17-C , 36-H ) :   0.9266
B( 17-C , 37-H ) :   0.9336 B( 18-C , 38-H ) :   0.9315 B( 18-C , 39-H ) :   0.9351
B( 18-C , 40-H ) :   0.9432

Dispersion correction           -0.064262247
FINAL SINGLE POINT ENERGY     -2929.519520345462

DIPOLE MOMENT
-------------

Method             : SCF
Type of density    : Electron Density
Multiplicity       :   1
Irrep              :   0
Energy             : -2929.6399116808879626 Eh
Relativity type    :
Basis              : AO
                                X                 Y                 Z
Electronic contribution:     -6.973100880      -8.816721416      -6.480892350
Nuclear contribution   :      7.879249631       9.539881928       7.589511891
                        -----------------------------------------
Total Dipole Moment    :      0.906148751       0.723160511       1.108619541
                        -----------------------------------------
Magnitude (a.u.)       :      1.604089764
Magnitude (Debye)      :      4.077272155

Rotational constants in cm-1:             0.012941             0.004516             0.004060
Rotational constants in MHz :           387.969458           135.388148           121.712791

                             ****ORCA TERMINATED NORMALLY****
TOTAL RUN TIME: 0 days 0 hours 0 minutes 20 seconds 687 msec
