                         Program Version 6.0.0  -   RELEASE  -
|  1> ! pbe def2-sv(p) def2/J RI DEFGRID1 loosescf d4 GCP(DFT/SV(P)) printgap
|  2> %output
|  3>     printlevel normal
|  4> end
|  5> * xyz 0 1
|  6> C 4.0694343764 -1.7296119932 1.24334555
|  7> C 4.6685464922 -0.8888990512 0.1363593698
|  8> O 3.7040416996 -0.5405039426 -0.8887900261
|  9> P 2.378711791 0.284261303 -0.6706262326
| 10> S 1.799847908 1.1177283651 -2.3456028751
| 11> O 2.7938017291 1.2650403651 0.5080093516
| 12> C 2.0291083948 2.4205866951 0.8920916692
| 13> C 2.9903498785 3.4569090218 1.4372997169
| 14> S 0.9781655263 -1.0660163866 0.1980145617
| 15> C -0.1433564297 -1.2888912927 -1.2234355638
| 16> S -1.8114188207 -1.7154345226 -0.7040354846
| 17> P -2.3873271645 0.1316451477 0.2123088704
| 18> S -1.2165453827 1.6707990693 -0.0799949921
| 19> O -2.6683123366 -0.2206025569 1.7403719116
| 20> C -1.6411674435 -0.3781694802 2.7364942151
| 21> C -1.2767845506 -1.8380136972 2.9253366515
| 22> O -3.8448141841 0.3950912255 -0.3094929375
| 23> C -4.8953544017 -0.6101945319 -0.2728153549
| 24> C -5.2627271472 -1.0197968773 -1.6843885024
| 25> H 3.3103277647 -1.1623403421 1.7793344399
| 26> H 3.6115282109 -2.6274458886 0.8367734865
| 27> H 4.855938517 -2.010984392 1.9366747189
| 28> H 5.4301917321 -1.4373283859 -0.4200383103
| 29> H 5.0904805906 0.0364752933 0.5320590736
| 30> H 1.4817237768 2.7962809721 0.0213035034
| 31> H 1.302270906 2.1113571119 1.6471921079
| 32> H 3.6955921565 3.7536678097 0.6656897839
| 33> H 2.4260704206 4.3261159975 1.7584587709
| 34> H 3.5374959124 3.0484347074 2.2818979414
| 35> H 0.2061719118 -2.1232063739 -1.8269423779
| 36> H -0.1498450291 -0.3599339432 -1.7994937393
| 37> H -0.7693654909 0.2158237201 2.4445169146
| 38> H -2.0783639638 0.0415693577 3.644447602
| 39> H -0.5987442466 -1.9253073721 3.7677447621
| 40> H -2.1717825508 -2.4209788507 3.1224312354
| 41> H -0.7837145751 -2.229848861 2.0385075461
| 42> H -4.5537520979 -1.4651068433 0.3135639487
| 43> H -5.7315196668 -0.1257448291 0.2333254725
| 44> H -4.4232920875 -1.5146789783 -2.1666426847
| 45> H -6.1048369637 -1.7033869034 -1.6471949292
| 46> H -5.5364556689 -0.1438721882 -2.2660782892
| 47> *
| 48>
| 49>                          ****END OF INPUT****

CARTESIAN COORDINATES (ANGSTROEM)
---------------------------------
  C      4.069434   -1.729612    1.243346
  C      4.668546   -0.888899    0.136359
  O      3.704042   -0.540504   -0.888790
  P      2.378712    0.284261   -0.670626
  S      1.799848    1.117728   -2.345603
  O      2.793802    1.265040    0.508009
  C      2.029108    2.420587    0.892092
  C      2.990350    3.456909    1.437300
  S      0.978166   -1.066016    0.198015
  C     -0.143356   -1.288891   -1.223436
  S     -1.811419   -1.715435   -0.704035
  P     -2.387327    0.131645    0.212309
  S     -1.216545    1.670799   -0.079995
  O     -2.668312   -0.220603    1.740372
  C     -1.641167   -0.378169    2.736494
  C     -1.276785   -1.838014    2.925337
  O     -3.844814    0.395091   -0.309493
  C     -4.895354   -0.610195   -0.272815
  C     -5.262727   -1.019797   -1.684389
  H      3.310328   -1.162340    1.779334
  H      3.611528   -2.627446    0.836773
  H      4.855939   -2.010984    1.936675
  H      5.430192   -1.437328   -0.420038
  H      5.090481    0.036475    0.532059
  H      1.481724    2.796281    0.021304
  H      1.302271    2.111357    1.647192
  H      3.695592    3.753668    0.665690
  H      2.426070    4.326116    1.758459
  H      3.537496    3.048435    2.281898
  H      0.206172   -2.123206   -1.826942
  H     -0.149845   -0.359934   -1.799494
  H     -0.769365    0.215824    2.444517
  H     -2.078364    0.041569    3.644448
  H     -0.598744   -1.925307    3.767745
  H     -2.171783   -2.420979    3.122431
  H     -0.783715   -2.229849    2.038508
  H     -4.553752   -1.465107    0.313564
  H     -5.731520   -0.125745    0.233325
  H     -4.423292   -1.514679   -2.166643
  H     -6.104837   -1.703387   -1.647195
  H     -5.536456   -0.143872   -2.266078

 Total Charge           Charge          ....    0
 Multiplicity           Mult            ....    1
 Number of Electrons    NEL             ....  202
 Basis Dimension        Dim             ....  334

ORBITAL ENERGIES
----------------

  NO   OCC          E(Eh)            E(eV)
   0   2.0000     -88.046375     -2395.8637
   1   2.0000     -88.037947     -2395.6343
   2   2.0000     -87.981705     -2394.1039
   3   2.0000     -87.979549     -2394.0452
   4   2.0000     -76.424845     -2079.6258
   5   2.0000     -76.423018     -2079.5760
   6   2.0000     -18.793141      -511.3874
   7   2.0000     -18.791495      -511.3426
   8   2.0000     -18.788087      -511.2498
   9   2.0000     -18.786497      -511.2066
  10   2.0000      -9.960371      -271.0355
  11   2.0000      -9.956838      -270.9393
  12   2.0000      -9.951779      -270.8017
  13   2.0000      -9.950811      -270.7753
  14   2.0000      -9.947540      -270.6863
  15   2.0000      -9.890591      -269.1367
  16   2.0000      -9.887975      -269.0655
  17   2.0000      -9.884993      -268.9843
  18   2.0000      -9.883536      -268.9447
  19   2.0000      -7.691143      -209.2866
  20   2.0000      -7.682346      -209.0473
  21   2.0000      -7.626797      -207.5357
  22   2.0000      -7.624751      -207.4800
  23   2.0000      -6.422420      -174.7629
  24   2.0000      -6.420414      -174.7084
  25   2.0000      -5.719045      -155.6231
  26   2.0000      -5.715519      -155.5272
  27   2.0000      -5.710236      -155.3834
  28   2.0000      -5.708266      -155.3298
  29   2.0000      -5.707014      -155.2958
  30   2.0000      -5.699285      -155.0854
  31   2.0000      -5.655918      -153.9053
  32   2.0000      -5.653776      -153.8471
  33   2.0000      -5.647121      -153.6660
  34   2.0000      -5.646991      -153.6624
  35   2.0000      -5.645333      -153.6173
  36   2.0000      -5.644796      -153.6027
  37   2.0000      -4.645099      -126.3996
  38   2.0000      -4.644214      -126.3755
  39   2.0000      -4.643431      -126.3542
  40   2.0000      -4.642742      -126.3354
  41   2.0000      -4.641930      -126.3133
  42   2.0000      -4.640727      -126.2806
  43   2.0000      -0.987118       -26.8609
  44   2.0000      -0.986151       -26.8345
  45   2.0000      -0.942602       -25.6495
  46   2.0000      -0.941582       -25.6217
  47   2.0000      -0.760408       -20.6917
  48   2.0000      -0.721571       -19.6349
  49   2.0000      -0.713195       -19.4070
  50   2.0000      -0.692331       -18.8393
  51   2.0000      -0.689751       -18.7691
  52   2.0000      -0.675306       -18.3760
  53   2.0000      -0.647624       -17.6227
  54   2.0000      -0.631979       -17.1970
  55   2.0000      -0.595491       -16.2041
  56   2.0000      -0.586874       -15.9696
  57   2.0000      -0.575999       -15.6737
  58   2.0000      -0.572685       -15.5836
  59   2.0000      -0.559548       -15.2261
  60   2.0000      -0.507320       -13.8049
  61   2.0000      -0.500516       -13.6197
  62   2.0000      -0.477791       -13.0013
  63   2.0000      -0.473915       -12.8959
  64   2.0000      -0.451753       -12.2928
  65   2.0000      -0.446420       -12.1477
  66   2.0000      -0.444559       -12.0971
  67   2.0000      -0.438818       -11.9408
  68   2.0000      -0.430370       -11.7110
  69   2.0000      -0.422463       -11.4958
  70   2.0000      -0.404619       -11.0103
  71   2.0000      -0.398331       -10.8391
  72   2.0000      -0.397326       -10.8118
  73   2.0000      -0.382952       -10.4207
  74   2.0000      -0.374975       -10.2036
  75   2.0000      -0.369518       -10.0551
  76   2.0000      -0.366325        -9.9682
  77   2.0000      -0.358168        -9.7462
  78   2.0000      -0.356020        -9.6878
  79   2.0000      -0.352126        -9.5818
  80   2.0000      -0.348794        -9.4912
  81   2.0000      -0.347300        -9.4505
  82   2.0000      -0.342178        -9.3111
  83   2.0000      -0.338233        -9.2038
  84   2.0000      -0.335148        -9.1199
  85   2.0000      -0.313221        -8.5232
  86   2.0000      -0.311574        -8.4784
  87   2.0000      -0.302591        -8.2339
  88   2.0000      -0.296580        -8.0704
  89   2.0000      -0.293379        -7.9833
  90   2.0000      -0.293026        -7.9737
  91   2.0000      -0.275732        -7.5030
  92   2.0000      -0.271914        -7.3992
  93   2.0000      -0.260574        -7.0906
  94   2.0000      -0.255723        -6.9586
  95   2.0000      -0.235465        -6.4073
  96   2.0000      -0.218843        -5.9550
  97   2.0000      -0.206590        -5.6216
  98   2.0000      -0.199558        -5.4303
  99   2.0000      -0.190629        -5.1873
 100   2.0000      -0.187303        -5.0968
 101   0.0000      -0.047583        -1.2948
 102   0.0000      -0.033595        -0.9142
 103   0.0000      -0.010918        -0.2971
 104   0.0000       0.004222         0.1149
 105   0.0000       0.011441         0.3113

MULLIKEN ATOMIC CHARGES
-----------------------
   0 C :   -0.325580
   1 C :    0.009575
   2 O :   -0.364285
   3 P :    0.630533
   4 S :   -0.300322
   5 O :   -0.390084
   6 C :   -0.034681
   7 C :   -0.275720
   8 S :   -0.151492
   9 C :   -0.318137
  10 S :   -0.138331
  11 P :    0.600724
  12 S :   -0.302631
  13 O :   -0.378101
  14 C :   -0.015180
  15 C :   -0.300543
  16 O :   -0.353484
  17 C :   -0.022671
  18 C :   -0.283894
  19 H :    0.123636
  20 H :    0.126746
  21 H :    0.114518
  22 H :    0.110428
  23 H :    0.109115
  24 H :    0.125503
  25 H :    0.119399
  26 H :    0.118235
  27 H :    0.114463
  28 H :    0.108559
  29 H :    0.180505
  30 H :    0.213028
  31 H :    0.116489
  32 H :    0.104507
  33 H :    0.106088
  34 H :    0.109998
  35 H :    0.131195
  36 H :    0.109726
  37 H :    0.115570
  38 H :    0.122394
  39 H :    0.110002
  40 H :    0.124197
Sum of atomic charges:   -0.0000000

LOEWDIN ATOMIC CHARGES
----------------------
   0 C :   -0.370286
   1 C :   -0.107297
   2 O :   -0.242626
   3 P :    0.569862
   4 S :   -0.291155
   5 O :   -0.247163
   6 C :   -0.121053
   7 C :   -0.351519
   8 S :    0.058269
   9 C :   -0.477820
  10 S :    0.068187
  11 P :    0.563880
  12 S :   -0.288738
  13 O :   -0.251788
  14 C :   -0.118130
  15 C :   -0.364655
  16 O :   -0.235369
  17 C :   -0.112352
  18 C :   -0.357978
  19 H :    0.116200
  20 H :    0.127264
  21 H :    0.131640
  22 H :    0.122717
  23 H :    0.114472
  24 H :    0.110408
  25 H :    0.109954
  26 H :    0.127966
  27 H :    0.132313
  28 H :    0.122790
  29 H :    0.135037
  30 H :    0.124174
  31 H :    0.104817
  32 H :    0.118304
  33 H :    0.128607
  34 H :    0.123981
  35 H :    0.111371
  36 H :    0.107664
  37 H :    0.123659
  38 H :    0.123114
  39 H :    0.129809
  40 H :    0.131471

  Mayer bond orders larger than 0.100000
B(  0-C ,  1-C ) :   1.1691 B(  0-C , 19-H ) :   0.9367 B(  0-C , 20-H ) :   0.9418
B(  0-C , 21-H ) :   0.9355 B(  1-C ,  2-O ) :   0.9041 B(  1-C , 22-H ) :   0.9347
B(  1-C , 23-H ) :   0.9284 B(  2-O ,  3-P ) :   1.1337 B(  3-P ,  4-S ) :   1.6619
B(  3-P ,  5-O ) :   1.0805 B(  3-P ,  8-S ) :   0.9349 B(  4-S ,  8-S ) :   0.1168
B(  5-O ,  6-C ) :   0.8976 B(  6-C ,  7-C ) :   1.1539 B(  6-C , 24-H ) :   0.9076
B(  6-C , 25-H ) :   0.9271 B(  7-C , 26-H ) :   0.9495 B(  7-C , 27-H ) :   0.9420
B(  7-C , 28-H ) :   0.9506 B(  8-S ,  9-C ) :   0.9826 B(  9-C , 10-S ) :   1.0200
B(  9-C , 29-H ) :   0.9081 B(  9-C , 30-H ) :   0.8470 B( 10-S , 11-P ) :   0.9153
B( 10-S , 12-S ) :   0.1121 B( 11-P , 12-S ) :   1.6686 B( 11-P , 13-O ) :   1.0859
B( 11-P , 16-O ) :   1.1519 B( 13-O , 14-C ) :   0.9095 B( 14-C , 15-C ) :   1.1695
B( 14-C , 31-H ) :   0.9036 B( 14-C , 32-H ) :   0.9352 B( 15-C , 33-H ) :   0.9400
B( 15-C , 34-H ) :   0.9461 B( 15-C , 35-H ) :   0.9284 B( 16-O , 17-C ) :   0.8863
B( 17-C , 18-C ) :   1.1637 B( 17-C , 36-H ) :   0.9184 B( 17-C , 37-H ) :   0.9338
B( 18-C , 38-H ) :   0.9411 B( 18-C , 39-H ) :   0.9396 B( 18-C , 40-H ) :   0.9459

Dispersion correction           -0.064503968
FINAL SINGLE POINT ENERGY     -2929.511798481210

DIPOLE MOMENT
-------------

Method             : SCF
Type of density    : Electron Density
Multiplicity       :   1
Irrep              :   0
Energy             : -2929.6315063485553765 Eh
Relativity type    :
Basis              : AO
                                X                 Y                 Z
Electronic contribution:     -1.976699315       3.884617127     -14.749040804
Nuclear contribution   :      1.934318561      -4.974722010      16.362710529
                        -----------------------------------------
Total Dipole Moment    :     -0.042380754      -1.090104884       1.613669724
                        -----------------------------------------
Magnitude (a.u.)       :      1.947833351
Magnitude (Debye)      :      4.950998917

Rotational constants in cm-1:             0.012510             0.004667             0.004606
Rotational constants in MHz :           375.043252           139.901398           138.073077

                             ****ORCA TERMINATED NORMALLY****
TOTAL RUN TIME: 0 days 0 hours 0 minutes 20 seconds 915 msec
