                         Program Version 6.0.0  -   RELEASE  -
|  1> ! pbe def2-sv(p) def2/J RI DEFGRID1 loosescf d4 GCP(DFT/SV(P)) printgap
|  2> %output
|  3>     printlevel normal
|  4> end
|  5> * xyz 0 1
|  6> C 4.9106970935 -0.1385936357 -2.1771070694
|  7> C 3.8122777932 -1.1766973123 -2.2660670213
|  8> O 3.1076751041 -1.3211921085 -1.0166412246
|  9> P 2.136623097 -0.2078451075 -0.4440791606
| 10> S 1.1165158347 0.7325040853 -1.8404582694
| 11> O 3.1395702238 0.6671620593 0.4154366246
| 12> C 2.8096332123 1.8588905106 1.1502896618
| 13> C 2.5892522932 1.5394478709 2.6150451965
| 14> S 1.0742061818 -1.400034955 0.9243668568
| 15> C -0.2840172288 -1.8963611403 -0.1945201864
| 16> S -1.9230068524 -1.6734526585 0.5290138042
| 17> P -2.1060036239 0.4484273805 0.3643916118
| 18> S -0.7451139347 1.5676569487 1.2136704458
| 19> O -3.6063291491 0.6760326529 0.8341462536
| 20> C -4.197529265 0.1204628709 2.0248624482
| 21> C -3.3812235252 0.3955762776 3.2697332983
| 22> O -2.1842758544 0.8176290114 -1.1639556329
| 23> C -3.1758158386 0.3362732631 -2.1043814907
| 24> C -2.6322361202 -0.8185247011 -2.9233197389
| 25> H 5.5697824464 -0.3603257202 -1.3420751791
| 26> H 5.4813051354 -0.1367298936 -3.100538691
| 27> H 4.4746108617 0.8482803645 -2.0275584169
| 28> H 4.2103173184 -2.1741027379 -2.4563345618
| 29> H 3.0880195125 -0.9063619638 -3.0414181659
| 30> H 3.672034038 2.5143103341 1.0129383992
| 31> H 1.9214390449 2.3257691339 0.7138122551
| 32> H 3.4418124272 0.9937607137 3.0091563195
| 33> H 2.4627842847 2.4668647652 3.163661522
| 34> H 1.6906666412 0.9389376187 2.7384374453
| 35> H -0.1918464053 -2.9598026688 -0.3982621179
| 36> H -0.2047563142 -1.3019719942 -1.1085783001
| 37> H -5.1751222799 0.6034815705 2.0732253887
| 38> H -4.3189535382 -0.9554115822 1.8720522235
| 39> H -2.4151547141 -0.1036838425 3.2036406439
| 40> H -3.2076396342 1.4633905222 3.381923642
| 41> H -3.9129554622 0.0230123168 4.1392250213
| 42> H -4.0788467411 0.0558502704 -1.5592707437
| 43> H -3.3786869262 1.202977865 -2.7356126957
| 44> H -1.6602419158 -0.5510901309 -3.3327467397
| 45> H -2.5315155191 -1.7140120716 -2.3148651638
| 46> H -3.3162458527 -1.0236168899 -3.7406378235
| 47> *
| 48>
| 49>                          ****END OF INPUT****

CARTESIAN COORDINATES (ANGSTROEM)
---------------------------------
  C      4.910697   -0.138594   -2.177107
  C      3.812278   -1.176697   -2.266067
  O      3.107675   -1.321192   -1.016641
  P      2.136623   -0.207845   -0.444079
  S      1.116516    0.732504   -1.840458
  O      3.139570    0.667162    0.415437
  C      2.809633    1.858891    1.150290
  C      2.589252    1.539448    2.615045
  S      1.074206   -1.400035    0.924367
  C     -0.284017   -1.896361   -0.194520
  S     -1.923007   -1.673453    0.529014
  P     -2.106004    0.448427    0.364392
  S     -0.745114    1.567657    1.213670
  O     -3.606329    0.676033    0.834146
  C     -4.197529    0.120463    2.024862
  C     -3.381224    0.395576    3.269733
  O     -2.184276    0.817629   -1.163956
  C     -3.175816    0.336273   -2.104381
  C     -2.632236   -0.818525   -2.923320
  H      5.569782   -0.360326   -1.342075
  H      5.481305   -0.136730   -3.100539
  H      4.474611    0.848280   -2.027558
  H      4.210317   -2.174103   -2.456335
  H      3.088020   -0.906362   -3.041418
  H      3.672034    2.514310    1.012938
  H      1.921439    2.325769    0.713812
  H      3.441812    0.993761    3.009156
  H      2.462784    2.466865    3.163662
  H      1.690667    0.938938    2.738437
  H     -0.191846   -2.959803   -0.398262
  H     -0.204756   -1.301972   -1.108578
  H     -5.175122    0.603482    2.073225
  H     -4.318954   -0.955412    1.872052
  H     -2.415155   -0.103684    3.203641
  H     -3.207640    1.463391    3.381924
  H     -3.912955    0.023012    4.139225
  H     -4.078847    0.055850   -1.559271
  H     -3.378687    1.202978   -2.735613
  H     -1.660242   -0.551090   -3.332747
  H     -2.531516   -1.714012   -2.314865
  H     -3.316246   -1.023617   -3.740638

 Total Charge           Charge          ....    0
 Multiplicity           Mult            ....    1
 Number of Electrons    NEL             ....  202
 Basis Dimension        Dim             ....  334

ORBITAL ENERGIES
----------------

  NO   OCC          E(Eh)            E(eV)
   0   2.0000     -88.046207     -2395.8591
   1   2.0000     -88.035390     -2395.5647
   2   2.0000     -87.980107     -2394.0604
   3   2.0000     -87.975210     -2393.9272
   4   2.0000     -76.423790     -2079.5970
   5   2.0000     -76.419585     -2079.4826
   6   2.0000     -18.792575      -511.3720
   7   2.0000     -18.787997      -511.2474
   8   2.0000     -18.786474      -511.2059
   9   2.0000     -18.778996      -511.0025
  10   2.0000      -9.959825      -271.0206
  11   2.0000      -9.956464      -270.9292
  12   2.0000      -9.953088      -270.8373
  13   2.0000      -9.944713      -270.6094
  14   2.0000      -9.944558      -270.6052
  15   2.0000      -9.884203      -268.9628
  16   2.0000      -9.882694      -268.9218
  17   2.0000      -9.878545      -268.8089
  18   2.0000      -9.874510      -268.6991
  19   2.0000      -7.691008      -209.2830
  20   2.0000      -7.680821      -209.0058
  21   2.0000      -7.624900      -207.4841
  22   2.0000      -7.620332      -207.3598
  23   2.0000      -6.420772      -174.7181
  24   2.0000      -6.417240      -174.6220
  25   2.0000      -5.718606      -155.6112
  26   2.0000      -5.715519      -155.5272
  27   2.0000      -5.708728      -155.3424
  28   2.0000      -5.708309      -155.3310
  29   2.0000      -5.705584      -155.2568
  30   2.0000      -5.697417      -155.0346
  31   2.0000      -5.653690      -153.8447
  32   2.0000      -5.649404      -153.7281
  33   2.0000      -5.645752      -153.6287
  34   2.0000      -5.644965      -153.6073
  35   2.0000      -5.640762      -153.4929
  36   2.0000      -5.640464      -153.4848
  37   2.0000      -4.643757      -126.3630
  38   2.0000      -4.642924      -126.3404
  39   2.0000      -4.640588      -126.2768
  40   2.0000      -4.639683      -126.2522
  41   2.0000      -4.638979      -126.2330
  42   2.0000      -4.637813      -126.2013
  43   2.0000      -0.986127       -26.8339
  44   2.0000      -0.979695       -26.6589
  45   2.0000      -0.942347       -25.6426
  46   2.0000      -0.937882       -25.5211
  47   2.0000      -0.761017       -20.7083
  48   2.0000      -0.718802       -19.5596
  49   2.0000      -0.708488       -19.2789
  50   2.0000      -0.689610       -18.7652
  51   2.0000      -0.681629       -18.5481
  52   2.0000      -0.672119       -18.2893
  53   2.0000      -0.648001       -17.6330
  54   2.0000      -0.630227       -17.1494
  55   2.0000      -0.595234       -16.1971
  56   2.0000      -0.585543       -15.9334
  57   2.0000      -0.575586       -15.6625
  58   2.0000      -0.563372       -15.3301
  59   2.0000      -0.562853       -15.3160
  60   2.0000      -0.501934       -13.6583
  61   2.0000      -0.490612       -13.3502
  62   2.0000      -0.470590       -12.8054
  63   2.0000      -0.469598       -12.7784
  64   2.0000      -0.453907       -12.3514
  65   2.0000      -0.447296       -12.1715
  66   2.0000      -0.438363       -11.9285
  67   2.0000      -0.433899       -11.8070
  68   2.0000      -0.429035       -11.6746
  69   2.0000      -0.413888       -11.2625
  70   2.0000      -0.404807       -11.0154
  71   2.0000      -0.396272       -10.7831
  72   2.0000      -0.391133       -10.6433
  73   2.0000      -0.384438       -10.4611
  74   2.0000      -0.382785       -10.4161
  75   2.0000      -0.371371       -10.1055
  76   2.0000      -0.354722        -9.6525
  77   2.0000      -0.353926        -9.6308
  78   2.0000      -0.350892        -9.5483
  79   2.0000      -0.344628        -9.3778
  80   2.0000      -0.343069        -9.3354
  81   2.0000      -0.341903        -9.3036
  82   2.0000      -0.339930        -9.2500
  83   2.0000      -0.336362        -9.1529
  84   2.0000      -0.327655        -8.9159
  85   2.0000      -0.317806        -8.6479
  86   2.0000      -0.306970        -8.3531
  87   2.0000      -0.296499        -8.0682
  88   2.0000      -0.290972        -7.9178
  89   2.0000      -0.286758        -7.8031
  90   2.0000      -0.277169        -7.5422
  91   2.0000      -0.274232        -7.4622
  92   2.0000      -0.266484        -7.2514
  93   2.0000      -0.262702        -7.1485
  94   2.0000      -0.256640        -6.9835
  95   2.0000      -0.240108        -6.5337
  96   2.0000      -0.220731        -6.0064
  97   2.0000      -0.201878        -5.4934
  98   2.0000      -0.199624        -5.4321
  99   2.0000      -0.183204        -4.9852
 100   2.0000      -0.180019        -4.8986
 101   0.0000      -0.039782        -1.0825
 102   0.0000      -0.029649        -0.8068
 103   0.0000      -0.014919        -0.4060
 104   0.0000       0.003439         0.0936
 105   0.0000       0.021862         0.5949

MULLIKEN ATOMIC CHARGES
-----------------------
   0 C :   -0.304278
   1 C :   -0.001348
   2 O :   -0.369645
   3 P :    0.613747
   4 S :   -0.319369
   5 O :   -0.372323
   6 C :   -0.014420
   7 C :   -0.309209
   8 S :   -0.067058
   9 C :   -0.358633
  10 S :   -0.133115
  11 P :    0.608303
  12 S :   -0.305906
  13 O :   -0.380446
  14 C :   -0.014432
  15 C :   -0.310248
  16 O :   -0.345488
  17 C :   -0.004974
  18 C :   -0.309832
  19 H :    0.115827
  20 H :    0.108571
  21 H :    0.121917
  22 H :    0.100735
  23 H :    0.103579
  24 H :    0.101963
  25 H :    0.127882
  26 H :    0.110617
  27 H :    0.109640
  28 H :    0.140160
  29 H :    0.184366
  30 H :    0.204235
  31 H :    0.110679
  32 H :    0.114155
  33 H :    0.129002
  34 H :    0.128736
  35 H :    0.110636
  36 H :    0.100520
  37 H :    0.111632
  38 H :    0.135944
  39 H :    0.118146
  40 H :    0.109734
Sum of atomic charges:    0.0000000

LOEWDIN ATOMIC CHARGES
----------------------
   0 C :   -0.364106
   1 C :   -0.119582
   2 O :   -0.249000
   3 P :    0.570778
   4 S :   -0.310705
   5 O :   -0.237168
   6 C :   -0.115793
   7 C :   -0.365511
   8 S :    0.089287
   9 C :   -0.479071
  10 S :    0.060201
  11 P :    0.567105
  12 S :   -0.298115
  13 O :   -0.245942
  14 C :   -0.114958
  15 C :   -0.370842
  16 O :   -0.226660
  17 C :   -0.110206
  18 C :   -0.366597
  19 H :    0.126028
  20 H :    0.128492
  21 H :    0.123569
  22 H :    0.116587
  23 H :    0.106282
  24 H :    0.116909
  25 H :    0.111373
  26 H :    0.123504
  27 H :    0.130733
  28 H :    0.122097
  29 H :    0.137311
  30 H :    0.121625
  31 H :    0.122047
  32 H :    0.107420
  33 H :    0.122286
  34 H :    0.131096
  35 H :    0.129769
  36 H :    0.108278
  37 H :    0.123284
  38 H :    0.131502
  39 H :    0.117162
  40 H :    0.129532

  Mayer bond orders larger than 0.100000
B(  0-C ,  1-C ) :   1.1646 B(  0-C , 19-H ) :   0.9468 B(  0-C , 20-H ) :   0.9392
B(  0-C , 21-H ) :   0.9382 B(  1-C ,  2-O ) :   0.9160 B(  1-C , 22-H ) :   0.9349
B(  1-C , 23-H ) :   0.9120 B(  2-O ,  3-P ) :   1.1153 B(  3-P ,  4-S ) :   1.5951
B(  3-P ,  5-O ) :   1.1264 B(  3-P ,  8-S ) :   0.9656 B(  4-S ,  8-S ) :   0.1169
B(  4-S , 30-H ) :   0.1008 B(  5-O ,  6-C ) :   0.8968 B(  6-C ,  7-C ) :   1.1719
B(  6-C , 24-H ) :   0.9337 B(  6-C , 25-H ) :   0.9059 B(  7-C , 26-H ) :   0.9467
B(  7-C , 27-H ) :   0.9405 B(  7-C , 28-H ) :   0.9306 B(  8-S ,  9-C ) :   0.9983
B(  9-C , 10-S ) :   0.9957 B(  9-C , 29-H ) :   0.9106 B(  9-C , 30-H ) :   0.8443
B( 10-S , 11-P ) :   0.9296 B( 10-S , 12-S ) :   0.1159 B( 11-P , 12-S ) :   1.6679
B( 11-P , 13-O ) :   1.0846 B( 11-P , 16-O ) :   1.1392 B( 13-O , 14-C ) :   0.9126
B( 14-C , 15-C ) :   1.1680 B( 14-C , 31-H ) :   0.9332 B( 14-C , 32-H ) :   0.9259
B( 15-C , 33-H ) :   0.9312 B( 15-C , 34-H ) :   0.9415 B( 15-C , 35-H ) :   0.9339
B( 16-O , 17-C ) :   0.8999 B( 17-C , 18-C ) :   1.1705 B( 17-C , 36-H ) :   0.9191
B( 17-C , 37-H ) :   0.9348 B( 18-C , 38-H ) :   0.9357 B( 18-C , 39-H ) :   0.9337
B( 18-C , 40-H ) :   0.9385

Dispersion correction           -0.067208468
FINAL SINGLE POINT ENERGY     -2929.510996390338

DIPOLE MOMENT
-------------

Method             : SCF
Type of density    : Electron Density
Multiplicity       :   1
Irrep              :   0
Energy             : -2929.6285181327684768 Eh
Relativity type    :
Basis              : AO
                                X                 Y                 Z
Electronic contribution:     -2.131867111      -1.736443625       1.525295174
Nuclear contribution   :      1.513818415       0.992129308      -1.701969072
                        -----------------------------------------
Total Dipole Moment    :     -0.618048696      -0.744314318      -0.176673898
                        -----------------------------------------
Magnitude (a.u.)       :      0.983464112
Magnitude (Debye)      :      2.499767114

Rotational constants in cm-1:             0.012451             0.005454             0.004724
Rotational constants in MHz :           373.276522           163.501622           141.632861

                             ****ORCA TERMINATED NORMALLY****
TOTAL RUN TIME: 0 days 0 hours 0 minutes 21 seconds 593 msec
