                         Program Version 6.0.0  -   RELEASE  -
|  1> ! pbe def2-sv(p) def2/J RI DEFGRID1 loosescf d4 GCP(DFT/SV(P)) printgap
|  2> %output
|  3>     printlevel normal
|  4> end
|  5> * xyz 0 1
|  6> C 4.4590917084 1.0392024907 -1.6477810882
|  7> C 3.2143077278 0.3427643212 -2.1539990478
|  8> O 2.7155354447 -0.6095978285 -1.1895309124
|  9> P 2.0410807788 -0.162031746 0.163837002
| 10> S 1.1859681588 1.6111360433 0.1684211161
| 11> O 3.2342471003 -0.2559371015 1.2067621717
| 12> C 3.0947574765 0.170456261 2.5763509129
| 13> C 4.4846912492 0.3164417447 3.1609586361
| 14> S 0.9550657277 -1.9173630884 0.6265368106
| 15> C 0.042362163 -2.1694529139 -0.9361312777
| 16> S -0.5540630232 -0.6520202923 -1.7227160267
| 17> P -2.0657301444 -0.0950688734 -0.3451178484
| 18> S -1.7385139762 0.0104024532 1.5886437713
| 19> O -3.1133419038 -1.2058311709 -0.7650528406
| 20> C -4.2388050735 -1.5604727055 0.0639551714
| 21> C -5.2867199605 -0.4679663049 0.0793817027
| 22> O -2.6374784427 1.2143739845 -1.0321291451
| 23> C -2.2799085178 2.5645117604 -0.6732084494
| 24> C -3.3066680365 3.1508128462 0.276004223
| 25> H 4.2110870254 1.6446734139 -0.7766358382
| 26> H 5.210117699 0.3068495611 -1.3641944922
| 27> H 4.8543514201 1.6844605046 -2.4259045304
| 28> H 3.4143961405 -0.2629420287 -3.0383411586
| 29> H 2.4213163337 1.0662619202 -2.3688949536
| 30> H 2.5464840504 1.1190194977 2.5935200745
| 31> H 2.5106990505 -0.5830551314 3.1126634895
| 32> H 4.402280215 0.6082900955 4.2026930743
| 33> H 5.0143848258 -0.6290124049 3.0909423967
| 34> H 5.0415014539 1.0747252184 2.6180431976
| 35> H -0.7966461868 -2.8196624313 -0.6965733071
| 36> H 0.709741953 -2.6366802619 -1.6566342555
| 37> H -4.616642159 -2.4792421593 -0.3866472655
| 38> H -3.8739731149 -1.7602219909 1.0768226824
| 39> H -6.1618266384 -0.8148823075 0.6198954164
| 40> H -4.8894340024 0.4153963958 0.5765362945
| 41> H -5.567472715 -0.2038706745 -0.9367984022
| 42> H -1.2830159619 2.5776684642 -0.2247383227
| 43> H -2.2561254054 3.1045475854 -1.621261093
| 44> H -3.2974096477 2.606261811 1.2181654386
| 45> H -3.0570797643 4.1890351557 0.4692381128
| 46> H -4.2992498026 3.09292572 -0.1623328905
| 47> *
| 48>
| 49>                          ****END OF INPUT****

CARTESIAN COORDINATES (ANGSTROEM)
---------------------------------
  C      4.459092    1.039202   -1.647781
  C      3.214308    0.342764   -2.153999
  O      2.715535   -0.609598   -1.189531
  P      2.041081   -0.162032    0.163837
  S      1.185968    1.611136    0.168421
  O      3.234247   -0.255937    1.206762
  C      3.094757    0.170456    2.576351
  C      4.484691    0.316442    3.160959
  S      0.955066   -1.917363    0.626537
  C      0.042362   -2.169453   -0.936131
  S     -0.554063   -0.652020   -1.722716
  P     -2.065730   -0.095069   -0.345118
  S     -1.738514    0.010402    1.588644
  O     -3.113342   -1.205831   -0.765053
  C     -4.238805   -1.560473    0.063955
  C     -5.286720   -0.467966    0.079382
  O     -2.637478    1.214374   -1.032129
  C     -2.279909    2.564512   -0.673208
  C     -3.306668    3.150813    0.276004
  H      4.211087    1.644673   -0.776636
  H      5.210118    0.306850   -1.364194
  H      4.854351    1.684461   -2.425905
  H      3.414396   -0.262942   -3.038341
  H      2.421316    1.066262   -2.368895
  H      2.546484    1.119019    2.593520
  H      2.510699   -0.583055    3.112663
  H      4.402280    0.608290    4.202693
  H      5.014385   -0.629012    3.090942
  H      5.041501    1.074725    2.618043
  H     -0.796646   -2.819662   -0.696573
  H      0.709742   -2.636680   -1.656634
  H     -4.616642   -2.479242   -0.386647
  H     -3.873973   -1.760222    1.076823
  H     -6.161827   -0.814882    0.619895
  H     -4.889434    0.415396    0.576536
  H     -5.567473   -0.203871   -0.936798
  H     -1.283016    2.577668   -0.224738
  H     -2.256125    3.104548   -1.621261
  H     -3.297410    2.606262    1.218165
  H     -3.057080    4.189035    0.469238
  H     -4.299250    3.092926   -0.162333

 Total Charge           Charge          ....    0
 Multiplicity           Mult            ....    1
 Number of Electrons    NEL             ....  202
 Basis Dimension        Dim             ....  334

ORBITAL ENERGIES
----------------

  NO   OCC          E(Eh)            E(eV)
   0   2.0000     -88.037589     -2395.6246
   1   2.0000     -88.032295     -2395.4805
   2   2.0000     -87.978944     -2394.0288
   3   2.0000     -87.978369     -2394.0131
   4   2.0000     -76.422470     -2079.5611
   5   2.0000     -76.421399     -2079.5320
   6   2.0000     -18.791419      -511.3405
   7   2.0000     -18.787542      -511.2350
   8   2.0000     -18.787495      -511.2337
   9   2.0000     -18.785713      -511.1852
  10   2.0000      -9.957048      -270.9451
  11   2.0000      -9.949994      -270.7531
  12   2.0000      -9.948245      -270.7055
  13   2.0000      -9.947345      -270.6810
  14   2.0000      -9.945436      -270.6291
  15   2.0000      -9.884896      -268.9817
  16   2.0000      -9.881612      -268.8923
  17   2.0000      -9.881426      -268.8873
  18   2.0000      -9.877175      -268.7716
  19   2.0000      -7.682675      -209.0562
  20   2.0000      -7.677818      -208.9241
  21   2.0000      -7.623792      -207.4539
  22   2.0000      -7.623030      -207.4332
  23   2.0000      -6.419728      -174.6897
  24   2.0000      -6.418624      -174.6596
  25   2.0000      -5.710661      -155.3950
  26   2.0000      -5.707313      -155.3039
  27   2.0000      -5.705944      -155.2666
  28   2.0000      -5.702465      -155.1720
  29   2.0000      -5.699327      -155.0866
  30   2.0000      -5.694303      -154.9499
  31   2.0000      -5.652714      -153.8182
  32   2.0000      -5.651889      -153.7957
  33   2.0000      -5.644334      -153.5901
  34   2.0000      -5.644063      -153.5828
  35   2.0000      -5.643615      -153.5706
  36   2.0000      -5.643316      -153.5624
  37   2.0000      -4.642380      -126.3256
  38   2.0000      -4.641620      -126.3049
  39   2.0000      -4.641150      -126.2921
  40   2.0000      -4.640407      -126.2719
  41   2.0000      -4.640025      -126.2615
  42   2.0000      -4.639148      -126.2376
  43   2.0000      -0.984633       -26.7932
  44   2.0000      -0.981064       -26.6961
  45   2.0000      -0.944591       -25.7036
  46   2.0000      -0.940999       -25.6059
  47   2.0000      -0.759192       -20.6587
  48   2.0000      -0.717804       -19.5324
  49   2.0000      -0.705214       -19.1898
  50   2.0000      -0.686364       -18.6769
  51   2.0000      -0.682428       -18.5698
  52   2.0000      -0.663193       -18.0464
  53   2.0000      -0.647980       -17.6324
  54   2.0000      -0.633575       -17.2405
  55   2.0000      -0.596331       -16.2270
  56   2.0000      -0.589116       -16.0307
  57   2.0000      -0.564921       -15.3723
  58   2.0000      -0.563518       -15.3341
  59   2.0000      -0.561822       -15.2879
  60   2.0000      -0.502584       -13.6760
  61   2.0000      -0.492836       -13.4108
  62   2.0000      -0.476401       -12.9635
  63   2.0000      -0.471724       -12.8363
  64   2.0000      -0.452141       -12.3034
  65   2.0000      -0.439906       -11.9705
  66   2.0000      -0.432777       -11.7765
  67   2.0000      -0.431046       -11.7294
  68   2.0000      -0.423379       -11.5207
  69   2.0000      -0.409452       -11.1418
  70   2.0000      -0.401629       -10.9289
  71   2.0000      -0.395279       -10.7561
  72   2.0000      -0.390355       -10.6221
  73   2.0000      -0.384221       -10.4552
  74   2.0000      -0.376946       -10.2572
  75   2.0000      -0.372128       -10.1261
  76   2.0000      -0.369092       -10.0435
  77   2.0000      -0.354383        -9.6432
  78   2.0000      -0.351678        -9.5696
  79   2.0000      -0.347781        -9.4636
  80   2.0000      -0.345849        -9.4110
  81   2.0000      -0.343194        -9.3388
  82   2.0000      -0.339403        -9.2356
  83   2.0000      -0.334585        -9.1045
  84   2.0000      -0.325884        -8.8677
  85   2.0000      -0.319130        -8.6840
  86   2.0000      -0.307322        -8.3626
  87   2.0000      -0.296706        -8.0738
  88   2.0000      -0.291375        -7.9287
  89   2.0000      -0.282780        -7.6948
  90   2.0000      -0.278448        -7.5770
  91   2.0000      -0.272523        -7.4157
  92   2.0000      -0.267475        -7.2784
  93   2.0000      -0.258198        -7.0259
  94   2.0000      -0.255775        -6.9600
  95   2.0000      -0.244394        -6.6503
  96   2.0000      -0.219761        -5.9800
  97   2.0000      -0.207751        -5.6532
  98   2.0000      -0.185796        -5.0558
  99   2.0000      -0.184006        -5.0071
 100   2.0000      -0.179928        -4.8961
 101   0.0000      -0.047213        -1.2847
 102   0.0000      -0.025985        -0.7071
 103   0.0000      -0.009616        -0.2617
 104   0.0000       0.007526         0.2048
 105   0.0000       0.023700         0.6449

MULLIKEN ATOMIC CHARGES
-----------------------
   0 C :   -0.304499
   1 C :   -0.003885
   2 O :   -0.370331
   3 P :    0.630269
   4 S :   -0.333458
   5 O :   -0.375739
   6 C :   -0.014051
   7 C :   -0.280549
   8 S :   -0.098173
   9 C :   -0.320777
  10 S :   -0.096178
  11 P :    0.623138
  12 S :   -0.311038
  13 O :   -0.372803
  14 C :   -0.003947
  15 C :   -0.315412
  16 O :   -0.379558
  17 C :   -0.020009
  18 C :   -0.300416
  19 H :    0.123160
  20 H :    0.116077
  21 H :    0.110797
  22 H :    0.101952
  23 H :    0.113179
  24 H :    0.109188
  25 H :    0.105837
  26 H :    0.111693
  27 H :    0.116415
  28 H :    0.117648
  29 H :    0.179120
  30 H :    0.187423
  31 H :    0.101205
  32 H :    0.108182
  33 H :    0.110274
  34 H :    0.130249
  35 H :    0.116901
  36 H :    0.135005
  37 H :    0.102280
  38 H :    0.129682
  39 H :    0.108697
  40 H :    0.112453
Sum of atomic charges:   -0.0000000

LOEWDIN ATOMIC CHARGES
----------------------
   0 C :   -0.364793
   1 C :   -0.117706
   2 O :   -0.240023
   3 P :    0.570555
   4 S :   -0.316764
   5 O :   -0.248573
   6 C :   -0.120248
   7 C :   -0.350322
   8 S :    0.072023
   9 C :   -0.467211
  10 S :    0.090092
  11 P :    0.568234
  12 S :   -0.308629
  13 O :   -0.245977
  14 C :   -0.120703
  15 C :   -0.364721
  16 O :   -0.245595
  17 C :   -0.115669
  18 C :   -0.362301
  19 H :    0.122435
  20 H :    0.126244
  21 H :    0.129911
  22 H :    0.117226
  23 H :    0.111024
  24 H :    0.108906
  25 H :    0.111728
  26 H :    0.130718
  27 H :    0.126763
  28 H :    0.127250
  29 H :    0.132550
  30 H :    0.135498
  31 H :    0.116423
  32 H :    0.108186
  33 H :    0.129670
  34 H :    0.124574
  35 H :    0.126467
  36 H :    0.109261
  37 H :    0.117222
  38 H :    0.124376
  39 H :    0.129423
  40 H :    0.122475

  Mayer bond orders larger than 0.100000
B(  0-C ,  1-C ) :   1.1665 B(  0-C , 19-H ) :   0.9337 B(  0-C , 20-H ) :   0.9461
B(  0-C , 21-H ) :   0.9391 B(  1-C ,  2-O ) :   0.8986 B(  1-C , 22-H ) :   0.9342
B(  1-C , 23-H ) :   0.9139 B(  2-O ,  3-P ) :   1.1235 B(  3-P ,  4-S ) :   1.5865
B(  3-P ,  5-O ) :   1.1076 B(  3-P ,  8-S ) :   0.9803 B(  4-S ,  8-S ) :   0.1144
B(  5-O ,  6-C ) :   0.9049 B(  6-C ,  7-C ) :   1.1597 B(  6-C , 24-H ) :   0.9079
B(  6-C , 25-H ) :   0.9298 B(  7-C , 26-H ) :   0.9420 B(  7-C , 27-H ) :   0.9505
B(  7-C , 28-H ) :   0.9517 B(  8-S ,  9-C ) :   0.9851 B(  9-C , 10-S ) :   1.0158
B(  9-C , 29-H ) :   0.9050 B(  9-C , 30-H ) :   0.9095 B( 10-S , 11-P ) :   0.9350
B( 10-S , 12-S ) :   0.1191 B( 11-P , 12-S ) :   1.6344 B( 11-P , 13-O ) :   1.1081
B( 11-P , 16-O ) :   1.1213 B( 13-O , 14-C ) :   0.9099 B( 14-C , 15-C ) :   1.1652
B( 14-C , 31-H ) :   0.9344 B( 14-C , 32-H ) :   0.9112 B( 15-C , 33-H ) :   0.9385
B( 15-C , 34-H ) :   0.9334 B( 15-C , 35-H ) :   0.9464 B( 16-O , 17-C ) :   0.8931
B( 17-C , 18-C ) :   1.1704 B( 17-C , 36-H ) :   0.9042 B( 17-C , 37-H ) :   0.9357
B( 18-C , 38-H ) :   0.9320 B( 18-C , 39-H ) :   0.9390 B( 18-C , 40-H ) :   0.9440

Dispersion correction           -0.066492047
FINAL SINGLE POINT ENERGY     -2929.513065585438

DIPOLE MOMENT
-------------

Method             : SCF
Type of density    : Electron Density
Multiplicity       :   1
Irrep              :   0
Energy             : -2929.6293877703055841 Eh
Relativity type    :
Basis              : AO
                                X                 Y                 Z
Electronic contribution:     -0.156757120     -10.971780006      -4.185900022
Nuclear contribution   :      0.252159258      10.846319638       3.793707299
                        -----------------------------------------
Total Dipole Moment    :      0.095402138      -0.125460368      -0.392192724
                        -----------------------------------------
Magnitude (a.u.)       :      0.422678370
Magnitude (Debye)      :      1.074363036

Rotational constants in cm-1:             0.013011             0.004875             0.004832
Rotational constants in MHz :           390.073408           146.162366           144.867631

                             ****ORCA TERMINATED NORMALLY****
TOTAL RUN TIME: 0 days 0 hours 0 minutes 20 seconds 932 msec
