                         Program Version 6.0.0  -   RELEASE  -
|  1> ! pbe def2-sv(p) def2/J RI DEFGRID1 loosescf d4 GCP(DFT/SV(P)) printgap
|  2> %output
|  3>     printlevel normal
|  4> end
|  5> * xyz 0 1
|  6> C 5.5521457252 -0.0739025152 -1.904729813
|  7> C 4.0475469423 -0.2400706629 -1.8386267624
|  8> O 3.6197661866 0.1242562362 -0.5115431167
|  9> P 2.0753910765 0.3177082569 -0.1685316328
| 10> S 1.1591770459 1.6125641234 -1.3088597022
| 11> O 2.1342760617 0.7555549211 1.3342979484
| 12> C 2.6610932901 -0.068514035 2.4035946787
| 13> C 4.0957229144 0.3063697647 2.7090138594
| 14> S 1.3404343769 -1.6873626602 -0.259384469
| 15> C -0.0068569746 -1.4974991396 -1.4664151418
| 16> S -1.6439650946 -1.9219898303 -0.8151930284
| 17> P -2.0822046304 -0.2160454624 0.3347940584
| 18> S -0.9376668115 0.3023372295 1.8314136108
| 19> O -3.5413450726 -0.533137896 0.8639265195
| 20> C -4.6276673197 -0.8973238319 -0.0267150779
| 21> C -5.9282642764 -0.4782639909 0.62728854
| 22> O -2.2097149796 0.8570130835 -0.8451844352
| 23> C -2.167223475 2.2710209942 -0.5879713726
| 24> C -3.4538557468 2.7581319812 0.0447297783
| 25> H 5.8953300943 -0.3381324339 -2.8994723362
| 26> H 5.8226465757 0.9568119774 -1.6936620516
| 27> H 6.0310900591 -0.7209634517 -1.1756738993
| 28> H 3.7515796381 -1.2773439958 -2.0205559232
| 29> H 3.5394805507 0.4108728511 -2.5577920016
| 30> H 1.9963550952 0.1317578278 3.2465914872
| 31> H 2.5743429278 -1.1204283143 2.1167119051
| 32> H 4.7268183427 0.1113116328 1.8460916156
| 33> H 4.1578880751 1.3618781605 2.958822643
| 34> H 4.4427725563 -0.283681789 3.551327592
| 35> H 0.1723616746 -2.2058046934 -2.2710900029
| 36> H -0.0101788801 -0.4664371348 -1.8315856536
| 37> H -4.479711456 -0.3986790398 -0.9880737676
| 38> H -4.5831431396 -1.9790478072 -0.1710572371
| 39> H -5.956831359 0.5997111383 0.7606406655
| 40> H -6.7568063131 -0.7844181439 -0.0031618727
| 41> H -6.0214967394 -0.9519250691 1.600253922
| 42> H -1.3100762719 2.4839181744 0.0595247406
| 43> H -1.9908649898 2.7150424129 -1.568877888
| 44> H -3.3992636361 3.833445626 0.1822737665
| 45> H -4.3020397433 2.519017037 -0.5916614216
| 46> H -3.5865783619 2.2834432411 1.0169223103
| 47> *
| 48>
| 49>                          ****END OF INPUT****

CARTESIAN COORDINATES (ANGSTROEM)
---------------------------------
  C      5.552146   -0.073903   -1.904730
  C      4.047547   -0.240071   -1.838627
  O      3.619766    0.124256   -0.511543
  P      2.075391    0.317708   -0.168532
  S      1.159177    1.612564   -1.308860
  O      2.134276    0.755555    1.334298
  C      2.661093   -0.068514    2.403595
  C      4.095723    0.306370    2.709014
  S      1.340434   -1.687363   -0.259384
  C     -0.006857   -1.497499   -1.466415
  S     -1.643965   -1.921990   -0.815193
  P     -2.082205   -0.216045    0.334794
  S     -0.937667    0.302337    1.831414
  O     -3.541345   -0.533138    0.863927
  C     -4.627667   -0.897324   -0.026715
  C     -5.928264   -0.478264    0.627289
  O     -2.209715    0.857013   -0.845184
  C     -2.167223    2.271021   -0.587971
  C     -3.453856    2.758132    0.044730
  H      5.895330   -0.338132   -2.899472
  H      5.822647    0.956812   -1.693662
  H      6.031090   -0.720963   -1.175674
  H      3.751580   -1.277344   -2.020556
  H      3.539481    0.410873   -2.557792
  H      1.996355    0.131758    3.246591
  H      2.574343   -1.120428    2.116712
  H      4.726818    0.111312    1.846092
  H      4.157888    1.361878    2.958823
  H      4.442773   -0.283682    3.551328
  H      0.172362   -2.205805   -2.271090
  H     -0.010179   -0.466437   -1.831586
  H     -4.479711   -0.398679   -0.988074
  H     -4.583143   -1.979048   -0.171057
  H     -5.956831    0.599711    0.760641
  H     -6.756806   -0.784418   -0.003162
  H     -6.021497   -0.951925    1.600254
  H     -1.310076    2.483918    0.059525
  H     -1.990865    2.715042   -1.568878
  H     -3.399264    3.833446    0.182274
  H     -4.302040    2.519017   -0.591661
  H     -3.586578    2.283443    1.016922

 Total Charge           Charge          ....    0
 Multiplicity           Mult            ....    1
 Number of Electrons    NEL             ....  202
 Basis Dimension        Dim             ....  334

ORBITAL ENERGIES
----------------

  NO   OCC          E(Eh)            E(eV)
   0   2.0000     -88.039183     -2395.6680
   1   2.0000     -88.038453     -2395.6481
   2   2.0000     -87.984518     -2394.1805
   3   2.0000     -87.974690     -2393.9130
   4   2.0000     -76.423204     -2079.5811
   5   2.0000     -76.417206     -2079.4179
   6   2.0000     -18.788683      -511.2661
   7   2.0000     -18.788027      -511.2482
   8   2.0000     -18.787883      -511.2443
   9   2.0000     -18.783012      -511.1117
  10   2.0000      -9.955404      -270.9003
  11   2.0000      -9.954195      -270.8674
  12   2.0000      -9.953366      -270.8448
  13   2.0000      -9.950915      -270.7782
  14   2.0000      -9.938103      -270.4295
  15   2.0000      -9.889985      -269.1202
  16   2.0000      -9.888484      -269.0793
  17   2.0000      -9.883751      -268.9505
  18   2.0000      -9.879686      -268.8399
  19   2.0000      -7.684238      -209.0988
  20   2.0000      -7.684045      -209.0935
  21   2.0000      -7.629554      -207.6107
  22   2.0000      -7.619789      -207.3450
  23   2.0000      -6.420769      -174.7180
  24   2.0000      -6.415208      -174.5667
  25   2.0000      -5.712149      -155.4355
  26   2.0000      -5.711916      -155.4291
  27   2.0000      -5.708624      -155.3395
  28   2.0000      -5.708551      -155.3376
  29   2.0000      -5.701160      -155.1365
  30   2.0000      -5.701095      -155.1347
  31   2.0000      -5.658354      -153.9716
  32   2.0000      -5.650328      -153.7532
  33   2.0000      -5.649574      -153.7327
  34   2.0000      -5.648829      -153.7124
  35   2.0000      -5.640393      -153.4829
  36   2.0000      -5.639802      -153.4668
  37   2.0000      -4.643408      -126.3536
  38   2.0000      -4.642503      -126.3289
  39   2.0000      -4.641180      -126.2929
  40   2.0000      -4.638178      -126.2112
  41   2.0000      -4.636743      -126.1722
  42   2.0000      -4.635501      -126.1384
  43   2.0000      -0.985547       -26.8181
  44   2.0000      -0.979213       -26.6457
  45   2.0000      -0.941969       -25.6323
  46   2.0000      -0.938379       -25.5346
  47   2.0000      -0.758264       -20.6334
  48   2.0000      -0.720047       -19.5935
  49   2.0000      -0.709994       -19.3199
  50   2.0000      -0.690152       -18.7800
  51   2.0000      -0.686860       -18.6904
  52   2.0000      -0.669981       -18.2311
  53   2.0000      -0.646144       -17.5825
  54   2.0000      -0.634165       -17.2565
  55   2.0000      -0.590445       -16.0668
  56   2.0000      -0.581872       -15.8335
  57   2.0000      -0.571670       -15.5559
  58   2.0000      -0.566502       -15.4153
  59   2.0000      -0.561067       -15.2674
  60   2.0000      -0.508426       -13.8350
  61   2.0000      -0.498729       -13.5711
  62   2.0000      -0.479477       -13.0472
  63   2.0000      -0.472664       -12.8618
  64   2.0000      -0.448750       -12.2111
  65   2.0000      -0.444879       -12.1058
  66   2.0000      -0.439851       -11.9690
  67   2.0000      -0.434402       -11.8207
  68   2.0000      -0.428805       -11.6684
  69   2.0000      -0.415942       -11.3184
  70   2.0000      -0.401593       -10.9279
  71   2.0000      -0.390708       -10.6317
  72   2.0000      -0.387960       -10.5569
  73   2.0000      -0.386548       -10.5185
  74   2.0000      -0.381242       -10.3741
  75   2.0000      -0.363588        -9.8937
  76   2.0000      -0.361041        -9.8244
  77   2.0000      -0.356689        -9.7060
  78   2.0000      -0.355187        -9.6651
  79   2.0000      -0.351126        -9.5546
  80   2.0000      -0.344559        -9.3759
  81   2.0000      -0.341805        -9.3010
  82   2.0000      -0.341404        -9.2901
  83   2.0000      -0.337490        -9.1836
  84   2.0000      -0.332096        -9.0368
  85   2.0000      -0.314396        -8.5552
  86   2.0000      -0.312323        -8.4987
  87   2.0000      -0.307172        -8.3586
  88   2.0000      -0.298717        -8.1285
  89   2.0000      -0.286098        -7.7851
  90   2.0000      -0.275206        -7.4887
  91   2.0000      -0.268554        -7.3077
  92   2.0000      -0.266732        -7.2581
  93   2.0000      -0.261202        -7.1077
  94   2.0000      -0.256755        -6.9867
  95   2.0000      -0.236456        -6.4343
  96   2.0000      -0.218521        -5.9463
  97   2.0000      -0.204048        -5.5524
  98   2.0000      -0.200806        -5.4642
  99   2.0000      -0.190089        -5.1726
 100   2.0000      -0.186941        -5.0869
 101   0.0000      -0.036330        -0.9886
 102   0.0000      -0.027712        -0.7541
 103   0.0000      -0.008876        -0.2415
 104   0.0000       0.007362         0.2003
 105   0.0000       0.022347         0.6081

MULLIKEN ATOMIC CHARGES
-----------------------
   0 C :   -0.281838
   1 C :   -0.006607
   2 O :   -0.381719
   3 P :    0.608179
   4 S :   -0.310344
   5 O :   -0.340118
   6 C :   -0.016840
   7 C :   -0.288369
   8 S :   -0.107465
   9 C :   -0.341436
  10 S :   -0.102982
  11 P :    0.609839
  12 S :   -0.308403
  13 O :   -0.372165
  14 C :   -0.034309
  15 C :   -0.280486
  16 O :   -0.385047
  17 C :   -0.014460
  18 C :   -0.315510
  19 H :    0.111278
  20 H :    0.121727
  21 H :    0.116072
  22 H :    0.094770
  23 H :    0.101252
  24 H :    0.119565
  25 H :    0.109613
  26 H :    0.120470
  27 H :    0.120668
  28 H :    0.109987
  29 H :    0.179082
  30 H :    0.199995
  31 H :    0.111188
  32 H :    0.114532
  33 H :    0.120973
  34 H :    0.110836
  35 H :    0.123456
  36 H :    0.128515
  37 H :    0.102218
  38 H :    0.113151
  39 H :    0.109870
  40 H :    0.130862
Sum of atomic charges:    0.0000000

LOEWDIN ATOMIC CHARGES
----------------------
   0 C :   -0.350365
   1 C :   -0.124381
   2 O :   -0.252739
   3 P :    0.571971
   4 S :   -0.290509
   5 O :   -0.219677
   6 C :   -0.109646
   7 C :   -0.359523
   8 S :    0.063905
   9 C :   -0.479416
  10 S :    0.075906
  11 P :    0.559554
  12 S :   -0.305576
  13 O :   -0.245682
  14 C :   -0.122389
  15 C :   -0.350225
  16 O :   -0.250881
  17 C :   -0.127474
  18 C :   -0.366806
  19 H :    0.130446
  20 H :    0.129192
  21 H :    0.125521
  22 H :    0.103440
  23 H :    0.107330
  24 H :    0.123529
  25 H :    0.106293
  26 H :    0.125109
  27 H :    0.129491
  28 H :    0.129595
  29 H :    0.136088
  30 H :    0.123111
  31 H :    0.109542
  32 H :    0.113727
  33 H :    0.127565
  34 H :    0.130409
  35 H :    0.131201
  36 H :    0.110451
  37 H :    0.116269
  38 H :    0.131581
  39 H :    0.119280
  40 H :    0.124782

  Mayer bond orders larger than 0.100000
B(  0-C ,  1-C ) :   1.1602 B(  0-C , 19-H ) :   0.9423 B(  0-C , 20-H ) :   0.9513
B(  0-C , 21-H ) :   0.9511 B(  1-C ,  2-O ) :   0.9117 B(  1-C , 22-H ) :   0.9205
B(  1-C , 23-H ) :   0.9119 B(  2-O ,  3-P ) :   1.0685 B(  3-P ,  4-S ) :   1.6246
B(  3-P ,  5-O ) :   1.1655 B(  3-P ,  8-S ) :   0.9482 B(  4-S ,  8-S ) :   0.1162
B(  4-S , 30-H ) :   0.1159 B(  5-O ,  6-C ) :   0.8882 B(  6-C ,  7-C ) :   1.1630
B(  6-C , 24-H ) :   0.9320 B(  6-C , 25-H ) :   0.9168 B(  7-C , 26-H ) :   0.9407
B(  7-C , 27-H ) :   0.9468 B(  7-C , 28-H ) :   0.9398 B(  8-S ,  9-C ) :   1.0022
B(  9-C , 10-S ) :   1.0025 B(  9-C , 29-H ) :   0.9128 B(  9-C , 30-H ) :   0.8452
B( 10-S , 11-P ) :   0.9694 B( 10-S , 12-S ) :   0.1090 B( 11-P , 12-S ) :   1.6711
B( 11-P , 13-O ) :   1.1103 B( 11-P , 16-O ) :   1.0727 B( 13-O , 14-C ) :   0.8963
B( 14-C , 15-C ) :   1.1657 B( 14-C , 31-H ) :   0.9145 B( 14-C , 32-H ) :   0.9291
B( 15-C , 33-H ) :   0.9483 B( 15-C , 34-H ) :   0.9408 B( 15-C , 35-H ) :   0.9483
B( 16-O , 17-C ) :   0.9014 B( 17-C , 18-C ) :   1.1545 B( 17-C , 36-H ) :   0.9047
B( 17-C , 37-H ) :   0.9355 B( 18-C , 38-H ) :   0.9394 B( 18-C , 39-H ) :   0.9431
B( 18-C , 40-H ) :   0.9346

Dispersion correction           -0.065039660
FINAL SINGLE POINT ENERGY     -2929.517662766623

DIPOLE MOMENT
-------------

Method             : SCF
Type of density    : Electron Density
Multiplicity       :   1
Irrep              :   0
Energy             : -2929.6374830018744433 Eh
Relativity type    :
Basis              : AO
                                X                 Y                 Z
Electronic contribution:     -0.633362135      -6.925418841      -0.142723124
Nuclear contribution   :      0.678055826       6.430988839      -0.526814680
                        -----------------------------------------
Total Dipole Moment    :      0.044693691      -0.494430002      -0.669537804
                        -----------------------------------------
Magnitude (a.u.)       :      0.833510302
Magnitude (Debye)      :      2.118614819

Rotational constants in cm-1:             0.014378             0.004500             0.004409
Rotational constants in MHz :           431.056115           134.908412           132.188669

                             ****ORCA TERMINATED NORMALLY****
TOTAL RUN TIME: 0 days 0 hours 0 minutes 20 seconds 841 msec
