                         Program Version 6.0.0  -   RELEASE  -
|  1> ! pbe def2-sv(p) def2/J RI DEFGRID1 loosescf d4 GCP(DFT/SV(P)) printgap
|  2> %output
|  3>     printlevel normal
|  4> end
|  5> * xyz 0 1
|  6> C 2.3562652236 0.6731596855 -2.8650571207
|  7> C 1.7382553328 -0.6853175922 -2.6018699261
|  8> O 1.214847975 -0.79391688 -1.2664057305
|  9> P 2.1860964805 -0.9392588259 -0.0175191131
| 10> S 3.9093369412 -1.8126455633 -0.3317035022
| 11> O 1.1791627379 -1.7541213837 0.9011800641
| 12> C 1.6140063483 -2.4521240579 2.0805461462
| 13> C 1.9031784093 -1.5040048516 3.227832579
| 14> S 2.3131740019 1.0173430254 0.8165039564
| 15> C 0.6562160756 1.6644296122 0.4692469814
| 16> S -0.683121023 0.6797967125 1.2120201806
| 17> P -2.0973049137 0.9454140288 -0.3603056436
| 18> S -1.408286678 1.0711301514 -2.184788799
| 19> O -2.8620156289 2.2731471252 0.0224398709
| 20> C -3.4605665106 2.5483694924 1.3114126862
| 21> C -4.8908384086 2.053442374 1.3759190432
| 22> O -3.187133209 -0.1859808799 -0.1109382763
| 23> C -3.0909667421 -1.4990737649 -0.6876577782
| 24> C -2.1011297956 -2.3747825493 0.0529664892
| 25> H 3.1743137993 0.8530093563 -2.1674749503
| 26> H 2.7457210835 0.6958027531 -3.8776899536
| 27> H 1.6090299863 1.456289849 -2.7592542011
| 28> H 2.4773394098 -1.4789903626 -2.7484937789
| 29> H 0.8701883109 -0.8547865898 -3.240668206
| 30> H 0.7810838976 -3.1177713589 2.3115104034
| 31> H 2.5016269204 -3.0418474438 1.828396798
| 32> H 2.0894703228 -2.0797025513 4.1286894716
| 33> H 2.7824298388 -0.9007416744 3.0059247972
| 34> H 1.0542652468 -0.8434184463 3.3894219522
| 35> H 0.4899455943 1.6976457591 -0.6093848634
| 36> H 0.6540014598 2.6625521017 0.900964682
| 37> H -2.8471483951 2.0860788692 2.090276283
| 38> H -3.4130816693 3.6354437728 1.3965153469
| 39> H -5.331501489 2.3690797351 2.3165452374
| 40> H -5.4666124916 2.4695499623 0.5536147955
| 41> H -4.9214986944 0.9692924558 1.3121098066
| 42> H -4.1059129716 -1.8934570549 -0.6135124976
| 43> H -2.8114637843 -1.3982323751 -1.7415464432
| 44> H -2.1694638839 -3.3897982898 -0.3256327197
| 45> H -1.0847891701 -2.0145230319 -0.096367723
| 46> H -2.3216872625 -2.3721343884 1.1174613186
| 47> *
| 48>
| 49>                          ****END OF INPUT****

CARTESIAN COORDINATES (ANGSTROEM)
---------------------------------
  C      2.356265    0.673160   -2.865057
  C      1.738255   -0.685318   -2.601870
  O      1.214848   -0.793917   -1.266406
  P      2.186096   -0.939259   -0.017519
  S      3.909337   -1.812646   -0.331704
  O      1.179163   -1.754121    0.901180
  C      1.614006   -2.452124    2.080546
  C      1.903178   -1.504005    3.227833
  S      2.313174    1.017343    0.816504
  C      0.656216    1.664430    0.469247
  S     -0.683121    0.679797    1.212020
  P     -2.097305    0.945414   -0.360306
  S     -1.408287    1.071130   -2.184789
  O     -2.862016    2.273147    0.022440
  C     -3.460567    2.548369    1.311413
  C     -4.890838    2.053442    1.375919
  O     -3.187133   -0.185981   -0.110938
  C     -3.090967   -1.499074   -0.687658
  C     -2.101130   -2.374783    0.052966
  H      3.174314    0.853009   -2.167475
  H      2.745721    0.695803   -3.877690
  H      1.609030    1.456290   -2.759254
  H      2.477339   -1.478990   -2.748494
  H      0.870188   -0.854787   -3.240668
  H      0.781084   -3.117771    2.311510
  H      2.501627   -3.041847    1.828397
  H      2.089470   -2.079703    4.128689
  H      2.782430   -0.900742    3.005925
  H      1.054265   -0.843418    3.389422
  H      0.489946    1.697646   -0.609385
  H      0.654001    2.662552    0.900965
  H     -2.847148    2.086079    2.090276
  H     -3.413082    3.635444    1.396515
  H     -5.331501    2.369080    2.316545
  H     -5.466612    2.469550    0.553615
  H     -4.921499    0.969292    1.312110
  H     -4.105913   -1.893457   -0.613512
  H     -2.811464   -1.398232   -1.741546
  H     -2.169464   -3.389798   -0.325633
  H     -1.084789   -2.014523   -0.096368
  H     -2.321687   -2.372134    1.117461

 Total Charge           Charge          ....    0
 Multiplicity           Mult            ....    1
 Number of Electrons    NEL             ....  202
 Basis Dimension        Dim             ....  334

ORBITAL ENERGIES
----------------

  NO   OCC          E(Eh)            E(eV)
   0   2.0000     -88.046929     -2395.8788
   1   2.0000     -88.046848     -2395.8765
   2   2.0000     -87.991371     -2394.3669
   3   2.0000     -87.988607     -2394.2917
   4   2.0000     -76.431001     -2079.7933
   5   2.0000     -76.426129     -2079.6607
   6   2.0000     -18.800900      -511.5985
   7   2.0000     -18.795276      -511.4455
   8   2.0000     -18.788855      -511.2707
   9   2.0000     -18.787794      -511.2419
  10   2.0000      -9.959081      -271.0004
  11   2.0000      -9.958352      -270.9805
  12   2.0000      -9.954753      -270.8826
  13   2.0000      -9.951492      -270.7939
  14   2.0000      -9.945149      -270.6213
  15   2.0000      -9.889249      -269.1001
  16   2.0000      -9.883541      -268.9448
  17   2.0000      -9.881396      -268.8865
  18   2.0000      -9.876717      -268.7591
  19   2.0000      -7.691639      -209.3001
  20   2.0000      -7.691421      -209.2942
  21   2.0000      -7.636503      -207.7998
  22   2.0000      -7.633716      -207.7240
  23   2.0000      -6.428686      -174.9334
  24   2.0000      -6.423655      -174.7965
  25   2.0000      -5.719917      -155.6469
  26   2.0000      -5.719218      -155.6278
  27   2.0000      -5.716083      -155.5425
  28   2.0000      -5.715843      -155.5360
  29   2.0000      -5.708598      -155.3389
  30   2.0000      -5.708363      -155.3325
  31   2.0000      -5.665446      -154.1646
  32   2.0000      -5.662690      -154.0896
  33   2.0000      -5.657158      -153.9391
  34   2.0000      -5.656515      -153.9216
  35   2.0000      -5.654364      -153.8631
  36   2.0000      -5.653812      -153.8480
  37   2.0000      -4.651586      -126.5761
  38   2.0000      -4.650332      -126.5420
  39   2.0000      -4.648951      -126.5044
  40   2.0000      -4.645944      -126.4226
  41   2.0000      -4.645806      -126.4188
  42   2.0000      -4.643989      -126.3694
  43   2.0000      -0.992297       -27.0018
  44   2.0000      -0.986315       -26.8390
  45   2.0000      -0.950585       -25.8667
  46   2.0000      -0.943479       -25.6734
  47   2.0000      -0.763838       -20.7851
  48   2.0000      -0.723470       -19.6866
  49   2.0000      -0.710129       -19.3236
  50   2.0000      -0.692089       -18.8327
  51   2.0000      -0.682082       -18.5604
  52   2.0000      -0.678402       -18.4603
  53   2.0000      -0.655118       -17.8267
  54   2.0000      -0.640758       -17.4359
  55   2.0000      -0.600761       -16.3475
  56   2.0000      -0.595742       -16.2110
  57   2.0000      -0.578564       -15.7435
  58   2.0000      -0.566085       -15.4040
  59   2.0000      -0.562480       -15.3059
  60   2.0000      -0.504040       -13.7156
  61   2.0000      -0.492333       -13.3971
  62   2.0000      -0.480340       -13.0707
  63   2.0000      -0.465811       -12.6754
  64   2.0000      -0.452740       -12.3197
  65   2.0000      -0.451041       -12.2734
  66   2.0000      -0.446188       -12.1414
  67   2.0000      -0.440360       -11.9828
  68   2.0000      -0.429595       -11.6899
  69   2.0000      -0.419611       -11.4182
  70   2.0000      -0.411582       -11.1997
  71   2.0000      -0.398510       -10.8440
  72   2.0000      -0.394093       -10.7238
  73   2.0000      -0.392205       -10.6724
  74   2.0000      -0.385091       -10.4788
  75   2.0000      -0.372796       -10.1443
  76   2.0000      -0.369843       -10.0639
  77   2.0000      -0.359610        -9.7855
  78   2.0000      -0.354713        -9.6522
  79   2.0000      -0.351237        -9.5576
  80   2.0000      -0.349687        -9.5155
  81   2.0000      -0.346473        -9.4280
  82   2.0000      -0.338763        -9.2182
  83   2.0000      -0.333951        -9.0873
  84   2.0000      -0.330852        -9.0029
  85   2.0000      -0.321255        -8.7418
  86   2.0000      -0.319381        -8.6908
  87   2.0000      -0.299074        -8.1382
  88   2.0000      -0.298710        -8.1283
  89   2.0000      -0.294257        -8.0071
  90   2.0000      -0.284780        -7.7492
  91   2.0000      -0.275345        -7.4925
  92   2.0000      -0.269528        -7.3342
  93   2.0000      -0.264936        -7.2093
  94   2.0000      -0.260021        -7.0755
  95   2.0000      -0.230250        -6.2654
  96   2.0000      -0.223221        -6.0742
  97   2.0000      -0.213270        -5.8034
  98   2.0000      -0.209619        -5.7040
  99   2.0000      -0.203874        -5.5477
 100   2.0000      -0.202324        -5.5055
 101   0.0000      -0.043270        -1.1774
 102   0.0000      -0.034587        -0.9412
 103   0.0000      -0.024926        -0.6783
 104   0.0000      -0.000944        -0.0257
 105   0.0000       0.015656         0.4260

MULLIKEN ATOMIC CHARGES
-----------------------
   0 C :   -0.334189
   1 C :    0.003872
   2 O :   -0.363716
   3 P :    0.605985
   4 S :   -0.317514
   5 O :   -0.353500
   6 C :   -0.002409
   7 C :   -0.316356
   8 S :   -0.091151
   9 C :   -0.356817
  10 S :   -0.106528
  11 P :    0.616711
  12 S :   -0.310007
  13 O :   -0.358128
  14 C :   -0.014010
  15 C :   -0.295647
  16 O :   -0.379711
  17 C :   -0.003082
  18 C :   -0.347852
  19 H :    0.124438
  20 H :    0.110911
  21 H :    0.136472
  22 H :    0.112181
  23 H :    0.109008
  24 H :    0.104013
  25 H :    0.111375
  26 H :    0.111393
  27 H :    0.125878
  28 H :    0.118503
  29 H :    0.211132
  30 H :    0.180551
  31 H :    0.101637
  32 H :    0.109302
  33 H :    0.110227
  34 H :    0.120684
  35 H :    0.123758
  36 H :    0.104025
  37 H :    0.111800
  38 H :    0.110871
  39 H :    0.168613
  40 H :    0.107277
Sum of atomic charges:    0.0000000

LOEWDIN ATOMIC CHARGES
----------------------
   0 C :   -0.370259
   1 C :   -0.121493
   2 O :   -0.232803
   3 P :    0.569153
   4 S :   -0.315483
   5 O :   -0.231458
   6 C :   -0.118664
   7 C :   -0.369169
   8 S :    0.087229
   9 C :   -0.481023
  10 S :    0.079692
  11 P :    0.575657
  12 S :   -0.291705
  13 O :   -0.239996
  14 C :   -0.117634
  15 C :   -0.361534
  16 O :   -0.242619
  17 C :   -0.117414
  18 C :   -0.375209
  19 H :    0.120473
  20 H :    0.131506
  21 H :    0.123366
  22 H :    0.108810
  23 H :    0.117959
  24 H :    0.117811
  25 H :    0.109716
  26 H :    0.129774
  27 H :    0.120494
  28 H :    0.121039
  29 H :    0.121625
  30 H :    0.135760
  31 H :    0.101072
  32 H :    0.121028
  33 H :    0.129725
  34 H :    0.129278
  35 H :    0.125622
  36 H :    0.117476
  37 H :    0.111195
  38 H :    0.131002
  39 H :    0.128709
  40 H :    0.121294

  Mayer bond orders larger than 0.100000
B(  0-C ,  1-C ) :   1.1672 B(  0-C , 19-H ) :   0.9359 B(  0-C , 20-H ) :   0.9381
B(  0-C , 21-H ) :   0.9331 B(  1-C ,  2-O ) :   0.8990 B(  1-C , 22-H ) :   0.9163
B(  1-C , 23-H ) :   0.9237 B(  2-O ,  3-P ) :   1.1007 B(  3-P ,  4-S ) :   1.6447
B(  3-P ,  5-O ) :   1.0884 B(  3-P ,  8-S ) :   0.9535 B(  5-O ,  6-C ) :   0.9161
B(  6-C ,  7-C ) :   1.1631 B(  6-C , 24-H ) :   0.9330 B(  6-C , 25-H ) :   0.9138
B(  7-C , 26-H ) :   0.9385 B(  7-C , 27-H ) :   0.9387 B(  7-C , 28-H ) :   0.9431
B(  8-S ,  9-C ) :   1.0029 B(  9-C , 10-S ) :   0.9890 B(  9-C , 29-H ) :   0.8473
B(  9-C , 30-H ) :   0.9088 B( 10-S , 11-P ) :   0.9589 B( 10-S , 12-S ) :   0.1127
B( 11-P , 12-S ) :   1.6265 B( 11-P , 13-O ) :   1.1339 B( 11-P , 16-O ) :   1.0960
B( 13-O , 14-C ) :   0.9034 B( 14-C , 15-C ) :   1.1633 B( 14-C , 31-H ) :   0.9077
B( 14-C , 32-H ) :   0.9363 B( 15-C , 33-H ) :   0.9389 B( 15-C , 34-H ) :   0.9474
B( 15-C , 35-H ) :   0.9405 B( 16-O , 17-C ) :   0.9010 B( 17-C , 18-C ) :   1.1639
B( 17-C , 36-H ) :   0.9332 B( 17-C , 37-H ) :   0.9136 B( 18-C , 38-H ) :   0.9376
B( 18-C , 39-H ) :   0.9191 B( 18-C , 40-H ) :   0.9455

Dispersion correction           -0.066999410
FINAL SINGLE POINT ENERGY     -2929.519586118502

DIPOLE MOMENT
-------------

Method             : SCF
Type of density    : Electron Density
Multiplicity       :   1
Irrep              :   0
Energy             : -2929.6397488032826004 Eh
Relativity type    :
Basis              : AO
                                X                 Y                 Z
Electronic contribution:     11.282310099       4.240947173      -5.114761139
Nuclear contribution   :    -12.677960047      -4.252997684       6.134832694
                        -----------------------------------------
Total Dipole Moment    :     -1.395649947      -0.012050511       1.020071555
                        -----------------------------------------
Magnitude (a.u.)       :      1.728736524
Magnitude (Debye)      :      4.394099039

Rotational constants in cm-1:             0.012324             0.005325             0.004933
Rotational constants in MHz :           369.472361           159.624684           147.873734

                             ****ORCA TERMINATED NORMALLY****
TOTAL RUN TIME: 0 days 0 hours 0 minutes 22 seconds 54 msec
