                         Program Version 6.0.0  -   RELEASE  -
|  1> ! pbe def2-sv(p) def2/J RI DEFGRID1 loosescf d4 GCP(DFT/SV(P)) printgap
|  2> %output
|  3>     printlevel normal
|  4> end
|  5> * xyz 0 1
|  6> C 1.5558095894 -2.8954197179 -1.0351616251
|  7> C 1.7546055748 -1.6701751237 -1.9023831256
|  8> O 1.4603322467 -0.4333400838 -1.2030107207
|  9> P 2.2548692281 0.1364971466 0.0344215771
| 10> S 2.1637675013 2.0907236137 0.164625619
| 11> O 3.7044548129 -0.4741344067 -0.166903544
| 12> C 4.8641879749 0.0581862283 0.498603797
| 13> C 4.8154864907 -0.1623244462 1.9961984169
| 14> S 1.4733596258 -0.8512885929 1.7519438303
| 15> C -0.1683217536 -0.1054026601 1.6854679383
| 16> S -1.3161064144 -1.0636425335 0.6415469372
| 17> P -2.2344020393 0.5816519773 -0.3449192574
| 18> S -1.0749747255 1.6672251805 -1.4952188675
| 19> O -2.8632048715 1.4547472513 0.8129033549
| 20> C -4.1510720158 1.2275068698 1.4418670001
| 21> C -4.2146232149 -0.0796458085 2.203545604
| 22> O -3.5046190323 -0.0546497994 -1.0524230011
| 23> C -3.4391892041 -0.6033734801 -2.3820089148
| 24> C -2.4997697985 -1.7884740679 -2.4595593129
| 25> H 2.2868893567 -2.9106294597 -0.2298235065
| 26> H 0.5571003388 -2.9030380239 -0.6041985423
| 27> H 1.6857541479 -3.7811998807 -1.6489423287
| 28> H 1.0568138512 -1.6483180456 -2.7415745556
| 29> H 2.7794086796 -1.6129409601 -2.2732612911
| 30> H 5.6946383377 -0.4782410576 0.0372562962
| 31> H 4.9343485605 1.1258835162 0.2688766645
| 32> H 5.7642909802 0.1335718437 2.4319741392
| 33> H 4.0226392852 0.4416379458 2.4345040803
| 34> H 4.6240166192 -1.2084048165 2.2206164892
| 35> H -0.0851044296 0.9076121884 1.2809098067
| 36> H -0.5483463507 -0.092983047 2.7033591904
| 37> H -4.2534883371 2.0870233441 2.1063536924
| 38> H -4.9173573721 1.2636349241 0.6658892506
| 39> H -3.4183841204 -0.1332193746 2.9416204951
| 40> H -5.1718817199 -0.1394059827 2.712300333
| 41> H -4.1228976033 -0.9219443608 1.5218419194
| 42> H -4.4706935028 -0.8855810583 -2.5969856423
| 43> H -3.1157967713 0.1883473705 -3.0647950278
| 44> H -2.5547073627 -2.2291706745 -3.4496722725
| 45> H -1.4793252385 -1.4529769038 -2.2769249247
| 46> H -2.7636653625 -2.5339813557 -1.71364366
| 47> *
| 48>
| 49>                          ****END OF INPUT****

CARTESIAN COORDINATES (ANGSTROEM)
---------------------------------
  C      1.555810   -2.895420   -1.035162
  C      1.754606   -1.670175   -1.902383
  O      1.460332   -0.433340   -1.203011
  P      2.254869    0.136497    0.034422
  S      2.163768    2.090724    0.164626
  O      3.704455   -0.474134   -0.166904
  C      4.864188    0.058186    0.498604
  C      4.815486   -0.162324    1.996198
  S      1.473360   -0.851289    1.751944
  C     -0.168322   -0.105403    1.685468
  S     -1.316106   -1.063643    0.641547
  P     -2.234402    0.581652   -0.344919
  S     -1.074975    1.667225   -1.495219
  O     -2.863205    1.454747    0.812903
  C     -4.151072    1.227507    1.441867
  C     -4.214623   -0.079646    2.203546
  O     -3.504619   -0.054650   -1.052423
  C     -3.439189   -0.603373   -2.382009
  C     -2.499770   -1.788474   -2.459559
  H      2.286889   -2.910629   -0.229824
  H      0.557100   -2.903038   -0.604199
  H      1.685754   -3.781200   -1.648942
  H      1.056814   -1.648318   -2.741575
  H      2.779409   -1.612941   -2.273261
  H      5.694638   -0.478241    0.037256
  H      4.934349    1.125884    0.268877
  H      5.764291    0.133572    2.431974
  H      4.022639    0.441638    2.434504
  H      4.624017   -1.208405    2.220616
  H     -0.085104    0.907612    1.280910
  H     -0.548346   -0.092983    2.703359
  H     -4.253488    2.087023    2.106354
  H     -4.917357    1.263635    0.665889
  H     -3.418384   -0.133219    2.941620
  H     -5.171882   -0.139406    2.712300
  H     -4.122898   -0.921944    1.521842
  H     -4.470694   -0.885581   -2.596986
  H     -3.115797    0.188347   -3.064795
  H     -2.554707   -2.229171   -3.449672
  H     -1.479325   -1.452977   -2.276925
  H     -2.763665   -2.533981   -1.713644

 Total Charge           Charge          ....    0
 Multiplicity           Mult            ....    1
 Number of Electrons    NEL             ....  202
 Basis Dimension        Dim             ....  334

ORBITAL ENERGIES
----------------

  NO   OCC          E(Eh)            E(eV)
   0   2.0000     -88.039235     -2395.6694
   1   2.0000     -88.035920     -2395.5792
   2   2.0000     -87.974600     -2393.9106
   3   2.0000     -87.972032     -2393.8407
   4   2.0000     -76.421374     -2079.5313
   5   2.0000     -76.420512     -2079.5078
   6   2.0000     -18.795851      -511.4611
   7   2.0000     -18.795436      -511.4498
   8   2.0000     -18.786704      -511.2122
   9   2.0000     -18.783225      -511.1175
  10   2.0000      -9.956212      -270.9223
  11   2.0000      -9.955643      -270.9068
  12   2.0000      -9.954121      -270.8654
  13   2.0000      -9.953278      -270.8425
  14   2.0000      -9.951449      -270.7927
  15   2.0000      -9.889284      -269.1011
  16   2.0000      -9.887966      -269.0652
  17   2.0000      -9.885336      -268.9937
  18   2.0000      -9.881226      -268.8818
  19   2.0000      -7.684342      -209.1016
  20   2.0000      -7.680745      -209.0037
  21   2.0000      -7.619692      -207.3423
  22   2.0000      -7.617110      -207.2721
  23   2.0000      -6.418725      -174.6624
  24   2.0000      -6.417755      -174.6360
  25   2.0000      -5.712118      -155.4346
  26   2.0000      -5.709001      -155.3498
  27   2.0000      -5.708657      -155.3404
  28   2.0000      -5.705414      -155.2522
  29   2.0000      -5.701246      -155.1388
  30   2.0000      -5.697545      -155.0381
  31   2.0000      -5.648792      -153.7114
  32   2.0000      -5.646279      -153.6431
  33   2.0000      -5.640412      -153.4834
  34   2.0000      -5.639586      -153.4609
  35   2.0000      -5.637974      -153.4171
  36   2.0000      -5.636800      -153.3851
  37   2.0000      -4.641967      -126.3143
  38   2.0000      -4.641101      -126.2908
  39   2.0000      -4.640256      -126.2678
  40   2.0000      -4.639309      -126.2420
  41   2.0000      -4.638770      -126.2273
  42   2.0000      -4.637677      -126.1976
  43   2.0000      -0.987018       -26.8581
  44   2.0000      -0.986471       -26.8432
  45   2.0000      -0.943274       -25.6678
  46   2.0000      -0.941064       -25.6076
  47   2.0000      -0.759092       -20.6560
  48   2.0000      -0.718066       -19.5396
  49   2.0000      -0.708425       -19.2772
  50   2.0000      -0.693243       -18.8641
  51   2.0000      -0.689718       -18.7682
  52   2.0000      -0.676579       -18.4107
  53   2.0000      -0.646594       -17.5947
  54   2.0000      -0.625837       -17.0299
  55   2.0000      -0.595797       -16.2125
  56   2.0000      -0.589964       -16.0537
  57   2.0000      -0.579696       -15.7743
  58   2.0000      -0.576297       -15.6818
  59   2.0000      -0.554321       -15.0838
  60   2.0000      -0.495826       -13.4921
  61   2.0000      -0.493688       -13.4339
  62   2.0000      -0.470650       -12.8070
  63   2.0000      -0.468342       -12.7442
  64   2.0000      -0.456471       -12.4212
  65   2.0000      -0.449078       -12.2200
  66   2.0000      -0.443580       -12.0704
  67   2.0000      -0.437655       -11.9092
  68   2.0000      -0.427018       -11.6197
  69   2.0000      -0.423084       -11.5127
  70   2.0000      -0.414187       -11.2706
  71   2.0000      -0.401536       -10.9263
  72   2.0000      -0.395529       -10.7629
  73   2.0000      -0.385340       -10.4856
  74   2.0000      -0.376509       -10.2453
  75   2.0000      -0.368806       -10.0357
  76   2.0000      -0.364429        -9.9166
  77   2.0000      -0.357472        -9.7273
  78   2.0000      -0.353981        -9.6323
  79   2.0000      -0.353144        -9.6095
  80   2.0000      -0.348145        -9.4735
  81   2.0000      -0.343297        -9.3416
  82   2.0000      -0.340430        -9.2636
  83   2.0000      -0.334008        -9.0888
  84   2.0000      -0.333555        -9.0765
  85   2.0000      -0.321033        -8.7358
  86   2.0000      -0.314833        -8.5670
  87   2.0000      -0.296090        -8.0570
  88   2.0000      -0.294517        -8.0142
  89   2.0000      -0.293757        -7.9935
  90   2.0000      -0.291343        -7.9279
  91   2.0000      -0.271103        -7.3771
  92   2.0000      -0.269267        -7.3271
  93   2.0000      -0.256533        -6.9806
  94   2.0000      -0.254540        -6.9264
  95   2.0000      -0.230178        -6.2635
  96   2.0000      -0.215247        -5.8572
  97   2.0000      -0.208646        -5.6775
  98   2.0000      -0.188074        -5.1178
  99   2.0000      -0.185900        -5.0586
 100   2.0000      -0.175812        -4.7841
 101   0.0000      -0.037431        -1.0185
 102   0.0000      -0.030387        -0.8269
 103   0.0000      -0.016837        -0.4582
 104   0.0000       0.010996         0.2992
 105   0.0000       0.024464         0.6657

MULLIKEN ATOMIC CHARGES
-----------------------
   0 C :   -0.327875
   1 C :    0.003396
   2 O :   -0.352268
   3 P :    0.608857
   4 S :   -0.292850
   5 O :   -0.383869
   6 C :    0.000570
   7 C :   -0.326115
   8 S :   -0.105201
   9 C :   -0.348405
  10 S :   -0.108938
  11 P :    0.577335
  12 S :   -0.274049
  13 O :   -0.371636
  14 C :    0.008203
  15 C :   -0.317516
  16 O :   -0.385511
  17 C :    0.009989
  18 C :   -0.361382
  19 H :    0.118609
  20 H :    0.135411
  21 H :    0.107479
  22 H :    0.116951
  23 H :    0.107928
  24 H :    0.103973
  25 H :    0.115173
  26 H :    0.116420
  27 H :    0.134284
  28 H :    0.117171
  29 H :    0.201010
  30 H :    0.184036
  31 H :    0.110722
  32 H :    0.108812
  33 H :    0.117101
  34 H :    0.111703
  35 H :    0.126849
  36 H :    0.104477
  37 H :    0.113417
  38 H :    0.116520
  39 H :    0.158386
  40 H :    0.120834
Sum of atomic charges:    0.0000000

LOEWDIN ATOMIC CHARGES
----------------------
   0 C :   -0.373540
   1 C :   -0.107128
   2 O :   -0.230209
   3 P :    0.577877
   4 S :   -0.303918
   5 O :   -0.244512
   6 C :   -0.117158
   7 C :   -0.372655
   8 S :    0.073985
   9 C :   -0.476665
  10 S :    0.065294
  11 P :    0.562157
  12 S :   -0.291049
  13 O :   -0.246253
  14 C :   -0.107107
  15 C :   -0.368902
  16 O :   -0.247643
  17 C :   -0.115250
  18 C :   -0.376683
  19 H :    0.117491
  20 H :    0.120349
  21 H :    0.128559
  22 H :    0.119898
  23 H :    0.113520
  24 H :    0.118023
  25 H :    0.114229
  26 H :    0.133171
  27 H :    0.123994
  28 H :    0.123176
  29 H :    0.127479
  30 H :    0.132951
  31 H :    0.122305
  32 H :    0.115111
  33 H :    0.123842
  34 H :    0.130384
  35 H :    0.119940
  36 H :    0.118196
  37 H :    0.114490
  38 H :    0.132961
  39 H :    0.125520
  40 H :    0.123771

  Mayer bond orders larger than 0.100000
B(  0-C ,  1-C ) :   1.1727 B(  0-C , 19-H ) :   0.9390 B(  0-C , 20-H ) :   0.9337
B(  0-C , 21-H ) :   0.9353 B(  1-C ,  2-O ) :   0.8979 B(  1-C , 22-H ) :   0.9240
B(  1-C , 23-H ) :   0.9284 B(  2-O ,  3-P ) :   1.1412 B(  3-P ,  4-S ) :   1.6529
B(  3-P ,  5-O ) :   1.0769 B(  3-P ,  8-S ) :   0.9289 B(  4-S ,  8-S ) :   0.1075
B(  5-O ,  6-C ) :   0.9022 B(  6-C ,  7-C ) :   1.1662 B(  6-C , 24-H ) :   0.9336
B(  6-C , 25-H ) :   0.9154 B(  7-C , 26-H ) :   0.9372 B(  7-C , 27-H ) :   0.9314
B(  7-C , 28-H ) :   0.9444 B(  8-S ,  9-C ) :   1.0174 B(  9-C , 10-S ) :   0.9745
B(  9-C , 29-H ) :   0.8492 B(  9-C , 30-H ) :   0.9084 B( 10-S , 11-P ) :   0.9422
B( 10-S , 12-S ) :   0.1114 B( 11-P , 12-S ) :   1.6878 B( 11-P , 13-O ) :   1.1016
B( 11-P , 16-O ) :   1.0654 B( 13-O , 14-C ) :   0.9030 B( 14-C , 15-C ) :   1.1698
B( 14-C , 31-H ) :   0.9354 B( 14-C , 32-H ) :   0.9275 B( 15-C , 33-H ) :   0.9440
B( 15-C , 34-H ) :   0.9353 B( 15-C , 35-H ) :   0.9379 B( 16-O , 17-C ) :   0.9036
B( 17-C , 18-C ) :   1.1648 B( 17-C , 36-H ) :   0.9337 B( 17-C , 37-H ) :   0.9159
B( 18-C , 38-H ) :   0.9365 B( 18-C , 39-H ) :   0.9194 B( 18-C , 40-H ) :   0.9415

Dispersion correction           -0.067331325
FINAL SINGLE POINT ENERGY     -2929.505420001930

DIPOLE MOMENT
-------------

Method             : SCF
Type of density    : Electron Density
Multiplicity       :   1
Irrep              :   0
Energy             : -2929.6245348664101584 Eh
Relativity type    :
Basis              : AO
                                X                 Y                 Z
Electronic contribution:      2.843807301      14.647528398      -0.650862701
Nuclear contribution   :     -3.351786512     -16.434303839       0.903640323
                        -----------------------------------------
Total Dipole Moment    :     -0.507979211      -1.786775441       0.252777622
                        -----------------------------------------
Magnitude (a.u.)       :      1.874701545
Magnitude (Debye)      :      4.765112637

Rotational constants in cm-1:             0.013208             0.005067             0.004771
Rotational constants in MHz :           395.977024           151.896521           143.018676

                             ****ORCA TERMINATED NORMALLY****
TOTAL RUN TIME: 0 days 0 hours 0 minutes 21 seconds 517 msec
