                         Program Version 6.0.0  -   RELEASE  -
|  1> ! pbe def2-sv(p) def2/J RI DEFGRID1 loosescf d4 GCP(DFT/SV(P)) printgap
|  2> %output
|  3>     printlevel normal
|  4> end
|  5> * xyz 0 1
|  6> C 4.1537014329 -0.6837085844 -2.3801166261
|  7> C 4.4595985935 -0.5528986872 -0.9006080228
|  8> O 3.5809118447 0.4132177765 -0.2700444418
|  9> P 2.3131081864 0.0686018686 0.601651804
| 10> S 1.6779091553 1.7065847462 1.4590624505
| 11> O 2.8591154456 -1.0939623527 1.5374003386
| 12> C 2.0360251979 -2.0154564334 2.2758254454
| 13> C 1.0594334738 -1.3140673047 3.1967024851
| 14> S 0.9620845051 -0.9976602141 -0.6779854528
| 15> C 0.5397632913 0.3830991744 -1.7668874469
| 16> S -0.6311305562 1.5705341494 -1.0504350281
| 17> P -2.2154547355 0.2028193113 -0.7797062454
| 18> S -2.5174980821 -1.0994281822 -2.2041601765
| 19> O -3.4852883953 1.128402746 -0.5735876871
| 20> C -3.5033144197 2.4148938939 0.0865724486
| 21> C -3.060886749 2.3399162233 1.5329253262
| 22> O -1.8471965111 -0.4378311944 0.6400412032
| 23> C -2.2164648276 -1.7876202331 0.9749942631
| 24> C -3.6982298747 -1.8906917975 1.2727713715
| 25> H 4.9120266814 -1.3093348072 -2.8404174549
| 26> H 3.1800516886 -1.1418194605 -2.5369795626
| 27> H 4.1684054572 0.2946247031 -2.8535313311
| 28> H 5.4595620648 -0.1466803875 -0.7401943553
| 29> H 4.3656179141 -1.5106222685 -0.386862116
| 30> H 1.5086555941 -2.6519927374 1.5591293548
| 31> H 2.7579740809 -2.610006441 2.8387489053
| 32> H 0.5222173966 -2.0519334876 3.7843218593
| 33> H 1.5883362803 -0.6378629757 3.8641621113
| 34> H 0.3492039408 -0.7279368638 2.6143297618
| 35> H 0.0930724264 -0.0611787681 -2.6564576781
| 36> H 1.4350439375 0.9518575369 -2.0107398117
| 37> H -2.8659606055 3.1001521141 -0.4788914171
| 38> H -4.5462181167 2.7243885631 -0.0003310038
| 39> H -3.1795534185 3.3176215261 1.9896359009
| 40> H -3.6625803134 1.6157143974 2.0757297677
| 41> H -2.0128733242 2.0512426497 1.5974782208
| 42> H -1.9419832891 -2.4421786565 0.1412785917
| 43> H -1.6095625298 -2.0261315818 1.8491730222
| 44> H -3.944705426 -2.9153178973 1.5320952688
| 45> H -3.9659570941 -1.2348504732 2.0969448879
| 46> H -4.2685271738 -1.5999197319 0.3904216503
| 47> *
| 48>
| 49>                          ****END OF INPUT****

CARTESIAN COORDINATES (ANGSTROEM)
---------------------------------
  C      4.153701   -0.683709   -2.380117
  C      4.459599   -0.552899   -0.900608
  O      3.580912    0.413218   -0.270044
  P      2.313108    0.068602    0.601652
  S      1.677909    1.706585    1.459062
  O      2.859115   -1.093962    1.537400
  C      2.036025   -2.015456    2.275825
  C      1.059433   -1.314067    3.196702
  S      0.962085   -0.997660   -0.677985
  C      0.539763    0.383099   -1.766887
  S     -0.631131    1.570534   -1.050435
  P     -2.215455    0.202819   -0.779706
  S     -2.517498   -1.099428   -2.204160
  O     -3.485288    1.128403   -0.573588
  C     -3.503314    2.414894    0.086572
  C     -3.060887    2.339916    1.532925
  O     -1.847197   -0.437831    0.640041
  C     -2.216465   -1.787620    0.974994
  C     -3.698230   -1.890692    1.272771
  H      4.912027   -1.309335   -2.840417
  H      3.180052   -1.141819   -2.536980
  H      4.168405    0.294625   -2.853531
  H      5.459562   -0.146680   -0.740194
  H      4.365618   -1.510622   -0.386862
  H      1.508656   -2.651993    1.559129
  H      2.757974   -2.610006    2.838749
  H      0.522217   -2.051933    3.784322
  H      1.588336   -0.637863    3.864162
  H      0.349204   -0.727937    2.614330
  H      0.093072   -0.061179   -2.656458
  H      1.435044    0.951858   -2.010740
  H     -2.865961    3.100152   -0.478891
  H     -4.546218    2.724389   -0.000331
  H     -3.179553    3.317622    1.989636
  H     -3.662580    1.615714    2.075730
  H     -2.012873    2.051243    1.597478
  H     -1.941983   -2.442179    0.141279
  H     -1.609563   -2.026132    1.849173
  H     -3.944705   -2.915318    1.532095
  H     -3.965957   -1.234850    2.096945
  H     -4.268527   -1.599920    0.390422

 Total Charge           Charge          ....    0
 Multiplicity           Mult            ....    1
 Number of Electrons    NEL             ....  202
 Basis Dimension        Dim             ....  334

ORBITAL ENERGIES
----------------

  NO   OCC          E(Eh)            E(eV)
   0   2.0000     -88.045513     -2395.8402
   1   2.0000     -88.039368     -2395.6730
   2   2.0000     -87.982088     -2394.1143
   3   2.0000     -87.980285     -2394.0653
   4   2.0000     -76.427178     -2079.6893
   5   2.0000     -76.423156     -2079.5798
   6   2.0000     -18.797203      -511.4979
   7   2.0000     -18.793011      -511.3838
   8   2.0000     -18.790884      -511.3259
   9   2.0000     -18.787097      -511.2229
  10   2.0000      -9.963867      -271.1306
  11   2.0000      -9.960752      -271.0458
  12   2.0000      -9.958752      -270.9914
  13   2.0000      -9.957763      -270.9645
  14   2.0000      -9.947888      -270.6958
  15   2.0000      -9.891156      -269.1520
  16   2.0000      -9.886601      -269.0281
  17   2.0000      -9.885075      -268.9866
  18   2.0000      -9.882548      -268.9178
  19   2.0000      -7.689853      -209.2515
  20   2.0000      -7.684583      -209.1081
  21   2.0000      -7.627407      -207.5523
  22   2.0000      -7.625486      -207.5000
  23   2.0000      -6.424225      -174.8121
  24   2.0000      -6.420775      -174.7182
  25   2.0000      -5.717528      -155.5819
  26   2.0000      -5.714521      -155.5000
  27   2.0000      -5.712457      -155.4439
  28   2.0000      -5.709215      -155.3556
  29   2.0000      -5.706966      -155.2944
  30   2.0000      -5.701364      -155.1420
  31   2.0000      -5.656367      -153.9176
  32   2.0000      -5.654627      -153.8702
  33   2.0000      -5.648233      -153.6962
  34   2.0000      -5.647243      -153.6693
  35   2.0000      -5.646010      -153.6358
  36   2.0000      -5.645506      -153.6220
  37   2.0000      -4.647320      -126.4600
  38   2.0000      -4.646277      -126.4316
  39   2.0000      -4.643998      -126.3696
  40   2.0000      -4.643631      -126.3596
  41   2.0000      -4.642287      -126.3230
  42   2.0000      -4.641243      -126.2946
  43   2.0000      -0.991083       -26.9687
  44   2.0000      -0.981015       -26.6948
  45   2.0000      -0.947832       -25.7918
  46   2.0000      -0.942828       -25.6556
  47   2.0000      -0.765395       -20.8275
  48   2.0000      -0.722542       -19.6614
  49   2.0000      -0.711909       -19.3720
  50   2.0000      -0.694700       -18.9037
  51   2.0000      -0.690256       -18.7828
  52   2.0000      -0.675214       -18.3735
  53   2.0000      -0.650546       -17.7023
  54   2.0000      -0.638808       -17.3829
  55   2.0000      -0.594457       -16.1760
  56   2.0000      -0.590339       -16.0639
  57   2.0000      -0.580997       -15.8097
  58   2.0000      -0.575572       -15.6621
  59   2.0000      -0.566431       -15.4134
  60   2.0000      -0.508874       -13.8472
  61   2.0000      -0.492753       -13.4085
  62   2.0000      -0.476893       -12.9769
  63   2.0000      -0.474820       -12.9205
  64   2.0000      -0.461300       -12.5526
  65   2.0000      -0.447852       -12.1867
  66   2.0000      -0.445426       -12.1207
  67   2.0000      -0.438395       -11.9293
  68   2.0000      -0.430893       -11.7252
  69   2.0000      -0.417712       -11.3665
  70   2.0000      -0.410370       -11.1667
  71   2.0000      -0.404602       -11.0098
  72   2.0000      -0.390544       -10.6272
  73   2.0000      -0.388061       -10.5597
  74   2.0000      -0.385681       -10.4949
  75   2.0000      -0.374414       -10.1883
  76   2.0000      -0.362183        -9.8555
  77   2.0000      -0.360192        -9.8013
  78   2.0000      -0.356871        -9.7110
  79   2.0000      -0.349869        -9.5204
  80   2.0000      -0.349029        -9.4976
  81   2.0000      -0.347371        -9.4524
  82   2.0000      -0.343834        -9.3562
  83   2.0000      -0.342511        -9.3202
  84   2.0000      -0.334995        -9.1157
  85   2.0000      -0.321876        -8.7587
  86   2.0000      -0.313796        -8.5388
  87   2.0000      -0.304004        -8.2724
  88   2.0000      -0.300920        -8.1885
  89   2.0000      -0.297214        -8.0876
  90   2.0000      -0.279765        -7.6128
  91   2.0000      -0.277954        -7.5635
  92   2.0000      -0.272763        -7.4223
  93   2.0000      -0.265955        -7.2370
  94   2.0000      -0.261732        -7.1221
  95   2.0000      -0.234353        -6.3771
  96   2.0000      -0.217011        -5.9052
  97   2.0000      -0.207671        -5.6510
  98   2.0000      -0.199217        -5.4210
  99   2.0000      -0.196742        -5.3536
 100   2.0000      -0.184221        -5.0129
 101   0.0000      -0.045322        -1.2333
 102   0.0000      -0.025638        -0.6977
 103   0.0000      -0.009714        -0.2643
 104   0.0000       0.000389         0.0106
 105   0.0000       0.016593         0.4515

MULLIKEN ATOMIC CHARGES
-----------------------
   0 C :   -0.307476
   1 C :   -0.004468
   2 O :   -0.360645
   3 P :    0.591440
   4 S :   -0.295895
   5 O :   -0.381087
   6 C :   -0.018597
   7 C :   -0.332141
   8 S :   -0.113482
   9 C :   -0.342977
  10 S :   -0.069771
  11 P :    0.614222
  12 S :   -0.326054
  13 O :   -0.371612
  14 C :   -0.022917
  15 C :   -0.323749
  16 O :   -0.373321
  17 C :   -0.018687
  18 C :   -0.307199
  19 H :    0.113331
  20 H :    0.125649
  21 H :    0.121795
  22 H :    0.112145
  23 H :    0.105038
  24 H :    0.115728
  25 H :    0.110689
  26 H :    0.112073
  27 H :    0.128557
  28 H :    0.154311
  29 H :    0.195738
  30 H :    0.187029
  31 H :    0.122719
  32 H :    0.113413
  33 H :    0.114372
  34 H :    0.119148
  35 H :    0.146555
  36 H :    0.112346
  37 H :    0.100535
  38 H :    0.109444
  39 H :    0.115223
  40 H :    0.128578
Sum of atomic charges:    0.0000000

LOEWDIN ATOMIC CHARGES
----------------------
   0 C :   -0.364232
   1 C :   -0.111284
   2 O :   -0.239303
   3 P :    0.560952
   4 S :   -0.304835
   5 O :   -0.245719
   6 C :   -0.113743
   7 C :   -0.373382
   8 S :    0.071383
   9 C :   -0.474343
  10 S :    0.098482
  11 P :    0.570115
  12 S :   -0.319763
  13 O :   -0.243578
  14 C :   -0.115585
  15 C :   -0.369297
  16 O :   -0.247947
  17 C :   -0.126442
  18 C :   -0.363818
  19 H :    0.131823
  20 H :    0.119872
  21 H :    0.127429
  22 H :    0.122854
  23 H :    0.110763
  24 H :    0.107016
  25 H :    0.121769
  26 H :    0.128106
  27 H :    0.132137
  28 H :    0.126367
  29 H :    0.133931
  30 H :    0.133008
  31 H :    0.111209
  32 H :    0.123621
  33 H :    0.132380
  34 H :    0.125274
  35 H :    0.128273
  36 H :    0.106676
  37 H :    0.112581
  38 H :    0.129617
  39 H :    0.122191
  40 H :    0.125442

  Mayer bond orders larger than 0.100000
B(  0-C ,  1-C ) :   1.1675 B(  0-C , 19-H ) :   0.9392 B(  0-C , 20-H ) :   0.9335
B(  0-C , 21-H ) :   0.9442 B(  1-C ,  2-O ) :   0.8977 B(  1-C , 22-H ) :   0.9352
B(  1-C , 23-H ) :   0.9184 B(  2-O ,  3-P ) :   1.1204 B(  3-P ,  4-S ) :   1.6855
B(  3-P ,  5-O ) :   1.0802 B(  3-P ,  8-S ) :   0.9275 B(  4-S ,  8-S ) :   0.1164
B(  5-O ,  6-C ) :   0.9144 B(  6-C ,  7-C ) :   1.1694 B(  6-C , 24-H ) :   0.9250
B(  6-C , 25-H ) :   0.9336 B(  7-C , 26-H ) :   0.9311 B(  7-C , 27-H ) :   0.9393
B(  7-C , 28-H ) :   0.9175 B(  8-S ,  9-C ) :   0.9937 B(  9-C , 10-S ) :   1.0176
B(  9-C , 29-H ) :   0.8837 B(  9-C , 30-H ) :   0.8942 B( 10-S , 11-P ) :   0.9750
B( 11-P , 12-S ) :   1.6133 B( 11-P , 13-O ) :   1.1255 B( 11-P , 16-O ) :   1.0707
B( 13-O , 14-C ) :   0.9060 B( 14-C , 15-C ) :   1.1645 B( 14-C , 31-H ) :   0.9205
B( 14-C , 32-H ) :   0.9344 B( 15-C , 33-H ) :   0.9351 B( 15-C , 34-H ) :   0.9427
B( 15-C , 35-H ) :   0.9316 B( 16-O , 17-C ) :   0.9067 B( 17-C , 18-C ) :   1.1649
B( 17-C , 36-H ) :   0.9082 B( 17-C , 37-H ) :   0.9243 B( 18-C , 38-H ) :   0.9399
B( 18-C , 39-H ) :   0.9441 B( 18-C , 40-H ) :   0.9352

Dispersion correction           -0.066847071
FINAL SINGLE POINT ENERGY     -2929.512153636915

DIPOLE MOMENT
-------------

Method             : SCF
Type of density    : Electron Density
Multiplicity       :   1
Irrep              :   0
Energy             : -2929.6307343752932866 Eh
Relativity type    :
Basis              : AO
                                X                 Y                 Z
Electronic contribution:      2.162163695       7.944108627     -10.672384546
Nuclear contribution   :     -1.611385304      -8.731488477      11.348124172
                        -----------------------------------------
Total Dipole Moment    :      0.550778391      -0.787379849       0.675739626
                        -----------------------------------------
Magnitude (a.u.)       :      1.174711839
Magnitude (Debye)      :      2.985880204

Rotational constants in cm-1:             0.011570             0.005360             0.005103
Rotational constants in MHz :           346.859991           160.700322           152.975236

                             ****ORCA TERMINATED NORMALLY****
TOTAL RUN TIME: 0 days 0 hours 0 minutes 21 seconds 724 msec
