                         Program Version 6.0.0  -   RELEASE  -
|  1> ! r2scan-3c def2/J RI DEFGRID2 scfconv6 printgap
|  2> %output
|  3>     printlevel normal
|  4> end
|  5> %cpcm
|  6>     smd true
|  7>     smdsolvent "water"
|  8> end
|  9> * xyz 0 1
| 10> C -1.9184235924 -0.0001944005 -0.0014582549
| 11> C -1.0588377378 1.2141050079 0.3727361146
| 12> C 0.2748436619 1.2061733921 -0.3697336008
| 13> C 1.0917007997 4.71284e-05 0.0008863308
| 14> O 2.3093982828 0.0004459498 0.0030247912
| 15> C 0.2743879419 -1.2063875256 0.3693195929
| 16> C -1.0582461469 -1.2142205311 -0.3750064879
| 17> H -2.564058689 0.247347638 -0.8446209874
| 18> H -2.5646427125 -0.2480823305 0.8411771579
| 19> H -1.5966747494 2.1343993617 0.145085165
| 20> H -0.8564299208 1.211628059 1.445206442
| 21> H 0.100371829 1.1580410292 -1.4480058429
| 22> H 0.8552321588 2.1088218306 -0.173103897
| 23> H 0.8551251202 -2.1088527614 0.1731747043
| 24> H 0.098511623 -1.1586853596 1.4473879902
| 25> H -0.8546627203 -1.2114404599 -1.4472324685
| 26> H -1.596341418 -2.1345725195 -0.1482788602
| 27> *
| 28>
| 29>                          ****END OF INPUT****

CARTESIAN COORDINATES (ANGSTROEM)
---------------------------------
  C     -1.918424   -0.000194   -0.001458
  C     -1.058838    1.214105    0.372736
  C      0.274844    1.206173   -0.369734
  C      1.091701    0.000047    0.000886
  O      2.309398    0.000446    0.003025
  C      0.274388   -1.206388    0.369320
  C     -1.058246   -1.214221   -0.375006
  H     -2.564059    0.247348   -0.844621
  H     -2.564643   -0.248082    0.841177
  H     -1.596675    2.134399    0.145085
  H     -0.856430    1.211628    1.445206
  H      0.100372    1.158041   -1.448006
  H      0.855232    2.108822   -0.173104
  H      0.855125   -2.108853    0.173175
  H      0.098512   -1.158685    1.447388
  H     -0.854663   -1.211440   -1.447232
  H     -1.596341   -2.134573   -0.148279

 Total Charge           Charge          ....    0
 Multiplicity           Mult            ....    1
 Number of Electrons    NEL             ....   54
 Basis Dimension        Dim             ....  188

ORBITAL ENERGIES
----------------

  NO   OCC          E(Eh)            E(eV)
   0   2.0000     -18.944561      -515.5077
   1   2.0000     -10.121290      -275.4143
   2   2.0000     -10.028089      -272.8782
   3   2.0000     -10.028087      -272.8781
   4   2.0000     -10.023801      -272.7615
   5   2.0000     -10.023781      -272.7610
   6   2.0000     -10.018837      -272.6264
   7   2.0000      -1.011985       -27.5375
   8   2.0000      -0.795740       -21.6532
   9   2.0000      -0.713781       -19.4230
  10   2.0000      -0.686741       -18.6872
  11   2.0000      -0.596067       -16.2198
  12   2.0000      -0.544502       -14.8166
  13   2.0000      -0.480350       -13.0710
  14   2.0000      -0.459712       -12.5094
  15   2.0000      -0.444639       -12.0993
  16   2.0000      -0.409691       -11.1482
  17   2.0000      -0.389968       -10.6116
  18   2.0000      -0.383218       -10.4279
  19   2.0000      -0.361017        -9.8238
  20   2.0000      -0.348999        -9.4967
  21   2.0000      -0.334960        -9.1147
  22   2.0000      -0.331766        -9.0278
  23   2.0000      -0.289074        -7.8661
  24   2.0000      -0.288623        -7.8538
  25   2.0000      -0.276688        -7.5291
  26   2.0000      -0.218228        -5.9383
  27   0.0000      -0.047472        -1.2918
  28   0.0000       0.087616         2.3841
  29   0.0000       0.111416         3.0318
  30   0.0000       0.119331         3.2472
  31   0.0000       0.136690         3.7195

MULLIKEN ATOMIC CHARGES
-----------------------
   0 C :   -0.413721
   1 C :   -0.256917
   2 C :   -0.292188
   3 C :    0.219362
   4 O :   -0.457194
   5 C :   -0.292256
   6 C :   -0.256971
   7 H :    0.166635
   8 H :    0.166642
   9 H :    0.165171
  10 H :    0.161665
  11 H :    0.200769
  12 H :    0.180649
  13 H :    0.180703
  14 H :    0.200802
  15 H :    0.161711
  16 H :    0.165136
Sum of atomic charges:    0.0000000

LOEWDIN ATOMIC CHARGES
----------------------
   0 C :   -0.305284
   1 C :   -0.294540
   2 C :   -0.271039
   3 C :    0.240838
   4 O :   -0.539953
   5 C :   -0.271035
   6 C :   -0.294578
   7 H :    0.160525
   8 H :    0.160527
   9 H :    0.165080
  10 H :    0.162351
  11 H :    0.196400
  12 H :    0.183415
  13 H :    0.183440
  14 H :    0.196439
  15 H :    0.162345
  16 H :    0.165070

  Mayer bond orders larger than 0.100000
B(  0-C ,  1-C ) :   0.8855 B(  0-C ,  6-C ) :   0.8854 B(  0-C ,  7-H ) :   0.9936
B(  0-C ,  8-H ) :   0.9936 B(  1-C ,  2-C ) :   0.9024 B(  1-C ,  9-H ) :   0.9481
B(  1-C , 10-H ) :   0.9721 B(  2-C ,  3-C ) :   0.9430 B(  2-C , 11-H ) :   0.9403
B(  2-C , 12-H ) :   0.9374 B(  3-C ,  4-O ) :   1.8584 B(  3-C ,  5-C ) :   0.9430
B(  5-C ,  6-C ) :   0.9025 B(  5-C , 13-H ) :   0.9373 B(  5-C , 14-H ) :   0.9403
B(  6-C , 15-H ) :   0.9721 B(  6-C , 16-H ) :   0.9481

Dispersion correction           -0.004794582
FINAL SINGLE POINT ENERGY      -309.810226729028

DIPOLE MOMENT
-------------

Method             : SCF
Type of density    : Electron Density
Multiplicity       :   1
Irrep              :   0
Energy             :  -309.8123886585822220 Eh
Relativity type    :
Basis              : AO
                                X                 Y                 Z
Electronic contribution:      5.713254066       0.000659190       0.005790561
Nuclear contribution   :     -7.587020704      -0.001302611      -0.008596226
                        -----------------------------------------
Total Dipole Moment    :     -1.873766638      -0.000643421      -0.002805665
                        -----------------------------------------
Magnitude (a.u.)       :      1.873768849
Magnitude (Debye)      :      4.762741912

Rotational constants in cm-1:             0.151977             0.080062             0.058483
Rotational constants in MHz :          4556.168247          2400.203713          1753.280335

                             ****ORCA TERMINATED NORMALLY****
TOTAL RUN TIME: 0 days 0 hours 0 minutes 24 seconds 203 msec
