                         Program Version 6.0.0  -   RELEASE  -
|  1> ! r2scan-3c def2/J RI DEFGRID2 scfconv6 printgap
|  2> %output
|  3>     printlevel normal
|  4> end
|  5> * xyz 0 1
|  6> C -3.0752134958 0.3669646191 0.0042877249
|  7> C -1.616217804 0.0232113598 -0.0020603743
|  8> C -1.1797795106 -1.293155142 -0.0021439738
|  9> C 0.1737218769 -1.5805647055 -0.0019266607
| 10> C 1.1314376718 -0.5787001568 -0.0008462817
| 11> C 0.6924893856 0.7492328738 -0.0008696952
| 12> C -0.6653578246 1.0353338644 -0.0020572849
| 13> O 1.6268280383 1.7464444652 -0.0008956287
| 14> C 2.5942769379 -0.9105941127 0.0039359671
| 15> H -3.6831061772 -0.5299631805 -0.0744571123
| 16> H -3.3363636194 0.8834813251 0.9268537814
| 17> H -3.3146047557 1.026990159 -0.8274811233
| 18> H -1.8990950593 -2.0986338398 -0.0029593064
| 19> H 0.5019117868 -2.6098738482 -0.0023302816
| 20> H -0.9919162817 2.0666679109 -0.0029741521
| 21> H 1.1895448817 2.6103249497 -0.0028394263
| 22> H 3.1860998002 -0.0021525431 -0.0582816835
| 23> H 2.8577749312 -1.43961468 0.9186916691
| 24> H 2.8395230298 -1.5529607442 -0.8399779451
| 25> *
| 26>
| 27>                          ****END OF INPUT****

CARTESIAN COORDINATES (ANGSTROEM)
---------------------------------
  C     -3.075213    0.366965    0.004288
  C     -1.616218    0.023211   -0.002060
  C     -1.179780   -1.293155   -0.002144
  C      0.173722   -1.580565   -0.001927
  C      1.131438   -0.578700   -0.000846
  C      0.692489    0.749233   -0.000870
  C     -0.665358    1.035334   -0.002057
  O      1.626828    1.746444   -0.000896
  C      2.594277   -0.910594    0.003936
  H     -3.683106   -0.529963   -0.074457
  H     -3.336364    0.883481    0.926854
  H     -3.314605    1.026990   -0.827481
  H     -1.899095   -2.098634   -0.002959
  H      0.501912   -2.609874   -0.002330
  H     -0.991916    2.066668   -0.002974
  H      1.189545    2.610325   -0.002839
  H      3.186100   -0.002153   -0.058282
  H      2.857775   -1.439615    0.918692
  H      2.839523   -1.552961   -0.839978

 Total Charge           Charge          ....    0
 Multiplicity           Mult            ....    1
 Number of Electrons    NEL             ....   66
 Basis Dimension        Dim             ....  226

ORBITAL ENERGIES
----------------

  NO   OCC          E(Eh)            E(eV)
   0   2.0000     -18.982792      -516.5480
   1   2.0000     -10.090500      -274.5765
   2   2.0000     -10.039244      -273.1817
   3   2.0000     -10.033213      -273.0176
   4   2.0000     -10.026649      -272.8390
   5   2.0000     -10.026476      -272.8343
   6   2.0000     -10.026211      -272.8271
   7   2.0000     -10.019686      -272.6495
   8   2.0000     -10.018506      -272.6174
   9   2.0000      -1.025629       -27.9088
  10   2.0000      -0.823036       -22.3960
  11   2.0000      -0.753822       -20.5125
  12   2.0000      -0.704046       -19.1581
  13   2.0000      -0.686078       -18.6691
  14   2.0000      -0.622548       -16.9404
  15   2.0000      -0.590919       -16.0797
  16   2.0000      -0.541727       -14.7411
  17   2.0000      -0.503216       -13.6932
  18   2.0000      -0.452053       -12.3010
  19   2.0000      -0.441281       -12.0079
  20   2.0000      -0.400484       -10.8977
  21   2.0000      -0.396064       -10.7775
  22   2.0000      -0.385383       -10.4868
  23   2.0000      -0.374944       -10.2028
  24   2.0000      -0.365329        -9.9411
  25   2.0000      -0.357081        -9.7167
  26   2.0000      -0.356236        -9.6937
  27   2.0000      -0.336906        -9.1677
  28   2.0000      -0.311689        -8.4815
  29   2.0000      -0.299627        -8.1533
  30   2.0000      -0.297319        -8.0905
  31   2.0000      -0.219427        -5.9709
  32   2.0000      -0.197210        -5.3664
  33   0.0000      -0.028902        -0.7865
  34   0.0000      -0.006172        -0.1679
  35   0.0000       0.056113         1.5269
  36   0.0000       0.079866         2.1733
  37   0.0000       0.101704         2.7675

MULLIKEN ATOMIC CHARGES
-----------------------
   0 C :   -0.544901
   1 C :    0.238421
   2 C :   -0.269832
   3 C :   -0.184945
   4 C :    0.078265
   5 C :    0.389886
   6 C :   -0.417254
   7 O :   -0.413233
   8 C :   -0.572245
   9 H :    0.151576
  10 H :    0.162806
  11 H :    0.157367
  12 H :    0.144131
  13 H :    0.145682
  14 H :    0.130994
  15 H :    0.307857
  16 H :    0.181661
  17 H :    0.158854
  18 H :    0.154909
Sum of atomic charges:   -0.0000000

LOEWDIN ATOMIC CHARGES
----------------------
   0 C :   -0.389911
   1 C :   -0.094077
   2 C :   -0.187395
   3 C :   -0.146373
   4 C :   -0.086699
   5 C :    0.191264
   6 C :   -0.168517
   7 O :   -0.518127
   8 C :   -0.379968
   9 H :    0.159449
  10 H :    0.163799
  11 H :    0.162670
  12 H :    0.166694
  13 H :    0.169597
  14 H :    0.168590
  15 H :    0.283800
  16 H :    0.177403
  17 H :    0.164444
  18 H :    0.163358

  Mayer bond orders larger than 0.100000
B(  0-C ,  1-C ) :   0.7694 B(  0-C ,  9-H ) :   0.9946 B(  0-C , 10-H ) :   0.9760
B(  0-C , 11-H ) :   0.9809 B(  1-C ,  2-C ) :   1.4139 B(  1-C ,  6-C ) :   1.3917
B(  2-C ,  3-C ) :   1.4507 B(  2-C , 12-H ) :   0.9352 B(  3-C ,  4-C ) :   1.3914
B(  3-C , 13-H ) :   0.9432 B(  4-C ,  5-C ) :   1.5073 B(  4-C ,  8-C ) :   0.7550
B(  5-C ,  6-C ) :   1.2945 B(  5-C ,  7-O ) :   0.9805 B(  6-C , 14-H ) :   0.9471
B(  7-O , 15-H ) :   0.8849 B(  8-C , 16-H ) :   0.9939 B(  8-C , 17-H ) :   0.9767
B(  8-C , 18-H ) :   0.9816

Dispersion correction           -0.006133353
FINAL SINGLE POINT ENERGY      -386.004185832876

DIPOLE MOMENT
-------------

Method             : SCF
Type of density    : Electron Density
Multiplicity       :   1
Irrep              :   0
Energy             :  -386.0053734297231358 Eh
Relativity type    :
Basis              : AO
                                X                 Y                 Z
Electronic contribution:      2.126611073       1.889401666      -0.024951107
Nuclear contribution   :     -2.462254577      -1.518094210       0.032113771
                        -----------------------------------------
Total Dipole Moment    :     -0.335643504       0.371307456       0.007162663
                        -----------------------------------------
Magnitude (a.u.)       :      0.500576760
Magnitude (Debye)      :      1.272365008

Rotational constants in cm-1:             0.101328             0.043937             0.031000
Rotational constants in MHz :          3037.748436          1317.202842           929.369928

                             ****ORCA TERMINATED NORMALLY****
TOTAL RUN TIME: 0 days 0 hours 0 minutes 32 seconds 924 msec
