                         Program Version 6.0.0  -   RELEASE  -
|  1> ! r2scan-3c def2/J RI DEFGRID2 scfconv6 printgap
|  2> %output
|  3>     printlevel normal
|  4> end
|  5> %cpcm
|  6>     smd true
|  7>     smdsolvent "water"
|  8> end
|  9> * xyz 0 1
| 10> C -3.0752134958 0.3669646191 0.0042877249
| 11> C -1.616217804 0.0232113598 -0.0020603743
| 12> C -1.1797795106 -1.293155142 -0.0021439738
| 13> C 0.1737218769 -1.5805647055 -0.0019266607
| 14> C 1.1314376718 -0.5787001568 -0.0008462817
| 15> C 0.6924893856 0.7492328738 -0.0008696952
| 16> C -0.6653578246 1.0353338644 -0.0020572849
| 17> O 1.6268280383 1.7464444652 -0.0008956287
| 18> C 2.5942769379 -0.9105941127 0.0039359671
| 19> H -3.6831061772 -0.5299631805 -0.0744571123
| 20> H -3.3363636194 0.8834813251 0.9268537814
| 21> H -3.3146047557 1.026990159 -0.8274811233
| 22> H -1.8990950593 -2.0986338398 -0.0029593064
| 23> H 0.5019117868 -2.6098738482 -0.0023302816
| 24> H -0.9919162817 2.0666679109 -0.0029741521
| 25> H 1.1895448817 2.6103249497 -0.0028394263
| 26> H 3.1860998002 -0.0021525431 -0.0582816835
| 27> H 2.8577749312 -1.43961468 0.9186916691
| 28> H 2.8395230298 -1.5529607442 -0.8399779451
| 29> *
| 30>
| 31>                          ****END OF INPUT****

CARTESIAN COORDINATES (ANGSTROEM)
---------------------------------
  C     -3.075213    0.366965    0.004288
  C     -1.616218    0.023211   -0.002060
  C     -1.179780   -1.293155   -0.002144
  C      0.173722   -1.580565   -0.001927
  C      1.131438   -0.578700   -0.000846
  C      0.692489    0.749233   -0.000870
  C     -0.665358    1.035334   -0.002057
  O      1.626828    1.746444   -0.000896
  C      2.594277   -0.910594    0.003936
  H     -3.683106   -0.529963   -0.074457
  H     -3.336364    0.883481    0.926854
  H     -3.314605    1.026990   -0.827481
  H     -1.899095   -2.098634   -0.002959
  H      0.501912   -2.609874   -0.002330
  H     -0.991916    2.066668   -0.002974
  H      1.189545    2.610325   -0.002839
  H      3.186100   -0.002153   -0.058282
  H      2.857775   -1.439615    0.918692
  H      2.839523   -1.552961   -0.839978

 Total Charge           Charge          ....    0
 Multiplicity           Mult            ....    1
 Number of Electrons    NEL             ....   66
 Basis Dimension        Dim             ....  226

ORBITAL ENERGIES
----------------

  NO   OCC          E(Eh)            E(eV)
   0   2.0000     -18.980193      -516.4773
   1   2.0000     -10.091519      -274.6042
   2   2.0000     -10.039027      -273.1758
   3   2.0000     -10.035388      -273.0768
   4   2.0000     -10.027211      -272.8543
   5   2.0000     -10.023696      -272.7586
   6   2.0000     -10.019939      -272.6564
   7   2.0000     -10.017274      -272.5839
   8   2.0000     -10.017101      -272.5792
   9   2.0000      -1.023100       -27.8400
  10   2.0000      -0.824598       -22.4385
  11   2.0000      -0.753134       -20.4938
  12   2.0000      -0.704100       -19.1595
  13   2.0000      -0.683096       -18.5880
  14   2.0000      -0.619893       -16.8682
  15   2.0000      -0.588638       -16.0177
  16   2.0000      -0.539913       -14.6918
  17   2.0000      -0.499612       -13.5951
  18   2.0000      -0.451089       -12.2748
  19   2.0000      -0.438412       -11.9298
  20   2.0000      -0.400983       -10.9113
  21   2.0000      -0.392292       -10.6748
  22   2.0000      -0.380397       -10.3511
  23   2.0000      -0.370690       -10.0870
  24   2.0000      -0.362552        -9.8655
  25   2.0000      -0.356453        -9.6996
  26   2.0000      -0.355775        -9.6811
  27   2.0000      -0.333477        -9.0744
  28   2.0000      -0.309288        -8.4162
  29   2.0000      -0.300146        -8.1674
  30   2.0000      -0.297815        -8.1040
  31   2.0000      -0.221891        -6.0380
  32   2.0000      -0.200755        -5.4628
  33   0.0000      -0.030783        -0.8376
  34   0.0000      -0.009412        -0.2561
  35   0.0000       0.076187         2.0731
  36   0.0000       0.089684         2.4404
  37   0.0000       0.109854         2.9893

MULLIKEN ATOMIC CHARGES
-----------------------
   0 C :   -0.560426
   1 C :    0.207590
   2 C :   -0.310204
   3 C :   -0.224209
   4 C :    0.066264
   5 C :    0.301495
   6 C :   -0.389157
   7 O :   -0.454476
   8 C :   -0.585672
   9 H :    0.170039
  10 H :    0.178414
  11 H :    0.174185
  12 H :    0.174236
  13 H :    0.174993
  14 H :    0.177476
  15 H :    0.366605
  16 H :    0.182374
  17 H :    0.176952
  18 H :    0.173521
Sum of atomic charges:    0.0000000

LOEWDIN ATOMIC CHARGES
----------------------
   0 C :   -0.394658
   1 C :   -0.104401
   2 C :   -0.203893
   3 C :   -0.160720
   4 C :   -0.100210
   5 C :    0.178106
   6 C :   -0.164871
   7 O :   -0.533020
   8 C :   -0.385392
   9 H :    0.164642
  10 H :    0.170160
  11 H :    0.169267
  12 H :    0.176620
  13 H :    0.179864
  14 H :    0.187011
  15 H :    0.304993
  16 H :    0.175278
  17 H :    0.170995
  18 H :    0.170229

  Mayer bond orders larger than 0.100000
B(  0-C ,  1-C ) :   0.7954 B(  0-C ,  9-H ) :   0.9904 B(  0-C , 10-H ) :   0.9679
B(  0-C , 11-H ) :   0.9724 B(  1-C ,  2-C ) :   1.3654 B(  1-C ,  6-C ) :   1.3409
B(  2-C ,  3-C ) :   1.4140 B(  2-C , 12-H ) :   0.9555 B(  3-C ,  4-C ) :   1.3635
B(  3-C , 13-H ) :   0.9588 B(  4-C ,  5-C ) :   1.4447 B(  4-C ,  8-C ) :   0.7636
B(  5-C ,  6-C ) :   1.3235 B(  5-C ,  7-O ) :   0.9966 B(  6-C , 14-H ) :   0.9622
B(  7-O , 15-H ) :   0.8542 B(  8-C , 16-H ) :   0.9965 B(  8-C , 17-H ) :   0.9679
B(  8-C , 18-H ) :   0.9722

Dispersion correction           -0.006133353
FINAL SINGLE POINT ENERGY      -386.011776834791

DIPOLE MOMENT
-------------

Method             : SCF
Type of density    : Electron Density
Multiplicity       :   1
Irrep              :   0
Energy             :  -386.0129644316385225 Eh
Relativity type    :
Basis              : AO
                                X                 Y                 Z
Electronic contribution:      1.941863399       2.078220313      -0.021633245
Nuclear contribution   :     -2.462254577      -1.518094210       0.032113771
                        -----------------------------------------
Total Dipole Moment    :     -0.520391178       0.560126103       0.010480526
                        -----------------------------------------
Magnitude (a.u.)       :      0.764629368
Magnitude (Debye)      :      1.943533399

Rotational constants in cm-1:             0.101328             0.043937             0.031000
Rotational constants in MHz :          3037.748436          1317.202842           929.369928

                             ****ORCA TERMINATED NORMALLY****
TOTAL RUN TIME: 0 days 0 hours 0 minutes 35 seconds 291 msec
