                         Program Version 6.0.0  -   RELEASE  -
|  1> ! pbe def2-sv(p) def2/J RI DEFGRID1 loosescf d4 GCP(DFT/SV(P)) printgap
|  2> %output
|  3>     printlevel normal
|  4> end
|  5> * xyz 0 1
|  6> C 1.6828706461 -0.9207029541 -3.5567364577
|  7> C 2.1997996355 -1.3249421127 -2.1918218288
|  8> O 2.3333333756 -0.1181598183 -1.3972353106
|  9> P 2.3945034578 -0.1340820141 0.1745333849
| 10> S 2.6480039308 1.6332932863 0.9673376432
| 11> O 3.5996318229 -1.1545075095 0.4093496127
| 12> C 4.3299283145 -1.2388529423 1.6454011598
| 13> C 3.4585361993 -1.6658390666 2.8089885528
| 14> S 0.6863432503 -1.2475038494 0.8083424075
| 15> C -0.1374474637 0.005750426 1.8476927335
| 16> S -1.9263575614 0.0118703721 1.6396014936
| 17> P -2.0847812687 0.7639608979 -0.354538616
| 18> S -0.4606365197 1.5449105003 -1.1225035607
| 19> O -3.2765606048 1.783951975 -0.3405727451
| 20> C -4.6169434738 1.4632134406 0.1259783481
| 21> C -4.8603483059 2.071829229 1.4921163031
| 22> O -2.7156971003 -0.4465731118 -1.1759731136
| 23> C -1.9564199522 -1.6161610429 -1.5364366917
| 24> C -2.7533589156 -2.3850298163 -2.5702614903
| 25> H 1.5152498685 -1.8092427486 -4.156450375
| 26> H 0.7516177925 -0.3683896971 -3.4527698028
| 27> H 2.4035731707 -0.2769554028 -4.0523972446
| 28> H 3.183600041 -1.7942730907 -2.2525840165
| 29> H 1.5077828785 -2.0025415276 -1.6810883948
| 30> H 5.1090619291 -1.9725672445 1.4338476132
| 31> H 4.7807094513 -0.2616874931 1.8434633414
| 32> H 2.9171519968 -2.5765794635 2.5654244016
| 33> H 4.0846972119 -1.838740142 3.67840615
| 34> H 2.7452613408 -0.876196162 3.0425635716
| 35> H 0.278356251 0.9847133405 1.5968487544
| 36> H 0.0327489078 -0.2392185691 2.8934139278
| 37> H -5.2759599339 1.8994733129 -0.6262627715
| 38> H -4.7405086178 0.3796584711 0.1419322319
| 39> H -4.2148953512 1.6122924786 2.2366631215
| 40> H -4.6613385793 3.1396743363 1.4639359137
| 41> H -5.8965208617 1.9084437507 1.7709605348
| 42> H -0.9897701418 -1.2924074004 -1.9348778009
| 43> H -1.7865854264 -2.2113529368 -0.6337986873
| 44> H -3.7152633718 -2.6741620744 -2.157679036
| 45> H -2.9182305837 -1.7673697865 -3.4485748396
| 46> H -2.2016890606 -3.2749353575 -2.854152263
| 47> *
| 48>
| 49>                          ****END OF INPUT****

CARTESIAN COORDINATES (ANGSTROEM)
---------------------------------
  C      1.682871   -0.920703   -3.556736
  C      2.199800   -1.324942   -2.191822
  O      2.333333   -0.118160   -1.397235
  P      2.394503   -0.134082    0.174533
  S      2.648004    1.633293    0.967338
  O      3.599632   -1.154508    0.409350
  C      4.329928   -1.238853    1.645401
  C      3.458536   -1.665839    2.808989
  S      0.686343   -1.247504    0.808342
  C     -0.137447    0.005750    1.847693
  S     -1.926358    0.011870    1.639601
  P     -2.084781    0.763961   -0.354539
  S     -0.460637    1.544911   -1.122504
  O     -3.276561    1.783952   -0.340573
  C     -4.616943    1.463213    0.125978
  C     -4.860348    2.071829    1.492116
  O     -2.715697   -0.446573   -1.175973
  C     -1.956420   -1.616161   -1.536437
  C     -2.753359   -2.385030   -2.570261
  H      1.515250   -1.809243   -4.156450
  H      0.751618   -0.368390   -3.452770
  H      2.403573   -0.276955   -4.052397
  H      3.183600   -1.794273   -2.252584
  H      1.507783   -2.002542   -1.681088
  H      5.109062   -1.972567    1.433848
  H      4.780709   -0.261687    1.843463
  H      2.917152   -2.576579    2.565424
  H      4.084697   -1.838740    3.678406
  H      2.745261   -0.876196    3.042564
  H      0.278356    0.984713    1.596849
  H      0.032749   -0.239219    2.893414
  H     -5.275960    1.899473   -0.626263
  H     -4.740509    0.379658    0.141932
  H     -4.214895    1.612292    2.236663
  H     -4.661339    3.139674    1.463936
  H     -5.896521    1.908444    1.770961
  H     -0.989770   -1.292407   -1.934878
  H     -1.786585   -2.211353   -0.633799
  H     -3.715263   -2.674162   -2.157679
  H     -2.918231   -1.767370   -3.448575
  H     -2.201689   -3.274935   -2.854152

 Total Charge           Charge          ....    0
 Multiplicity           Mult            ....    1
 Number of Electrons    NEL             ....  202
 Basis Dimension        Dim             ....  334

ORBITAL ENERGIES
----------------

  NO   OCC          E(Eh)            E(eV)
   0   2.0000     -88.044204     -2395.8046
   1   2.0000     -88.039306     -2395.6713
   2   2.0000     -87.983138     -2394.1429
   3   2.0000     -87.980481     -2394.0706
   4   2.0000     -76.423182     -2079.5805
   5   2.0000     -76.422637     -2079.5657
   6   2.0000     -18.792011      -511.3566
   7   2.0000     -18.788960      -511.2736
   8   2.0000     -18.786747      -511.2134
   9   2.0000     -18.785621      -511.1827
  10   2.0000      -9.959646      -271.0158
  11   2.0000      -9.955915      -270.9142
  12   2.0000      -9.953709      -270.8542
  13   2.0000      -9.952448      -270.8199
  14   2.0000      -9.950563      -270.7686
  15   2.0000      -9.889922      -269.1185
  16   2.0000      -9.888534      -269.0807
  17   2.0000      -9.885077      -268.9866
  18   2.0000      -9.883583      -268.9460
  19   2.0000      -7.689291      -209.2362
  20   2.0000      -7.683805      -209.0870
  21   2.0000      -7.628367      -207.5784
  22   2.0000      -7.625260      -207.4939
  23   2.0000      -6.420804      -174.7190
  24   2.0000      -6.419866      -174.6934
  25   2.0000      -5.717229      -155.5737
  26   2.0000      -5.713580      -155.4744
  27   2.0000      -5.711682      -155.4228
  28   2.0000      -5.708445      -155.3347
  29   2.0000      -5.706439      -155.2801
  30   2.0000      -5.700727      -155.1247
  31   2.0000      -5.657380      -153.9451
  32   2.0000      -5.654418      -153.8645
  33   2.0000      -5.648862      -153.7133
  34   2.0000      -5.648510      -153.7038
  35   2.0000      -5.645632      -153.6255
  36   2.0000      -5.645453      -153.6206
  37   2.0000      -4.643552      -126.3575
  38   2.0000      -4.642618      -126.3321
  39   2.0000      -4.642597      -126.3315
  40   2.0000      -4.641477      -126.3010
  41   2.0000      -4.641026      -126.2887
  42   2.0000      -4.640374      -126.2710
  43   2.0000      -0.987601       -26.8740
  44   2.0000      -0.983570       -26.7643
  45   2.0000      -0.943231       -25.6666
  46   2.0000      -0.938883       -25.5483
  47   2.0000      -0.760082       -20.6829
  48   2.0000      -0.721009       -19.6197
  49   2.0000      -0.713165       -19.4062
  50   2.0000      -0.693143       -18.8614
  51   2.0000      -0.686902       -18.6916
  52   2.0000      -0.676052       -18.3963
  53   2.0000      -0.647791       -17.6273
  54   2.0000      -0.633272       -17.2322
  55   2.0000      -0.592433       -16.1209
  56   2.0000      -0.583777       -15.8854
  57   2.0000      -0.574021       -15.6199
  58   2.0000      -0.570484       -15.5237
  59   2.0000      -0.564173       -15.3519
  60   2.0000      -0.510057       -13.8793
  61   2.0000      -0.502660       -13.6781
  62   2.0000      -0.479851       -13.0574
  63   2.0000      -0.469755       -12.7827
  64   2.0000      -0.452133       -12.3032
  65   2.0000      -0.451502       -12.2860
  66   2.0000      -0.438982       -11.9453
  67   2.0000      -0.435878       -11.8608
  68   2.0000      -0.433898       -11.8070
  69   2.0000      -0.424450       -11.5499
  70   2.0000      -0.409753       -11.1499
  71   2.0000      -0.390987       -10.6393
  72   2.0000      -0.389863       -10.6087
  73   2.0000      -0.385798       -10.4981
  74   2.0000      -0.382854       -10.4180
  75   2.0000      -0.366521        -9.9735
  76   2.0000      -0.361049        -9.8246
  77   2.0000      -0.358079        -9.7438
  78   2.0000      -0.353711        -9.6250
  79   2.0000      -0.352825        -9.6009
  80   2.0000      -0.349706        -9.5160
  81   2.0000      -0.347736        -9.4624
  82   2.0000      -0.341942        -9.3047
  83   2.0000      -0.339262        -9.2318
  84   2.0000      -0.333222        -9.0674
  85   2.0000      -0.313910        -8.5419
  86   2.0000      -0.309233        -8.4147
  87   2.0000      -0.302534        -8.2324
  88   2.0000      -0.300375        -8.1736
  89   2.0000      -0.293975        -7.9995
  90   2.0000      -0.291842        -7.9414
  91   2.0000      -0.275578        -7.4989
  92   2.0000      -0.268114        -7.2958
  93   2.0000      -0.261464        -7.1148
  94   2.0000      -0.254032        -6.9126
  95   2.0000      -0.235013        -6.3950
  96   2.0000      -0.217395        -5.9156
  97   2.0000      -0.210732        -5.7343
  98   2.0000      -0.199930        -5.4404
  99   2.0000      -0.193142        -5.2556
 100   2.0000      -0.187511        -5.1024
 101   0.0000      -0.044089        -1.1997
 102   0.0000      -0.033937        -0.9235
 103   0.0000      -0.012149        -0.3306
 104   0.0000       0.004578         0.1246
 105   0.0000       0.012042         0.3277

MULLIKEN ATOMIC CHARGES
-----------------------
   0 C :   -0.296722
   1 C :   -0.019187
   2 O :   -0.352920
   3 P :    0.617067
   4 S :   -0.291449
   5 O :   -0.388333
   6 C :    0.005430
   7 C :   -0.318573
   8 S :   -0.138187
   9 C :   -0.327880
  10 S :   -0.135407
  11 P :    0.594245
  12 S :   -0.284762
  13 O :   -0.352033
  14 C :   -0.021499
  15 C :   -0.290967
  16 O :   -0.382888
  17 C :   -0.041906
  18 C :   -0.270883
  19 H :    0.104778
  20 H :    0.145993
  21 H :    0.121703
  22 H :    0.109677
  23 H :    0.105072
  24 H :    0.102199
  25 H :    0.110874
  26 H :    0.118858
  27 H :    0.111810
  28 H :    0.119500
  29 H :    0.209098
  30 H :    0.181321
  31 H :    0.114563
  32 H :    0.108581
  33 H :    0.125970
  34 H :    0.124800
  35 H :    0.110565
  36 H :    0.125749
  37 H :    0.104490
  38 H :    0.113691
  39 H :    0.119284
  40 H :    0.108281
Sum of atomic charges:   -0.0000000

LOEWDIN ATOMIC CHARGES
----------------------
   0 C :   -0.354956
   1 C :   -0.112606
   2 O :   -0.230271
   3 P :    0.574297
   4 S :   -0.289125
   5 O :   -0.255875
   6 C :   -0.115554
   7 C :   -0.371886
   8 S :    0.058029
   9 C :   -0.476884
  10 S :    0.059596
  11 P :    0.559051
  12 S :   -0.285159
  13 O :   -0.233460
  14 C :   -0.111853
  15 C :   -0.360400
  16 O :   -0.252841
  17 C :   -0.124524
  18 C :   -0.349992
  19 H :    0.127389
  20 H :    0.129411
  21 H :    0.131472
  22 H :    0.115706
  23 H :    0.100020
  24 H :    0.117543
  25 H :    0.112256
  26 H :    0.122965
  27 H :    0.129948
  28 H :    0.118538
  29 H :    0.125535
  30 H :    0.133246
  31 H :    0.123862
  32 H :    0.109923
  33 H :    0.120671
  34 H :    0.131706
  35 H :    0.130173
  36 H :    0.107682
  37 H :    0.103011
  38 H :    0.125675
  39 H :    0.128500
  40 H :    0.129184

  Mayer bond orders larger than 0.100000
B(  0-C ,  1-C ) :   1.1625 B(  0-C , 19-H ) :   0.9409 B(  0-C , 20-H ) :   0.9338
B(  0-C , 21-H ) :   0.9467 B(  1-C ,  2-O ) :   0.8964 B(  1-C , 22-H ) :   0.9292
B(  1-C , 23-H ) :   0.9100 B(  2-O ,  3-P ) :   1.1390 B(  3-P ,  4-S ) :   1.6373
B(  3-P ,  5-O ) :   1.0718 B(  3-P ,  8-S ) :   0.9355 B(  4-S ,  8-S ) :   0.1150
B(  5-O ,  6-C ) :   0.9178 B(  6-C ,  7-C ) :   1.1649 B(  6-C , 24-H ) :   0.9349
B(  6-C , 25-H ) :   0.9200 B(  7-C , 26-H ) :   0.9411 B(  7-C , 27-H ) :   0.9366
B(  7-C , 28-H ) :   0.9356 B(  8-S ,  9-C ) :   0.9882 B(  9-C , 10-S ) :   1.0150
B(  9-C , 29-H ) :   0.8501 B(  9-C , 30-H ) :   0.9042 B( 10-S , 11-P ) :   0.9186
B( 10-S , 12-S ) :   0.1127 B( 11-P , 12-S ) :   1.6763 B( 11-P , 13-O ) :   1.1544
B( 11-P , 16-O ) :   1.0754 B( 13-O , 14-C ) :   0.8884 B( 14-C , 15-C ) :   1.1640
B( 14-C , 31-H ) :   0.9350 B( 14-C , 32-H ) :   0.9198 B( 15-C , 33-H ) :   0.9377
B( 15-C , 34-H ) :   0.9460 B( 15-C , 35-H ) :   0.9391 B( 16-O , 17-C ) :   0.9092
B( 17-C , 18-C ) :   1.1568 B( 17-C , 36-H ) :   0.9039 B( 17-C , 37-H ) :   0.9205
B( 18-C , 38-H ) :   0.9506 B( 18-C , 39-H ) :   0.9497 B( 18-C , 40-H ) :   0.9422

Dispersion correction           -0.065191800
FINAL SINGLE POINT ENERGY     -2929.514323555856

DIPOLE MOMENT
-------------

Method             : SCF
Type of density    : Electron Density
Multiplicity       :   1
Irrep              :   0
Energy             : -2929.6332286130045759 Eh
Relativity type    :
Basis              : AO
                                X                 Y                 Z
Electronic contribution:      6.149980533      13.094237261       4.395363844
Nuclear contribution   :     -6.957570149     -14.983701345      -4.242431234
                        -----------------------------------------
Total Dipole Moment    :     -0.807589617      -1.889464084       0.152932610
                        -----------------------------------------
Magnitude (a.u.)       :      2.060500885
Magnitude (Debye)      :      5.237377028

Rotational constants in cm-1:             0.011862             0.005180             0.004540
Rotational constants in MHz :           355.601854           155.283418           136.113866

                             ****ORCA TERMINATED NORMALLY****
TOTAL RUN TIME: 0 days 0 hours 0 minutes 21 seconds 66 msec
