                         Program Version 6.0.0  -   RELEASE  -
|  1> ! r2scan-3c def2/J RI DEFGRID2 scfconv6 printgap
|  2> %output
|  3>     printlevel normal
|  4> end
|  5> * xyz 0 1
|  6> C 5.3718160114 -2.2462677723 -0.8620169504
|  7> C 4.2382443474 -1.3503655648 -1.3178777347
|  8> O 3.4779934998 -0.9732591824 -0.1502286389
|  9> P 2.4634518946 0.2478918007 -0.1821371292
| 10> S 3.1731298164 1.9541267136 -0.8181563058
| 11> O 1.9828542613 0.323874633 1.3105687351
| 12> C 1.4636814903 -0.8169264114 2.0438934308
| 13> C 0.5484480016 -0.287463132 3.1272476814
| 14> S 0.8439059723 -0.5347050486 -1.3372599713
| 15> C -0.0019581088 1.045697528 -1.5594819614
| 16> S -0.8700010719 1.5980124017 -0.0719401077
| 17> P -2.427462942 0.1629557901 -0.1881572128
| 18> S -3.110017343 -0.2166694408 -1.9792016674
| 19> O -3.574624627 0.6953738896 0.7638732815
| 20> C -3.4533127701 0.8378368703 2.200599376
| 21> C -2.9973312679 2.2319885957 2.5804968959
| 22> O -1.7325240482 -1.0632433599 0.5690152674
| 23> C -2.0524160662 -2.4307190153 0.2482907007
| 24> C -3.4234347546 -2.8120134706 0.7680890039
| 25> H 4.9733490417 -3.1250379763 -0.3637678307
| 26> H 5.9510542211 -2.5541764707 -1.7261748192
| 27> H 6.0161888412 -1.7099629945 -0.1711966468
| 28> H 3.5672390167 -1.870177347 -2.0068880408
| 29> H 4.6117561773 -0.440642162 -1.7989724402
| 30> H 0.9269667206 -1.4658490857 1.3455387678
| 31> H 2.3169170553 -1.3563300558 2.4581523591
| 32> H -0.2854121389 0.2455562684 2.6776580071
| 33> H 0.1736097905 -1.1176766654 3.7169966101
| 34> H 1.0917767508 0.3985715285 3.7701694539
| 35> H -0.7225852709 0.9131136775 -2.3671095324
| 36> H 0.7347433486 1.8131369303 -1.8015155234
| 37> H -4.4611794356 0.6398355595 2.56930613
| 38> H -2.7644075768 0.0775755894 2.5755814935
| 39> H -2.9950832335 2.3218478463 3.6623140765
| 40> H -1.9943743705 2.4272201839 2.2049872562
| 41> H -3.6720108697 2.9728118937 2.1605475969
| 42> H -2.0010756358 -2.5554510915 -0.8376378637
| 43> H -1.2608790721 -3.0113098209 0.7238572856
| 44> H -3.4769502291 -2.6723542001 1.8445181997
| 45> H -4.1811891811 -2.1908268467 0.2907171654
| 46> H -3.6220297423 -3.8522426522 0.5302949174
| 47> *
| 48>
| 49>                          ****END OF INPUT****

CARTESIAN COORDINATES (ANGSTROEM)
---------------------------------
  C      5.371816   -2.246268   -0.862017
  C      4.238244   -1.350366   -1.317878
  O      3.477993   -0.973259   -0.150229
  P      2.463452    0.247892   -0.182137
  S      3.173130    1.954127   -0.818156
  O      1.982854    0.323875    1.310569
  C      1.463681   -0.816926    2.043893
  C      0.548448   -0.287463    3.127248
  S      0.843906   -0.534705   -1.337260
  C     -0.001958    1.045698   -1.559482
  S     -0.870001    1.598012   -0.071940
  P     -2.427463    0.162956   -0.188157
  S     -3.110017   -0.216669   -1.979202
  O     -3.574625    0.695374    0.763873
  C     -3.453313    0.837837    2.200599
  C     -2.997331    2.231989    2.580497
  O     -1.732524   -1.063243    0.569015
  C     -2.052416   -2.430719    0.248291
  C     -3.423435   -2.812013    0.768089
  H      4.973349   -3.125038   -0.363768
  H      5.951054   -2.554176   -1.726175
  H      6.016189   -1.709963   -0.171197
  H      3.567239   -1.870177   -2.006888
  H      4.611756   -0.440642   -1.798972
  H      0.926967   -1.465849    1.345539
  H      2.316917   -1.356330    2.458152
  H     -0.285412    0.245556    2.677658
  H      0.173610   -1.117677    3.716997
  H      1.091777    0.398572    3.770169
  H     -0.722585    0.913114   -2.367110
  H      0.734743    1.813137   -1.801516
  H     -4.461179    0.639836    2.569306
  H     -2.764408    0.077576    2.575581
  H     -2.995083    2.321848    3.662314
  H     -1.994374    2.427220    2.204987
  H     -3.672011    2.972812    2.160548
  H     -2.001076   -2.555451   -0.837638
  H     -1.260879   -3.011310    0.723857
  H     -3.476950   -2.672354    1.844518
  H     -4.181189   -2.190827    0.290717
  H     -3.622030   -3.852243    0.530295

 Total Charge           Charge          ....    0
 Multiplicity           Mult            ....    1
 Number of Electrons    NEL             ....  202
 Basis Dimension        Dim             ....  539

ORBITAL ENERGIES
----------------

  NO   OCC          E(Eh)            E(eV)
   0   2.0000     -88.575759     -2410.2689
   1   2.0000     -88.573927     -2410.2191
   2   2.0000     -88.522784     -2408.8274
   3   2.0000     -88.518750     -2408.7177
   4   2.0000     -76.917938     -2093.0435
   5   2.0000     -76.913400     -2092.9200
   6   2.0000     -18.998859      -516.9852
   7   2.0000     -18.996225      -516.9135
   8   2.0000     -18.995517      -516.8943
   9   2.0000     -18.993624      -516.8428
  10   2.0000     -10.111304      -275.1426
  11   2.0000     -10.104275      -274.9513
  12   2.0000     -10.102909      -274.9141
  13   2.0000     -10.102211      -274.8951
  14   2.0000     -10.101504      -274.8759
  15   2.0000     -10.039363      -273.1849
  16   2.0000     -10.036244      -273.1001
  17   2.0000     -10.035905      -273.0909
  18   2.0000     -10.035760      -273.0869
  19   2.0000      -7.870131      -214.1571
  20   2.0000      -7.868203      -214.1047
  21   2.0000      -7.817622      -212.7283
  22   2.0000      -7.813523      -212.6168
  23   2.0000      -6.596295      -179.4943
  24   2.0000      -6.592081      -179.3796
  25   2.0000      -5.816970      -158.2878
  26   2.0000      -5.814941      -158.2326
  27   2.0000      -5.814074      -158.2090
  28   2.0000      -5.812039      -158.1536
  29   2.0000      -5.807179      -158.0214
  30   2.0000      -5.805499      -157.9757
  31   2.0000      -5.765394      -156.8844
  32   2.0000      -5.761222      -156.7708
  33   2.0000      -5.757836      -156.6787
  34   2.0000      -5.757535      -156.6705
  35   2.0000      -5.753789      -156.5686
  36   2.0000      -5.753483      -156.5602
  37   2.0000      -4.742293      -129.0443
  38   2.0000      -4.740847      -129.0050
  39   2.0000      -4.739938      -128.9803
  40   2.0000      -4.737926      -128.9255
  41   2.0000      -4.737079      -128.9025
  42   2.0000      -4.735408      -128.8570
  43   2.0000      -1.054343       -28.6901
  44   2.0000      -1.053632       -28.6708
  45   2.0000      -1.015441       -27.6315
  46   2.0000      -1.013209       -27.5708
  47   2.0000      -0.802574       -21.8391
  48   2.0000      -0.764708       -20.8088
  49   2.0000      -0.757148       -20.6031
  50   2.0000      -0.741692       -20.1825
  51   2.0000      -0.739240       -20.1157
  52   2.0000      -0.713315       -19.4103
  53   2.0000      -0.686323       -18.6758
  54   2.0000      -0.669307       -18.2128
  55   2.0000      -0.629339       -17.1252
  56   2.0000      -0.619138       -16.8476
  57   2.0000      -0.617735       -16.8094
  58   2.0000      -0.607635       -16.5346
  59   2.0000      -0.594185       -16.1686
  60   2.0000      -0.539844       -14.6899
  61   2.0000      -0.527904       -14.3650
  62   2.0000      -0.505290       -13.7496
  63   2.0000      -0.504044       -13.7157
  64   2.0000      -0.479585       -13.0502
  65   2.0000      -0.471650       -12.8342
  66   2.0000      -0.462349       -12.5811
  67   2.0000      -0.459915       -12.5149
  68   2.0000      -0.450254       -12.2520
  69   2.0000      -0.436699       -11.8832
  70   2.0000      -0.426586       -11.6080
  71   2.0000      -0.421814       -11.4781
  72   2.0000      -0.410939       -11.1822
  73   2.0000      -0.398261       -10.8372
  74   2.0000      -0.394143       -10.7252
  75   2.0000      -0.393050       -10.6954
  76   2.0000      -0.384722       -10.4688
  77   2.0000      -0.378827       -10.3084
  78   2.0000      -0.377881       -10.2827
  79   2.0000      -0.374521       -10.1912
  80   2.0000      -0.369775       -10.0621
  81   2.0000      -0.364575        -9.9206
  82   2.0000      -0.364177        -9.9098
  83   2.0000      -0.359463        -9.7815
  84   2.0000      -0.353684        -9.6242
  85   2.0000      -0.338166        -9.2020
  86   2.0000      -0.330017        -8.9802
  87   2.0000      -0.321130        -8.7384
  88   2.0000      -0.320231        -8.7139
  89   2.0000      -0.317586        -8.6419
  90   2.0000      -0.302118        -8.2210
  91   2.0000      -0.292333        -7.9548
  92   2.0000      -0.291987        -7.9454
  93   2.0000      -0.285097        -7.7579
  94   2.0000      -0.273468        -7.4414
  95   2.0000      -0.247170        -6.7258
  96   2.0000      -0.233318        -6.3489
  97   2.0000      -0.226483        -6.1629
  98   2.0000      -0.217612        -5.9215
  99   2.0000      -0.216546        -5.8925
 100   2.0000      -0.211431        -5.7533
 101   0.0000      -0.046204        -1.2573
 102   0.0000      -0.024898        -0.6775
 103   0.0000      -0.002189        -0.0596
 104   0.0000       0.000844         0.0230
 105   0.0000       0.010285         0.2799

MULLIKEN ATOMIC CHARGES
-----------------------
   0 C :   -0.439012
   1 C :   -0.151201
   2 O :   -0.288803
   3 P :    0.662742
   4 S :   -0.448739
   5 O :   -0.261296
   6 C :   -0.092393
   7 C :   -0.460985
   8 S :   -0.189358
   9 C :   -0.235417
  10 S :   -0.132589
  11 P :    0.658774
  12 S :   -0.450519
  13 O :   -0.279622
  14 C :   -0.176160
  15 C :   -0.418581
  16 O :   -0.279335
  17 C :   -0.153066
  18 C :   -0.447001
  19 H :    0.150249
  20 H :    0.147847
  21 H :    0.159406
  22 H :    0.151111
  23 H :    0.171301
  24 H :    0.157152
  25 H :    0.155096
  26 H :    0.158978
  27 H :    0.143679
  28 H :    0.157350
  29 H :    0.216711
  30 H :    0.220306
  31 H :    0.156057
  32 H :    0.163862
  33 H :    0.150445
  34 H :    0.154211
  35 H :    0.164849
  36 H :    0.179134
  37 H :    0.148429
  38 H :    0.145855
  39 H :    0.180443
  40 H :    0.150090
Sum of atomic charges:    0.0000000

LOEWDIN ATOMIC CHARGES
----------------------
   0 C :   -0.385516
   1 C :    0.021577
   2 O :   -0.668130
   3 P :    0.372197
   4 S :   -0.108193
   5 O :   -0.648237
   6 C :    0.025910
   7 C :   -0.391236
   8 S :    0.139082
   9 C :   -0.424843
  10 S :    0.157867
  11 P :    0.380284
  12 S :   -0.102100
  13 O :   -0.653298
  14 C :    0.022675
  15 C :   -0.397777
  16 O :   -0.708503
  17 C :    0.010561
  18 C :   -0.398910
  19 H :    0.158498
  20 H :    0.160778
  21 H :    0.162201
  22 H :    0.172063
  23 H :    0.181589
  24 H :    0.179203
  25 H :    0.173968
  26 H :    0.163946
  27 H :    0.159200
  28 H :    0.162610
  29 H :    0.193510
  30 H :    0.195525
  31 H :    0.182400
  32 H :    0.176019
  33 H :    0.161090
  34 H :    0.163752
  35 H :    0.165057
  36 H :    0.183279
  37 H :    0.176719
  38 H :    0.154867
  39 H :    0.168927
  40 H :    0.161387

  Mayer bond orders larger than 0.100000
B(  0-C ,  1-C ) :   0.9554 B(  0-C , 19-H ) :   0.9716 B(  0-C , 20-H ) :   0.9637
B(  0-C , 21-H ) :   0.9710 B(  1-C ,  2-O ) :   0.7845 B(  1-C , 22-H ) :   0.9418
B(  1-C , 23-H ) :   0.9514 B(  2-O ,  3-P ) :   1.0554 B(  3-P ,  4-S ) :   1.8457
B(  3-P ,  5-O ) :   1.1779 B(  3-P ,  8-S ) :   0.9782 B(  5-O ,  6-C ) :   0.7333
B(  6-C ,  7-C ) :   0.9425 B(  6-C , 24-H ) :   0.9521 B(  6-C , 25-H ) :   0.9456
B(  7-C , 26-H ) :   0.9685 B(  7-C , 27-H ) :   0.9673 B(  7-C , 28-H ) :   0.9697
B(  8-S ,  9-C ) :   0.9080 B(  9-C , 10-S ) :   0.9214 B(  9-C , 29-H ) :   0.9074
B(  9-C , 30-H ) :   0.9003 B( 10-S , 11-P ) :   1.0618 B( 11-P , 12-S ) :   1.8381
B( 11-P , 13-O ) :   1.1185 B( 11-P , 16-O ) :   1.0218 B( 13-O , 14-C ) :   0.7588
B( 14-C , 15-C ) :   0.9594 B( 14-C , 31-H ) :   0.9596 B( 14-C , 32-H ) :   0.9674
B( 15-C , 33-H ) :   0.9653 B( 15-C , 34-H ) :   0.9483 B( 15-C , 35-H ) :   0.9714
B( 16-O , 17-C ) :   0.7776 B( 17-C , 18-C ) :   0.9166 B( 17-C , 36-H ) :   0.9569
B( 17-C , 37-H ) :   0.9646 B( 18-C , 38-H ) :   0.9733 B( 18-C , 39-H ) :   0.9595
B( 18-C , 40-H ) :   0.9619

Dispersion correction           -0.021595001
FINAL SINGLE POINT ENERGY     -2932.462885228199

DIPOLE MOMENT
-------------

Method             : SCF
Type of density    : Electron Density
Multiplicity       :   1
Irrep              :   0
Energy             : -2932.4878625753567576 Eh
Relativity type    :
Basis              : AO
                                X                 Y                 Z
Electronic contribution:      0.991585689      13.794052661     -17.093838636
Nuclear contribution   :     -1.038150090     -15.579403853      18.743915426
                        -----------------------------------------
Total Dipole Moment    :     -0.046564400      -1.785351192       1.650076790
                        -----------------------------------------
Magnitude (a.u.)       :      2.431542830
Magnitude (Debye)      :      6.180490703

Rotational constants in cm-1:             0.012267             0.004772             0.004671
Rotational constants in MHz :           367.757720           143.068858           140.019800

                             ****ORCA TERMINATED NORMALLY****
TOTAL RUN TIME: 0 days 0 hours 1 minutes 20 seconds 746 msec
