                         Program Version 6.0.0  -   RELEASE  -
|  1> ! r2scan-3c def2/J RI DEFGRID2 scfconv6 printgap
|  2> %output
|  3>     printlevel normal
|  4> end
|  5> %cpcm
|  6>     smd true
|  7>     smdsolvent "water"
|  8> end
|  9> * xyz 0 1
| 10> C 5.3718160114 -2.2462677723 -0.8620169504
| 11> C 4.2382443474 -1.3503655648 -1.3178777347
| 12> O 3.4779934998 -0.9732591824 -0.1502286389
| 13> P 2.4634518946 0.2478918007 -0.1821371292
| 14> S 3.1731298164 1.9541267136 -0.8181563058
| 15> O 1.9828542613 0.323874633 1.3105687351
| 16> C 1.4636814903 -0.8169264114 2.0438934308
| 17> C 0.5484480016 -0.287463132 3.1272476814
| 18> S 0.8439059723 -0.5347050486 -1.3372599713
| 19> C -0.0019581088 1.045697528 -1.5594819614
| 20> S -0.8700010719 1.5980124017 -0.0719401077
| 21> P -2.427462942 0.1629557901 -0.1881572128
| 22> S -3.110017343 -0.2166694408 -1.9792016674
| 23> O -3.574624627 0.6953738896 0.7638732815
| 24> C -3.4533127701 0.8378368703 2.200599376
| 25> C -2.9973312679 2.2319885957 2.5804968959
| 26> O -1.7325240482 -1.0632433599 0.5690152674
| 27> C -2.0524160662 -2.4307190153 0.2482907007
| 28> C -3.4234347546 -2.8120134706 0.7680890039
| 29> H 4.9733490417 -3.1250379763 -0.3637678307
| 30> H 5.9510542211 -2.5541764707 -1.7261748192
| 31> H 6.0161888412 -1.7099629945 -0.1711966468
| 32> H 3.5672390167 -1.870177347 -2.0068880408
| 33> H 4.6117561773 -0.440642162 -1.7989724402
| 34> H 0.9269667206 -1.4658490857 1.3455387678
| 35> H 2.3169170553 -1.3563300558 2.4581523591
| 36> H -0.2854121389 0.2455562684 2.6776580071
| 37> H 0.1736097905 -1.1176766654 3.7169966101
| 38> H 1.0917767508 0.3985715285 3.7701694539
| 39> H -0.7225852709 0.9131136775 -2.3671095324
| 40> H 0.7347433486 1.8131369303 -1.8015155234
| 41> H -4.4611794356 0.6398355595 2.56930613
| 42> H -2.7644075768 0.0775755894 2.5755814935
| 43> H -2.9950832335 2.3218478463 3.6623140765
| 44> H -1.9943743705 2.4272201839 2.2049872562
| 45> H -3.6720108697 2.9728118937 2.1605475969
| 46> H -2.0010756358 -2.5554510915 -0.8376378637
| 47> H -1.2608790721 -3.0113098209 0.7238572856
| 48> H -3.4769502291 -2.6723542001 1.8445181997
| 49> H -4.1811891811 -2.1908268467 0.2907171654
| 50> H -3.6220297423 -3.8522426522 0.5302949174
| 51> *
| 52>
| 53>                          ****END OF INPUT****

CARTESIAN COORDINATES (ANGSTROEM)
---------------------------------
  C      5.371816   -2.246268   -0.862017
  C      4.238244   -1.350366   -1.317878
  O      3.477993   -0.973259   -0.150229
  P      2.463452    0.247892   -0.182137
  S      3.173130    1.954127   -0.818156
  O      1.982854    0.323875    1.310569
  C      1.463681   -0.816926    2.043893
  C      0.548448   -0.287463    3.127248
  S      0.843906   -0.534705   -1.337260
  C     -0.001958    1.045698   -1.559482
  S     -0.870001    1.598012   -0.071940
  P     -2.427463    0.162956   -0.188157
  S     -3.110017   -0.216669   -1.979202
  O     -3.574625    0.695374    0.763873
  C     -3.453313    0.837837    2.200599
  C     -2.997331    2.231989    2.580497
  O     -1.732524   -1.063243    0.569015
  C     -2.052416   -2.430719    0.248291
  C     -3.423435   -2.812013    0.768089
  H      4.973349   -3.125038   -0.363768
  H      5.951054   -2.554176   -1.726175
  H      6.016189   -1.709963   -0.171197
  H      3.567239   -1.870177   -2.006888
  H      4.611756   -0.440642   -1.798972
  H      0.926967   -1.465849    1.345539
  H      2.316917   -1.356330    2.458152
  H     -0.285412    0.245556    2.677658
  H      0.173610   -1.117677    3.716997
  H      1.091777    0.398572    3.770169
  H     -0.722585    0.913114   -2.367110
  H      0.734743    1.813137   -1.801516
  H     -4.461179    0.639836    2.569306
  H     -2.764408    0.077576    2.575581
  H     -2.995083    2.321848    3.662314
  H     -1.994374    2.427220    2.204987
  H     -3.672011    2.972812    2.160548
  H     -2.001076   -2.555451   -0.837638
  H     -1.260879   -3.011310    0.723857
  H     -3.476950   -2.672354    1.844518
  H     -4.181189   -2.190827    0.290717
  H     -3.622030   -3.852243    0.530295

 Total Charge           Charge          ....    0
 Multiplicity           Mult            ....    1
 Number of Electrons    NEL             ....  202
 Basis Dimension        Dim             ....  539

ORBITAL ENERGIES
----------------

  NO   OCC          E(Eh)            E(eV)
   0   2.0000     -88.579740     -2410.3773
   1   2.0000     -88.578092     -2410.3324
   2   2.0000     -88.530785     -2409.0451
   3   2.0000     -88.530719     -2409.0433
   4   2.0000     -76.921351     -2093.1364
   5   2.0000     -76.920447     -2093.1118
   6   2.0000     -18.997796      -516.9563
   7   2.0000     -18.997515      -516.9487
   8   2.0000     -18.997356      -516.9443
   9   2.0000     -18.991765      -516.7922
  10   2.0000     -10.103229      -274.9228
  11   2.0000     -10.093224      -274.6506
  12   2.0000     -10.092641      -274.6347
  13   2.0000     -10.091921      -274.6151
  14   2.0000     -10.088165      -274.5129
  15   2.0000     -10.021612      -272.7019
  16   2.0000     -10.020217      -272.6640
  17   2.0000     -10.019525      -272.6451
  18   2.0000     -10.018523      -272.6179
  19   2.0000      -7.874157      -214.2667
  20   2.0000      -7.872342      -214.2173
  21   2.0000      -7.825997      -212.9562
  22   2.0000      -7.825872      -212.9528
  23   2.0000      -6.599687      -179.5866
  24   2.0000      -6.599164      -179.5724
  25   2.0000      -5.820949      -158.3961
  26   2.0000      -5.819093      -158.3456
  27   2.0000      -5.818083      -158.3181
  28   2.0000      -5.816196      -158.2667
  29   2.0000      -5.811270      -158.1327
  30   2.0000      -5.809607      -158.0875
  31   2.0000      -5.773656      -157.1092
  32   2.0000      -5.773438      -157.1032
  33   2.0000      -5.766176      -156.9056
  34   2.0000      -5.766106      -156.9037
  35   2.0000      -5.765986      -156.9004
  36   2.0000      -5.765925      -156.8988
  37   2.0000      -4.745578      -129.1337
  38   2.0000      -4.744944      -129.1165
  39   2.0000      -4.744234      -129.0972
  40   2.0000      -4.744115      -129.0939
  41   2.0000      -4.743498      -129.0771
  42   2.0000      -4.742645      -129.0539
  43   2.0000      -1.056696       -28.7542
  44   2.0000      -1.050620       -28.5888
  45   2.0000      -1.014819       -27.6146
  46   2.0000      -1.011469       -27.5235
  47   2.0000      -0.805519       -21.9193
  48   2.0000      -0.759228       -20.6596
  49   2.0000      -0.747706       -20.3461
  50   2.0000      -0.727767       -19.8035
  51   2.0000      -0.727131       -19.7862
  52   2.0000      -0.710599       -19.3364
  53   2.0000      -0.689311       -18.7571
  54   2.0000      -0.675553       -18.3827
  55   2.0000      -0.624834       -17.0026
  56   2.0000      -0.611235       -16.6325
  57   2.0000      -0.606328       -16.4990
  58   2.0000      -0.598294       -16.2804
  59   2.0000      -0.591753       -16.1024
  60   2.0000      -0.535520       -14.5722
  61   2.0000      -0.519348       -14.1322
  62   2.0000      -0.500807       -13.6277
  63   2.0000      -0.494989       -13.4693
  64   2.0000      -0.477861       -13.0033
  65   2.0000      -0.462863       -12.5951
  66   2.0000      -0.453965       -12.3530
  67   2.0000      -0.450987       -12.2720
  68   2.0000      -0.441317       -12.0088
  69   2.0000      -0.434590       -11.8258
  70   2.0000      -0.421651       -11.4737
  71   2.0000      -0.412150       -11.2152
  72   2.0000      -0.405320       -11.0293
  73   2.0000      -0.394294       -10.7293
  74   2.0000      -0.388443       -10.5701
  75   2.0000      -0.387587       -10.5468
  76   2.0000      -0.380815       -10.3625
  77   2.0000      -0.371589       -10.1115
  78   2.0000      -0.366175        -9.9641
  79   2.0000      -0.360555        -9.8112
  80   2.0000      -0.356963        -9.7135
  81   2.0000      -0.354644        -9.6503
  82   2.0000      -0.351824        -9.5736
  83   2.0000      -0.350765        -9.5448
  84   2.0000      -0.345700        -9.4070
  85   2.0000      -0.329687        -8.9712
  86   2.0000      -0.322205        -8.7677
  87   2.0000      -0.316533        -8.6133
  88   2.0000      -0.314760        -8.5651
  89   2.0000      -0.310821        -8.4579
  90   2.0000      -0.294788        -8.0216
  91   2.0000      -0.288454        -7.8492
  92   2.0000      -0.286228        -7.7887
  93   2.0000      -0.282460        -7.6861
  94   2.0000      -0.274690        -7.4747
  95   2.0000      -0.251268        -6.8373
  96   2.0000      -0.241307        -6.5663
  97   2.0000      -0.236853        -6.4451
  98   2.0000      -0.228990        -6.2311
  99   2.0000      -0.225613        -6.1393
 100   2.0000      -0.220967        -6.0128
 101   0.0000      -0.051686        -1.4064
 102   0.0000      -0.031336        -0.8527
 103   0.0000      -0.005577        -0.1518
 104   0.0000      -0.003279        -0.0892
 105   0.0000       0.012152         0.3307

MULLIKEN ATOMIC CHARGES
-----------------------
   0 C :   -0.480409
   1 C :   -0.138900
   2 O :   -0.307136
   3 P :    0.673402
   4 S :   -0.506634
   5 O :   -0.289403
   6 C :   -0.096097
   7 C :   -0.502682
   8 S :   -0.184782
   9 C :   -0.244520
  10 S :   -0.152405
  11 P :    0.677436
  12 S :   -0.507920
  13 O :   -0.313210
  14 C :   -0.157960
  15 C :   -0.462253
  16 O :   -0.287611
  17 C :   -0.144676
  18 C :   -0.480761
  19 H :    0.166279
  20 H :    0.169910
  21 H :    0.166623
  22 H :    0.170266
  23 H :    0.172762
  24 H :    0.173341
  25 H :    0.177298
  26 H :    0.167655
  27 H :    0.173922
  28 H :    0.167898
  29 H :    0.233705
  30 H :    0.232834
  31 H :    0.179385
  32 H :    0.185419
  33 H :    0.175995
  34 H :    0.152142
  35 H :    0.174336
  36 H :    0.176105
  37 H :    0.180612
  38 H :    0.168750
  39 H :    0.169647
  40 H :    0.171641
Sum of atomic charges:   -0.0000000

LOEWDIN ATOMIC CHARGES
----------------------
   0 C :   -0.388519
   1 C :    0.026726
   2 O :   -0.674754
   3 P :    0.373720
   4 S :   -0.153967
   5 O :   -0.668823
   6 C :    0.032310
   7 C :   -0.394095
   8 S :    0.145139
   9 C :   -0.423831
  10 S :    0.147287
  11 P :    0.383520
  12 S :   -0.144685
  13 O :   -0.671318
  14 C :    0.032710
  15 C :   -0.400507
  16 O :   -0.705316
  17 C :    0.017531
  18 C :   -0.401109
  19 H :    0.163510
  20 H :    0.169456
  21 H :    0.163391
  22 H :    0.180130
  23 H :    0.181927
  24 H :    0.184921
  25 H :    0.184048
  26 H :    0.165005
  27 H :    0.171389
  28 H :    0.164708
  29 H :    0.197560
  30 H :    0.198334
  31 H :    0.192690
  32 H :    0.186325
  33 H :    0.171487
  34 H :    0.160812
  35 H :    0.165620
  36 H :    0.181651
  37 H :    0.189997
  38 H :    0.163146
  39 H :    0.163208
  40 H :    0.168667

  Mayer bond orders larger than 0.100000
B(  0-C ,  1-C ) :   0.9538 B(  0-C , 19-H ) :   0.9680 B(  0-C , 20-H ) :   0.9578
B(  0-C , 21-H ) :   0.9691 B(  1-C ,  2-O ) :   0.7752 B(  1-C , 22-H ) :   0.9321
B(  1-C , 23-H ) :   0.9485 B(  2-O ,  3-P ) :   1.0674 B(  3-P ,  4-S ) :   1.8176
B(  3-P ,  5-O ) :   1.1870 B(  3-P ,  8-S ) :   0.9953 B(  5-O ,  6-C ) :   0.7195
B(  6-C ,  7-C ) :   0.9343 B(  6-C , 24-H ) :   0.9450 B(  6-C , 25-H ) :   0.9343
B(  7-C , 26-H ) :   0.9653 B(  7-C , 27-H ) :   0.9598 B(  7-C , 28-H ) :   0.9683
B(  8-S ,  9-C ) :   0.8982 B(  9-C , 10-S ) :   0.9046 B(  9-C , 29-H ) :   0.9042
B(  9-C , 30-H ) :   0.8980 B( 10-S , 11-P ) :   1.0675 B( 11-P , 12-S ) :   1.8107
B( 11-P , 13-O ) :   1.1305 B( 11-P , 16-O ) :   1.0406 B( 13-O , 14-C ) :   0.7511
B( 14-C , 15-C ) :   0.9436 B( 14-C , 31-H ) :   0.9506 B( 14-C , 32-H ) :   0.9566
B( 15-C , 33-H ) :   0.9587 B( 15-C , 34-H ) :   0.9497 B( 15-C , 35-H ) :   0.9716
B( 16-O , 17-C ) :   0.7608 B( 17-C , 18-C ) :   0.9124 B( 17-C , 36-H ) :   0.9555
B( 17-C , 37-H ) :   0.9534 B( 18-C , 38-H ) :   0.9686 B( 18-C , 39-H ) :   0.9614
B( 18-C , 40-H ) :   0.9578

Dispersion correction           -0.021595001
FINAL SINGLE POINT ENERGY     -2932.475500435917

DIPOLE MOMENT
-------------

Method             : SCF
Type of density    : Electron Density
Multiplicity       :   1
Irrep              :   0
Energy             : -2932.5004777830740750 Eh
Relativity type    :
Basis              : AO
                                X                 Y                 Z
Electronic contribution:      0.984256864      12.921554844     -16.482357449
Nuclear contribution   :     -1.038150090     -15.579403853      18.743915426
                        -----------------------------------------
Total Dipole Moment    :     -0.053893226      -2.657849009       2.261557976
                        -----------------------------------------
Magnitude (a.u.)       :      3.490230696
Magnitude (Debye)      :      8.871461403

Rotational constants in cm-1:             0.012267             0.004772             0.004671
Rotational constants in MHz :           367.757720           143.068858           140.019800

                             ****ORCA TERMINATED NORMALLY****
TOTAL RUN TIME: 0 days 0 hours 1 minutes 58 seconds 400 msec
