                         Program Version 6.0.0  -   RELEASE  -
|  1> ! r2scan-3c def2/J RI DEFGRID2 scfconv6 printgap
|  2> %output
|  3>     printlevel normal
|  4> end
|  5> * xyz 0 1
|  6> C 0.1107024999 -1.7713081265 2.8569401134
|  7> C 1.4225883772 -1.7020896352 2.103128393
|  8> O 1.582198384 -0.3705173592 1.5673379727
|  9> P 2.3686543343 -0.0308125462 0.2355811553
| 10> S 3.1838996322 -1.5873484905 -0.6431525758
| 11> O 3.3295554263 1.0763547086 0.8364221001
| 12> C 3.9973564379 2.1044276392 0.0810000781
| 13> C 4.8236346814 1.551184432 -1.0618242721
| 14> S 1.0409172569 1.1136092959 -0.9668430667
| 15> C 0.3458735351 -0.2818027548 -1.8867290172
| 16> S -0.5832401648 -1.419153474 -0.826822362
| 17> P -2.0507721902 -0.0151636905 -0.2137106513
| 18> S -2.6577649283 1.223902324 -1.6116721575
| 19> O -1.3910395377 0.6436155862 1.0620772915
| 20> C -1.6048916687 2.0209887111 1.4213359534
| 21> C -2.9833830235 2.2165029244 2.0158342462
| 22> O -3.1375792244 -0.9414526403 0.4797023513
| 23> C -3.9807763196 -1.8499283733 -0.2571259052
| 24> C -5.2709163368 -1.1764705577 -0.6834822403
| 25> H 0.0086914252 -2.7590983183 3.294256779
| 26> H 0.0952208472 -1.0227034329 3.6435511046
| 27> H -0.7253353767 -1.5899273616 2.1858783155
| 28> H 1.4536472507 -2.4268193855 1.2825702562
| 29> H 2.269298347 -1.8857178104 2.7690437249
| 30> H 3.2418831171 2.8033085065 -0.289360858
| 31> H 4.6252701291 2.5990310283 0.8242998183
| 32> H 4.1763727675 1.0872805943 -1.8048410495
| 33> H 5.376917421 2.35879535 -1.5302080029
| 34> H 5.5209272753 0.8009030623 -0.6964895693
| 35> H 1.1510139038 -0.8636048227 -2.3354201577
| 36> H -0.315593729 0.1413691707 -2.6423020268
| 37> H -0.8117335357 2.2344209764 2.1393678363
| 38> H -1.4721342361 2.6430638057 0.5296403124
| 39> H -3.7389548556 1.9901114623 1.2641699508
| 40> H -3.1241897245 1.5541854229 2.8655976984
| 41> H -3.0981553558 3.2476348507 2.3345460197
| 42> H -3.4303038986 -2.2315908944 -1.12201697
| 43> H -4.1719127094 -2.6673663104 0.4406300012
| 44> H -5.9039198088 -1.9021524199 -1.1838605037
| 45> H -5.7920955939 -0.7837051811 0.1851068019
| 46> H -5.0627265106 -0.3570345351 -1.367864526
| 47> *
| 48>
| 49>                          ****END OF INPUT****

CARTESIAN COORDINATES (ANGSTROEM)
---------------------------------
  C      0.110702   -1.771308    2.856940
  C      1.422588   -1.702090    2.103128
  O      1.582198   -0.370517    1.567338
  P      2.368654   -0.030813    0.235581
  S      3.183900   -1.587348   -0.643153
  O      3.329555    1.076355    0.836422
  C      3.997356    2.104428    0.081000
  C      4.823635    1.551184   -1.061824
  S      1.040917    1.113609   -0.966843
  C      0.345874   -0.281803   -1.886729
  S     -0.583240   -1.419153   -0.826822
  P     -2.050772   -0.015164   -0.213711
  S     -2.657765    1.223902   -1.611672
  O     -1.391040    0.643616    1.062077
  C     -1.604892    2.020989    1.421336
  C     -2.983383    2.216503    2.015834
  O     -3.137579   -0.941453    0.479702
  C     -3.980776   -1.849928   -0.257126
  C     -5.270916   -1.176471   -0.683482
  H      0.008691   -2.759098    3.294257
  H      0.095221   -1.022703    3.643551
  H     -0.725335   -1.589927    2.185878
  H      1.453647   -2.426819    1.282570
  H      2.269298   -1.885718    2.769044
  H      3.241883    2.803309   -0.289361
  H      4.625270    2.599031    0.824300
  H      4.176373    1.087281   -1.804841
  H      5.376917    2.358795   -1.530208
  H      5.520927    0.800903   -0.696490
  H      1.151014   -0.863605   -2.335420
  H     -0.315594    0.141369   -2.642302
  H     -0.811734    2.234421    2.139368
  H     -1.472134    2.643064    0.529640
  H     -3.738955    1.990111    1.264170
  H     -3.124190    1.554185    2.865598
  H     -3.098155    3.247635    2.334546
  H     -3.430304   -2.231591   -1.122017
  H     -4.171913   -2.667366    0.440630
  H     -5.903920   -1.902152   -1.183861
  H     -5.792096   -0.783705    0.185107
  H     -5.062727   -0.357035   -1.367865

 Total Charge           Charge          ....    0
 Multiplicity           Mult            ....    1
 Number of Electrons    NEL             ....  202
 Basis Dimension        Dim             ....  539

ORBITAL ENERGIES
----------------

  NO   OCC          E(Eh)            E(eV)
   0   2.0000     -88.577659     -2410.3207
   1   2.0000     -88.576004     -2410.2756
   2   2.0000     -88.524118     -2408.8637
   3   2.0000     -88.517117     -2408.6732
   4   2.0000     -76.917161     -2093.0224
   5   2.0000     -76.912691     -2092.9007
   6   2.0000     -18.997124      -516.9380
   7   2.0000     -18.990707      -516.7634
   8   2.0000     -18.989918      -516.7419
   9   2.0000     -18.983175      -516.5585
  10   2.0000     -10.106273      -275.0057
  11   2.0000     -10.104758      -274.9644
  12   2.0000     -10.102949      -274.9152
  13   2.0000     -10.096183      -274.7311
  14   2.0000     -10.089544      -274.5504
  15   2.0000     -10.028811      -272.8978
  16   2.0000     -10.028042      -272.8769
  17   2.0000     -10.026650      -272.8390
  18   2.0000     -10.021898      -272.7097
  19   2.0000      -7.871946      -214.2065
  20   2.0000      -7.870339      -214.1628
  21   2.0000      -7.818948      -212.7644
  22   2.0000      -7.812007      -212.5755
  23   2.0000      -6.595606      -179.4756
  24   2.0000      -6.590842      -179.3459
  25   2.0000      -5.818746      -158.3361
  26   2.0000      -5.817162      -158.2930
  27   2.0000      -5.815797      -158.2559
  28   2.0000      -5.814142      -158.2109
  29   2.0000      -5.809161      -158.0753
  30   2.0000      -5.807571      -158.0320
  31   2.0000      -5.766547      -156.9157
  32   2.0000      -5.759690      -156.7291
  33   2.0000      -5.759163      -156.7148
  34   2.0000      -5.759059      -156.7120
  35   2.0000      -5.752306      -156.5282
  36   2.0000      -5.751946      -156.5184
  37   2.0000      -4.740977      -129.0085
  38   2.0000      -4.740580      -128.9977
  39   2.0000      -4.739421      -128.9662
  40   2.0000      -4.736284      -128.8808
  41   2.0000      -4.735932      -128.8713
  42   2.0000      -4.734512      -128.8326
  43   2.0000      -1.053447       -28.6658
  44   2.0000      -1.046850       -28.4862
  45   2.0000      -1.013670       -27.5834
  46   2.0000      -1.004821       -27.3426
  47   2.0000      -0.804311       -21.8864
  48   2.0000      -0.758978       -20.6528
  49   2.0000      -0.749896       -20.4057
  50   2.0000      -0.731639       -19.9089
  51   2.0000      -0.726972       -19.7819
  52   2.0000      -0.710576       -19.3358
  53   2.0000      -0.686214       -18.6728
  54   2.0000      -0.670472       -18.2445
  55   2.0000      -0.631463       -17.1830
  56   2.0000      -0.624964       -17.0061
  57   2.0000      -0.606422       -16.5016
  58   2.0000      -0.601028       -16.3548
  59   2.0000      -0.590802       -16.0765
  60   2.0000      -0.529678       -14.4133
  61   2.0000      -0.520822       -14.1723
  62   2.0000      -0.497638       -13.5414
  63   2.0000      -0.487891       -13.2762
  64   2.0000      -0.476644       -12.9702
  65   2.0000      -0.461119       -12.5477
  66   2.0000      -0.458925       -12.4880
  67   2.0000      -0.448912       -12.2155
  68   2.0000      -0.441112       -12.0033
  69   2.0000      -0.434929       -11.8350
  70   2.0000      -0.425075       -11.5669
  71   2.0000      -0.417663       -11.3652
  72   2.0000      -0.410788       -11.1781
  73   2.0000      -0.406740       -11.0680
  74   2.0000      -0.399066       -10.8591
  75   2.0000      -0.393443       -10.7061
  76   2.0000      -0.381867       -10.3911
  77   2.0000      -0.368861       -10.0372
  78   2.0000      -0.363761        -9.8984
  79   2.0000      -0.363052        -9.8792
  80   2.0000      -0.362247        -9.8572
  81   2.0000      -0.359734        -9.7889
  82   2.0000      -0.353503        -9.6193
  83   2.0000      -0.352351        -9.5880
  84   2.0000      -0.342714        -9.3257
  85   2.0000      -0.338576        -9.2131
  86   2.0000      -0.324848        -8.8396
  87   2.0000      -0.314948        -8.5702
  88   2.0000      -0.310535        -8.4501
  89   2.0000      -0.303567        -8.2605
  90   2.0000      -0.299143        -8.1401
  91   2.0000      -0.292076        -7.9478
  92   2.0000      -0.286266        -7.7897
  93   2.0000      -0.282894        -7.6979
  94   2.0000      -0.267564        -7.2808
  95   2.0000      -0.246423        -6.7055
  96   2.0000      -0.232137        -6.3168
  97   2.0000      -0.227149        -6.1810
  98   2.0000      -0.221221        -6.0197
  99   2.0000      -0.212278        -5.7764
 100   2.0000      -0.211225        -5.7477
 101   0.0000      -0.050267        -1.3678
 102   0.0000      -0.026250        -0.7143
 103   0.0000      -0.004630        -0.1260
 104   0.0000      -0.002129        -0.0579
 105   0.0000       0.009921         0.2700

MULLIKEN ATOMIC CHARGES
-----------------------
   0 C :   -0.466498
   1 C :   -0.104226
   2 O :   -0.275161
   3 P :    0.671967
   4 S :   -0.463819
   5 O :   -0.300711
   6 C :   -0.149609
   7 C :   -0.425202
   8 S :   -0.151941
   9 C :   -0.224229
  10 S :   -0.154252
  11 P :    0.699738
  12 S :   -0.483120
  13 O :   -0.243953
  14 C :   -0.157296
  15 C :   -0.445448
  16 O :   -0.308374
  17 C :   -0.137197
  18 C :   -0.452221
  19 H :    0.142876
  20 H :    0.147458
  21 H :    0.169012
  22 H :    0.170920
  23 H :    0.147111
  24 H :    0.150793
  25 H :    0.150446
  26 H :    0.168427
  27 H :    0.146643
  28 H :    0.164521
  29 H :    0.212210
  30 H :    0.212871
  31 H :    0.159910
  32 H :    0.173019
  33 H :    0.166378
  34 H :    0.155601
  35 H :    0.147427
  36 H :    0.154214
  37 H :    0.151475
  38 H :    0.146180
  39 H :    0.152541
  40 H :    0.181519
Sum of atomic charges:    0.0000000

LOEWDIN ATOMIC CHARGES
----------------------
   0 C :   -0.392578
   1 C :    0.014178
   2 O :   -0.653927
   3 P :    0.386545
   4 S :   -0.130129
   5 O :   -0.651898
   6 C :    0.023066
   7 C :   -0.406548
   8 S :    0.160134
   9 C :   -0.420828
  10 S :    0.163383
  11 P :    0.377422
  12 S :   -0.127142
  13 O :   -0.673765
  14 C :    0.015245
  15 C :   -0.398287
  16 O :   -0.659361
  17 C :    0.022943
  18 C :   -0.401377
  19 H :    0.157521
  20 H :    0.158950
  21 H :    0.168584
  22 H :    0.181988
  23 H :    0.172036
  24 H :    0.171470
  25 H :    0.181720
  26 H :    0.165869
  27 H :    0.157921
  28 H :    0.165507
  29 H :    0.191646
  30 H :    0.190131
  31 H :    0.182217
  32 H :    0.181626
  33 H :    0.164653
  34 H :    0.159555
  35 H :    0.159657
  36 H :    0.175797
  37 H :    0.179689
  38 H :    0.158498
  39 H :    0.158717
  40 H :    0.169174

  Mayer bond orders larger than 0.100000
B(  0-C ,  1-C ) :   0.9363 B(  0-C , 19-H ) :   0.9680 B(  0-C , 20-H ) :   0.9681
B(  0-C , 21-H ) :   0.9665 B(  1-C ,  2-O ) :   0.7535 B(  1-C , 22-H ) :   0.9602
B(  1-C , 23-H ) :   0.9453 B(  2-O ,  3-P ) :   1.1598 B(  3-P ,  4-S ) :   1.7813
B(  3-P ,  5-O ) :   1.1206 B(  3-P ,  8-S ) :   1.0175 B(  5-O ,  6-C ) :   0.8078
B(  6-C ,  7-C ) :   0.9406 B(  6-C , 24-H ) :   0.9628 B(  6-C , 25-H ) :   0.9586
B(  7-C , 26-H ) :   0.9543 B(  7-C , 27-H ) :   0.9629 B(  7-C , 28-H ) :   0.9662
B(  8-S ,  9-C ) :   0.9007 B(  9-C , 10-S ) :   0.8954 B(  9-C , 29-H ) :   0.9071
B(  9-C , 30-H ) :   0.9098 B( 10-S , 11-P ) :   1.0705 B( 11-P , 12-S ) :   1.7570
B( 11-P , 13-O ) :   1.1231 B( 11-P , 16-O ) :   1.0607 B( 13-O , 14-C ) :   0.7670
B( 14-C , 15-C ) :   0.9224 B( 14-C , 31-H ) :   0.9632 B( 14-C , 32-H ) :   0.9564
B( 15-C , 33-H ) :   0.9603 B( 15-C , 34-H ) :   0.9751 B( 15-C , 35-H ) :   0.9644
B( 16-O , 17-C ) :   0.7835 B( 17-C , 18-C ) :   0.9562 B( 17-C , 36-H ) :   0.9623
B( 17-C , 37-H ) :   0.9624 B( 18-C , 38-H ) :   0.9644 B( 18-C , 39-H ) :   0.9743
B( 18-C , 40-H ) :   0.9559

Dispersion correction           -0.022105913
FINAL SINGLE POINT ENERGY     -2932.461348217581

DIPOLE MOMENT
-------------

Method             : SCF
Type of density    : Electron Density
Multiplicity       :   1
Irrep              :   0
Energy             : -2932.4858040034355326 Eh
Relativity type    :
Basis              : AO
                                X                 Y                 Z
Electronic contribution:      8.920906877      -2.536042637      -9.525040352
Nuclear contribution   :     -9.433193349       2.853218286      10.275483126
                        -----------------------------------------
Total Dipole Moment    :     -0.512286472       0.317175649       0.750442774
                        -----------------------------------------
Magnitude (a.u.)       :      0.962393983
Magnitude (Debye)      :      2.446211101

Rotational constants in cm-1:             0.013258             0.005056             0.004894
Rotational constants in MHz :           397.452216           151.576766           146.724241

                             ****ORCA TERMINATED NORMALLY****
TOTAL RUN TIME: 0 days 0 hours 1 minutes 21 seconds 806 msec
