                         Program Version 6.0.0  -   RELEASE  -
|  1> ! r2scan-3c def2/J RI DEFGRID2 scfconv6 printgap
|  2> %output
|  3>     printlevel normal
|  4> end
|  5> %cpcm
|  6>     smd true
|  7>     smdsolvent "water"
|  8> end
|  9> * xyz 0 1
| 10> C 0.1107024999 -1.7713081265 2.8569401134
| 11> C 1.4225883772 -1.7020896352 2.103128393
| 12> O 1.582198384 -0.3705173592 1.5673379727
| 13> P 2.3686543343 -0.0308125462 0.2355811553
| 14> S 3.1838996322 -1.5873484905 -0.6431525758
| 15> O 3.3295554263 1.0763547086 0.8364221001
| 16> C 3.9973564379 2.1044276392 0.0810000781
| 17> C 4.8236346814 1.551184432 -1.0618242721
| 18> S 1.0409172569 1.1136092959 -0.9668430667
| 19> C 0.3458735351 -0.2818027548 -1.8867290172
| 20> S -0.5832401648 -1.419153474 -0.826822362
| 21> P -2.0507721902 -0.0151636905 -0.2137106513
| 22> S -2.6577649283 1.223902324 -1.6116721575
| 23> O -1.3910395377 0.6436155862 1.0620772915
| 24> C -1.6048916687 2.0209887111 1.4213359534
| 25> C -2.9833830235 2.2165029244 2.0158342462
| 26> O -3.1375792244 -0.9414526403 0.4797023513
| 27> C -3.9807763196 -1.8499283733 -0.2571259052
| 28> C -5.2709163368 -1.1764705577 -0.6834822403
| 29> H 0.0086914252 -2.7590983183 3.294256779
| 30> H 0.0952208472 -1.0227034329 3.6435511046
| 31> H -0.7253353767 -1.5899273616 2.1858783155
| 32> H 1.4536472507 -2.4268193855 1.2825702562
| 33> H 2.269298347 -1.8857178104 2.7690437249
| 34> H 3.2418831171 2.8033085065 -0.289360858
| 35> H 4.6252701291 2.5990310283 0.8242998183
| 36> H 4.1763727675 1.0872805943 -1.8048410495
| 37> H 5.376917421 2.35879535 -1.5302080029
| 38> H 5.5209272753 0.8009030623 -0.6964895693
| 39> H 1.1510139038 -0.8636048227 -2.3354201577
| 40> H -0.315593729 0.1413691707 -2.6423020268
| 41> H -0.8117335357 2.2344209764 2.1393678363
| 42> H -1.4721342361 2.6430638057 0.5296403124
| 43> H -3.7389548556 1.9901114623 1.2641699508
| 44> H -3.1241897245 1.5541854229 2.8655976984
| 45> H -3.0981553558 3.2476348507 2.3345460197
| 46> H -3.4303038986 -2.2315908944 -1.12201697
| 47> H -4.1719127094 -2.6673663104 0.4406300012
| 48> H -5.9039198088 -1.9021524199 -1.1838605037
| 49> H -5.7920955939 -0.7837051811 0.1851068019
| 50> H -5.0627265106 -0.3570345351 -1.367864526
| 51> *
| 52>
| 53>                          ****END OF INPUT****

CARTESIAN COORDINATES (ANGSTROEM)
---------------------------------
  C      0.110702   -1.771308    2.856940
  C      1.422588   -1.702090    2.103128
  O      1.582198   -0.370517    1.567338
  P      2.368654   -0.030813    0.235581
  S      3.183900   -1.587348   -0.643153
  O      3.329555    1.076355    0.836422
  C      3.997356    2.104428    0.081000
  C      4.823635    1.551184   -1.061824
  S      1.040917    1.113609   -0.966843
  C      0.345874   -0.281803   -1.886729
  S     -0.583240   -1.419153   -0.826822
  P     -2.050772   -0.015164   -0.213711
  S     -2.657765    1.223902   -1.611672
  O     -1.391040    0.643616    1.062077
  C     -1.604892    2.020989    1.421336
  C     -2.983383    2.216503    2.015834
  O     -3.137579   -0.941453    0.479702
  C     -3.980776   -1.849928   -0.257126
  C     -5.270916   -1.176471   -0.683482
  H      0.008691   -2.759098    3.294257
  H      0.095221   -1.022703    3.643551
  H     -0.725335   -1.589927    2.185878
  H      1.453647   -2.426819    1.282570
  H      2.269298   -1.885718    2.769044
  H      3.241883    2.803309   -0.289361
  H      4.625270    2.599031    0.824300
  H      4.176373    1.087281   -1.804841
  H      5.376917    2.358795   -1.530208
  H      5.520927    0.800903   -0.696490
  H      1.151014   -0.863605   -2.335420
  H     -0.315594    0.141369   -2.642302
  H     -0.811734    2.234421    2.139368
  H     -1.472134    2.643064    0.529640
  H     -3.738955    1.990111    1.264170
  H     -3.124190    1.554185    2.865598
  H     -3.098155    3.247635    2.334546
  H     -3.430304   -2.231591   -1.122017
  H     -4.171913   -2.667366    0.440630
  H     -5.903920   -1.902152   -1.183861
  H     -5.792096   -0.783705    0.185107
  H     -5.062727   -0.357035   -1.367865

 Total Charge           Charge          ....    0
 Multiplicity           Mult            ....    1
 Number of Electrons    NEL             ....  202
 Basis Dimension        Dim             ....  539

ORBITAL ENERGIES
----------------

  NO   OCC          E(Eh)            E(eV)
   0   2.0000     -88.580139     -2410.3881
   1   2.0000     -88.579927     -2410.3824
   2   2.0000     -88.529238     -2409.0030
   3   2.0000     -88.526531     -2408.9294
   4   2.0000     -76.920727     -2093.1194
   5   2.0000     -76.920165     -2093.1041
   6   2.0000     -18.997270      -516.9420
   7   2.0000     -18.995444      -516.8923
   8   2.0000     -18.993091      -516.8283
   9   2.0000     -18.991580      -516.7872
  10   2.0000     -10.105349      -274.9805
  11   2.0000     -10.093235      -274.6509
  12   2.0000     -10.092405      -274.6283
  13   2.0000     -10.089213      -274.5414
  14   2.0000     -10.087805      -274.5031
  15   2.0000     -10.018613      -272.6203
  16   2.0000     -10.018322      -272.6124
  17   2.0000     -10.017164      -272.5809
  18   2.0000     -10.016982      -272.5759
  19   2.0000      -7.874452      -214.2747
  20   2.0000      -7.874221      -214.2684
  21   2.0000      -7.824324      -212.9107
  22   2.0000      -7.821709      -212.8395
  23   2.0000      -6.599199      -179.5733
  24   2.0000      -6.598404      -179.5517
  25   2.0000      -5.821235      -158.4039
  26   2.0000      -5.821061      -158.3991
  27   2.0000      -5.818299      -158.3240
  28   2.0000      -5.818020      -158.3164
  29   2.0000      -5.811690      -158.1441
  30   2.0000      -5.811450      -158.1376
  31   2.0000      -5.771879      -157.0608
  32   2.0000      -5.769327      -156.9914
  33   2.0000      -5.764538      -156.8611
  34   2.0000      -5.764431      -156.8582
  35   2.0000      -5.762036      -156.7930
  36   2.0000      -5.761628      -156.7819
  37   2.0000      -4.744532      -129.1053
  38   2.0000      -4.744187      -129.0959
  39   2.0000      -4.743817      -129.0858
  40   2.0000      -4.743513      -129.0775
  41   2.0000      -4.743063      -129.0653
  42   2.0000      -4.742103      -129.0392
  43   2.0000      -1.054785       -28.7021
  44   2.0000      -1.052810       -28.6484
  45   2.0000      -1.014485       -27.6055
  46   2.0000      -1.010690       -27.5023
  47   2.0000      -0.806125       -21.9358
  48   2.0000      -0.757023       -20.5996
  49   2.0000      -0.745463       -20.2851
  50   2.0000      -0.722900       -19.6711
  51   2.0000      -0.721971       -19.6458
  52   2.0000      -0.710881       -19.3440
  53   2.0000      -0.689957       -18.7747
  54   2.0000      -0.675993       -18.3947
  55   2.0000      -0.630120       -17.1464
  56   2.0000      -0.623364       -16.9626
  57   2.0000      -0.602036       -16.3822
  58   2.0000      -0.595568       -16.2062
  59   2.0000      -0.589718       -16.0471
  60   2.0000      -0.527479       -14.3534
  61   2.0000      -0.518352       -14.1051
  62   2.0000      -0.494423       -13.4539
  63   2.0000      -0.487532       -13.2664
  64   2.0000      -0.476786       -12.9740
  65   2.0000      -0.458358       -12.4725
  66   2.0000      -0.454521       -12.3681
  67   2.0000      -0.444933       -12.1072
  68   2.0000      -0.440965       -11.9993
  69   2.0000      -0.434766       -11.8306
  70   2.0000      -0.420588       -11.4448
  71   2.0000      -0.416400       -11.3308
  72   2.0000      -0.410156       -11.1609
  73   2.0000      -0.403111       -10.9692
  74   2.0000      -0.399859       -10.8807
  75   2.0000      -0.390945       -10.6382
  76   2.0000      -0.379762       -10.3339
  77   2.0000      -0.364168        -9.9095
  78   2.0000      -0.360123        -9.7994
  79   2.0000      -0.357920        -9.7395
  80   2.0000      -0.355413        -9.6713
  81   2.0000      -0.353057        -9.6072
  82   2.0000      -0.350457        -9.5364
  83   2.0000      -0.346494        -9.4286
  84   2.0000      -0.340454        -9.2642
  85   2.0000      -0.336859        -9.1664
  86   2.0000      -0.323795        -8.8109
  87   2.0000      -0.309823        -8.4307
  88   2.0000      -0.307148        -8.3579
  89   2.0000      -0.304038        -8.2733
  90   2.0000      -0.300117        -8.1666
  91   2.0000      -0.291677        -7.9369
  92   2.0000      -0.287283        -7.8174
  93   2.0000      -0.283328        -7.7097
  94   2.0000      -0.270681        -7.3656
  95   2.0000      -0.249868        -6.7993
  96   2.0000      -0.237457        -6.4615
  97   2.0000      -0.234130        -6.3710
  98   2.0000      -0.226928        -6.1750
  99   2.0000      -0.220109        -5.9895
 100   2.0000      -0.219316        -5.9679
 101   0.0000      -0.054467        -1.4821
 102   0.0000      -0.031820        -0.8659
 103   0.0000      -0.008831        -0.2403
 104   0.0000      -0.005861        -0.1595
 105   0.0000       0.009418         0.2563

MULLIKEN ATOMIC CHARGES
-----------------------
   0 C :   -0.512465
   1 C :   -0.098850
   2 O :   -0.309619
   3 P :    0.702500
   4 S :   -0.508060
   5 O :   -0.334040
   6 C :   -0.149947
   7 C :   -0.465413
   8 S :   -0.153872
   9 C :   -0.234305
  10 S :   -0.163204
  11 P :    0.726711
  12 S :   -0.521191
  13 O :   -0.274355
  14 C :   -0.148314
  15 C :   -0.486507
  16 O :   -0.335385
  17 C :   -0.129227
  18 C :   -0.490647
  19 H :    0.169223
  20 H :    0.167347
  21 H :    0.166598
  22 H :    0.171779
  23 H :    0.170593
  24 H :    0.171244
  25 H :    0.177293
  26 H :    0.165925
  27 H :    0.173588
  28 H :    0.170008
  29 H :    0.231164
  30 H :    0.234586
  31 H :    0.181488
  32 H :    0.175707
  33 H :    0.165539
  34 H :    0.170083
  35 H :    0.172500
  36 H :    0.164342
  37 H :    0.177837
  38 H :    0.170393
  39 H :    0.167920
  40 H :    0.171036
Sum of atomic charges:    0.0000000

LOEWDIN ATOMIC CHARGES
----------------------
   0 C :   -0.396368
   1 C :    0.016477
   2 O :   -0.673591
   3 P :    0.389140
   4 S :   -0.159430
   5 O :   -0.668302
   6 C :    0.029586
   7 C :   -0.409975
   8 S :    0.162477
   9 C :   -0.414649
  10 S :    0.160131
  11 P :    0.382038
  12 S :   -0.151077
  13 O :   -0.691317
  14 C :    0.018981
  15 C :   -0.401532
  16 O :   -0.670829
  17 C :    0.029129
  18 C :   -0.405522
  19 H :    0.168110
  20 H :    0.163492
  21 H :    0.165472
  22 H :    0.182492
  23 H :    0.180866
  24 H :    0.179458
  25 H :    0.193197
  26 H :    0.161836
  27 H :    0.168241
  28 H :    0.164346
  29 H :    0.197549
  30 H :    0.196916
  31 H :    0.190762
  32 H :    0.182649
  33 H :    0.162233
  34 H :    0.163629
  35 H :    0.168891
  36 H :    0.180184
  37 H :    0.191082
  38 H :    0.167625
  39 H :    0.162644
  40 H :    0.162958

  Mayer bond orders larger than 0.100000
B(  0-C ,  1-C ) :   0.9268 B(  0-C , 19-H ) :   0.9608 B(  0-C , 20-H ) :   0.9663
B(  0-C , 21-H ) :   0.9666 B(  1-C ,  2-O ) :   0.7466 B(  1-C , 22-H ) :   0.9567
B(  1-C , 23-H ) :   0.9366 B(  2-O ,  3-P ) :   1.1540 B(  3-P ,  4-S ) :   1.7488
B(  3-P ,  5-O ) :   1.1263 B(  3-P ,  8-S ) :   1.0368 B(  5-O ,  6-C ) :   0.7983
B(  6-C ,  7-C ) :   0.9216 B(  6-C , 24-H ) :   0.9573 B(  6-C , 25-H ) :   0.9487
B(  7-C , 26-H ) :   0.9567 B(  7-C , 27-H ) :   0.9566 B(  7-C , 28-H ) :   0.9672
B(  8-S ,  9-C ) :   0.8899 B(  9-C , 10-S ) :   0.8863 B(  9-C , 29-H ) :   0.9022
B(  9-C , 30-H ) :   0.9037 B( 10-S , 11-P ) :   1.0795 B( 11-P , 12-S ) :   1.7287
B( 11-P , 13-O ) :   1.1266 B( 11-P , 16-O ) :   1.0670 B( 13-O , 14-C ) :   0.7556
B( 14-C , 15-C ) :   0.9149 B( 14-C , 31-H ) :   0.9535 B( 14-C , 32-H ) :   0.9517
B( 15-C , 33-H ) :   0.9603 B( 15-C , 34-H ) :   0.9731 B( 15-C , 35-H ) :   0.9584
B( 16-O , 17-C ) :   0.7724 B( 17-C , 18-C ) :   0.9446 B( 17-C , 36-H ) :   0.9555
B( 17-C , 37-H ) :   0.9525 B( 18-C , 38-H ) :   0.9592 B( 18-C , 39-H ) :   0.9720
B( 18-C , 40-H ) :   0.9603

Dispersion correction           -0.022105913
FINAL SINGLE POINT ENERGY     -2932.469189117716

DIPOLE MOMENT
-------------

Method             : SCF
Type of density    : Electron Density
Multiplicity       :   1
Irrep              :   0
Energy             : -2932.4936449035708392 Eh
Relativity type    :
Basis              : AO
                                X                 Y                 Z
Electronic contribution:      8.811359762      -2.466632003      -9.420825457
Nuclear contribution   :     -9.433193349       2.853218286      10.275483126
                        -----------------------------------------
Total Dipole Moment    :     -0.621833587       0.386586283       0.854657669
                        -----------------------------------------
Magnitude (a.u.)       :      1.125418009
Magnitude (Debye)      :      2.860585244

Rotational constants in cm-1:             0.013258             0.005056             0.004894
Rotational constants in MHz :           397.452216           151.576766           146.724241

                             ****ORCA TERMINATED NORMALLY****
TOTAL RUN TIME: 0 days 0 hours 1 minutes 58 seconds 43 msec
