                         Program Version 6.0.1  -  RELEASE   -
|  1> ! pbe def2-sv(p) def2/J RI DEFGRID1 loosescf d4 GCP(DFT/SV(P)) printgap
|  2> %output
|  3>     printlevel normal
|  4> end
|  5> * xyz 0 1
|  6> C 2.2390375517 -4.5819642572 -0.1184311594
|  7> C 1.9927731204 -3.5697302998 -1.2219258446
|  8> O 1.780174568 -2.2748298254 -0.6242455443
|  9> C 2.241890339 -1.2061671853 -1.2366802043
| 10> O 2.8368679189 -1.2146640355 -2.2914593736
| 11> C 1.898432846 0.0599023348 -0.4734715937
| 12> C 0.7217715622 0.7443194757 -1.1712149298
| 13> H 0.9878016516 0.9538314 -2.2125042382
| 14> C 0.3229819169 2.0486747707 -0.5005897867
| 15> O -0.826706244 2.2980916317 -0.1985617694
| 16> O 1.3443101355 2.8400609848 -0.3343243587
| 17> C 1.1443564299 4.0956805525 0.3529426151
| 18> C 1.4306555283 3.9306614305 1.83599657
| 19> S -0.7511174849 -0.3203064487 -1.2701942772
| 20> P -1.5825150352 -0.0746233828 0.6812705179
| 21> S -0.442325048 0.4325857683 2.1893613869
| 22> O -2.9238877814 0.7520289503 0.5944012569
| 23> C -3.9390155704 0.4912809872 -0.3928019249
| 24> O -2.2016766803 -1.5469395679 0.8720498576
| 25> C -1.3550912612 -2.6740045978 1.1121955205
| 26> H 2.3709865924 -5.5642600457 -0.5596141624
| 27> H 3.1327581623 -4.3197013177 0.4404497215
| 28> H 1.3945148712 -4.6056850138 0.5641131298
| 29> H 1.0934856114 -3.8137542456 -1.7947043744
| 30> H 2.8417810523 -3.4975903448 -1.9078860507
| 31> H 2.7524255636 0.7373437648 -0.4968825625
| 32> H 1.6419289958 -0.1885847823 0.5575666837
| 33> H 1.84985903 4.7804032114 -0.1178933972
| 34> H 0.1158835021 4.4258980221 0.1861629646
| 35> H 0.7576142057 3.192945282 2.2699370717
| 36> H 2.4532191096 3.5982650375 1.9881959306
| 37> H 1.282783261 4.8809017791 2.3378542024
| 38> H -3.5245676923 0.6170071748 -1.3930700325
| 39> H -4.7119609358 1.2314169059 -0.2030666762
| 40> H -4.32638968 -0.5186824052 -0.2699499196
| 41> H -0.7344358578 -2.4921679223 1.991202824
| 42> H -0.7190645932 -2.8546327339 0.2455837505
| 43> H -2.0253080241 -3.5123831877 1.2822987702
| 44> *
| 45>
| 46>                          ****END OF INPUT****

CARTESIAN COORDINATES (ANGSTROEM)
---------------------------------
  C      2.239038   -4.581964   -0.118431
  C      1.992773   -3.569730   -1.221926
  O      1.780175   -2.274830   -0.624246
  C      2.241890   -1.206167   -1.236680
  O      2.836868   -1.214664   -2.291459
  C      1.898433    0.059902   -0.473472
  C      0.721772    0.744319   -1.171215
  H      0.987802    0.953831   -2.212504
  C      0.322982    2.048675   -0.500590
  O     -0.826706    2.298092   -0.198562
  O      1.344310    2.840061   -0.334324
  C      1.144356    4.095681    0.352943
  C      1.430656    3.930661    1.835997
  S     -0.751117   -0.320306   -1.270194
  P     -1.582515   -0.074623    0.681271
  S     -0.442325    0.432586    2.189361
  O     -2.923888    0.752029    0.594401
  C     -3.939016    0.491281   -0.392802
  O     -2.201677   -1.546940    0.872050
  C     -1.355091   -2.674005    1.112196
  H      2.370987   -5.564260   -0.559614
  H      3.132758   -4.319701    0.440450
  H      1.394515   -4.605685    0.564113
  H      1.093486   -3.813754   -1.794704
  H      2.841781   -3.497590   -1.907886
  H      2.752426    0.737344   -0.496883
  H      1.641929   -0.188585    0.557567
  H      1.849859    4.780403   -0.117893
  H      0.115884    4.425898    0.186163
  H      0.757614    3.192945    2.269937
  H      2.453219    3.598265    1.988196
  H      1.282783    4.880902    2.337854
  H     -3.524568    0.617007   -1.393070
  H     -4.711961    1.231417   -0.203067
  H     -4.326390   -0.518682   -0.269950
  H     -0.734436   -2.492168    1.991203
  H     -0.719065   -2.854633    0.245584
  H     -2.025308   -3.512383    1.282299

 Total Charge           Charge          ....    0
 Multiplicity           Mult            ....    1
 Number of Electrons    NEL             ....  174
 Basis Dimension        Dim             ....  316

ORBITAL ENERGIES
----------------

  NO   OCC          E(Eh)            E(eV)
   0   2.0000     -88.039409     -2395.6741
   1   2.0000     -87.979697     -2394.0493
   2   2.0000     -76.424003     -2079.6028
   3   2.0000     -18.818350      -512.0733
   4   2.0000     -18.804680      -511.7014
   5   2.0000     -18.785489      -511.1792
   6   2.0000     -18.784521      -511.1528
   7   2.0000     -18.747551      -510.1468
   8   2.0000     -18.738540      -509.9016
   9   2.0000     -10.024006      -272.7671
  10   2.0000     -10.009574      -272.3744
  11   2.0000      -9.953959      -270.8610
  12   2.0000      -9.953341      -270.8442
  13   2.0000      -9.949634      -270.7433
  14   2.0000      -9.944117      -270.5932
  15   2.0000      -9.938092      -270.4292
  16   2.0000      -9.904527      -269.5159
  17   2.0000      -9.893057      -269.2038
  18   2.0000      -9.884362      -268.9672
  19   2.0000      -7.684010      -209.0925
  20   2.0000      -7.624824      -207.4820
  21   2.0000      -6.420161      -174.7015
  22   2.0000      -5.711988      -155.4311
  23   2.0000      -5.708534      -155.3371
  24   2.0000      -5.700896      -155.1293
  25   2.0000      -5.653960      -153.8521
  26   2.0000      -5.645502      -153.6219
  27   2.0000      -5.644592      -153.5972
  28   2.0000      -4.642928      -126.3405
  29   2.0000      -4.642195      -126.3205
  30   2.0000      -4.640534      -126.2753
  31   2.0000      -1.026697       -27.9379
  32   2.0000      -1.011956       -27.5367
  33   2.0000      -0.980144       -26.6711
  34   2.0000      -0.935498       -25.4562
  35   2.0000      -0.929191       -25.2846
  36   2.0000      -0.916085       -24.9279
  37   2.0000      -0.767271       -20.8785
  38   2.0000      -0.714653       -19.4467
  39   2.0000      -0.709832       -19.3155
  40   2.0000      -0.690459       -18.7883
  41   2.0000      -0.657517       -17.8919
  42   2.0000      -0.630311       -17.1516
  43   2.0000      -0.624951       -17.0058
  44   2.0000      -0.617823       -16.8118
  45   2.0000      -0.592075       -16.1112
  46   2.0000      -0.564921       -15.3723
  47   2.0000      -0.515095       -14.0164
  48   2.0000      -0.509975       -13.8771
  49   2.0000      -0.500847       -13.6287
  50   2.0000      -0.488180       -13.2841
  51   2.0000      -0.469306       -12.7705
  52   2.0000      -0.456237       -12.4148
  53   2.0000      -0.449856       -12.2412
  54   2.0000      -0.440240       -11.9795
  55   2.0000      -0.428465       -11.6591
  56   2.0000      -0.426660       -11.6100
  57   2.0000      -0.417363       -11.3570
  58   2.0000      -0.409545       -11.1443
  59   2.0000      -0.408976       -11.1288
  60   2.0000      -0.407820       -11.0974
  61   2.0000      -0.398668       -10.8483
  62   2.0000      -0.393698       -10.7131
  63   2.0000      -0.387589       -10.5468
  64   2.0000      -0.376099       -10.2342
  65   2.0000      -0.365236        -9.9386
  66   2.0000      -0.361032        -9.8242
  67   2.0000      -0.357160        -9.7188
  68   2.0000      -0.348839        -9.4924
  69   2.0000      -0.340467        -9.2646
  70   2.0000      -0.335365        -9.1257
  71   2.0000      -0.331495        -9.0204
  72   2.0000      -0.325153        -8.8479
  73   2.0000      -0.312387        -8.5005
  74   2.0000      -0.303068        -8.2469
  75   2.0000      -0.299718        -8.1557
  76   2.0000      -0.295870        -8.0510
  77   2.0000      -0.290145        -7.8953
  78   2.0000      -0.271761        -7.3950
  79   2.0000      -0.265266        -7.2183
  80   2.0000      -0.262710        -7.1487
  81   2.0000      -0.254995        -6.9388
  82   2.0000      -0.240185        -6.5358
  83   2.0000      -0.223329        -6.0771
  84   2.0000      -0.220220        -5.9925
  85   2.0000      -0.197657        -5.3785
  86   2.0000      -0.193632        -5.2690
  87   0.0000      -0.044463        -1.2099
  88   0.0000      -0.034539        -0.9399
  89   0.0000      -0.017378        -0.4729
  90   0.0000       0.002535         0.0690
  91   0.0000       0.022805         0.6206

MULLIKEN ATOMIC CHARGES
-----------------------
   0 C :   -0.285376
   1 C :   -0.027631
   2 O :   -0.225506
   3 C :    0.110783
   4 O :   -0.202256
   5 C :   -0.056483
   6 C :   -0.332726
   7 H :    0.159741
   8 C :    0.214790
   9 O :   -0.181718
  10 O :   -0.220783
  11 C :   -0.014224
  12 C :   -0.310627
  13 S :   -0.097665
  14 P :    0.620795
  15 S :   -0.318065
  16 O :   -0.352628
  17 C :   -0.103746
  18 O :   -0.392459
  19 C :   -0.120123
  20 H :    0.113660
  21 H :    0.117155
  22 H :    0.114071
  23 H :    0.107398
  24 H :    0.119070
  25 H :    0.116525
  26 H :    0.114550
  27 H :    0.106834
  28 H :    0.116933
  29 H :    0.145969
  30 H :    0.113177
  31 H :    0.112592
  32 H :    0.121278
  33 H :    0.131001
  34 H :    0.121121
  35 H :    0.117290
  36 H :    0.128499
  37 H :    0.118785
Sum of atomic charges:    0.0000000

LOEWDIN ATOMIC CHARGES
----------------------
   0 C :   -0.350249
   1 C :   -0.112106
   2 O :   -0.053946
   3 C :    0.021425
   4 O :   -0.169361
   5 C :   -0.255141
   6 C :   -0.257687
   7 H :    0.154562
   8 C :    0.012545
   9 O :   -0.159290
  10 O :   -0.037490
  11 C :   -0.105977
  12 C :   -0.357985
  13 S :    0.100897
  14 P :    0.591122
  15 S :   -0.305076
  16 O :   -0.229843
  17 C :   -0.208324
  18 O :   -0.265578
  19 C :   -0.223705
  20 H :    0.131263
  21 H :    0.128346
  22 H :    0.123928
  23 H :    0.116364
  24 H :    0.121650
  25 H :    0.144364
  26 H :    0.127402
  27 H :    0.119409
  28 H :    0.123972
  29 H :    0.131658
  30 H :    0.124984
  31 H :    0.131218
  32 H :    0.111263
  33 H :    0.126488
  34 H :    0.114132
  35 H :    0.110429
  36 H :    0.105199
  37 H :    0.119139

  Mayer bond orders larger than 0.100000
B(  0-C ,  1-C ) :   1.1660 B(  0-C , 20-H ) :   0.9440 B(  0-C , 21-H ) :   0.9498
B(  0-C , 22-H ) :   0.9497 B(  1-C ,  2-O ) :   0.8953 B(  1-C , 23-H ) :   0.9303
B(  1-C , 24-H ) :   0.9120 B(  2-O ,  3-C ) :   1.2230 B(  3-C ,  4-O ) :   2.0680
B(  3-C ,  5-C ) :   1.0002 B(  5-C ,  6-C ) :   1.0663 B(  5-C , 25-H ) :   0.8731
B(  5-C , 26-H ) :   0.8746 B(  6-C ,  7-H ) :   0.8571 B(  6-C ,  8-C ) :   0.9054
B(  6-C , 13-S ) :   1.0284 B(  8-C ,  9-O ) :   2.0067 B(  8-C , 10-O ) :   1.2736
B( 10-O , 11-C ) :   0.8949 B( 11-C , 12-C ) :   1.1805 B( 11-C , 27-H ) :   0.9364
B( 11-C , 28-H ) :   0.9104 B( 12-C , 29-H ) :   0.9310 B( 12-C , 30-H ) :   0.9491
B( 12-C , 31-H ) :   0.9414 B( 13-S , 14-P ) :   0.9374 B( 13-S , 15-S ) :   0.1133
B( 14-P , 15-S ) :   1.5960 B( 14-P , 16-O ) :   1.1411 B( 14-P , 18-O ) :   1.0539
B( 16-O , 17-C ) :   0.9213 B( 17-C , 32-H ) :   0.9398 B( 17-C , 33-H ) :   0.9597
B( 17-C , 34-H ) :   0.9465 B( 18-O , 19-C ) :   0.9370 B( 19-C , 35-H ) :   0.9368
B( 19-C , 36-H ) :   0.9332 B( 19-C , 37-H ) :   0.9561

Dispersion correction           -0.052742219
FINAL SINGLE POINT ENERGY     -1979.016301629435

DIPOLE MOMENT
-------------

Method             : SCF
Type of density    : Electron Density
Multiplicity       :   1
Irrep              :   0
Energy             : -1979.1456708540404179 Eh
Relativity type    :
Basis              : AO
                                X                 Y                 Z
Electronic contribution:     -7.716491322       6.084947469      -2.438968259
Nuclear contribution   :      7.671856220      -6.443685186       2.063324683
                        -----------------------------------------
Total Dipole Moment    :     -0.044635102      -0.358737717      -0.375643576
                        -----------------------------------------
Magnitude (a.u.)       :      0.521337835
Magnitude (Debye)      :      1.325135466

Rotational constants in cm-1:             0.011458             0.008258             0.006060
Rotational constants in MHz :           343.509581           247.566688           181.680165

                             ****ORCA TERMINATED NORMALLY****
TOTAL RUN TIME: 0 days 0 hours 0 minutes 44 seconds 367 msec
