                         Program Version 6.0.0  -   RELEASE  -
|  1> ! pbe def2-sv(p) def2/J RI DEFGRID1 loosescf d4 GCP(DFT/SV(P)) printgap
|  2> %output
|  3>     printlevel normal
|  4> end
|  5> * xyz 0 1
|  6> C 1.818073118 0.2651320066 -3.4923861281
|  7> C 2.5285276032 0.2966063547 -2.1556877045
|  8> O 1.7692818543 -0.5109009504 -1.2313590731
|  9> P 2.0809322371 -0.5095872759 0.3255555953
| 10> S 2.487667673 1.2523975078 1.0967887422
| 11> O 3.2683936696 -1.5717938742 0.3463035045
| 12> C 3.7323484506 -2.3100429052 1.4921139095
| 13> C 3.9939863508 -1.4375798419 2.7017608057
| 14> S 0.4520506825 -1.5811574532 1.1026071657
| 15> C -0.5184822687 -0.2216657065 1.8539449852
| 16> S -2.2562975533 -0.2428522796 1.3619204414
| 17> P -2.1380459806 0.687115939 -0.5507851976
| 18> S -0.5197219165 1.7601069675 -0.8697528697
| 19> O -3.511135092 1.4497546125 -0.7039093936
| 20> C -3.6836492953 2.812914884 -0.2777769043
| 21> C -3.6222674123 2.9584201102 1.2297868154
| 22> O -2.4695384601 -0.4185105566 -1.6339755973
| 23> C -1.5817221371 -1.4913474279 -2.0022210014
| 24> C -1.9876231898 -2.785135551 -1.3222001596
| 25> H 0.8280898234 0.7038775141 -3.394255679
| 26> H 2.3912287268 0.8402589503 -4.2120234951
| 27> H 1.7217939265 -0.7598446068 -3.8385137494
| 28> H 2.5849426352 1.3156364741 -1.757244713
| 29> H 3.5365543813 -0.120060211 -2.2235264456
| 30> H 2.9864299481 -3.0761449748 1.7209929661
| 31> H 4.649907733 -2.7824479119 1.1363877058
| 32> H 4.6839966819 -0.6351868339 2.451144703
| 33> H 3.0651109096 -0.9913699351 3.053977615
| 34> H 4.4196716371 -2.0435612361 3.4950866951
| 35> H -0.0522109394 0.726632086 1.5723762169
| 36> H -0.5139065826 -0.3598547466 2.9316555117
| 37> H -2.9139006421 3.4278295453 -0.7556292393
| 38> H -4.6660433783 3.0830785755 -0.6676208381
| 39> H -2.6099659014 2.7673147173 1.5836824083
| 40> H -3.9022141397 3.9708983053 1.5029638282
| 41> H -4.3008516368 2.2545149171 1.7047667061
| 42> H -1.6826148529 -1.5711084246 -3.0868306029
| 43> H -0.5491888487 -1.2172320839 -1.7616653836
| 44> H -1.3703316449 -3.5925196731 -1.7028218968
| 45> H -1.8512483586 -2.7188016746 -0.2451712862
| 46> H -3.0318165688 -2.9979516534 -1.53245413
| 47> *
| 48>
| 49>                          ****END OF INPUT****

CARTESIAN COORDINATES (ANGSTROEM)
---------------------------------
  C      1.818073    0.265132   -3.492386
  C      2.528528    0.296606   -2.155688
  O      1.769282   -0.510901   -1.231359
  P      2.080932   -0.509587    0.325556
  S      2.487668    1.252398    1.096789
  O      3.268394   -1.571794    0.346304
  C      3.732348   -2.310043    1.492114
  C      3.993986   -1.437580    2.701761
  S      0.452051   -1.581157    1.102607
  C     -0.518482   -0.221666    1.853945
  S     -2.256298   -0.242852    1.361920
  P     -2.138046    0.687116   -0.550785
  S     -0.519722    1.760107   -0.869753
  O     -3.511135    1.449755   -0.703909
  C     -3.683649    2.812915   -0.277777
  C     -3.622267    2.958420    1.229787
  O     -2.469538   -0.418511   -1.633976
  C     -1.581722   -1.491347   -2.002221
  C     -1.987623   -2.785136   -1.322200
  H      0.828090    0.703878   -3.394256
  H      2.391229    0.840259   -4.212023
  H      1.721794   -0.759845   -3.838514
  H      2.584943    1.315636   -1.757245
  H      3.536554   -0.120060   -2.223526
  H      2.986430   -3.076145    1.720993
  H      4.649908   -2.782448    1.136388
  H      4.683997   -0.635187    2.451145
  H      3.065111   -0.991370    3.053978
  H      4.419672   -2.043561    3.495087
  H     -0.052211    0.726632    1.572376
  H     -0.513907   -0.359855    2.931656
  H     -2.913901    3.427830   -0.755629
  H     -4.666043    3.083079   -0.667621
  H     -2.609966    2.767315    1.583682
  H     -3.902214    3.970898    1.502964
  H     -4.300852    2.254515    1.704767
  H     -1.682615   -1.571108   -3.086831
  H     -0.549189   -1.217232   -1.761665
  H     -1.370332   -3.592520   -1.702822
  H     -1.851248   -2.718802   -0.245171
  H     -3.031817   -2.997952   -1.532454

 Total Charge           Charge          ....    0
 Multiplicity           Mult            ....    1
 Number of Electrons    NEL             ....  202
 Basis Dimension        Dim             ....  334

ORBITAL ENERGIES
----------------

  NO   OCC          E(Eh)            E(eV)
   0   2.0000     -88.049223     -2395.9412
   1   2.0000     -88.048165     -2395.9124
   2   2.0000     -87.986947     -2394.2465
   3   2.0000     -87.982529     -2394.1263
   4   2.0000     -76.425968     -2079.6563
   5   2.0000     -76.425663     -2079.6480
   6   2.0000     -18.790186      -511.3070
   7   2.0000     -18.789724      -511.2944
   8   2.0000     -18.784589      -511.1547
   9   2.0000     -18.784557      -511.1538
  10   2.0000      -9.958755      -270.9915
  11   2.0000      -9.956391      -270.9272
  12   2.0000      -9.951893      -270.8048
  13   2.0000      -9.945631      -270.6344
  14   2.0000      -9.944680      -270.6085
  15   2.0000      -9.883306      -268.9384
  16   2.0000      -9.882756      -268.9235
  17   2.0000      -9.878574      -268.8097
  18   2.0000      -9.877406      -268.7779
  19   2.0000      -7.694129      -209.3679
  20   2.0000      -7.693017      -209.3376
  21   2.0000      -7.631478      -207.6631
  22   2.0000      -7.627540      -207.5559
  23   2.0000      -6.423307      -174.7871
  24   2.0000      -6.422859      -174.7749
  25   2.0000      -5.721895      -155.7007
  26   2.0000      -5.720963      -155.6753
  27   2.0000      -5.718520      -155.6088
  28   2.0000      -5.717294      -155.5755
  29   2.0000      -5.711306      -155.4125
  30   2.0000      -5.710169      -155.3816
  31   2.0000      -5.660296      -154.0245
  32   2.0000      -5.656520      -153.9217
  33   2.0000      -5.652051      -153.8001
  34   2.0000      -5.651830      -153.7941
  35   2.0000      -5.648367      -153.6999
  36   2.0000      -5.647425      -153.6742
  37   2.0000      -4.645507      -126.4107
  38   2.0000      -4.645349      -126.4064
  39   2.0000      -4.645277      -126.4044
  40   2.0000      -4.644809      -126.3917
  41   2.0000      -4.643807      -126.3644
  42   2.0000      -4.643335      -126.3516
  43   2.0000      -0.987081       -26.8598
  44   2.0000      -0.982678       -26.7400
  45   2.0000      -0.941447       -25.6181
  46   2.0000      -0.939287       -25.5593
  47   2.0000      -0.764850       -20.8126
  48   2.0000      -0.721314       -19.6280
  49   2.0000      -0.709819       -19.3152
  50   2.0000      -0.686173       -18.6717
  51   2.0000      -0.681063       -18.5327
  52   2.0000      -0.676317       -18.4035
  53   2.0000      -0.650246       -17.6941
  54   2.0000      -0.635032       -17.2801
  55   2.0000      -0.602166       -16.3858
  56   2.0000      -0.590227       -16.0609
  57   2.0000      -0.572787       -15.5863
  58   2.0000      -0.563545       -15.3348
  59   2.0000      -0.558148       -15.1880
  60   2.0000      -0.502822       -13.6825
  61   2.0000      -0.493598       -13.4315
  62   2.0000      -0.469030       -12.7630
  63   2.0000      -0.467118       -12.7109
  64   2.0000      -0.454911       -12.3788
  65   2.0000      -0.450524       -12.2594
  66   2.0000      -0.436767       -11.8850
  67   2.0000      -0.428472       -11.6593
  68   2.0000      -0.424715       -11.5571
  69   2.0000      -0.417082       -11.3494
  70   2.0000      -0.414138       -11.2693
  71   2.0000      -0.408669       -11.1205
  72   2.0000      -0.389849       -10.6083
  73   2.0000      -0.386386       -10.5141
  74   2.0000      -0.381319       -10.3762
  75   2.0000      -0.369511       -10.0549
  76   2.0000      -0.364470        -9.9177
  77   2.0000      -0.354409        -9.6440
  78   2.0000      -0.349039        -9.4978
  79   2.0000      -0.347623        -9.4593
  80   2.0000      -0.345959        -9.4140
  81   2.0000      -0.340844        -9.2748
  82   2.0000      -0.338901        -9.2220
  83   2.0000      -0.333483        -9.0745
  84   2.0000      -0.328724        -8.9450
  85   2.0000      -0.316100        -8.6015
  86   2.0000      -0.311288        -8.4706
  87   2.0000      -0.300081        -8.1656
  88   2.0000      -0.294953        -8.0261
  89   2.0000      -0.291363        -7.9284
  90   2.0000      -0.283487        -7.7141
  91   2.0000      -0.268463        -7.3053
  92   2.0000      -0.267423        -7.2769
  93   2.0000      -0.261061        -7.1038
  94   2.0000      -0.259171        -7.0524
  95   2.0000      -0.239338        -6.5127
  96   2.0000      -0.222128        -6.0444
  97   2.0000      -0.214227        -5.8294
  98   2.0000      -0.205089        -5.5808
  99   2.0000      -0.198786        -5.4092
 100   2.0000      -0.186740        -5.0814
 101   0.0000      -0.045332        -1.2335
 102   0.0000      -0.037718        -1.0264
 103   0.0000      -0.017991        -0.4896
 104   0.0000       0.009599         0.2612
 105   0.0000       0.012986         0.3534

MULLIKEN ATOMIC CHARGES
-----------------------
   0 C :   -0.293178
   1 C :   -0.003479
   2 O :   -0.361668
   3 P :    0.622223
   4 S :   -0.316434
   5 O :   -0.381515
   6 C :   -0.002846
   7 C :   -0.309469
   8 S :   -0.115080
   9 C :   -0.346226
  10 S :   -0.106609
  11 P :    0.590793
  12 S :   -0.309190
  13 O :   -0.357023
  14 C :    0.000025
  15 C :   -0.316621
  16 O :   -0.354264
  17 C :   -0.044649
  18 C :   -0.290068
  19 H :    0.133060
  20 H :    0.109123
  21 H :    0.108338
  22 H :    0.112820
  23 H :    0.099196
  24 H :    0.107593
  25 H :    0.107009
  26 H :    0.127635
  27 H :    0.119324
  28 H :    0.109586
  29 H :    0.214745
  30 H :    0.183476
  31 H :    0.112803
  32 H :    0.107461
  33 H :    0.126161
  34 H :    0.113387
  35 H :    0.118363
  36 H :    0.104357
  37 H :    0.141160
  38 H :    0.104836
  39 H :    0.124133
  40 H :    0.110711
Sum of atomic charges:   -0.0000000

LOEWDIN ATOMIC CHARGES
----------------------
   0 C :   -0.355499
   1 C :   -0.116619
   2 O :   -0.242068
   3 P :    0.569965
   4 S :   -0.304907
   5 O :   -0.251280
   6 C :   -0.113631
   7 C :   -0.370160
   8 S :    0.083246
   9 C :   -0.477559
  10 S :    0.084040
  11 P :    0.564088
  12 S :   -0.294135
  13 O :   -0.233321
  14 C :   -0.116553
  15 C :   -0.369678
  16 O :   -0.236081
  17 C :   -0.122742
  18 C :   -0.362712
  19 H :    0.126247
  20 H :    0.129554
  21 H :    0.122237
  22 H :    0.109909
  23 H :    0.109740
  24 H :    0.108022
  25 H :    0.120378
  26 H :    0.129519
  27 H :    0.118745
  28 H :    0.128898
  29 H :    0.126107
  30 H :    0.136770
  31 H :    0.111776
  32 H :    0.120082
  33 H :    0.120880
  34 H :    0.131045
  35 H :    0.124247
  36 H :    0.118327
  37 H :    0.109526
  38 H :    0.128283
  39 H :    0.111174
  40 H :    0.124141

  Mayer bond orders larger than 0.100000
B(  0-C ,  1-C ) :   1.1626 B(  0-C , 19-H ) :   0.9396 B(  0-C , 20-H ) :   0.9415
B(  0-C , 21-H ) :   0.9490 B(  1-C ,  2-O ) :   0.8995 B(  1-C , 22-H ) :   0.9124
B(  1-C , 23-H ) :   0.9301 B(  2-O ,  3-P ) :   1.1175 B(  3-P ,  4-S ) :   1.6196
B(  3-P ,  5-O ) :   1.1015 B(  3-P ,  8-S ) :   0.9638 B(  4-S ,  8-S ) :   0.1176
B(  5-O ,  6-C ) :   0.9180 B(  6-C ,  7-C ) :   1.1645 B(  6-C , 24-H ) :   0.9292
B(  6-C , 25-H ) :   0.9346 B(  7-C , 26-H ) :   0.9417 B(  7-C , 27-H ) :   0.9351
B(  7-C , 28-H ) :   0.9343 B(  8-S ,  9-C ) :   0.9803 B(  9-C , 10-S ) :   1.0218
B(  9-C , 29-H ) :   0.8430 B(  9-C , 30-H ) :   0.9081 B( 10-S , 11-P ) :   0.9184
B( 10-S , 12-S ) :   0.1171 B( 11-P , 12-S ) :   1.6279 B( 11-P , 13-O ) :   1.1313
B( 11-P , 16-O ) :   1.1366 B( 13-O , 14-C ) :   0.9105 B( 14-C , 15-C ) :   1.1650
B( 14-C , 31-H ) :   0.9166 B( 14-C , 32-H ) :   0.9343 B( 15-C , 33-H ) :   0.9374
B( 15-C , 34-H ) :   0.9378 B( 15-C , 35-H ) :   0.9439 B( 16-O , 17-C ) :   0.9015
B( 17-C , 18-C ) :   1.1674 B( 17-C , 36-H ) :   0.9348 B( 17-C , 37-H ) :   0.8912
B( 18-C , 38-H ) :   0.9407 B( 18-C , 39-H ) :   0.9314 B( 18-C , 40-H ) :   0.9460

Dispersion correction           -0.067210017
FINAL SINGLE POINT ENERGY     -2929.520533141914

DIPOLE MOMENT
-------------

Method             : SCF
Type of density    : Electron Density
Multiplicity       :   1
Irrep              :   0
Energy             : -2929.6380323488974682 Eh
Relativity type    :
Basis              : AO
                                X                 Y                 Z
Electronic contribution:     -3.229318015       2.968822682       3.824344722
Nuclear contribution   :      3.244095047      -3.751175598      -3.700283549
                        -----------------------------------------
Total Dipole Moment    :      0.014777033      -0.782352917       0.124061173
                        -----------------------------------------
Magnitude (a.u.)       :      0.792266131
Magnitude (Debye)      :      2.013780466

Rotational constants in cm-1:             0.011723             0.005361             0.005170
Rotational constants in MHz :           351.444348           160.725274           154.990316

                             ****ORCA TERMINATED NORMALLY****
TOTAL RUN TIME: 0 days 0 hours 0 minutes 21 seconds 653 msec
