                         Program Version 6.0.0  -   RELEASE  -
|  1> ! pbe def2-sv(p) def2/J RI DEFGRID1 loosescf d4 GCP(DFT/SV(P)) printgap
|  2> %output
|  3>     printlevel normal
|  4> end
|  5> * xyz 0 1
|  6> C 3.7839434163 -1.140090643 -2.1019013988
|  7> C 2.6398472991 -0.206145172 -2.4290360459
|  8> O 2.363917371 0.7350807344 -1.3659381321
|  9> P 2.0731658569 0.3999073569 0.1419102643
| 10> S 1.1390895404 1.8380793015 1.0874130953
| 11> O 3.5585573806 0.173552599 0.6835235834
| 12> C 3.9196828415 0.2598571703 2.0697307881
| 13> C 3.3285803449 -0.8658639183 2.8951567278
| 14> S 1.1647879232 -1.524212059 0.2076245037
| 15> C -0.1894671005 -1.1987407678 1.3792330583
| 16> S -1.8443750745 -1.4753537421 0.6954705259
| 17> P -2.0439987031 0.256889787 -0.5151031985
| 18> S -0.7615736675 0.5091652912 -1.9727710284
| 19> O -2.0648617558 1.4956970643 0.456752123
| 20> C -3.0446209189 1.7145822443 1.505832503
| 21> C -2.4759831194 1.345101843 2.8619001364
| 22> O -3.5620342036 0.1645237295 -0.9822553054
| 23> C -3.9701670288 -0.5439895568 -2.1664807275
| 24> C -3.7393777203 -2.0365225481 -2.0513372294
| 25> H 3.5167912009 -1.7854529019 -1.2665112539
| 26> H 3.9944467276 -1.756344232 -2.9704029178
| 27> H 4.6704165337 -0.5690754727 -1.8381203292
| 28> H 1.7177880259 -0.7558615148 -2.6388480156
| 29> H 2.8711402963 0.4419864693 -3.2756553182
| 30> H 5.0097589919 0.2176183272 2.0551900917
| 31> H 3.5913296324 1.2315752117 2.4529059331
| 32> H 3.5425417293 -1.8263102529 2.4335200207
| 33> H 3.7589817514 -0.8407960811 3.8910835583
| 34> H 2.2503124474 -0.7403878494 2.9753274545
| 35> H -0.1024457931 -0.1625310725 1.7207246987
| 36> H -0.0958372564 -1.9058610153 2.1993000197
| 37> H -3.2548038691 2.7836500702 1.4469682532
| 38> H -3.9466562892 1.1457614366 1.2740738952
| 39> H -1.4974336986 1.8049903872 2.9847887451
| 40> H -3.141722241 1.7155193423 3.6348947663
| 41> H -2.3819015085 0.2669402834 2.9641746572
| 42> H -5.030385567 -0.3034399159 -2.2571414892
| 43> H -3.4202412106 -0.1334346978 -3.0190122455
| 44> H -4.1899105407 -2.4213275723 -1.1398349189
| 45> H -4.1793152498 -2.5331115543 -2.9101659133
| 46> H -2.6709755011 -2.247019171 -2.0323423475
| 47> *
| 48>
| 49>                          ****END OF INPUT****

CARTESIAN COORDINATES (ANGSTROEM)
---------------------------------
  C      3.783943   -1.140091   -2.101901
  C      2.639847   -0.206145   -2.429036
  O      2.363917    0.735081   -1.365938
  P      2.073166    0.399907    0.141910
  S      1.139090    1.838079    1.087413
  O      3.558557    0.173553    0.683524
  C      3.919683    0.259857    2.069731
  C      3.328580   -0.865864    2.895157
  S      1.164788   -1.524212    0.207625
  C     -0.189467   -1.198741    1.379233
  S     -1.844375   -1.475354    0.695471
  P     -2.043999    0.256890   -0.515103
  S     -0.761574    0.509165   -1.972771
  O     -2.064862    1.495697    0.456752
  C     -3.044621    1.714582    1.505833
  C     -2.475983    1.345102    2.861900
  O     -3.562034    0.164524   -0.982255
  C     -3.970167   -0.543990   -2.166481
  C     -3.739378   -2.036523   -2.051337
  H      3.516791   -1.785453   -1.266511
  H      3.994447   -1.756344   -2.970403
  H      4.670417   -0.569075   -1.838120
  H      1.717788   -0.755862   -2.638848
  H      2.871140    0.441986   -3.275655
  H      5.009759    0.217618    2.055190
  H      3.591330    1.231575    2.452906
  H      3.542542   -1.826310    2.433520
  H      3.758982   -0.840796    3.891084
  H      2.250312   -0.740388    2.975327
  H     -0.102446   -0.162531    1.720725
  H     -0.095837   -1.905861    2.199300
  H     -3.254804    2.783650    1.446968
  H     -3.946656    1.145761    1.274074
  H     -1.497434    1.804990    2.984789
  H     -3.141722    1.715519    3.634895
  H     -2.381902    0.266940    2.964175
  H     -5.030386   -0.303440   -2.257141
  H     -3.420241   -0.133435   -3.019012
  H     -4.189911   -2.421328   -1.139835
  H     -4.179315   -2.533112   -2.910166
  H     -2.670976   -2.247019   -2.032342

 Total Charge           Charge          ....    0
 Multiplicity           Mult            ....    1
 Number of Electrons    NEL             ....  202
 Basis Dimension        Dim             ....  334

ORBITAL ENERGIES
----------------

  NO   OCC          E(Eh)            E(eV)
   0   2.0000     -88.042382     -2395.7550
   1   2.0000     -88.039194     -2395.6683
   2   2.0000     -87.979088     -2394.0327
   3   2.0000     -87.977533     -2393.9904
   4   2.0000     -76.421406     -2079.5322
   5   2.0000     -76.420063     -2079.4956
   6   2.0000     -18.789571      -511.2902
   7   2.0000     -18.784122      -511.1420
   8   2.0000     -18.782849      -511.1073
   9   2.0000     -18.778905      -511.0000
  10   2.0000      -9.956122      -270.9199
  11   2.0000      -9.952542      -270.8224
  12   2.0000      -9.951905      -270.8051
  13   2.0000      -9.948807      -270.7208
  14   2.0000      -9.946732      -270.6643
  15   2.0000      -9.884330      -268.9663
  16   2.0000      -9.884190      -268.9625
  17   2.0000      -9.883687      -268.9488
  18   2.0000      -9.883127      -268.9336
  19   2.0000      -7.687431      -209.1856
  20   2.0000      -7.683895      -209.0894
  21   2.0000      -7.624168      -207.4641
  22   2.0000      -7.622437      -207.4171
  23   2.0000      -6.418818      -174.6649
  24   2.0000      -6.417151      -174.6196
  25   2.0000      -5.715074      -155.5151
  26   2.0000      -5.711941      -155.4298
  27   2.0000      -5.711790      -155.4257
  28   2.0000      -5.708457      -155.3350
  29   2.0000      -5.704623      -155.2307
  30   2.0000      -5.700841      -155.1278
  31   2.0000      -5.653084      -153.8282
  32   2.0000      -5.651435      -153.7834
  33   2.0000      -5.645072      -153.6102
  34   2.0000      -5.643965      -153.5801
  35   2.0000      -5.643059      -153.5555
  36   2.0000      -5.642522      -153.5408
  37   2.0000      -4.641847      -126.3111
  38   2.0000      -4.640562      -126.2761
  39   2.0000      -4.639744      -126.2538
  40   2.0000      -4.638915      -126.2313
  41   2.0000      -4.638902      -126.2309
  42   2.0000      -4.637671      -126.1974
  43   2.0000      -0.983567       -26.7642
  44   2.0000      -0.977825       -26.6080
  45   2.0000      -0.940205       -25.5843
  46   2.0000      -0.935117       -25.4458
  47   2.0000      -0.759654       -20.6712
  48   2.0000      -0.716052       -19.4848
  49   2.0000      -0.708302       -19.2739
  50   2.0000      -0.687750       -18.7146
  51   2.0000      -0.685393       -18.6505
  52   2.0000      -0.677298       -18.4302
  53   2.0000      -0.647698       -17.6248
  54   2.0000      -0.631001       -17.1704
  55   2.0000      -0.596874       -16.2418
  56   2.0000      -0.587678       -15.9915
  57   2.0000      -0.574332       -15.6284
  58   2.0000      -0.569761       -15.5040
  59   2.0000      -0.560883       -15.2624
  60   2.0000      -0.498519       -13.5654
  61   2.0000      -0.487268       -13.2592
  62   2.0000      -0.469100       -12.7649
  63   2.0000      -0.464267       -12.6333
  64   2.0000      -0.453030       -12.3276
  65   2.0000      -0.446027       -12.1370
  66   2.0000      -0.440833       -11.9957
  67   2.0000      -0.434503       -11.8234
  68   2.0000      -0.428381       -11.6568
  69   2.0000      -0.422626       -11.5002
  70   2.0000      -0.411531       -11.1983
  71   2.0000      -0.393935       -10.7195
  72   2.0000      -0.390615       -10.6292
  73   2.0000      -0.383914       -10.4468
  74   2.0000      -0.376118       -10.2347
  75   2.0000      -0.366638        -9.9767
  76   2.0000      -0.364658        -9.9228
  77   2.0000      -0.354190        -9.6380
  78   2.0000      -0.353435        -9.6175
  79   2.0000      -0.349434        -9.5086
  80   2.0000      -0.348726        -9.4893
  81   2.0000      -0.342905        -9.3309
  82   2.0000      -0.341832        -9.3017
  83   2.0000      -0.335303        -9.1241
  84   2.0000      -0.333832        -9.0840
  85   2.0000      -0.314510        -8.5583
  86   2.0000      -0.305386        -8.3100
  87   2.0000      -0.295943        -8.0530
  88   2.0000      -0.290036        -7.8923
  89   2.0000      -0.287733        -7.8296
  90   2.0000      -0.284398        -7.7389
  91   2.0000      -0.267643        -7.2829
  92   2.0000      -0.265057        -7.2126
  93   2.0000      -0.258008        -7.0208
  94   2.0000      -0.255373        -6.9490
  95   2.0000      -0.238286        -6.4841
  96   2.0000      -0.215969        -5.8768
  97   2.0000      -0.201514        -5.4835
  98   2.0000      -0.199254        -5.4220
  99   2.0000      -0.187313        -5.0970
 100   2.0000      -0.184811        -5.0290
 101   0.0000      -0.038089        -1.0364
 102   0.0000      -0.029584        -0.8050
 103   0.0000      -0.012828        -0.3491
 104   0.0000       0.003584         0.0975
 105   0.0000       0.023206         0.6315

MULLIKEN ATOMIC CHARGES
-----------------------
   0 C :   -0.315069
   1 C :   -0.008145
   2 O :   -0.351383
   3 P :    0.601290
   4 S :   -0.300819
   5 O :   -0.375062
   6 C :    0.003705
   7 C :   -0.319522
   8 S :   -0.103038
   9 C :   -0.373012
  10 S :   -0.105575
  11 P :    0.606853
  12 S :   -0.303800
  13 O :   -0.346878
  14 C :   -0.009300
  15 C :   -0.307647
  16 O :   -0.384656
  17 C :    0.002146
  18 C :   -0.325750
  19 H :    0.125069
  20 H :    0.113768
  21 H :    0.123575
  22 H :    0.125870
  23 H :    0.110602
  24 H :    0.101676
  25 H :    0.108904
  26 H :    0.118065
  27 H :    0.110457
  28 H :    0.119060
  29 H :    0.209674
  30 H :    0.183941
  31 H :    0.112098
  32 H :    0.107073
  33 H :    0.137102
  34 H :    0.109549
  35 H :    0.117479
  36 H :    0.103909
  37 H :    0.112827
  38 H :    0.118173
  39 H :    0.114667
  40 H :    0.132124
Sum of atomic charges:   -0.0000000

LOEWDIN ATOMIC CHARGES
----------------------
   0 C :   -0.367285
   1 C :   -0.115510
   2 O :   -0.223911
   3 P :    0.574608
   4 S :   -0.294352
   5 O :   -0.251067
   6 C :   -0.119085
   7 C :   -0.369663
   8 S :    0.071540
   9 C :   -0.487190
  10 S :    0.073454
  11 P :    0.566047
  12 S :   -0.299451
  13 O :   -0.228701
  14 C :   -0.108992
  15 C :   -0.366515
  16 O :   -0.250039
  17 C :   -0.117081
  18 C :   -0.373453
  19 H :    0.115858
  20 H :    0.131827
  21 H :    0.129443
  22 H :    0.109757
  23 H :    0.123883
  24 H :    0.117335
  25 H :    0.109226
  26 H :    0.124073
  27 H :    0.129355
  28 H :    0.118006
  29 H :    0.121043
  30 H :    0.135782
  31 H :    0.123569
  32 H :    0.110628
  33 H :    0.131261
  34 H :    0.129435
  35 H :    0.117254
  36 H :    0.118154
  37 H :    0.112757
  38 H :    0.122804
  39 H :    0.132090
  40 H :    0.123106

  Mayer bond orders larger than 0.100000
B(  0-C ,  1-C ) :   1.1663 B(  0-C , 19-H ) :   0.9370 B(  0-C , 20-H ) :   0.9354
B(  0-C , 21-H ) :   0.9418 B(  1-C ,  2-O ) :   0.8980 B(  1-C , 22-H ) :   0.9133
B(  1-C , 23-H ) :   0.9344 B(  2-O ,  3-P ) :   1.1572 B(  3-P ,  4-S ) :   1.6090
B(  3-P ,  5-O ) :   1.0701 B(  3-P ,  8-S ) :   0.9406 B(  4-S ,  8-S ) :   0.1132
B(  4-S , 29-H ) :   0.1166 B(  5-O ,  6-C ) :   0.9250 B(  6-C ,  7-C ) :   1.1620
B(  6-C , 24-H ) :   0.9344 B(  6-C , 25-H ) :   0.9139 B(  7-C , 26-H ) :   0.9431
B(  7-C , 27-H ) :   0.9378 B(  7-C , 28-H ) :   0.9375 B(  8-S ,  9-C ) :   1.0089
B(  9-C , 10-S ) :   0.9882 B(  9-C , 29-H ) :   0.8314 B(  9-C , 30-H ) :   0.9074
B( 10-S , 11-P ) :   0.9477 B( 10-S , 12-S ) :   0.1122 B( 11-P , 12-S ) :   1.6525
B( 11-P , 13-O ) :   1.1423 B( 11-P , 16-O ) :   1.0794 B( 13-O , 14-C ) :   0.8964
B( 14-C , 15-C ) :   1.1699 B( 14-C , 31-H ) :   0.9348 B( 14-C , 32-H ) :   0.9191
B( 15-C , 33-H ) :   0.9351 B( 15-C , 34-H ) :   0.9380 B( 15-C , 35-H ) :   0.9332
B( 16-O , 17-C ) :   0.9069 B( 17-C , 18-C ) :   1.1657 B( 17-C , 36-H ) :   0.9339
B( 17-C , 37-H ) :   0.9163 B( 18-C , 38-H ) :   0.9428 B( 18-C , 39-H ) :   0.9372
B( 18-C , 40-H ) :   0.9328

Dispersion correction           -0.068824388
FINAL SINGLE POINT ENERGY     -2929.510852033502

DIPOLE MOMENT
-------------

Method             : SCF
Type of density    : Electron Density
Multiplicity       :   1
Irrep              :   0
Energy             : -2929.6280644513508378 Eh
Relativity type    :
Basis              : AO
                                X                 Y                 Z
Electronic contribution:     -1.299708614       7.293321119      -6.016637215
Nuclear contribution   :      0.936376612      -8.385153345       6.586647735
                        -----------------------------------------
Total Dipole Moment    :     -0.363332002      -1.091832226       0.570010520
                        -----------------------------------------
Magnitude (a.u.)       :      1.284141638
Magnitude (Debye)      :      3.264028646

Rotational constants in cm-1:             0.012049             0.005784             0.004987
Rotational constants in MHz :           361.215675           173.389502           149.497289

                             ****ORCA TERMINATED NORMALLY****
TOTAL RUN TIME: 0 days 0 hours 0 minutes 23 seconds 285 msec
