                         Program Version 6.0.0  -   RELEASE  -
|  1> ! pbe def2-sv(p) def2/J RI DEFGRID1 loosescf d4 GCP(DFT/SV(P)) printgap
|  2> %output
|  3>     printlevel normal
|  4> end
|  5> * xyz 0 1
|  6> C 2.8258915369 2.1209059626 -1.8054344091
|  7> C 3.2956061718 1.5262824722 -0.4942114656
|  8> O 2.1641798195 1.3945743749 0.4064657598
|  9> P 1.8040195526 0.0110286449 1.0763850211
| 10> S 0.2747529349 0.0970913416 2.2907752974
| 11> O 3.1937396251 -0.3233768936 1.7897513933
| 12> C 3.3182780771 -1.2839027232 2.8510186893
| 13> C 2.9822883193 -2.6929219025 2.4059196942
| 14> S 1.7252622101 -1.3940264992 -0.5290568268
| 15> C 0.0210188043 -1.9821804954 -0.3750573935
| 16> S -1.0482119828 -1.4835316207 -1.7671242296
| 17> P -1.9477976661 0.2393194005 -0.9860902358
| 18> S -3.396610134 1.0063324546 -2.0576677171
| 19> O -0.6500838048 1.1331252194 -0.7464679816
| 20> C -0.7923678276 2.4940660321 -0.2757624478
| 21> C -0.8718808775 3.4688400731 -1.432736773
| 22> O -2.3778905651 -0.0918509229 0.515038648
| 23> C -3.6932343985 -0.5642565205 0.8446643308
| 24> C -3.8816766066 -2.0164883649 0.4542135749
| 25> H 3.6704118312 2.2020156068 -2.4823347608
| 26> H 2.0684845357 1.4834088677 -2.2568330158
| 27> H 2.4034576254 3.1078661912 -1.6389948305
| 28> H 4.0086146133 2.1794705616 0.0111454888
| 29> H 3.747756204 0.5429253703 -0.6463900131
| 30> H 4.3619233828 -1.19670185 3.1565177258
| 31> H 2.6639385768 -0.974670958 3.6719037339
| 32> H 1.9188512263 -2.7683167645 2.1835993139
| 33> H 3.5503580971 -2.9570516856 1.517585315
| 34> H 3.2219579257 -3.3855672936 3.2063477568
| 35> H -0.4007569884 -1.6053752362 0.5601936385
| 36> H 0.046799811 -3.0679194125 -0.4019356579
| 37> H -1.6794187023 2.5575347651 0.3604990345
| 38> H 0.0968033671 2.665827772 0.3341188503
| 39> H -1.7807414334 3.3027506229 -2.0068680889
| 40> H -0.8801153546 4.481252155 -1.0414678276
| 41> H -0.0166185679 3.3413922645 -2.0901992722
| 42> H -3.7604565081 -0.4219283098 1.9243411938
| 43> H -4.4264161818 0.0707358892 0.3361284498
| 44> H -4.8640274585 -2.3472816248 0.7754968323
| 45> H -3.809438982 -2.1223820674 -0.6278792555
| 46> H -3.1229966233 -2.6370105712 0.9241255452
| 47> *
| 48>
| 49>                          ****END OF INPUT****

CARTESIAN COORDINATES (ANGSTROEM)
---------------------------------
  C      2.825892    2.120906   -1.805434
  C      3.295606    1.526282   -0.494211
  O      2.164180    1.394574    0.406466
  P      1.804020    0.011029    1.076385
  S      0.274753    0.097091    2.290775
  O      3.193740   -0.323377    1.789751
  C      3.318278   -1.283903    2.851019
  C      2.982288   -2.692922    2.405920
  S      1.725262   -1.394026   -0.529057
  C      0.021019   -1.982180   -0.375057
  S     -1.048212   -1.483532   -1.767124
  P     -1.947798    0.239319   -0.986090
  S     -3.396610    1.006332   -2.057668
  O     -0.650084    1.133125   -0.746468
  C     -0.792368    2.494066   -0.275762
  C     -0.871881    3.468840   -1.432737
  O     -2.377891   -0.091851    0.515039
  C     -3.693234   -0.564257    0.844664
  C     -3.881677   -2.016488    0.454214
  H      3.670412    2.202016   -2.482335
  H      2.068485    1.483409   -2.256833
  H      2.403458    3.107866   -1.638995
  H      4.008615    2.179471    0.011145
  H      3.747756    0.542925   -0.646390
  H      4.361923   -1.196702    3.156518
  H      2.663939   -0.974671    3.671904
  H      1.918851   -2.768317    2.183599
  H      3.550358   -2.957052    1.517585
  H      3.221958   -3.385567    3.206348
  H     -0.400757   -1.605375    0.560194
  H      0.046800   -3.067919   -0.401936
  H     -1.679419    2.557535    0.360499
  H      0.096803    2.665828    0.334119
  H     -1.780741    3.302751   -2.006868
  H     -0.880115    4.481252   -1.041468
  H     -0.016619    3.341392   -2.090199
  H     -3.760457   -0.421928    1.924341
  H     -4.426416    0.070736    0.336128
  H     -4.864027   -2.347282    0.775497
  H     -3.809439   -2.122382   -0.627879
  H     -3.122997   -2.637011    0.924126

 Total Charge           Charge          ....    0
 Multiplicity           Mult            ....    1
 Number of Electrons    NEL             ....  202
 Basis Dimension        Dim             ....  334

ORBITAL ENERGIES
----------------

  NO   OCC          E(Eh)            E(eV)
   0   2.0000     -88.046512     -2395.8674
   1   2.0000     -88.042264     -2395.7518
   2   2.0000     -87.993584     -2394.4271
   3   2.0000     -87.982558     -2394.1271
   4   2.0000     -76.430734     -2079.7860
   5   2.0000     -76.420842     -2079.5168
   6   2.0000     -18.795841      -511.4608
   7   2.0000     -18.793630      -511.4007
   8   2.0000     -18.786646      -511.2106
   9   2.0000     -18.782306      -511.0925
  10   2.0000      -9.962442      -271.0918
  11   2.0000      -9.959201      -271.0036
  12   2.0000      -9.956155      -270.9207
  13   2.0000      -9.946166      -270.6489
  14   2.0000      -9.938653      -270.4445
  15   2.0000      -9.889473      -269.1062
  16   2.0000      -9.888576      -269.0818
  17   2.0000      -9.881818      -268.8979
  18   2.0000      -9.871445      -268.6157
  19   2.0000      -7.691479      -209.2958
  20   2.0000      -7.687835      -209.1966
  21   2.0000      -7.638593      -207.8567
  22   2.0000      -7.627726      -207.5610
  23   2.0000      -6.428186      -174.9198
  24   2.0000      -6.418780      -174.6639
  25   2.0000      -5.719352      -155.6315
  26   2.0000      -5.716107      -155.5432
  27   2.0000      -5.715945      -155.5388
  28   2.0000      -5.711957      -155.4303
  29   2.0000      -5.708497      -155.3361
  30   2.0000      -5.704695      -155.2326
  31   2.0000      -5.667583      -154.2228
  32   2.0000      -5.659319      -153.9979
  33   2.0000      -5.658508      -153.9758
  34   2.0000      -5.656663      -153.9256
  35   2.0000      -5.648409      -153.7010
  36   2.0000      -5.647782      -153.6840
  37   2.0000      -4.650877      -126.5568
  38   2.0000      -4.649775      -126.5268
  39   2.0000      -4.648733      -126.4984
  40   2.0000      -4.641211      -126.2938
  41   2.0000      -4.640736      -126.2809
  42   2.0000      -4.639178      -126.2384
  43   2.0000      -0.991947       -26.9923
  44   2.0000      -0.979128       -26.6434
  45   2.0000      -0.946853       -25.7652
  46   2.0000      -0.936870       -25.4935
  47   2.0000      -0.763268       -20.7696
  48   2.0000      -0.722860       -19.6700
  49   2.0000      -0.707631       -19.2556
  50   2.0000      -0.692574       -18.8459
  51   2.0000      -0.682336       -18.5673
  52   2.0000      -0.674073       -18.3425
  53   2.0000      -0.654102       -17.7990
  54   2.0000      -0.639779       -17.4093
  55   2.0000      -0.598171       -16.2771
  56   2.0000      -0.586134       -15.9495
  57   2.0000      -0.578854       -15.7514
  58   2.0000      -0.569604       -15.4997
  59   2.0000      -0.559076       -15.2132
  60   2.0000      -0.509677       -13.8690
  61   2.0000      -0.493540       -13.4299
  62   2.0000      -0.475378       -12.9357
  63   2.0000      -0.462318       -12.5803
  64   2.0000      -0.460913       -12.5421
  65   2.0000      -0.450300       -12.2533
  66   2.0000      -0.441736       -12.0202
  67   2.0000      -0.434800       -11.8315
  68   2.0000      -0.429523       -11.6879
  69   2.0000      -0.418735       -11.3944
  70   2.0000      -0.413795       -11.2599
  71   2.0000      -0.396174       -10.7804
  72   2.0000      -0.391735       -10.6597
  73   2.0000      -0.387996       -10.5579
  74   2.0000      -0.378110       -10.2889
  75   2.0000      -0.370085       -10.0705
  76   2.0000      -0.366384        -9.9698
  77   2.0000      -0.361201        -9.8288
  78   2.0000      -0.354148        -9.6369
  79   2.0000      -0.349426        -9.5084
  80   2.0000      -0.346165        -9.4196
  81   2.0000      -0.344522        -9.3749
  82   2.0000      -0.342285        -9.3140
  83   2.0000      -0.335973        -9.1423
  84   2.0000      -0.326738        -8.8910
  85   2.0000      -0.318593        -8.6693
  86   2.0000      -0.312539        -8.5046
  87   2.0000      -0.300683        -8.1820
  88   2.0000      -0.297969        -8.1081
  89   2.0000      -0.288306        -7.8452
  90   2.0000      -0.283709        -7.7201
  91   2.0000      -0.273323        -7.4375
  92   2.0000      -0.268000        -7.2927
  93   2.0000      -0.264635        -7.2011
  94   2.0000      -0.261519        -7.1163
  95   2.0000      -0.233889        -6.3644
  96   2.0000      -0.220250        -5.9933
  97   2.0000      -0.211592        -5.7577
  98   2.0000      -0.207678        -5.6512
  99   2.0000      -0.201549        -5.4844
 100   2.0000      -0.197138        -5.3644
 101   0.0000      -0.042815        -1.1651
 102   0.0000      -0.030732        -0.8363
 103   0.0000      -0.017704        -0.4818
 104   0.0000       0.001175         0.0320
 105   0.0000       0.008306         0.2260

MULLIKEN ATOMIC CHARGES
-----------------------
   0 C :   -0.294232
   1 C :   -0.020873
   2 O :   -0.361334
   3 P :    0.601997
   4 S :   -0.292721
   5 O :   -0.381887
   6 C :    0.003727
   7 C :   -0.315448
   8 S :   -0.096674
   9 C :   -0.372160
  10 S :   -0.066240
  11 P :    0.611626
  12 S :   -0.325857
  13 O :   -0.378553
  14 C :   -0.013969
  15 C :   -0.301401
  16 O :   -0.366873
  17 C :   -0.005560
  18 C :   -0.317141
  19 H :    0.111392
  20 H :    0.135863
  21 H :    0.127319
  22 H :    0.114099
  23 H :    0.109788
  24 H :    0.104741
  25 H :    0.110526
  26 H :    0.118537
  27 H :    0.119592
  28 H :    0.113572
  29 H :    0.210732
  30 H :    0.183861
  31 H :    0.100523
  32 H :    0.119143
  33 H :    0.127668
  34 H :    0.103053
  35 H :    0.113908
  36 H :    0.104942
  37 H :    0.111483
  38 H :    0.112344
  39 H :    0.126446
  40 H :    0.114041
Sum of atomic charges:    0.0000000

LOEWDIN ATOMIC CHARGES
----------------------
   0 C :   -0.355860
   1 C :   -0.111714
   2 O :   -0.233477
   3 P :    0.577037
   4 S :   -0.282008
   5 O :   -0.254719
   6 C :   -0.116432
   7 C :   -0.370804
   8 S :    0.074068
   9 C :   -0.483439
  10 S :    0.093497
  11 P :    0.565958
  12 S :   -0.317654
  13 O :   -0.248326
  14 C :   -0.122265
  15 C :   -0.366151
  16 O :   -0.238223
  17 C :   -0.123121
  18 C :   -0.367220
  19 H :    0.130870
  20 H :    0.131712
  21 H :    0.127710
  22 H :    0.121462
  23 H :    0.106025
  24 H :    0.118883
  25 H :    0.111385
  26 H :    0.118154
  27 H :    0.123720
  28 H :    0.130869
  29 H :    0.125483
  30 H :    0.137373
  31 H :    0.109175
  32 H :    0.114662
  33 H :    0.122127
  34 H :    0.127128
  35 H :    0.122389
  36 H :    0.118481
  37 H :    0.108230
  38 H :    0.130709
  39 H :    0.121798
  40 H :    0.122510

  Mayer bond orders larger than 0.100000
B(  0-C ,  1-C ) :   1.1647 B(  0-C , 19-H ) :   0.9374 B(  0-C , 20-H ) :   0.9386
B(  0-C , 21-H ) :   0.9388 B(  1-C ,  2-O ) :   0.8857 B(  1-C , 22-H ) :   0.9331
B(  1-C , 23-H ) :   0.9147 B(  2-O ,  3-P ) :   1.1207 B(  3-P ,  4-S ) :   1.6312
B(  3-P ,  5-O ) :   1.0763 B(  3-P ,  8-S ) :   0.9472 B(  4-S ,  8-S ) :   0.1148
B(  5-O ,  6-C ) :   0.9161 B(  6-C ,  7-C ) :   1.1650 B(  6-C , 24-H ) :   0.9346
B(  6-C , 25-H ) :   0.9190 B(  7-C , 26-H ) :   0.9388 B(  7-C , 27-H ) :   0.9416
B(  7-C , 28-H ) :   0.9370 B(  8-S ,  9-C ) :   1.0045 B(  9-C , 10-S ) :   0.9812
B(  9-C , 29-H ) :   0.8419 B(  9-C , 30-H ) :   0.9091 B( 10-S , 11-P ) :   0.9907
B( 11-P , 12-S ) :   1.6403 B( 11-P , 13-O ) :   1.1111 B( 11-P , 16-O ) :   1.0751
B( 13-O , 14-C ) :   0.8815 B( 14-C , 15-C ) :   1.1707 B( 14-C , 31-H ) :   0.9165
B( 14-C , 32-H ) :   0.9155 B( 15-C , 33-H ) :   0.9281 B( 15-C , 34-H ) :   0.9407
B( 15-C , 35-H ) :   0.9403 B( 16-O , 17-C ) :   0.9120 B( 17-C , 18-C ) :   1.1620
B( 17-C , 36-H ) :   0.9319 B( 17-C , 37-H ) :   0.9094 B( 18-C , 38-H ) :   0.9400
B( 18-C , 39-H ) :   0.9362 B( 18-C , 40-H ) :   0.9474

Dispersion correction           -0.067806392
FINAL SINGLE POINT ENERGY     -2929.519210495987

DIPOLE MOMENT
-------------

Method             : SCF
Type of density    : Electron Density
Multiplicity       :   1
Irrep              :   0
Energy             : -2929.6398492387365877 Eh
Relativity type    :
Basis              : AO
                                X                 Y                 Z
Electronic contribution:     -5.383620219      -2.688565755      -4.594251020
Nuclear contribution   :      6.818181000       2.158390086       5.420547323
                        -----------------------------------------
Total Dipole Moment    :      1.434560781      -0.530175669       0.826296304
                        -----------------------------------------
Magnitude (a.u.)       :      1.738337268
Magnitude (Debye)      :      4.418502191

Rotational constants in cm-1:             0.011401             0.005997             0.005054
Rotational constants in MHz :           341.796580           179.798033           151.528391

                             ****ORCA TERMINATED NORMALLY****
TOTAL RUN TIME: 0 days 0 hours 0 minutes 22 seconds 230 msec
