                         Program Version 6.0.0  -   RELEASE  -
|  1> ! pbe def2-sv(p) def2/J RI DEFGRID1 loosescf d4 GCP(DFT/SV(P)) printgap
|  2> %output
|  3>     printlevel normal
|  4> end
|  5> * xyz 0 1
|  6> C 2.7045735653 -0.8668440553 -2.7695431466
|  7> C 1.6356783171 0.0213121033 -2.170967864
|  8> O 1.0983765227 -0.5352012419 -0.9552758253
|  9> P 1.9707622025 -0.6101409538 0.3761303359
| 10> S 3.3172710755 0.7959105608 0.6324969085
| 11> O 2.5530726528 -2.0842514399 0.2731588349
| 12> C 3.6610341438 -2.5351767561 1.0732108632
| 13> C 3.2942770083 -2.6520547832 2.53848245
| 14> S 0.4363963547 -0.8139519272 1.8032540061
| 15> C -0.0036136794 0.9400121681 2.009331583
| 16> S -0.0912083892 1.8764207868 0.4555502492
| 17> P -1.8141198898 1.0282318809 -0.4278168476
| 18> S -1.9032087875 1.3037547953 -2.365020597
| 19> O -2.8727570807 1.7434904448 0.5166536912
| 20> C -4.24788428 1.3216952173 0.648236421
| 21> C -5.0561316566 1.6062527252 -0.6009870964
| 22> O -1.9522543012 -0.4858135741 0.0362342625
| 23> C -1.8001277054 -1.6316245987 -0.8164704124
| 24> C -3.0721412595 -2.4539695276 -0.7595083102
| 25> H 3.005137009 -0.4645198376 -3.7317819005
| 26> H 3.571496715 -0.8962031223 -2.1104058255
| 27> H 2.323693258 -1.8762192288 -2.899947253
| 28> H 0.7689345394 0.1201969849 -2.8281545267
| 29> H 2.0327104285 1.0180277716 -1.9483773969
| 30> H 3.9178809503 -3.5034339579 0.6417324832
| 31> H 4.4909598416 -1.8338607652 0.9401538668
| 32> H 3.1033627178 -1.663342708 2.9534777425
| 33> H 2.4013464794 -3.2603098592 2.657825087
| 34> H 4.1176394535 -3.107556189 3.079216688
| 35> H 0.7675968639 1.4364139142 2.5957133956
| 36> H -0.9644810474 0.9648307743 2.517191664
| 37> H -4.2624874196 0.2565959771 0.8915202366
| 38> H -4.6118788361 1.9021238495 1.4977455638
| 39> H -4.9955981821 2.6611756159 -0.8567927904
| 40> H -4.6731321508 1.0294253822 -1.4413302861
| 41> H -6.0934793584 1.3375063634 -0.4277387026
| 42> H -1.5944117221 -1.2898864556 -1.8362627107
| 43> H -0.9418682251 -2.1932084317 -0.4397392307
| 44> H -2.9392737153 -3.3522384238 -1.3534000986
| 45> H -3.2897535527 -2.7320108378 0.2678875435
| 46> H -3.9063149836 -1.8833516656 -1.1610187144
| 47> *
| 48>
| 49>                          ****END OF INPUT****

CARTESIAN COORDINATES (ANGSTROEM)
---------------------------------
  C      2.704574   -0.866844   -2.769543
  C      1.635678    0.021312   -2.170968
  O      1.098377   -0.535201   -0.955276
  P      1.970762   -0.610141    0.376130
  S      3.317271    0.795911    0.632497
  O      2.553073   -2.084251    0.273159
  C      3.661034   -2.535177    1.073211
  C      3.294277   -2.652055    2.538482
  S      0.436396   -0.813952    1.803254
  C     -0.003614    0.940012    2.009332
  S     -0.091208    1.876421    0.455550
  P     -1.814120    1.028232   -0.427817
  S     -1.903209    1.303755   -2.365021
  O     -2.872757    1.743490    0.516654
  C     -4.247884    1.321695    0.648236
  C     -5.056132    1.606253   -0.600987
  O     -1.952254   -0.485814    0.036234
  C     -1.800128   -1.631625   -0.816470
  C     -3.072141   -2.453970   -0.759508
  H      3.005137   -0.464520   -3.731782
  H      3.571497   -0.896203   -2.110406
  H      2.323693   -1.876219   -2.899947
  H      0.768935    0.120197   -2.828155
  H      2.032710    1.018028   -1.948377
  H      3.917881   -3.503434    0.641732
  H      4.490960   -1.833861    0.940154
  H      3.103363   -1.663343    2.953478
  H      2.401346   -3.260310    2.657825
  H      4.117639   -3.107556    3.079217
  H      0.767597    1.436414    2.595713
  H     -0.964481    0.964831    2.517192
  H     -4.262487    0.256596    0.891520
  H     -4.611879    1.902124    1.497746
  H     -4.995598    2.661176   -0.856793
  H     -4.673132    1.029425   -1.441330
  H     -6.093479    1.337506   -0.427739
  H     -1.594412   -1.289886   -1.836263
  H     -0.941868   -2.193208   -0.439739
  H     -2.939274   -3.352238   -1.353400
  H     -3.289754   -2.732011    0.267888
  H     -3.906315   -1.883352   -1.161019

 Total Charge           Charge          ....    0
 Multiplicity           Mult            ....    1
 Number of Electrons    NEL             ....  202
 Basis Dimension        Dim             ....  334

ORBITAL ENERGIES
----------------

  NO   OCC          E(Eh)            E(eV)
   0   2.0000     -88.043522     -2395.7860
   1   2.0000     -88.040085     -2395.6925
   2   2.0000     -87.987877     -2394.2719
   3   2.0000     -87.987679     -2394.2665
   4   2.0000     -76.428029     -2079.7124
   5   2.0000     -76.426791     -2079.6787
   6   2.0000     -18.795938      -511.4635
   7   2.0000     -18.795647      -511.4556
   8   2.0000     -18.792376      -511.3665
   9   2.0000     -18.787550      -511.2352
  10   2.0000      -9.960857      -271.0487
  11   2.0000      -9.956582      -270.9324
  12   2.0000      -9.954325      -270.8709
  13   2.0000      -9.946492      -270.6578
  14   2.0000      -9.939440      -270.4659
  15   2.0000      -9.887568      -269.0544
  16   2.0000      -9.886243      -269.0183
  17   2.0000      -9.884341      -268.9666
  18   2.0000      -9.877781      -268.7881
  19   2.0000      -7.688730      -209.2210
  20   2.0000      -7.684988      -209.1192
  21   2.0000      -7.632807      -207.6992
  22   2.0000      -7.632716      -207.6968
  23   2.0000      -6.425075      -174.8352
  24   2.0000      -6.424347      -174.8154
  25   2.0000      -5.716696      -155.5592
  26   2.0000      -5.713320      -155.4673
  27   2.0000      -5.713287      -155.4665
  28   2.0000      -5.709434      -155.3616
  29   2.0000      -5.705478      -155.2539
  30   2.0000      -5.701509      -155.1459
  31   2.0000      -5.661640      -154.0611
  32   2.0000      -5.661562      -154.0589
  33   2.0000      -5.653484      -153.8391
  34   2.0000      -5.653266      -153.8332
  35   2.0000      -5.653063      -153.8277
  36   2.0000      -5.653006      -153.8261
  37   2.0000      -4.647476      -126.4642
  38   2.0000      -4.647212      -126.4571
  39   2.0000      -4.646880      -126.4480
  40   2.0000      -4.645993      -126.4239
  41   2.0000      -4.645733      -126.4168
  42   2.0000      -4.644707      -126.3889
  43   2.0000      -0.988622       -26.9018
  44   2.0000      -0.986374       -26.8406
  45   2.0000      -0.945276       -25.7223
  46   2.0000      -0.943777       -25.6815
  47   2.0000      -0.765016       -20.8172
  48   2.0000      -0.723516       -19.6879
  49   2.0000      -0.707298       -19.2466
  50   2.0000      -0.689409       -18.7598
  51   2.0000      -0.684540       -18.6273
  52   2.0000      -0.672377       -18.2963
  53   2.0000      -0.655190       -17.8286
  54   2.0000      -0.639284       -17.3958
  55   2.0000      -0.600835       -16.3496
  56   2.0000      -0.591556       -16.0971
  57   2.0000      -0.575844       -15.6695
  58   2.0000      -0.569886       -15.5074
  59   2.0000      -0.564504       -15.3609
  60   2.0000      -0.503153       -13.6915
  61   2.0000      -0.490747       -13.3539
  62   2.0000      -0.477681       -12.9984
  63   2.0000      -0.470258       -12.7964
  64   2.0000      -0.459192       -12.4952
  65   2.0000      -0.442372       -12.0376
  66   2.0000      -0.439491       -11.9592
  67   2.0000      -0.437178       -11.8962
  68   2.0000      -0.425787       -11.5862
  69   2.0000      -0.416578       -11.3357
  70   2.0000      -0.412061       -11.2128
  71   2.0000      -0.395460       -10.7610
  72   2.0000      -0.388817       -10.5803
  73   2.0000      -0.387462       -10.5434
  74   2.0000      -0.386573       -10.5192
  75   2.0000      -0.377507       -10.2725
  76   2.0000      -0.369774       -10.0621
  77   2.0000      -0.358834        -9.7644
  78   2.0000      -0.355501        -9.6737
  79   2.0000      -0.348922        -9.4947
  80   2.0000      -0.347324        -9.4512
  81   2.0000      -0.345982        -9.4146
  82   2.0000      -0.342973        -9.3328
  83   2.0000      -0.338792        -9.2190
  84   2.0000      -0.334683        -9.1072
  85   2.0000      -0.323201        -8.7947
  86   2.0000      -0.308988        -8.4080
  87   2.0000      -0.296871        -8.0783
  88   2.0000      -0.293782        -7.9942
  89   2.0000      -0.290776        -7.9124
  90   2.0000      -0.279971        -7.6184
  91   2.0000      -0.279645        -7.6095
  92   2.0000      -0.272526        -7.4158
  93   2.0000      -0.265710        -7.2303
  94   2.0000      -0.259181        -7.0527
  95   2.0000      -0.230777        -6.2798
  96   2.0000      -0.221238        -6.0202
  97   2.0000      -0.208260        -5.6670
  98   2.0000      -0.205710        -5.5977
  99   2.0000      -0.201998        -5.4966
 100   2.0000      -0.195866        -5.3298
 101   0.0000      -0.046112        -1.2548
 102   0.0000      -0.019969        -0.5434
 103   0.0000      -0.010035        -0.2731
 104   0.0000       0.000190         0.0052
 105   0.0000       0.014325         0.3898

MULLIKEN ATOMIC CHARGES
-----------------------
   0 C :   -0.301053
   1 C :   -0.017144
   2 O :   -0.370054
   3 P :    0.611326
   4 S :   -0.325493
   5 O :   -0.372379
   6 C :   -0.005745
   7 C :   -0.316115
   8 S :   -0.093202
   9 C :   -0.327061
  10 S :   -0.063594
  11 P :    0.636889
  12 S :   -0.322860
  13 O :   -0.374659
  14 C :   -0.012636
  15 C :   -0.314304
  16 O :   -0.380562
  17 C :   -0.012241
  18 C :   -0.289136
  19 H :    0.112151
  20 H :    0.117264
  21 H :    0.110500
  22 H :    0.116567
  23 H :    0.114458
  24 H :    0.105959
  25 H :    0.112699
  26 H :    0.127465
  27 H :    0.117154
  28 H :    0.114213
  29 H :    0.190655
  30 H :    0.178508
  31 H :    0.106524
  32 H :    0.107153
  33 H :    0.123421
  34 H :    0.131703
  35 H :    0.108697
  36 H :    0.110098
  37 H :    0.104899
  38 H :    0.112320
  39 H :    0.114147
  40 H :    0.113464
Sum of atomic charges:   -0.0000000

LOEWDIN ATOMIC CHARGES
----------------------
   0 C :   -0.364393
   1 C :   -0.127236
   2 O :   -0.239604
   3 P :    0.569091
   4 S :   -0.324845
   5 O :   -0.243472
   6 C :   -0.119682
   7 C :   -0.369851
   8 S :    0.094224
   9 C :   -0.469426
  10 S :    0.112323
  11 P :    0.568362
  12 S :   -0.308328
  13 O :   -0.249336
  14 C :   -0.115162
  15 C :   -0.367194
  16 O :   -0.238368
  17 C :   -0.125909
  18 C :   -0.355463
  19 H :    0.130592
  20 H :    0.119364
  21 H :    0.123470
  22 H :    0.112943
  23 H :    0.110940
  24 H :    0.118996
  25 H :    0.111161
  26 H :    0.121624
  27 H :    0.123687
  28 H :    0.131634
  29 H :    0.138237
  30 H :    0.133486
  31 H :    0.109282
  32 H :    0.119914
  33 H :    0.130827
  34 H :    0.120466
  35 H :    0.128664
  36 H :    0.105413
  37 H :    0.105777
  38 H :    0.131290
  39 H :    0.124108
  40 H :    0.122395

  Mayer bond orders larger than 0.100000
B(  0-C ,  1-C ) :   1.1621 B(  0-C , 19-H ) :   0.9402 B(  0-C , 20-H ) :   0.9363
B(  0-C , 21-H ) :   0.9465 B(  1-C ,  2-O ) :   0.8926 B(  1-C , 22-H ) :   0.9168
B(  1-C , 23-H ) :   0.9169 B(  2-O ,  3-P ) :   1.0992 B(  3-P ,  4-S ) :   1.5987
B(  3-P ,  5-O ) :   1.1059 B(  3-P ,  8-S ) :   0.9713 B(  4-S ,  8-S ) :   0.1100
B(  5-O ,  6-C ) :   0.9065 B(  6-C ,  7-C ) :   1.1669 B(  6-C , 24-H ) :   0.9337
B(  6-C , 25-H ) :   0.9151 B(  7-C , 26-H ) :   0.9352 B(  7-C , 27-H ) :   0.9444
B(  7-C , 28-H ) :   0.9377 B(  8-S ,  9-C ) :   0.9797 B(  9-C , 10-S ) :   1.0032
B(  9-C , 29-H ) :   0.9014 B(  9-C , 30-H ) :   0.9052 B( 10-S , 11-P ) :   0.9647
B( 11-P , 12-S ) :   1.6409 B( 11-P , 13-O ) :   1.0990 B( 11-P , 16-O ) :   1.0907
B( 13-O , 14-C ) :   0.9117 B( 14-C , 15-C ) :   1.1671 B( 14-C , 31-H ) :   0.9239
B( 14-C , 32-H ) :   0.9354 B( 15-C , 33-H ) :   0.9454 B( 15-C , 34-H ) :   0.9321
B( 15-C , 35-H ) :   0.9373 B( 16-O , 17-C ) :   0.8996 B( 17-C , 18-C ) :   1.1565
B( 17-C , 36-H ) :   0.9039 B( 17-C , 37-H ) :   0.9190 B( 18-C , 38-H ) :   0.9417
B( 18-C , 39-H ) :   0.9483 B( 18-C , 40-H ) :   0.9453

Dispersion correction           -0.068352165
FINAL SINGLE POINT ENERGY     -2929.520658145566

DIPOLE MOMENT
-------------

Method             : SCF
Type of density    : Electron Density
Multiplicity       :   1
Irrep              :   0
Energy             : -2929.6390211386801639 Eh
Relativity type    :
Basis              : AO
                                X                 Y                 Z
Electronic contribution:      6.794251600      15.350980135       3.507506223
Nuclear contribution   :     -7.499663829     -16.743641388      -2.778431359
                        -----------------------------------------
Total Dipole Moment    :     -0.705412229      -1.392661253       0.729074864
                        -----------------------------------------
Magnitude (a.u.)       :      1.722980538
Magnitude (Debye)      :      4.379468486

Rotational constants in cm-1:             0.013309             0.005212             0.005074
Rotational constants in MHz :           399.008688           156.240264           152.110600

                             ****ORCA TERMINATED NORMALLY****
TOTAL RUN TIME: 0 days 0 hours 0 minutes 21 seconds 800 msec
