                         Program Version 6.0.0  -   RELEASE  -
|  1> ! pbe def2-sv(p) def2/J RI DEFGRID1 loosescf d4 GCP(DFT/SV(P)) printgap
|  2> %output
|  3>     printlevel normal
|  4> end
|  5> * xyz 0 1
|  6> C 1.5943918258 -2.8357406771 1.1118535829
|  7> C 1.7844790808 -1.5056719666 1.81171311
|  8> O 2.8376160675 -0.7159193452 1.2330384445
|  9> P 2.8047819588 -0.0798977902 -0.2268125824
| 10> S 3.0486823824 -1.2709370035 -1.7581351809
| 11> O 3.9800933496 0.9607527096 -0.1574721445
| 12> C 4.0780547492 2.0003258512 0.8493216126
| 13> C 4.9906678997 1.5695800403 1.9791979374
| 14> S 1.0151024048 1.1144981412 -0.241766387
| 15> C 0.0705438131 0.173508335 -1.4636344234
| 16> S -1.0878479074 -0.9898344426 -0.7115693451
| 17> P -2.5893450561 0.4618004892 -0.2660342223
| 18> S -2.9268193883 1.7561621642 -1.6934633764
| 19> O -2.1182330742 1.1634151115 1.0614700563
| 20> C -1.8637139229 0.4510113484 2.2990472048
| 21> C -3.063751575 0.5310551248 3.2196296898
| 22> O -3.8397517488 -0.3939563519 0.2071640219
| 23> C -4.7323851375 -1.0431170234 -0.7186015487
| 24> C -4.2981536518 -2.4682597797 -0.9996371607
| 25> H 2.5402153127 -3.3678029654 1.0512367106
| 26> H 0.8794363184 -3.4339540143 1.6671638611
| 27> H 1.215942452 -2.6869456793 0.1018018722
| 28> H 2.1056298315 -1.644121601 2.8455942121
| 29> H 0.8601453049 -0.9204843801 1.787734897
| 30> H 4.4864756069 2.859102217 0.3135911212
| 31> H 3.0745546516 2.238927753 1.2119307328
| 32> H 4.5795737943 0.702667029 2.4887526368
| 33> H 5.9698583848 1.3111909579 1.5856954292
| 34> H 5.0923094536 2.3883161537 2.6847155213
| 35> H 0.7648484718 -0.4041792408 -2.0789437667
| 36> H -0.4943471145 0.8879380093 -2.0642806485
| 37> H -1.6169968596 -0.5885439548 2.0649050974
| 38> H -0.9969405817 0.9574290425 2.7285988222
| 39> H -3.9158089289 0.0269421737 2.771932997
| 40> H -2.8189747354 0.0540185536 4.1634650489
| 41> H -3.3262007157 1.5698959011 3.3994444915
| 42> H -5.7038191616 -1.0171515196 -0.2214848367
| 43> H -4.7794049139 -0.450005752 -1.6377821866
| 44> H -3.3401518872 -2.4850084803 -1.5141770326
| 45> H -4.2042829369 -3.0200326574 -0.0686732173
| 46> H -5.0435904793 -2.9474002679 -1.6262415175
| 47> *
| 48>
| 49>                          ****END OF INPUT****

CARTESIAN COORDINATES (ANGSTROEM)
---------------------------------
  C      1.594392   -2.835741    1.111854
  C      1.784479   -1.505672    1.811713
  O      2.837616   -0.715919    1.233038
  P      2.804782   -0.079898   -0.226813
  S      3.048682   -1.270937   -1.758135
  O      3.980093    0.960753   -0.157472
  C      4.078055    2.000326    0.849322
  C      4.990668    1.569580    1.979198
  S      1.015102    1.114498   -0.241766
  C      0.070544    0.173508   -1.463634
  S     -1.087848   -0.989834   -0.711569
  P     -2.589345    0.461800   -0.266034
  S     -2.926819    1.756162   -1.693463
  O     -2.118233    1.163415    1.061470
  C     -1.863714    0.451011    2.299047
  C     -3.063752    0.531055    3.219630
  O     -3.839752   -0.393956    0.207164
  C     -4.732385   -1.043117   -0.718602
  C     -4.298154   -2.468260   -0.999637
  H      2.540215   -3.367803    1.051237
  H      0.879436   -3.433954    1.667164
  H      1.215942   -2.686946    0.101802
  H      2.105630   -1.644122    2.845594
  H      0.860145   -0.920484    1.787735
  H      4.486476    2.859102    0.313591
  H      3.074555    2.238928    1.211931
  H      4.579574    0.702667    2.488753
  H      5.969858    1.311191    1.585695
  H      5.092309    2.388316    2.684716
  H      0.764848   -0.404179   -2.078944
  H     -0.494347    0.887938   -2.064281
  H     -1.616997   -0.588544    2.064905
  H     -0.996941    0.957429    2.728599
  H     -3.915809    0.026942    2.771933
  H     -2.818975    0.054019    4.163465
  H     -3.326201    1.569896    3.399444
  H     -5.703819   -1.017152   -0.221485
  H     -4.779405   -0.450006   -1.637782
  H     -3.340152   -2.485008   -1.514177
  H     -4.204283   -3.020033   -0.068673
  H     -5.043590   -2.947400   -1.626242

 Total Charge           Charge          ....    0
 Multiplicity           Mult            ....    1
 Number of Electrons    NEL             ....  202
 Basis Dimension        Dim             ....  334

ORBITAL ENERGIES
----------------

  NO   OCC          E(Eh)            E(eV)
   0   2.0000     -88.046877     -2395.8773
   1   2.0000     -88.043364     -2395.7817
   2   2.0000     -87.988359     -2394.2850
   3   2.0000     -87.988344     -2394.2846
   4   2.0000     -76.430458     -2079.7785
   5   2.0000     -76.428703     -2079.7308
   6   2.0000     -18.802493      -511.6418
   7   2.0000     -18.797670      -511.5106
   8   2.0000     -18.796301      -511.4733
   9   2.0000     -18.794959      -511.4368
  10   2.0000      -9.962566      -271.0952
  11   2.0000      -9.962316      -271.0884
  12   2.0000      -9.959582      -271.0140
  13   2.0000      -9.958942      -270.9966
  14   2.0000      -9.949951      -270.7519
  15   2.0000      -9.892191      -269.1802
  16   2.0000      -9.890906      -269.1452
  17   2.0000      -9.890370      -269.1307
  18   2.0000      -9.883764      -268.9509
  19   2.0000      -7.691455      -209.2951
  20   2.0000      -7.687964      -209.2001
  21   2.0000      -7.633628      -207.7216
  22   2.0000      -7.633588      -207.7205
  23   2.0000      -6.428339      -174.9240
  24   2.0000      -6.426217      -174.8663
  25   2.0000      -5.718989      -155.6216
  26   2.0000      -5.716022      -155.5409
  27   2.0000      -5.715705      -155.5322
  28   2.0000      -5.712526      -155.4457
  29   2.0000      -5.708793      -155.3442
  30   2.0000      -5.705137      -155.2447
  31   2.0000      -5.662659      -154.0888
  32   2.0000      -5.662631      -154.0880
  33   2.0000      -5.654304      -153.8614
  34   2.0000      -5.654146      -153.8571
  35   2.0000      -5.653733      -153.8459
  36   2.0000      -5.653464      -153.8386
  37   2.0000      -4.651300      -126.5683
  38   2.0000      -4.650051      -126.5343
  39   2.0000      -4.648969      -126.5049
  40   2.0000      -4.648418      -126.4899
  41   2.0000      -4.648085      -126.4808
  42   2.0000      -4.646409      -126.4352
  43   2.0000      -0.995907       -27.1000
  44   2.0000      -0.991962       -26.9927
  45   2.0000      -0.953080       -25.9346
  46   2.0000      -0.948670       -25.8146
  47   2.0000      -0.764247       -20.7962
  48   2.0000      -0.726330       -19.7644
  49   2.0000      -0.717018       -19.5111
  50   2.0000      -0.697566       -18.9817
  51   2.0000      -0.693759       -18.8781
  52   2.0000      -0.679258       -18.4835
  53   2.0000      -0.652795       -17.7635
  54   2.0000      -0.640915       -17.4402
  55   2.0000      -0.599840       -16.3225
  56   2.0000      -0.592325       -16.1180
  57   2.0000      -0.581029       -15.8106
  58   2.0000      -0.579316       -15.7640
  59   2.0000      -0.565470       -15.3872
  60   2.0000      -0.511300       -13.9132
  61   2.0000      -0.503178       -13.6922
  62   2.0000      -0.486937       -13.2502
  63   2.0000      -0.480047       -13.0627
  64   2.0000      -0.461233       -12.5508
  65   2.0000      -0.452862       -12.3230
  66   2.0000      -0.448096       -12.1933
  67   2.0000      -0.439843       -11.9687
  68   2.0000      -0.433354       -11.7922
  69   2.0000      -0.423486       -11.5236
  70   2.0000      -0.409209       -11.1352
  71   2.0000      -0.405922       -11.0457
  72   2.0000      -0.398338       -10.8393
  73   2.0000      -0.391120       -10.6429
  74   2.0000      -0.385430       -10.4881
  75   2.0000      -0.372261       -10.1297
  76   2.0000      -0.368483       -10.0269
  77   2.0000      -0.362332        -9.8595
  78   2.0000      -0.359830        -9.7915
  79   2.0000      -0.358719        -9.7612
  80   2.0000      -0.354635        -9.6501
  81   2.0000      -0.349546        -9.5116
  82   2.0000      -0.346691        -9.4339
  83   2.0000      -0.341175        -9.2838
  84   2.0000      -0.338813        -9.2196
  85   2.0000      -0.326855        -8.8942
  86   2.0000      -0.320408        -8.7188
  87   2.0000      -0.302072        -8.2198
  88   2.0000      -0.299739        -8.1563
  89   2.0000      -0.297986        -8.1086
  90   2.0000      -0.292065        -7.9475
  91   2.0000      -0.282171        -7.6783
  92   2.0000      -0.279723        -7.6117
  93   2.0000      -0.269380        -7.3302
  94   2.0000      -0.260200        -7.0804
  95   2.0000      -0.240739        -6.5509
  96   2.0000      -0.221815        -6.0359
  97   2.0000      -0.213104        -5.7988
  98   2.0000      -0.206099        -5.6082
  99   2.0000      -0.203197        -5.5293
 100   2.0000      -0.199374        -5.4252
 101   0.0000      -0.046357        -1.2614
 102   0.0000      -0.032476        -0.8837
 103   0.0000      -0.013259        -0.3608
 104   0.0000      -0.001544        -0.0420
 105   0.0000       0.011286         0.3071

MULLIKEN ATOMIC CHARGES
-----------------------
   0 C :   -0.300948
   1 C :   -0.035001
   2 O :   -0.376300
   3 P :    0.599151
   4 S :   -0.297115
   5 O :   -0.352586
   6 C :   -0.017750
   7 C :   -0.288985
   8 S :   -0.115312
   9 C :   -0.359778
  10 S :   -0.109458
  11 P :    0.601992
  12 S :   -0.303007
  13 O :   -0.349626
  14 C :   -0.036986
  15 C :   -0.275229
  16 O :   -0.380814
  17 C :   -0.007603
  18 C :   -0.309383
  19 H :    0.121689
  20 H :    0.105648
  21 H :    0.127835
  22 H :    0.103388
  23 H :    0.121977
  24 H :    0.117107
  25 H :    0.107395
  26 H :    0.122611
  27 H :    0.123278
  28 H :    0.110479
  29 H :    0.195751
  30 H :    0.197431
  31 H :    0.113064
  32 H :    0.115739
  33 H :    0.121033
  34 H :    0.108698
  35 H :    0.121547
  36 H :    0.109309
  37 H :    0.110709
  38 H :    0.131495
  39 H :    0.112477
  40 H :    0.116080
Sum of atomic charges:   -0.0000000

LOEWDIN ATOMIC CHARGES
----------------------
   0 C :   -0.367092
   1 C :   -0.122363
   2 O :   -0.245671
   3 P :    0.568468
   4 S :   -0.289132
   5 O :   -0.233087
   6 C :   -0.110945
   7 C :   -0.358815
   8 S :    0.062274
   9 C :   -0.492786
  10 S :    0.077692
  11 P :    0.568331
  12 S :   -0.302943
  13 O :   -0.232820
  14 C :   -0.117592
  15 C :   -0.358079
  16 O :   -0.244961
  17 C :   -0.116999
  18 C :   -0.366421
  19 H :    0.129392
  20 H :    0.128141
  21 H :    0.114885
  22 H :    0.118075
  23 H :    0.101958
  24 H :    0.124796
  25 H :    0.105248
  26 H :    0.126718
  27 H :    0.130883
  28 H :    0.129774
  29 H :    0.125890
  30 H :    0.128523
  31 H :    0.102449
  32 H :    0.119787
  33 H :    0.126601
  34 H :    0.129313
  35 H :    0.130176
  36 H :    0.120300
  37 H :    0.111426
  38 H :    0.120775
  39 H :    0.124613
  40 H :    0.133214

  Mayer bond orders larger than 0.100000
B(  0-C ,  1-C ) :   1.1655 B(  0-C , 19-H ) :   0.9436 B(  0-C , 20-H ) :   0.9367
B(  0-C , 21-H ) :   0.9281 B(  1-C ,  2-O ) :   0.9170 B(  1-C , 22-H ) :   0.9331
B(  1-C , 23-H ) :   0.9043 B(  2-O ,  3-P ) :   1.0710 B(  3-P ,  4-S ) :   1.6497
B(  3-P ,  5-O ) :   1.1507 B(  3-P ,  8-S ) :   0.9394 B(  4-S ,  8-S ) :   0.1161
B(  4-S , 29-H ) :   0.1186 B(  5-O ,  6-C ) :   0.8910 B(  6-C ,  7-C ) :   1.1651
B(  6-C , 24-H ) :   0.9354 B(  6-C , 25-H ) :   0.9170 B(  7-C , 26-H ) :   0.9417
B(  7-C , 27-H ) :   0.9464 B(  7-C , 28-H ) :   0.9394 B(  8-S ,  9-C ) :   1.0084
B(  9-C , 10-S ) :   1.0017 B(  9-C , 29-H ) :   0.8490 B(  9-C , 30-H ) :   0.8608
B( 10-S , 11-P ) :   0.9469 B( 10-S , 12-S ) :   0.1081 B( 11-P , 12-S ) :   1.6550
B( 11-P , 13-O ) :   1.1428 B( 11-P , 16-O ) :   1.0867 B( 13-O , 14-C ) :   0.8939
B( 14-C , 15-C ) :   1.1559 B( 14-C , 31-H ) :   0.9027 B( 14-C , 32-H ) :   0.9322
B( 15-C , 33-H ) :   0.9410 B( 15-C , 34-H ) :   0.9400 B( 15-C , 35-H ) :   0.9457
B( 16-O , 17-C ) :   0.9002 B( 17-C , 18-C ) :   1.1673 B( 17-C , 36-H ) :   0.9345
B( 17-C , 37-H ) :   0.9072 B( 18-C , 38-H ) :   0.9326 B( 18-C , 39-H ) :   0.9483
B( 18-C , 40-H ) :   0.9391

Dispersion correction           -0.063306215
FINAL SINGLE POINT ENERGY     -2929.518062016151

DIPOLE MOMENT
-------------

Method             : SCF
Type of density    : Electron Density
Multiplicity       :   1
Irrep              :   0
Energy             : -2929.6399542790322812 Eh
Relativity type    :
Basis              : AO
                                X                 Y                 Z
Electronic contribution:      4.030882391       9.158258133     -18.782651788
Nuclear contribution   :     -4.563879702      -9.696689670      20.918681792
                        -----------------------------------------
Total Dipole Moment    :     -0.532997311      -0.538431537       2.136030004
                        -----------------------------------------
Magnitude (a.u.)       :      2.266411002
Magnitude (Debye)      :      5.760758953

Rotational constants in cm-1:             0.012610             0.004320             0.004201
Rotational constants in MHz :           378.031021           129.503754           125.935652

                             ****ORCA TERMINATED NORMALLY****
TOTAL RUN TIME: 0 days 0 hours 0 minutes 21 seconds 122 msec
