                         Program Version 6.0.1  -  RELEASE   -
|  1> ! pbe def2-sv(p) def2/J RI DEFGRID1 loosescf d4 GCP(DFT/SV(P)) printgap
|  2> %output
|  3>     printlevel normal
|  4> end
|  5> * xyz 0 1
|  6> C 1.4893224125 -3.9229465221 -1.8918153346
|  7> C 2.2628761017 -3.6037815419 -0.6220414851
|  8> O 1.92744427 -2.2931498133 -0.1254424115
|  9> C 2.5261697599 -1.2504252895 -0.6672370736
| 10> O 3.3781201326 -1.3110396974 -1.5237312721
| 11> C 1.9892473111 0.0509528634 -0.1014415632
| 12> C 0.9108293672 0.5879084015 -1.048795255
| 13> H 1.3360088754 0.7271897197 -2.0468315062
| 14> C 0.350478841 1.9093579906 -0.5561224308
| 15> O -0.831881231 2.0627416589 -0.3161912504
| 16> O 1.2702709293 2.8203177665 -0.4369699591
| 17> C 0.9018845453 4.1036662466 0.1192385058
| 18> C 0.9966471386 4.0669952522 1.6354282436
| 19> S -0.4808822635 -0.5685181695 -1.2697873928
| 20> P -1.6290647742 -0.2060514602 0.4852655649
| 21> S -0.8009625685 0.4296774321 2.1560038226
| 22> O -3.0235659577 0.4131596131 0.0570931338
| 23> C -3.5038540943 1.711439543 0.4107354342
| 24> O -2.221481232 -1.6849522009 0.6680611869
| 25> C -1.3880967525 -2.7457780421 1.1427955005
| 26> H 0.42079875 -3.8137192606 -1.7249010084
| 27> H 1.7861423581 -3.2462852812 -2.6895694786
| 28> H 1.7030669394 -4.9425319457 -2.194323815
| 29> H 3.3396450198 -3.6369441658 -0.8098565063
| 30> H 1.9970295569 -4.2794540684 0.1910262798
| 31> H 2.7973634205 0.7809171975 -0.050111376
| 32> H 1.5712562167 -0.1242350787 0.8911636699
| 33> H 1.620635229 4.800370672 -0.3112784688
| 34> H -0.1129740443 4.3474406983 -0.2042664673
| 35> H 0.3274093824 3.3087465827 2.038834751
| 36> H 2.010934713 3.832798852 1.9450762967
| 37> H 0.7142025415 5.0345508857 2.0363056995
| 38> H -2.9967168133 2.0760502817 1.3054730361
| 39> H -4.5690390336 1.5955407498 0.5989989736
| 40> H -3.327079895 2.3970566032 -0.4158271132
| 41> H -2.011403948 -3.6357700798 1.1288858037
| 42> H -1.052798346 -2.5271723602 2.1582702926
| 43> H -0.5202024191 -2.8716097935 0.4941575238
| 44> *
| 45>
| 46>                          ****END OF INPUT****

CARTESIAN COORDINATES (ANGSTROEM)
---------------------------------
  C      1.489322   -3.922947   -1.891815
  C      2.262876   -3.603782   -0.622041
  O      1.927444   -2.293150   -0.125442
  C      2.526170   -1.250425   -0.667237
  O      3.378120   -1.311040   -1.523731
  C      1.989247    0.050953   -0.101442
  C      0.910829    0.587908   -1.048795
  H      1.336009    0.727190   -2.046832
  C      0.350479    1.909358   -0.556122
  O     -0.831881    2.062742   -0.316191
  O      1.270271    2.820318   -0.436970
  C      0.901885    4.103666    0.119239
  C      0.996647    4.066995    1.635428
  S     -0.480882   -0.568518   -1.269787
  P     -1.629065   -0.206051    0.485266
  S     -0.800963    0.429677    2.156004
  O     -3.023566    0.413160    0.057093
  C     -3.503854    1.711440    0.410735
  O     -2.221481   -1.684952    0.668061
  C     -1.388097   -2.745778    1.142796
  H      0.420799   -3.813719   -1.724901
  H      1.786142   -3.246285   -2.689569
  H      1.703067   -4.942532   -2.194324
  H      3.339645   -3.636944   -0.809857
  H      1.997030   -4.279454    0.191026
  H      2.797363    0.780917   -0.050111
  H      1.571256   -0.124235    0.891164
  H      1.620635    4.800371   -0.311278
  H     -0.112974    4.347441   -0.204266
  H      0.327409    3.308747    2.038835
  H      2.010935    3.832799    1.945076
  H      0.714203    5.034551    2.036306
  H     -2.996717    2.076050    1.305473
  H     -4.569039    1.595541    0.598999
  H     -3.327080    2.397057   -0.415827
  H     -2.011404   -3.635770    1.128886
  H     -1.052798   -2.527172    2.158270
  H     -0.520202   -2.871610    0.494158

 Total Charge           Charge          ....    0
 Multiplicity           Mult            ....    1
 Number of Electrons    NEL             ....  174
 Basis Dimension        Dim             ....  316

ORBITAL ENERGIES
----------------

  NO   OCC          E(Eh)            E(eV)
   0   2.0000     -88.037074     -2395.6106
   1   2.0000     -87.978824     -2394.0255
   2   2.0000     -76.423468     -2079.5883
   3   2.0000     -18.828587      -512.3519
   4   2.0000     -18.805300      -511.7182
   5   2.0000     -18.782096      -511.0868
   6   2.0000     -18.776162      -510.9253
   7   2.0000     -18.764321      -510.6031
   8   2.0000     -18.740030      -509.9421
   9   2.0000     -10.034650      -273.0567
  10   2.0000     -10.011354      -272.4228
  11   2.0000      -9.962494      -271.0932
  12   2.0000      -9.957344      -270.9531
  13   2.0000      -9.949803      -270.7479
  14   2.0000      -9.934803      -270.3397
  15   2.0000      -9.932367      -270.2734
  16   2.0000      -9.908075      -269.6124
  17   2.0000      -9.891780      -269.1690
  18   2.0000      -9.886244      -269.0184
  19   2.0000      -7.682049      -209.0392
  20   2.0000      -7.623787      -207.4538
  21   2.0000      -6.419034      -174.6708
  22   2.0000      -5.710208      -155.3827
  23   2.0000      -5.706618      -155.2850
  24   2.0000      -5.698622      -155.0674
  25   2.0000      -5.652787      -153.8201
  26   2.0000      -5.644758      -153.6017
  27   2.0000      -5.643457      -153.5663
  28   2.0000      -4.641428      -126.2997
  29   2.0000      -4.641236      -126.2945
  30   2.0000      -4.639656      -126.2515
  31   2.0000      -1.038725       -28.2652
  32   2.0000      -1.012818       -27.5602
  33   2.0000      -0.975267       -26.5384
  34   2.0000      -0.943735       -25.6803
  35   2.0000      -0.929396       -25.2901
  36   2.0000      -0.917997       -24.9800
  37   2.0000      -0.770424       -20.9643
  38   2.0000      -0.718467       -19.5505
  39   2.0000      -0.708898       -19.2901
  40   2.0000      -0.688911       -18.7462
  41   2.0000      -0.654177       -17.8011
  42   2.0000      -0.631511       -17.1843
  43   2.0000      -0.625890       -17.0313
  44   2.0000      -0.612920       -16.6784
  45   2.0000      -0.598452       -16.2847
  46   2.0000      -0.570107       -15.5134
  47   2.0000      -0.514472       -13.9995
  48   2.0000      -0.507807       -13.8181
  49   2.0000      -0.498975       -13.5778
  50   2.0000      -0.492343       -13.3973
  51   2.0000      -0.466332       -12.6895
  52   2.0000      -0.463898       -12.6233
  53   2.0000      -0.450730       -12.2650
  54   2.0000      -0.438685       -11.9372
  55   2.0000      -0.431322       -11.7369
  56   2.0000      -0.426163       -11.5965
  57   2.0000      -0.420766       -11.4496
  58   2.0000      -0.416933       -11.3453
  59   2.0000      -0.405915       -11.0455
  60   2.0000      -0.401068       -10.9136
  61   2.0000      -0.392768       -10.6878
  62   2.0000      -0.390747       -10.6328
  63   2.0000      -0.388226       -10.5642
  64   2.0000      -0.383521       -10.4361
  65   2.0000      -0.371686       -10.1141
  66   2.0000      -0.365038        -9.9332
  67   2.0000      -0.356400        -9.6981
  68   2.0000      -0.352572        -9.5940
  69   2.0000      -0.341346        -9.2885
  70   2.0000      -0.339327        -9.2335
  71   2.0000      -0.336261        -9.1501
  72   2.0000      -0.327020        -8.8987
  73   2.0000      -0.311839        -8.4856
  74   2.0000      -0.307251        -8.3607
  75   2.0000      -0.298465        -8.1217
  76   2.0000      -0.295364        -8.0373
  77   2.0000      -0.287412        -7.8209
  78   2.0000      -0.278870        -7.5884
  79   2.0000      -0.265238        -7.2175
  80   2.0000      -0.263067        -7.1584
  81   2.0000      -0.250601        -6.8192
  82   2.0000      -0.246691        -6.7128
  83   2.0000      -0.225098        -6.1252
  84   2.0000      -0.217939        -5.9304
  85   2.0000      -0.197918        -5.3856
  86   2.0000      -0.191301        -5.2056
  87   0.0000      -0.051572        -1.4034
  88   0.0000      -0.040651        -1.1062
  89   0.0000      -0.021460        -0.5840
  90   0.0000       0.002129         0.0579
  91   0.0000       0.027630         0.7518

MULLIKEN ATOMIC CHARGES
-----------------------
   0 C :   -0.311540
   1 C :   -0.008298
   2 O :   -0.222843
   3 C :    0.119504
   4 O :   -0.202340
   5 C :   -0.060562
   6 C :   -0.344558
   7 H :    0.156785
   8 C :    0.239266
   9 O :   -0.192854
  10 O :   -0.215240
  11 C :   -0.013268
  12 C :   -0.315699
  13 S :   -0.082922
  14 P :    0.622510
  15 S :   -0.346581
  16 O :   -0.365956
  17 C :   -0.085292
  18 O :   -0.371976
  19 C :   -0.129418
  20 H :    0.123939
  21 H :    0.125927
  22 H :    0.112322
  23 H :    0.110803
  24 H :    0.103146
  25 H :    0.114209
  26 H :    0.118675
  27 H :    0.111062
  28 H :    0.113379
  29 H :    0.145371
  30 H :    0.117378
  31 H :    0.115258
  32 H :    0.114591
  33 H :    0.119657
  34 H :    0.116855
  35 H :    0.118727
  36 H :    0.114305
  37 H :    0.135677
Sum of atomic charges:   -0.0000000

LOEWDIN ATOMIC CHARGES
----------------------
   0 C :   -0.357919
   1 C :   -0.111603
   2 O :   -0.052128
   3 C :    0.025034
   4 O :   -0.167488
   5 C :   -0.253093
   6 C :   -0.258930
   7 H :    0.153259
   8 C :    0.027180
   9 O :   -0.155768
  10 O :   -0.031230
  11 C :   -0.104890
  12 C :   -0.359110
  13 S :    0.110480
  14 P :    0.591070
  15 S :   -0.330848
  16 O :   -0.236722
  17 C :   -0.207059
  18 O :   -0.257131
  19 C :   -0.226171
  20 H :    0.124545
  21 H :    0.130490
  22 H :    0.130204
  23 H :    0.120742
  24 H :    0.116891
  25 H :    0.142419
  26 H :    0.129957
  27 H :    0.121890
  28 H :    0.122116
  29 H :    0.131654
  30 H :    0.127095
  31 H :    0.132609
  32 H :    0.108317
  33 H :    0.117692
  34 H :    0.113206
  35 H :    0.119091
  36 H :    0.109732
  37 H :    0.104417

  Mayer bond orders larger than 0.100000
B(  0-C ,  1-C ) :   1.1765 B(  0-C , 20-H ) :   0.9485 B(  0-C , 21-H ) :   0.9417
B(  0-C , 22-H ) :   0.9426 B(  1-C ,  2-O ) :   0.9025 B(  1-C , 23-H ) :   0.9148
B(  1-C , 24-H ) :   0.9359 B(  2-O ,  3-C ) :   1.2255 B(  3-C ,  4-O ) :   2.0512
B(  3-C ,  5-C ) :   1.0074 B(  5-C ,  6-C ) :   1.0583 B(  5-C , 25-H ) :   0.8780
B(  5-C , 26-H ) :   0.8714 B(  6-C ,  7-H ) :   0.8614 B(  6-C ,  8-C ) :   0.9106
B(  6-C , 13-S ) :   1.0389 B(  8-C ,  9-O ) :   1.9350 B(  8-C , 10-O ) :   1.2887
B(  9-O , 14-P ) :   0.1112 B( 10-O , 11-C ) :   0.8921 B( 11-C , 12-C ) :   1.1781
B( 11-C , 27-H ) :   0.9360 B( 11-C , 28-H ) :   0.9144 B( 12-C , 29-H ) :   0.9299
B( 12-C , 30-H ) :   0.9481 B( 12-C , 31-H ) :   0.9409 B( 13-S , 14-P ) :   0.9297
B( 13-S , 15-S ) :   0.1179 B( 14-P , 15-S ) :   1.5387 B( 14-P , 16-O ) :   1.1437
B( 14-P , 18-O ) :   1.0877 B( 16-O , 17-C ) :   0.9277 B( 17-C , 32-H ) :   0.9356
B( 17-C , 33-H ) :   0.9544 B( 17-C , 34-H ) :   0.9537 B( 18-O , 19-C ) :   0.9414
B( 19-C , 35-H ) :   0.9573 B( 19-C , 36-H ) :   0.9386 B( 19-C , 37-H ) :   0.9224

Dispersion correction           -0.053967455
FINAL SINGLE POINT ENERGY     -1979.015619109475

DIPOLE MOMENT
-------------

Method             : SCF
Type of density    : Electron Density
Multiplicity       :   1
Irrep              :   0
Energy             : -1979.1454575542052226 Eh
Relativity type    :
Basis              : AO
                                X                 Y                 Z
Electronic contribution:     -5.983259732       0.523685572      -1.819549794
Nuclear contribution   :      6.223092153       0.022119993       1.712389682
                        -----------------------------------------
Total Dipole Moment    :      0.239832422       0.545805565      -0.107160112
                        -----------------------------------------
Magnitude (a.u.)       :      0.605728153
Magnitude (Debye)      :      1.539638608

Rotational constants in cm-1:             0.012446             0.008448             0.006080
Rotational constants in MHz :           373.113139           253.250900           182.261161

                             ****ORCA TERMINATED NORMALLY****
TOTAL RUN TIME: 0 days 0 hours 0 minutes 49 seconds 938 msec
