                         Program Version 6.0.0  -   RELEASE  -
|  1> ! pbe def2-sv(p) def2/J RI DEFGRID1 loosescf d4 GCP(DFT/SV(P)) printgap
|  2> %output
|  3>     printlevel normal
|  4> end
|  5> * xyz 0 1
|  6> C 3.7722161636 -1.3348380582 -2.3902447532
|  7> C 4.1856935202 -0.1092481051 -1.59993101
|  8> O 3.6326166001 -0.1019852717 -0.2757307852
|  9> P 2.0746407529 0.0774208944 0.0205930018
| 10> S 1.2166695857 1.3768154708 -1.1754822668
| 11> O 2.1203374314 0.3659796121 1.5712376885
| 12> C 2.1977607168 1.6921880906 2.1286194692
| 13> C 3.4781174399 2.403344103 1.7452989832
| 14> S 1.3099948021 -1.8912439111 0.0680694253
| 15> C 0.0247332538 -1.7885892252 -1.2282389156
| 16> S -1.6626923096 -2.0460332262 -0.6173637905
| 17> P -2.1126550351 -0.0982234917 0.0653436502
| 18> S -1.0684292191 0.5824634655 1.5902856325
| 19> O -3.6760351437 -0.1228081609 0.3416931774
| 20> C -4.2235805797 -0.4832888482 1.6207847784
| 21> C -4.0444775419 -1.9590892005 1.9105184422
| 22> O -2.0325783163 0.6617690243 -1.3197093728
| 23> C -2.7069356174 1.9002663535 -1.6301522918
| 24> C -2.2366892122 3.0476205945 -0.7617284517
| 25> H 3.9780420218 -2.2376713322 -1.8208684466
| 26> H 2.7064404381 -1.2925159574 -2.6114955207
| 27> H 4.3242107074 -1.362202812 -3.324253635
| 28> H 3.8664699269 0.8040326404 -2.1131016962
| 29> H 5.263393565 -0.0835949349 -1.4331314932
| 30> H 1.3178314867 2.2543782958 1.7990427532
| 31> H 2.1301463429 1.52078959 3.2038415954
| 32> H 4.3380553325 1.7933231581 2.0096110976
| 33> H 3.4934237346 2.5894117294 0.6717317981
| 34> H 3.5300919683 3.3527815146 2.2688766257
| 35> H 0.2040344389 -2.6003655288 -1.9277011157
| 36> H 0.0860749512 -0.8127637398 -1.7162134294
| 37> H -3.7349211178 0.1231717713 2.3906209357
| 38> H -5.2766236602 -0.2100061273 1.5426513342
| 39> H -2.9856195355 -2.1873990228 2.0290044946
| 40> H -4.5643346954 -2.2129141726 2.8286582774
| 41> H -4.4388701239 -2.5554696624 1.0918955876
| 42> H -2.4529136822 2.0666352884 -2.6783029533
| 43> H -3.781643695 1.7382201324 -1.522829613
| 44> H -2.4933681634 2.8624140258 0.2805890453
| 45> H -1.1560999758 3.1527817073 -0.8389304222
| 46> H -2.7108539834 3.9673821452 -1.088639385
| 47> *
| 48>
| 49>                          ****END OF INPUT****

CARTESIAN COORDINATES (ANGSTROEM)
---------------------------------
  C      3.772216   -1.334838   -2.390245
  C      4.185694   -0.109248   -1.599931
  O      3.632617   -0.101985   -0.275731
  P      2.074641    0.077421    0.020593
  S      1.216670    1.376815   -1.175482
  O      2.120337    0.365980    1.571238
  C      2.197761    1.692188    2.128619
  C      3.478117    2.403344    1.745299
  S      1.309995   -1.891244    0.068069
  C      0.024733   -1.788589   -1.228239
  S     -1.662692   -2.046033   -0.617364
  P     -2.112655   -0.098223    0.065344
  S     -1.068429    0.582463    1.590286
  O     -3.676035   -0.122808    0.341693
  C     -4.223581   -0.483289    1.620785
  C     -4.044478   -1.959089    1.910518
  O     -2.032578    0.661769   -1.319709
  C     -2.706936    1.900266   -1.630152
  C     -2.236689    3.047621   -0.761728
  H      3.978042   -2.237671   -1.820868
  H      2.706440   -1.292516   -2.611496
  H      4.324211   -1.362203   -3.324254
  H      3.866470    0.804033   -2.113102
  H      5.263394   -0.083595   -1.433131
  H      1.317831    2.254378    1.799043
  H      2.130146    1.520790    3.203842
  H      4.338055    1.793323    2.009611
  H      3.493424    2.589412    0.671732
  H      3.530092    3.352782    2.268877
  H      0.204034   -2.600366   -1.927701
  H      0.086075   -0.812764   -1.716213
  H     -3.734921    0.123172    2.390621
  H     -5.276624   -0.210006    1.542651
  H     -2.985620   -2.187399    2.029004
  H     -4.564335   -2.212914    2.828658
  H     -4.438870   -2.555470    1.091896
  H     -2.452914    2.066635   -2.678303
  H     -3.781644    1.738220   -1.522830
  H     -2.493368    2.862414    0.280589
  H     -1.156100    3.152782   -0.838930
  H     -2.710854    3.967382   -1.088639

 Total Charge           Charge          ....    0
 Multiplicity           Mult            ....    1
 Number of Electrons    NEL             ....  202
 Basis Dimension        Dim             ....  334

ORBITAL ENERGIES
----------------

  NO   OCC          E(Eh)            E(eV)
   0   2.0000     -88.036758     -2395.6020
   1   2.0000     -88.035272     -2395.5615
   2   2.0000     -87.986287     -2394.2286
   3   2.0000     -87.978618     -2394.0199
   4   2.0000     -76.422683     -2079.5669
   5   2.0000     -76.421469     -2079.5339
   6   2.0000     -18.793193      -511.3888
   7   2.0000     -18.783705      -511.1306
   8   2.0000     -18.782090      -511.0867
   9   2.0000     -18.781930      -511.0823
  10   2.0000      -9.954027      -270.8629
  11   2.0000      -9.951202      -270.7860
  12   2.0000      -9.950203      -270.7588
  13   2.0000      -9.947614      -270.6883
  14   2.0000      -9.944638      -270.6073
  15   2.0000      -9.883410      -268.9413
  16   2.0000      -9.883045      -268.9313
  17   2.0000      -9.878095      -268.7966
  18   2.0000      -9.874606      -268.7017
  19   2.0000      -7.682435      -209.0497
  20   2.0000      -7.680700      -209.0025
  21   2.0000      -7.631048      -207.6514
  22   2.0000      -7.623268      -207.4397
  23   2.0000      -6.420019      -174.6976
  24   2.0000      -6.418804      -174.6645
  25   2.0000      -5.710344      -155.3864
  26   2.0000      -5.708613      -155.3392
  27   2.0000      -5.707049      -155.2967
  28   2.0000      -5.705391      -155.2516
  29   2.0000      -5.699157      -155.0820
  30   2.0000      -5.697373      -155.0334
  31   2.0000      -5.659690      -154.0080
  32   2.0000      -5.652258      -153.8058
  33   2.0000      -5.652068      -153.8006
  34   2.0000      -5.650857      -153.7676
  35   2.0000      -5.643940      -153.5794
  36   2.0000      -5.643546      -153.5687
  37   2.0000      -4.643079      -126.3446
  38   2.0000      -4.641693      -126.3069
  39   2.0000      -4.641003      -126.2881
  40   2.0000      -4.640478      -126.2738
  41   2.0000      -4.640131      -126.2644
  42   2.0000      -4.639731      -126.2535
  43   2.0000      -0.985378       -26.8135
  44   2.0000      -0.979264       -26.6471
  45   2.0000      -0.941733       -25.6259
  46   2.0000      -0.936844       -25.4928
  47   2.0000      -0.757104       -20.6018
  48   2.0000      -0.717256       -19.5175
  49   2.0000      -0.703949       -19.1554
  50   2.0000      -0.685860       -18.6632
  51   2.0000      -0.682130       -18.5617
  52   2.0000      -0.669470       -18.2172
  53   2.0000      -0.650757       -17.7080
  54   2.0000      -0.631759       -17.1910
  55   2.0000      -0.599676       -16.3180
  56   2.0000      -0.588332       -16.0093
  57   2.0000      -0.574080       -15.6215
  58   2.0000      -0.567600       -15.4452
  59   2.0000      -0.556124       -15.1329
  60   2.0000      -0.494011       -13.4427
  61   2.0000      -0.486682       -13.2433
  62   2.0000      -0.468489       -12.7482
  63   2.0000      -0.465447       -12.6654
  64   2.0000      -0.453928       -12.3520
  65   2.0000      -0.442786       -12.0488
  66   2.0000      -0.434775       -11.8308
  67   2.0000      -0.429693       -11.6925
  68   2.0000      -0.422442       -11.4952
  69   2.0000      -0.412739       -11.2312
  70   2.0000      -0.408585       -11.1182
  71   2.0000      -0.404132       -10.9970
  72   2.0000      -0.389340       -10.5945
  73   2.0000      -0.383882       -10.4460
  74   2.0000      -0.378863       -10.3094
  75   2.0000      -0.375833       -10.2269
  76   2.0000      -0.364149        -9.9090
  77   2.0000      -0.352003        -9.5785
  78   2.0000      -0.349396        -9.5075
  79   2.0000      -0.344188        -9.3658
  80   2.0000      -0.341926        -9.3043
  81   2.0000      -0.338689        -9.2162
  82   2.0000      -0.337552        -9.1852
  83   2.0000      -0.330346        -8.9892
  84   2.0000      -0.330188        -8.9849
  85   2.0000      -0.313687        -8.5359
  86   2.0000      -0.307626        -8.3709
  87   2.0000      -0.293870        -7.9966
  88   2.0000      -0.289976        -7.8907
  89   2.0000      -0.286549        -7.7974
  90   2.0000      -0.278169        -7.5694
  91   2.0000      -0.273187        -7.4338
  92   2.0000      -0.266732        -7.2581
  93   2.0000      -0.258720        -7.0401
  94   2.0000      -0.255567        -6.9543
  95   2.0000      -0.231622        -6.3028
  96   2.0000      -0.217798        -5.9266
  97   2.0000      -0.208522        -5.6742
  98   2.0000      -0.200040        -5.4434
  99   2.0000      -0.189404        -5.1540
 100   2.0000      -0.184159        -5.0112
 101   0.0000      -0.036676        -0.9980
 102   0.0000      -0.030327        -0.8252
 103   0.0000      -0.013395        -0.3645
 104   0.0000       0.003004         0.0817
 105   0.0000       0.025169         0.6849

MULLIKEN ATOMIC CHARGES
-----------------------
   0 C :   -0.316450
   1 C :    0.000838
   2 O :   -0.372063
   3 P :    0.620557
   4 S :   -0.328564
   5 O :   -0.362686
   6 C :   -0.001735
   7 C :   -0.306175
   8 S :   -0.068531
   9 C :   -0.376958
  10 S :   -0.084570
  11 P :    0.629878
  12 S :   -0.320083
  13 O :   -0.379471
  14 C :   -0.003800
  15 C :   -0.324819
  16 O :   -0.371068
  17 C :    0.004832
  18 C :   -0.321145
  19 H :    0.120648
  20 H :    0.119284
  21 H :    0.110687
  22 H :    0.105664
  23 H :    0.102868
  24 H :    0.119769
  25 H :    0.105624
  26 H :    0.116319
  27 H :    0.121997
  28 H :    0.109368
  29 H :    0.184027
  30 H :    0.208095
  31 H :    0.111461
  32 H :    0.103014
  33 H :    0.134618
  34 H :    0.115114
  35 H :    0.119133
  36 H :    0.105465
  37 H :    0.105649
  38 H :    0.121601
  39 H :    0.137317
  40 H :    0.104289
Sum of atomic charges:    0.0000000

LOEWDIN ATOMIC CHARGES
----------------------
   0 C :   -0.368584
   1 C :   -0.120532
   2 O :   -0.249024
   3 P :    0.574754
   4 S :   -0.305884
   5 O :   -0.232628
   6 C :   -0.114189
   7 C :   -0.366688
   8 S :    0.089112
   9 C :   -0.481107
  10 S :    0.082808
  11 P :    0.572420
  12 S :   -0.306644
  13 O :   -0.243823
  14 C :   -0.121959
  15 C :   -0.370762
  16 O :   -0.242111
  17 C :   -0.106463
  18 C :   -0.370548
  19 H :    0.125692
  20 H :    0.118316
  21 H :    0.129459
  22 H :    0.106764
  23 H :    0.117784
  24 H :    0.110682
  25 H :    0.120350
  26 H :    0.126085
  27 H :    0.121295
  28 H :    0.129361
  29 H :    0.136433
  30 H :    0.125160
  31 H :    0.109706
  32 H :    0.117456
  33 H :    0.124428
  34 H :    0.132468
  35 H :    0.124905
  36 H :    0.120439
  37 H :    0.111312
  38 H :    0.119700
  39 H :    0.127669
  40 H :    0.126388

  Mayer bond orders larger than 0.100000
B(  0-C ,  1-C ) :   1.1642 B(  0-C , 19-H ) :   0.9426 B(  0-C , 20-H ) :   0.9392
B(  0-C , 21-H ) :   0.9380 B(  1-C ,  2-O ) :   0.9247 B(  1-C , 22-H ) :   0.9138
B(  1-C , 23-H ) :   0.9341 B(  2-O ,  3-P ) :   1.0868 B(  3-P ,  4-S ) :   1.5732
B(  3-P ,  5-O ) :   1.1479 B(  3-P ,  8-S ) :   0.9615 B(  4-S ,  8-S ) :   0.1161
B(  5-O ,  6-C ) :   0.9024 B(  6-C ,  7-C ) :   1.1633 B(  6-C , 24-H ) :   0.9166
B(  6-C , 25-H ) :   0.9361 B(  7-C , 26-H ) :   0.9447 B(  7-C , 27-H ) :   0.9356
B(  7-C , 28-H ) :   0.9382 B(  8-S ,  9-C ) :   1.0010 B(  9-C , 10-S ) :   1.0013
B(  9-C , 29-H ) :   0.9100 B(  9-C , 30-H ) :   0.8498 B( 10-S , 11-P ) :   0.9574
B( 10-S , 12-S ) :   0.1170 B( 11-P , 12-S ) :   1.6304 B( 11-P , 13-O ) :   1.0860
B( 11-P , 16-O ) :   1.1153 B( 13-O , 14-C ) :   0.9073 B( 14-C , 15-C ) :   1.1654
B( 14-C , 31-H ) :   0.9107 B( 14-C , 32-H ) :   0.9322 B( 15-C , 33-H ) :   0.9326
B( 15-C , 34-H ) :   0.9383 B( 15-C , 35-H ) :   0.9448 B( 16-O , 17-C ) :   0.9049
B( 17-C , 18-C ) :   1.1677 B( 17-C , 36-H ) :   0.9352 B( 17-C , 37-H ) :   0.9308
B( 18-C , 38-H ) :   0.9346 B( 18-C , 39-H ) :   0.9371 B( 18-C , 40-H ) :   0.9355

Dispersion correction           -0.068173683
FINAL SINGLE POINT ENERGY     -2929.515672079755

DIPOLE MOMENT
-------------

Method             : SCF
Type of density    : Electron Density
Multiplicity       :   1
Irrep              :   0
Energy             : -2929.6327659947323809 Eh
Relativity type    :
Basis              : AO
                                X                 Y                 Z
Electronic contribution:     -1.817441602      -9.883836080       0.582319275
Nuclear contribution   :      1.581925676      10.098422692      -0.967843902
                        -----------------------------------------
Total Dipole Moment    :     -0.235515926       0.214586612      -0.385524627
                        -----------------------------------------
Magnitude (a.u.)       :      0.500144382
Magnitude (Debye)      :      1.271265990

Rotational constants in cm-1:             0.012125             0.005479             0.005074
Rotational constants in MHz :           363.508594           164.254458           152.112056

                             ****ORCA TERMINATED NORMALLY****
TOTAL RUN TIME: 0 days 0 hours 0 minutes 21 seconds 665 msec
