                         Program Version 6.0.0  -   RELEASE  -
|  1> ! pbe def2-sv(p) def2/J RI DEFGRID1 loosescf d4 GCP(DFT/SV(P)) printgap
|  2> %output
|  3>     printlevel normal
|  4> end
|  5> * xyz 0 1
|  6> C 4.4342067451 -1.0815131084 -2.4627029538
|  7> C 4.5561147509 -0.2056448615 -1.231906394
|  8> O 3.4683418062 0.7559297623 -1.1956319478
|  9> P 2.2826694758 0.6903610394 -0.1606777312
| 10> S 1.0413730452 2.1627605583 -0.497018714
| 11> O 3.0739365368 0.7080306832 1.2144294083
| 12> C 2.4704104132 0.7422291882 2.5219150721
| 13> C 2.4106025838 -0.6459905366 3.1267824029
| 14> S 1.4860704906 -1.2780472474 -0.3115318927
| 15> C 0.2047937405 -0.9484504804 -1.5661063652
| 16> S -1.3927085609 -1.6771232316 -1.131877714
| 17> P -2.0820404525 -0.2657471307 0.2714119416
| 18> S -1.0349212493 0.1454665862 1.8671729013
| 19> O -3.4996139662 -0.8266340358 0.7032584926
| 20> C -4.5389022009 -1.1823239863 -0.2413009405
| 21> C -4.6188922097 -2.6869981917 -0.4023856096
| 22> O -2.328839822 0.9530845692 -0.7381412605
| 23> C -2.4830203674 2.3069348869 -0.279918025
| 24> C -3.7914266292 2.5038668334 0.4572205979
| 25> H 3.5576183605 -1.7204695131 -2.3909408928
| 26> H 4.3507454561 -0.4621178603 -3.3514062719
| 27> H 5.3195873794 -1.7042416535 -2.5419765499
| 28> H 5.4624099101 0.4008152849 -1.2619183013
| 29> H 4.5417980156 -0.7991077541 -0.3157331714
| 30> H 3.1184089798 1.4007799664 3.1032343931
| 31> H 1.4713567791 1.1821823342 2.4527906288
| 32> H 2.0438736565 -0.5676610004 4.1449319735
| 33> H 1.7285322437 -1.2779471988 2.5626234615
| 34> H 3.3984447496 -1.0977353058 3.1296741089
| 35> H 0.497840701 -1.4203561505 -2.5001409689
| 36> H 0.0980273078 0.1334895646 -1.6780320511
| 37> H -5.4556126458 -0.784144606 0.197633134
| 38> H -4.3397817886 -0.6893789343 -1.1961212258
| 39> H -4.7626567597 -3.1559185793 0.5669687724
| 40> H -5.4574735829 -2.9300241603 -1.0472005399
| 41> H -3.7034435687 -3.0719280424 -0.846494594
| 42> H -1.6307675752 2.5589080535 0.3590868062
| 43> H -2.4306003285 2.9017594102 -1.1929642334
| 44> H -3.803822596 1.8889502561 1.3570483742
| 45> H -3.8860704263 3.5467903224 0.7426460681
| 46> H -4.6295289751 2.2258955596 -0.1768737569
| 47> *
| 48>
| 49>                          ****END OF INPUT****

CARTESIAN COORDINATES (ANGSTROEM)
---------------------------------
  C      4.434207   -1.081513   -2.462703
  C      4.556115   -0.205645   -1.231906
  O      3.468342    0.755930   -1.195632
  P      2.282669    0.690361   -0.160678
  S      1.041373    2.162761   -0.497019
  O      3.073937    0.708031    1.214429
  C      2.470410    0.742229    2.521915
  C      2.410603   -0.645991    3.126782
  S      1.486070   -1.278047   -0.311532
  C      0.204794   -0.948450   -1.566106
  S     -1.392709   -1.677123   -1.131878
  P     -2.082040   -0.265747    0.271412
  S     -1.034921    0.145467    1.867173
  O     -3.499614   -0.826634    0.703258
  C     -4.538902   -1.182324   -0.241301
  C     -4.618892   -2.686998   -0.402386
  O     -2.328840    0.953085   -0.738141
  C     -2.483020    2.306935   -0.279918
  C     -3.791427    2.503867    0.457221
  H      3.557618   -1.720470   -2.390941
  H      4.350745   -0.462118   -3.351406
  H      5.319587   -1.704242   -2.541977
  H      5.462410    0.400815   -1.261918
  H      4.541798   -0.799108   -0.315733
  H      3.118409    1.400780    3.103234
  H      1.471357    1.182182    2.452791
  H      2.043874   -0.567661    4.144932
  H      1.728532   -1.277947    2.562623
  H      3.398445   -1.097735    3.129674
  H      0.497841   -1.420356   -2.500141
  H      0.098027    0.133490   -1.678032
  H     -5.455613   -0.784145    0.197633
  H     -4.339782   -0.689379   -1.196121
  H     -4.762657   -3.155919    0.566969
  H     -5.457474   -2.930024   -1.047201
  H     -3.703444   -3.071928   -0.846495
  H     -1.630768    2.558908    0.359087
  H     -2.430600    2.901759   -1.192964
  H     -3.803823    1.888950    1.357048
  H     -3.886070    3.546790    0.742646
  H     -4.629529    2.225896   -0.176874

 Total Charge           Charge          ....    0
 Multiplicity           Mult            ....    1
 Number of Electrons    NEL             ....  202
 Basis Dimension        Dim             ....  334

ORBITAL ENERGIES
----------------

  NO   OCC          E(Eh)            E(eV)
   0   2.0000     -88.044431     -2395.8108
   1   2.0000     -88.040136     -2395.6939
   2   2.0000     -87.979796     -2394.0520
   3   2.0000     -87.978640     -2394.0205
   4   2.0000     -76.422356     -2079.5580
   5   2.0000     -76.422236     -2079.5548
   6   2.0000     -18.793063      -511.3852
   7   2.0000     -18.790510      -511.3158
   8   2.0000     -18.785649      -511.1835
   9   2.0000     -18.784772      -511.1596
  10   2.0000      -9.958565      -270.9863
  11   2.0000      -9.955575      -270.9050
  12   2.0000      -9.954746      -270.8824
  13   2.0000      -9.946597      -270.6607
  14   2.0000      -9.941619      -270.5252
  15   2.0000      -9.890102      -269.1234
  16   2.0000      -9.886422      -269.0232
  17   2.0000      -9.880917      -268.8734
  18   2.0000      -9.877260      -268.7739
  19   2.0000      -7.689867      -209.2519
  20   2.0000      -7.684856      -209.1156
  21   2.0000      -7.625007      -207.4870
  22   2.0000      -7.623801      -207.4542
  23   2.0000      -6.420060      -174.6987
  24   2.0000      -6.419950      -174.6957
  25   2.0000      -5.717748      -155.5878
  26   2.0000      -5.714333      -155.4949
  27   2.0000      -5.712680      -155.4499
  28   2.0000      -5.709452      -155.3621
  29   2.0000      -5.706784      -155.2895
  30   2.0000      -5.701834      -155.1548
  31   2.0000      -5.653991      -153.8529
  32   2.0000      -5.652852      -153.8219
  33   2.0000      -5.645757      -153.6289
  34   2.0000      -5.644870      -153.6047
  35   2.0000      -5.644400      -153.5919
  36   2.0000      -5.643758      -153.5745
  37   2.0000      -4.643034      -126.3434
  38   2.0000      -4.642724      -126.3349
  39   2.0000      -4.641755      -126.3086
  40   2.0000      -4.641609      -126.3046
  41   2.0000      -4.640383      -126.2713
  42   2.0000      -4.640190      -126.2660
  43   2.0000      -0.984303       -26.7842
  44   2.0000      -0.982578       -26.7373
  45   2.0000      -0.941481       -25.6190
  46   2.0000      -0.939970       -25.5779
  47   2.0000      -0.761798       -20.7296
  48   2.0000      -0.720377       -19.6024
  49   2.0000      -0.710666       -19.3382
  50   2.0000      -0.690408       -18.7870
  51   2.0000      -0.685666       -18.6579
  52   2.0000      -0.673076       -18.3153
  53   2.0000      -0.649068       -17.6620
  54   2.0000      -0.632397       -17.2084
  55   2.0000      -0.592198       -16.1145
  56   2.0000      -0.581402       -15.8207
  57   2.0000      -0.577642       -15.7184
  58   2.0000      -0.572484       -15.5781
  59   2.0000      -0.559795       -15.2328
  60   2.0000      -0.502894       -13.6844
  61   2.0000      -0.497150       -13.5281
  62   2.0000      -0.475463       -12.9380
  63   2.0000      -0.473809       -12.8930
  64   2.0000      -0.453000       -12.3267
  65   2.0000      -0.448518       -12.2048
  66   2.0000      -0.440323       -11.9818
  67   2.0000      -0.435899       -11.8614
  68   2.0000      -0.425344       -11.5742
  69   2.0000      -0.414135       -11.2692
  70   2.0000      -0.406803       -11.0697
  71   2.0000      -0.398745       -10.8504
  72   2.0000      -0.393765       -10.7149
  73   2.0000      -0.379080       -10.3153
  74   2.0000      -0.376894       -10.2558
  75   2.0000      -0.368810       -10.0358
  76   2.0000      -0.361941        -9.8489
  77   2.0000      -0.357897        -9.7389
  78   2.0000      -0.355888        -9.6842
  79   2.0000      -0.353685        -9.6243
  80   2.0000      -0.347401        -9.4533
  81   2.0000      -0.345165        -9.3924
  82   2.0000      -0.340532        -9.2664
  83   2.0000      -0.336079        -9.1452
  84   2.0000      -0.329327        -8.9614
  85   2.0000      -0.313308        -8.5256
  86   2.0000      -0.310734        -8.4555
  87   2.0000      -0.304881        -8.2962
  88   2.0000      -0.296012        -8.0549
  89   2.0000      -0.288276        -7.8444
  90   2.0000      -0.274412        -7.4671
  91   2.0000      -0.273016        -7.4291
  92   2.0000      -0.270627        -7.3641
  93   2.0000      -0.262709        -7.1487
  94   2.0000      -0.258540        -7.0352
  95   2.0000      -0.239639        -6.5209
  96   2.0000      -0.221919        -6.0387
  97   2.0000      -0.203680        -5.5424
  98   2.0000      -0.200197        -5.4476
  99   2.0000      -0.192013        -5.2249
 100   2.0000      -0.182455        -4.9649
 101   0.0000      -0.039376        -1.0715
 102   0.0000      -0.029814        -0.8113
 103   0.0000      -0.013177        -0.3586
 104   0.0000       0.008582         0.2335
 105   0.0000       0.019129         0.5205

MULLIKEN ATOMIC CHARGES
-----------------------
   0 C :   -0.289035
   1 C :   -0.008154
   2 O :   -0.358963
   3 P :    0.605976
   4 S :   -0.307538
   5 O :   -0.378986
   6 C :   -0.013355
   7 C :   -0.309008
   8 S :   -0.102833
   9 C :   -0.338540
  10 S :   -0.108792
  11 P :    0.624239
  12 S :   -0.312464
  13 O :   -0.366910
  14 C :   -0.034454
  15 C :   -0.291591
  16 O :   -0.385943
  17 C :   -0.017963
  18 C :   -0.313620
  19 H :    0.115708
  20 H :    0.119379
  21 H :    0.108798
  22 H :    0.111404
  23 H :    0.103481
  24 H :    0.104355
  25 H :    0.128815
  26 H :    0.112153
  27 H :    0.141123
  28 H :    0.107461
  29 H :    0.180726
  30 H :    0.196863
  31 H :    0.111966
  32 H :    0.111642
  33 H :    0.123794
  34 H :    0.111779
  35 H :    0.131562
  36 H :    0.132768
  37 H :    0.103640
  38 H :    0.129128
  39 H :    0.113425
  40 H :    0.107962
Sum of atomic charges:   -0.0000000

LOEWDIN ATOMIC CHARGES
----------------------
   0 C :   -0.360214
   1 C :   -0.112990
   2 O :   -0.241966
   3 P :    0.568083
   4 S :   -0.296285
   5 O :   -0.242410
   6 C :   -0.115163
   7 C :   -0.365119
   8 S :    0.070596
   9 C :   -0.477600
  10 S :    0.085519
  11 P :    0.568185
  12 S :   -0.303499
  13 O :   -0.241149
  14 C :   -0.121220
  15 C :   -0.359604
  16 O :   -0.251969
  17 C :   -0.124999
  18 C :   -0.366798
  19 H :    0.118685
  20 H :    0.128656
  21 H :    0.129328
  22 H :    0.121992
  23 H :    0.107344
  24 H :    0.118505
  25 H :    0.110596
  26 H :    0.132300
  27 H :    0.123123
  28 H :    0.121288
  29 H :    0.134616
  30 H :    0.124388
  31 H :    0.120947
  32 H :    0.109836
  33 H :    0.131025
  34 H :    0.131187
  35 H :    0.119753
  36 H :    0.110179
  37 H :    0.118139
  38 H :    0.125102
  39 H :    0.131592
  40 H :    0.120021

  Mayer bond orders larger than 0.100000
B(  0-C ,  1-C ) :   1.1636 B(  0-C , 19-H ) :   0.9383 B(  0-C , 20-H ) :   0.9464
B(  0-C , 21-H ) :   0.9402 B(  1-C ,  2-O ) :   0.8916 B(  1-C , 22-H ) :   0.9345
B(  1-C , 23-H ) :   0.9176 B(  2-O ,  3-P ) :   1.1316 B(  3-P ,  4-S ) :   1.6389
B(  3-P ,  5-O ) :   1.1135 B(  3-P ,  8-S ) :   0.9413 B(  4-S ,  8-S ) :   0.1134
B(  4-S , 30-H ) :   0.1082 B(  5-O ,  6-C ) :   0.8941 B(  6-C ,  7-C ) :   1.1721
B(  6-C , 24-H ) :   0.9340 B(  6-C , 25-H ) :   0.9042 B(  7-C , 26-H ) :   0.9398
B(  7-C , 27-H ) :   0.9313 B(  7-C , 28-H ) :   0.9472 B(  8-S ,  9-C ) :   0.9901
B(  9-C , 10-S ) :   1.0057 B(  9-C , 29-H ) :   0.9111 B(  9-C , 30-H ) :   0.8487
B( 10-S , 11-P ) :   0.9611 B( 10-S , 12-S ) :   0.1094 B( 11-P , 12-S ) :   1.6622
B( 11-P , 13-O ) :   1.1140 B( 11-P , 16-O ) :   1.0723 B( 13-O , 14-C ) :   0.8968
B( 14-C , 15-C ) :   1.1669 B( 14-C , 31-H ) :   0.9321 B( 14-C , 32-H ) :   0.9144
B( 15-C , 33-H ) :   0.9454 B( 15-C , 34-H ) :   0.9389 B( 15-C , 35-H ) :   0.9369
B( 16-O , 17-C ) :   0.9029 B( 17-C , 18-C ) :   1.1586 B( 17-C , 36-H ) :   0.9059
B( 17-C , 37-H ) :   0.9358 B( 18-C , 38-H ) :   0.9350 B( 18-C , 39-H ) :   0.9402
B( 18-C , 40-H ) :   0.9455

Dispersion correction           -0.066053053
FINAL SINGLE POINT ENERGY     -2929.515808666393

DIPOLE MOMENT
-------------

Method             : SCF
Type of density    : Electron Density
Multiplicity       :   1
Irrep              :   0
Energy             : -2929.6348361276632204 Eh
Relativity type    :
Basis              : AO
                                X                 Y                 Z
Electronic contribution:      4.203861580       2.914130797      -0.569403517
Nuclear contribution   :     -4.403781139      -3.565793995       0.012552273
                        -----------------------------------------
Total Dipole Moment    :     -0.199919559      -0.651663198      -0.556851244
                        -----------------------------------------
Magnitude (a.u.)       :      0.880179562
Magnitude (Debye)      :      2.237238650

Rotational constants in cm-1:             0.012623             0.004981             0.004638
Rotational constants in MHz :           378.434115           149.312875           139.033215

                             ****ORCA TERMINATED NORMALLY****
TOTAL RUN TIME: 0 days 0 hours 0 minutes 20 seconds 657 msec
