                         Program Version 6.0.0  -   RELEASE  -
|  1> ! pbe def2-sv(p) def2/J RI DEFGRID1 loosescf d4 GCP(DFT/SV(P)) printgap
|  2> %output
|  3>     printlevel normal
|  4> end
|  5> * xyz 0 1
|  6> C 3.2045931781 2.2830310031 2.2610097986
|  7> C 1.8993243905 1.7127436509 1.7451920669
|  8> O 1.8959706015 0.2652119346 1.7983427902
|  9> P 2.3787320626 -0.6764167181 0.6296948635
| 10> S 2.1857282937 -2.5633111016 1.1025878651
| 11> O 3.8642788419 -0.1795258473 0.3567875939
| 12> C 4.8289290712 -0.9786101345 -0.3509635079
| 13> C 4.4589205405 -1.1775558779 -1.8064907254
| 14> S 1.2948695278 -0.0240152593 -1.0933717928
| 15> C -0.1343599065 -1.1014046357 -0.8416536182
| 16> S -1.2207228246 -0.5363011048 0.4894393265
| 17> P -2.7216197637 0.4515619541 -0.6897344657
| 18> S -2.5172982026 0.340252065 -2.6302716558
| 19> O -2.8339823888 1.8944027242 -0.0228729723
| 20> C -1.732322054 2.7850227076 0.2227447353
| 21> C -0.9721429128 3.1425571749 -1.0378272896
| 22> O -4.105298237 -0.1724636236 -0.275041416
| 23> C -4.5709327603 -0.301957471 1.0920131751
| 24> C -4.5078039435 -1.7520696652 1.5295237992
| 25> H 4.0259177195 2.0019365841 1.6080486868
| 26> H 3.1276785336 3.3653863401 2.2943481229
| 27> H 3.406133226 1.9069360482 3.2602918924
| 28> H 1.7113591876 2.0287559996 0.7148727437
| 29> H 1.0633588191 2.0010841195 2.3855712336
| 30> H 5.7585639374 -0.4174507243 -0.2462089511
| 31> H 4.9172925087 -1.9429843851 0.158649013
| 32> H 4.2501069097 -0.2213506902 -2.2798811312
| 33> H 5.2818052047 -1.6627235472 -2.3215951765
| 34> H 3.5755800467 -1.8095256813 -1.8853711366
| 35> H 0.219131969 -2.0965398963 -0.5703170905
| 36> H -0.6944035602 -1.1097700425 -1.7791708039
| 37> H -2.2072833589 3.6630292131 0.6640571098
| 38> H -1.0700091707 2.3143676628 0.9556552226
| 39> H -0.2285346453 3.8990546933 -0.8081664175
| 40> H -0.4717533025 2.2649860849 -1.4464415072
| 41> H -1.6540108253 3.5265490433 -1.7925826657
| 42> H -3.9691408032 0.3373390775 1.7408881761
| 43> H -5.5998525472 0.060649894 1.0705306672
| 44> H -3.4766941525 -2.095112364 1.5729543353
| 45> H -4.9530277819 -1.845779294 2.5149372229
| 46> H -5.0554589776 -2.3751244156 0.827880336
| 47> *
| 48>
| 49>                          ****END OF INPUT****

CARTESIAN COORDINATES (ANGSTROEM)
---------------------------------
  C      3.204593    2.283031    2.261010
  C      1.899324    1.712744    1.745192
  O      1.895971    0.265212    1.798343
  P      2.378732   -0.676417    0.629695
  S      2.185728   -2.563311    1.102588
  O      3.864279   -0.179526    0.356788
  C      4.828929   -0.978610   -0.350964
  C      4.458921   -1.177556   -1.806491
  S      1.294870   -0.024015   -1.093372
  C     -0.134360   -1.101405   -0.841654
  S     -1.220723   -0.536301    0.489439
  P     -2.721620    0.451562   -0.689734
  S     -2.517298    0.340252   -2.630272
  O     -2.833982    1.894403   -0.022873
  C     -1.732322    2.785023    0.222745
  C     -0.972143    3.142557   -1.037827
  O     -4.105298   -0.172464   -0.275041
  C     -4.570933   -0.301957    1.092013
  C     -4.507804   -1.752070    1.529524
  H      4.025918    2.001937    1.608049
  H      3.127679    3.365386    2.294348
  H      3.406133    1.906936    3.260292
  H      1.711359    2.028756    0.714873
  H      1.063359    2.001084    2.385571
  H      5.758564   -0.417451   -0.246209
  H      4.917293   -1.942984    0.158649
  H      4.250107   -0.221351   -2.279881
  H      5.281805   -1.662724   -2.321595
  H      3.575580   -1.809526   -1.885371
  H      0.219132   -2.096540   -0.570317
  H     -0.694404   -1.109770   -1.779171
  H     -2.207283    3.663029    0.664057
  H     -1.070009    2.314368    0.955655
  H     -0.228535    3.899055   -0.808166
  H     -0.471753    2.264986   -1.446442
  H     -1.654011    3.526549   -1.792583
  H     -3.969141    0.337339    1.740888
  H     -5.599853    0.060650    1.070531
  H     -3.476694   -2.095112    1.572954
  H     -4.953028   -1.845779    2.514937
  H     -5.055459   -2.375124    0.827880

 Total Charge           Charge          ....    0
 Multiplicity           Mult            ....    1
 Number of Electrons    NEL             ....  202
 Basis Dimension        Dim             ....  334

ORBITAL ENERGIES
----------------

  NO   OCC          E(Eh)            E(eV)
   0   2.0000     -88.046603     -2395.8699
   1   2.0000     -88.044888     -2395.8232
   2   2.0000     -87.990617     -2394.3464
   3   2.0000     -87.987573     -2394.2636
   4   2.0000     -76.430482     -2079.7792
   5   2.0000     -76.427806     -2079.7063
   6   2.0000     -18.800000      -511.5740
   7   2.0000     -18.796105      -511.4680
   8   2.0000     -18.794695      -511.4297
   9   2.0000     -18.791007      -511.3293
  10   2.0000      -9.961835      -271.0753
  11   2.0000      -9.958882      -270.9949
  12   2.0000      -9.958229      -270.9772
  13   2.0000      -9.958031      -270.9718
  14   2.0000      -9.951086      -270.7828
  15   2.0000      -9.891108      -269.1507
  16   2.0000      -9.887414      -269.0502
  17   2.0000      -9.885621      -269.0014
  18   2.0000      -9.884071      -268.9593
  19   2.0000      -7.691009      -209.2830
  20   2.0000      -7.689342      -209.2376
  21   2.0000      -7.635860      -207.7823
  22   2.0000      -7.632838      -207.7001
  23   2.0000      -6.428135      -174.9184
  24   2.0000      -6.425148      -174.8372
  25   2.0000      -5.718636      -155.6120
  26   2.0000      -5.717065      -155.5693
  27   2.0000      -5.715588      -155.5290
  28   2.0000      -5.713845      -155.4816
  29   2.0000      -5.708265      -155.3298
  30   2.0000      -5.706574      -155.2838
  31   2.0000      -5.664831      -154.1479
  32   2.0000      -5.661917      -154.0686
  33   2.0000      -5.656347      -153.9170
  34   2.0000      -5.656066      -153.9094
  35   2.0000      -5.653430      -153.8376
  36   2.0000      -5.652806      -153.8207
  37   2.0000      -4.651023      -126.5608
  38   2.0000      -4.649805      -126.5276
  39   2.0000      -4.648376      -126.4888
  40   2.0000      -4.647829      -126.4739
  41   2.0000      -4.647077      -126.4534
  42   2.0000      -4.645393      -126.4076
  43   2.0000      -0.993358       -27.0306
  44   2.0000      -0.989259       -26.9191
  45   2.0000      -0.951358       -25.8878
  46   2.0000      -0.945248       -25.7215
  47   2.0000      -0.764164       -20.7940
  48   2.0000      -0.724634       -19.7183
  49   2.0000      -0.715691       -19.4749
  50   2.0000      -0.695181       -18.9169
  51   2.0000      -0.690715       -18.7953
  52   2.0000      -0.680145       -18.5077
  53   2.0000      -0.653321       -17.7778
  54   2.0000      -0.641200       -17.4479
  55   2.0000      -0.600385       -16.3373
  56   2.0000      -0.591080       -16.0841
  57   2.0000      -0.581502       -15.8235
  58   2.0000      -0.577719       -15.7205
  59   2.0000      -0.563286       -15.3278
  60   2.0000      -0.508510       -13.8373
  61   2.0000      -0.502067       -13.6619
  62   2.0000      -0.480179       -13.0663
  63   2.0000      -0.474405       -12.9092
  64   2.0000      -0.459977       -12.5166
  65   2.0000      -0.453280       -12.3344
  66   2.0000      -0.443520       -12.0688
  67   2.0000      -0.439488       -11.9591
  68   2.0000      -0.434784       -11.8311
  69   2.0000      -0.426488       -11.6053
  70   2.0000      -0.414038       -11.2666
  71   2.0000      -0.403305       -10.9745
  72   2.0000      -0.398445       -10.8422
  73   2.0000      -0.386565       -10.5190
  74   2.0000      -0.381274       -10.3750
  75   2.0000      -0.372574       -10.1383
  76   2.0000      -0.366161        -9.9637
  77   2.0000      -0.358044        -9.7429
  78   2.0000      -0.356651        -9.7050
  79   2.0000      -0.355024        -9.6607
  80   2.0000      -0.353944        -9.6313
  81   2.0000      -0.349573        -9.5124
  82   2.0000      -0.346818        -9.4374
  83   2.0000      -0.344053        -9.3622
  84   2.0000      -0.338484        -9.2106
  85   2.0000      -0.320845        -8.7306
  86   2.0000      -0.312872        -8.5137
  87   2.0000      -0.302014        -8.2182
  88   2.0000      -0.298707        -8.1282
  89   2.0000      -0.296457        -8.0670
  90   2.0000      -0.294930        -8.0254
  91   2.0000      -0.278806        -7.5867
  92   2.0000      -0.277062        -7.5393
  93   2.0000      -0.267679        -7.2839
  94   2.0000      -0.259673        -7.0661
  95   2.0000      -0.238205        -6.4819
  96   2.0000      -0.220466        -5.9992
  97   2.0000      -0.213810        -5.8181
  98   2.0000      -0.206011        -5.6059
  99   2.0000      -0.204641        -5.5686
 100   2.0000      -0.201919        -5.4945
 101   0.0000      -0.045998        -1.2517
 102   0.0000      -0.033194        -0.9033
 103   0.0000      -0.012104        -0.3294
 104   0.0000      -0.000034        -0.0009
 105   0.0000       0.010356         0.2818

MULLIKEN ATOMIC CHARGES
-----------------------
   0 C :   -0.281756
   1 C :   -0.043675
   2 O :   -0.350021
   3 P :    0.604172
   4 S :   -0.309274
   5 O :   -0.381905
   6 C :   -0.001759
   7 C :   -0.318188
   8 S :   -0.095578
   9 C :   -0.361990
  10 S :   -0.110325
  11 P :    0.595863
  12 S :   -0.299659
  13 O :   -0.377306
  14 C :   -0.021144
  15 C :   -0.319727
  16 O :   -0.351972
  17 C :   -0.013477
  18 C :   -0.289326
  19 H :    0.124153
  20 H :    0.108596
  21 H :    0.120366
  22 H :    0.111911
  23 H :    0.122066
  24 H :    0.105865
  25 H :    0.115103
  26 H :    0.118366
  27 H :    0.115858
  28 H :    0.130062
  29 H :    0.196793
  30 H :    0.194980
  31 H :    0.106032
  32 H :    0.116696
  33 H :    0.106900
  34 H :    0.135040
  35 H :    0.126155
  36 H :    0.101473
  37 H :    0.113043
  38 H :    0.125946
  39 H :    0.109602
  40 H :    0.122042
Sum of atomic charges:   -0.0000000

LOEWDIN ATOMIC CHARGES
----------------------
   0 C :   -0.360427
   1 C :   -0.118822
   2 O :   -0.233486
   3 P :    0.570672
   4 S :   -0.303770
   5 O :   -0.246325
   6 C :   -0.116541
   7 C :   -0.370780
   8 S :    0.088234
   9 C :   -0.491383
  10 S :    0.069392
  11 P :    0.566663
  12 S :   -0.292026
  13 O :   -0.245858
  14 C :   -0.119235
  15 C :   -0.372008
  16 O :   -0.234887
  17 C :   -0.112170
  18 C :   -0.360155
  19 H :    0.126631
  20 H :    0.129298
  21 H :    0.129627
  22 H :    0.103579
  23 H :    0.119795
  24 H :    0.118812
  25 H :    0.113995
  26 H :    0.123921
  27 H :    0.132536
  28 H :    0.122491
  29 H :    0.127850
  30 H :    0.126626
  31 H :    0.119878
  32 H :    0.103998
  33 H :    0.126972
  34 H :    0.113925
  35 H :    0.130830
  36 H :    0.106727
  37 H :    0.122838
  38 H :    0.122633
  39 H :    0.129606
  40 H :    0.130344

  Mayer bond orders larger than 0.100000
B(  0-C ,  1-C ) :   1.1575 B(  0-C , 19-H ) :   0.9388 B(  0-C , 20-H ) :   0.9394
B(  0-C , 21-H ) :   0.9459 B(  1-C ,  2-O ) :   0.8991 B(  1-C , 22-H ) :   0.9077
B(  1-C , 23-H ) :   0.9274 B(  2-O ,  3-P ) :   1.1425 B(  3-P ,  4-S ) :   1.6369
B(  3-P ,  5-O ) :   1.0870 B(  3-P ,  8-S ) :   0.9451 B(  4-S ,  8-S ) :   0.1084
B(  5-O ,  6-C ) :   0.9032 B(  6-C ,  7-C ) :   1.1661 B(  6-C , 24-H ) :   0.9339
B(  6-C , 25-H ) :   0.9185 B(  7-C , 26-H ) :   0.9436 B(  7-C , 27-H ) :   0.9368
B(  7-C , 28-H ) :   0.9351 B(  8-S ,  9-C ) :   1.0072 B(  9-C , 10-S ) :   1.0102
B(  9-C , 29-H ) :   0.8652 B(  9-C , 30-H ) :   0.8516 B( 10-S , 11-P ) :   0.9272
B( 10-S , 12-S ) :   0.1164 B( 11-P , 12-S ) :   1.6451 B( 11-P , 13-O ) :   1.0870
B( 11-P , 16-O ) :   1.1472 B( 12-S , 30-H ) :   0.1139 B( 13-O , 14-C ) :   0.9151
B( 14-C , 15-C ) :   1.1674 B( 14-C , 31-H ) :   0.9325 B( 14-C , 32-H ) :   0.9137
B( 15-C , 33-H ) :   0.9341 B( 15-C , 34-H ) :   0.9222 B( 15-C , 35-H ) :   0.9413
B( 16-O , 17-C ) :   0.8908 B( 17-C , 18-C ) :   1.1642 B( 17-C , 36-H ) :   0.9196
B( 17-C , 37-H ) :   0.9348 B( 18-C , 38-H ) :   0.9381 B( 18-C , 39-H ) :   0.9398
B( 18-C , 40-H ) :   0.9464

Dispersion correction           -0.063932377
FINAL SINGLE POINT ENERGY     -2929.519145111282

DIPOLE MOMENT
-------------

Method             : SCF
Type of density    : Electron Density
Multiplicity       :   1
Irrep              :   0
Energy             : -2929.6399057577250460 Eh
Relativity type    :
Basis              : AO
                                X                 Y                 Z
Electronic contribution:     -7.087341041     -10.062316641      -5.459138630
Nuclear contribution   :      7.761168874      11.372780928       6.371331433
                        -----------------------------------------
Total Dipole Moment    :      0.673827833       1.310464288       0.912192803
                        -----------------------------------------
Magnitude (a.u.)       :      1.733048270
Magnitude (Debye)      :      4.405058628

Rotational constants in cm-1:             0.012169             0.004483             0.004323
Rotational constants in MHz :           364.809377           134.387594           129.613257

                             ****ORCA TERMINATED NORMALLY****
TOTAL RUN TIME: 0 days 0 hours 0 minutes 20 seconds 991 msec
