                         Program Version 6.0.0  -   RELEASE  -
|  1> ! pbe def2-sv(p) def2/J RI DEFGRID1 loosescf d4 GCP(DFT/SV(P)) printgap
|  2> %output
|  3>     printlevel normal
|  4> end
|  5> * xyz 0 1
|  6> C 3.6993614222 -0.2748044025 -2.6103095388
|  7> C 2.4780554186 0.5698031019 -2.3169403541
|  8> O 1.7899892713 0.1224245242 -1.1337468085
|  9> P 2.40382136 0.268447754 0.3185931899
| 10> S 3.526783659 1.8369644377 0.6496545822
| 11> O 3.1352365924 -1.1411288896 0.4945715132
| 12> C 4.1299731546 -1.3551245125 1.5098634618
| 13> C 3.5304672917 -1.3591428991 2.9019115323
| 14> S 0.6342419698 0.1187381314 1.4456188547
| 15> C -0.0546346292 -1.4117944012 0.695535157
| 16> S -1.8395934877 -1.4466426196 0.890363708
| 17> P -2.284236304 0.0815857327 -0.5346192706
| 18> S -1.2660537145 0.0301417207 -2.203066929
| 19> O -2.0422394858 1.4670159923 0.1776189534
| 20> C -2.6444265031 1.8397618712 1.4414151538
| 21> C -3.8460571676 2.7337818075 1.2152892038
| 22> O -3.8687769955 0.0188389273 -0.6184252227
| 23> C -4.6415024861 -1.1790969026 -0.828871268
| 24> C -4.2052331216 -1.95148829 -2.055672589
| 25> H 4.4421359364 -0.1344958958 -1.8257924947
| 26> H 3.4269197151 -1.3258209292 -2.6579003388
| 27> H 4.1256211609 0.0318289897 -3.560209488
| 28> H 1.7194675612 0.4860545645 -3.0979225231
| 29> H 2.7542873344 1.6200576238 -2.1794829289
| 30> H 4.5665655917 -2.3211120106 1.252903602
| 31> H 4.8854764953 -0.5677246846 1.4236526764
| 32> H 4.3074506307 -1.5826608679 3.6258576524
| 33> H 3.1109755974 -0.3785672952 3.1268264479
| 34> H 2.7432498607 -2.1045219474 2.9792152358
| 35> H 0.3401298132 -2.2792591356 1.2169751541
| 36> H 0.1917861714 -1.4214329051 -0.3660273127
| 37> H -2.9209250608 0.9324919951 1.9860480021
| 38> H -1.8501002389 2.3595748104 1.9811051822
| 39> H -4.2459636348 3.0393599327 2.17700885
| 40> H -3.5535039896 3.6153277067 0.6514177786
| 41> H -4.6122306337 2.2008676353 0.6583642312
| 42> H -4.5581142015 -1.7982584482 0.0683701831
| 43> H -5.663232482 -0.8099026384 -0.9334014058
| 44> H -3.1906209157 -2.3245830425 -1.924047854
| 45> H -4.8745357054 -2.7916803421 -2.2096551444
| 46> H -4.2228421458 -1.3105720406 -2.9341603829
| 47> *
| 48>
| 49>                          ****END OF INPUT****

CARTESIAN COORDINATES (ANGSTROEM)
---------------------------------
  C      3.699361   -0.274804   -2.610310
  C      2.478055    0.569803   -2.316940
  O      1.789989    0.122425   -1.133747
  P      2.403821    0.268448    0.318593
  S      3.526784    1.836964    0.649655
  O      3.135237   -1.141129    0.494572
  C      4.129973   -1.355125    1.509863
  C      3.530467   -1.359143    2.901912
  S      0.634242    0.118738    1.445619
  C     -0.054635   -1.411794    0.695535
  S     -1.839593   -1.446643    0.890364
  P     -2.284236    0.081586   -0.534619
  S     -1.266054    0.030142   -2.203067
  O     -2.042239    1.467016    0.177619
  C     -2.644427    1.839762    1.441415
  C     -3.846057    2.733782    1.215289
  O     -3.868777    0.018839   -0.618425
  C     -4.641502   -1.179097   -0.828871
  C     -4.205233   -1.951488   -2.055673
  H      4.442136   -0.134496   -1.825792
  H      3.426920   -1.325821   -2.657900
  H      4.125621    0.031829   -3.560209
  H      1.719468    0.486055   -3.097923
  H      2.754287    1.620058   -2.179483
  H      4.566566   -2.321112    1.252904
  H      4.885476   -0.567725    1.423653
  H      4.307451   -1.582661    3.625858
  H      3.110976   -0.378567    3.126826
  H      2.743250   -2.104522    2.979215
  H      0.340130   -2.279259    1.216975
  H      0.191786   -1.421433   -0.366027
  H     -2.920925    0.932492    1.986048
  H     -1.850100    2.359575    1.981105
  H     -4.245964    3.039360    2.177009
  H     -3.553504    3.615328    0.651418
  H     -4.612231    2.200868    0.658364
  H     -4.558114   -1.798258    0.068370
  H     -5.663232   -0.809903   -0.933401
  H     -3.190621   -2.324583   -1.924048
  H     -4.874536   -2.791680   -2.209655
  H     -4.222842   -1.310572   -2.934160

 Total Charge           Charge          ....    0
 Multiplicity           Mult            ....    1
 Number of Electrons    NEL             ....  202
 Basis Dimension        Dim             ....  334

ORBITAL ENERGIES
----------------

  NO   OCC          E(Eh)            E(eV)
   0   2.0000     -88.052420     -2396.0282
   1   2.0000     -88.038114     -2395.6389
   2   2.0000     -87.985191     -2394.1988
   3   2.0000     -87.981919     -2394.1097
   4   2.0000     -76.427238     -2079.6909
   5   2.0000     -76.421715     -2079.5406
   6   2.0000     -18.799186      -511.5519
   7   2.0000     -18.788482      -511.2606
   8   2.0000     -18.787857      -511.2436
   9   2.0000     -18.782482      -511.0973
  10   2.0000      -9.963826      -271.1295
  11   2.0000      -9.957188      -270.9489
  12   2.0000      -9.952025      -270.8084
  13   2.0000      -9.950655      -270.7711
  14   2.0000      -9.943384      -270.5732
  15   2.0000      -9.886747      -269.0321
  16   2.0000      -9.884684      -268.9759
  17   2.0000      -9.884148      -268.9613
  18   2.0000      -9.878311      -268.8025
  19   2.0000      -7.697268      -209.4533
  20   2.0000      -7.683286      -209.0729
  21   2.0000      -7.630331      -207.6319
  22   2.0000      -7.627116      -207.5444
  23   2.0000      -6.424514      -174.8199
  24   2.0000      -6.419546      -174.6847
  25   2.0000      -5.724915      -155.7828
  26   2.0000      -5.721671      -155.6946
  27   2.0000      -5.714644      -155.5034
  28   2.0000      -5.711691      -155.4230
  29   2.0000      -5.707747      -155.3157
  30   2.0000      -5.699763      -155.0984
  31   2.0000      -5.659306      -153.9975
  32   2.0000      -5.656206      -153.9132
  33   2.0000      -5.650986      -153.7711
  34   2.0000      -5.650422      -153.7558
  35   2.0000      -5.647647      -153.6803
  36   2.0000      -5.647155      -153.6669
  37   2.0000      -4.647350      -126.4608
  38   2.0000      -4.646635      -126.4414
  39   2.0000      -4.644428      -126.3813
  40   2.0000      -4.641827      -126.3105
  41   2.0000      -4.641502      -126.3017
  42   2.0000      -4.640096      -126.2634
  43   2.0000      -0.990245       -26.9459
  44   2.0000      -0.981475       -26.7073
  45   2.0000      -0.946056       -25.7435
  46   2.0000      -0.940370       -25.5888
  47   2.0000      -0.765267       -20.8240
  48   2.0000      -0.721046       -19.6207
  49   2.0000      -0.709497       -19.3064
  50   2.0000      -0.692838       -18.8531
  51   2.0000      -0.684460       -18.6251
  52   2.0000      -0.672862       -18.3095
  53   2.0000      -0.652092       -17.7443
  54   2.0000      -0.638333       -17.3699
  55   2.0000      -0.594853       -16.1868
  56   2.0000      -0.590942       -16.0804
  57   2.0000      -0.573933       -15.6175
  58   2.0000      -0.569115       -15.4864
  59   2.0000      -0.567082       -15.4311
  60   2.0000      -0.503341       -13.6966
  61   2.0000      -0.489173       -13.3111
  62   2.0000      -0.476240       -12.9592
  63   2.0000      -0.468296       -12.7430
  64   2.0000      -0.456980       -12.4351
  65   2.0000      -0.447218       -12.1694
  66   2.0000      -0.439608       -11.9623
  67   2.0000      -0.436072       -11.8661
  68   2.0000      -0.432647       -11.7729
  69   2.0000      -0.418245       -11.3810
  70   2.0000      -0.412554       -11.2262
  71   2.0000      -0.400116       -10.8877
  72   2.0000      -0.392365       -10.6768
  73   2.0000      -0.387322       -10.5396
  74   2.0000      -0.386200       -10.5090
  75   2.0000      -0.375912       -10.2291
  76   2.0000      -0.359061        -9.7705
  77   2.0000      -0.355668        -9.6782
  78   2.0000      -0.352629        -9.5955
  79   2.0000      -0.350230        -9.5302
  80   2.0000      -0.345177        -9.3928
  81   2.0000      -0.343707        -9.3527
  82   2.0000      -0.341492        -9.2925
  83   2.0000      -0.337033        -9.1711
  84   2.0000      -0.327720        -8.9177
  85   2.0000      -0.322615        -8.7788
  86   2.0000      -0.315193        -8.5768
  87   2.0000      -0.300093        -8.1659
  88   2.0000      -0.293405        -7.9840
  89   2.0000      -0.287234        -7.8160
  90   2.0000      -0.281762        -7.6671
  91   2.0000      -0.278074        -7.5668
  92   2.0000      -0.267413        -7.2767
  93   2.0000      -0.265136        -7.2147
  94   2.0000      -0.259661        -7.0657
  95   2.0000      -0.239346        -6.5129
  96   2.0000      -0.214707        -5.8425
  97   2.0000      -0.206130        -5.6091
  98   2.0000      -0.202204        -5.5023
  99   2.0000      -0.198558        -5.4031
 100   2.0000      -0.195930        -5.3315
 101   0.0000      -0.044339        -1.2065
 102   0.0000      -0.021876        -0.5953
 103   0.0000      -0.021220        -0.5774
 104   0.0000       0.003046         0.0829
 105   0.0000       0.014527         0.3953

MULLIKEN ATOMIC CHARGES
-----------------------
   0 C :   -0.307349
   1 C :    0.000257
   2 O :   -0.364826
   3 P :    0.617848
   4 S :   -0.322920
   5 O :   -0.385941
   6 C :   -0.006977
   7 C :   -0.310880
   8 S :   -0.082469
   9 C :   -0.355893
  10 S :   -0.117018
  11 P :    0.597189
  12 S :   -0.299622
  13 O :   -0.340761
  14 C :   -0.013144
  15 C :   -0.284814
  16 O :   -0.378442
  17 C :   -0.014682
  18 C :   -0.309061
  19 H :    0.119055
  20 H :    0.114648
  21 H :    0.111051
  22 H :    0.111641
  23 H :    0.111573
  24 H :    0.103364
  25 H :    0.111008
  26 H :    0.112239
  27 H :    0.127835
  28 H :    0.111248
  29 H :    0.181938
  30 H :    0.212873
  31 H :    0.094594
  32 H :    0.115063
  33 H :    0.108601
  34 H :    0.122274
  35 H :    0.117072
  36 H :    0.114553
  37 H :    0.111448
  38 H :    0.125704
  39 H :    0.112199
  40 H :    0.129522
Sum of atomic charges:   -0.0000000

LOEWDIN ATOMIC CHARGES
----------------------
   0 C :   -0.365171
   1 C :   -0.113804
   2 O :   -0.232628
   3 P :    0.568881
   4 S :   -0.321126
   5 O :   -0.252852
   6 C :   -0.121610
   7 C :   -0.367363
   8 S :    0.080421
   9 C :   -0.474010
  10 S :    0.071505
  11 P :    0.569256
  12 S :   -0.296016
  13 O :   -0.227180
  14 C :   -0.118736
  15 C :   -0.358162
  16 O :   -0.244519
  17 C :   -0.114837
  18 C :   -0.369696
  19 H :    0.120908
  20 H :    0.125489
  21 H :    0.129876
  22 H :    0.118141
  23 H :    0.112207
  24 H :    0.117447
  25 H :    0.109792
  26 H :    0.130644
  27 H :    0.122040
  28 H :    0.121405
  29 H :    0.131201
  30 H :    0.129675
  31 H :    0.099885
  32 H :    0.121491
  33 H :    0.128878
  34 H :    0.129868
  35 H :    0.124767
  36 H :    0.108163
  37 H :    0.122209
  38 H :    0.121269
  39 H :    0.130562
  40 H :    0.131732

  Mayer bond orders larger than 0.100000
B(  0-C ,  1-C ) :   1.1621 B(  0-C , 19-H ) :   0.9371 B(  0-C , 20-H ) :   0.9466
B(  0-C , 21-H ) :   0.9392 B(  1-C ,  2-O ) :   0.9047 B(  1-C , 22-H ) :   0.9285
B(  1-C , 23-H ) :   0.9204 B(  2-O ,  3-P ) :   1.1217 B(  3-P ,  4-S ) :   1.6318
B(  3-P ,  5-O ) :   1.0611 B(  3-P ,  8-S ) :   0.9778 B(  5-O ,  6-C ) :   0.9164
B(  6-C ,  7-C ) :   1.1639 B(  6-C , 24-H ) :   0.9340 B(  6-C , 25-H ) :   0.9140
B(  7-C , 26-H ) :   0.9385 B(  7-C , 27-H ) :   0.9349 B(  7-C , 28-H ) :   0.9454
B(  8-S ,  9-C ) :   0.9607 B(  9-C , 10-S ) :   1.0221 B(  9-C , 29-H ) :   0.9064
B(  9-C , 30-H ) :   0.8581 B( 10-S , 11-P ) :   0.9229 B( 10-S , 12-S ) :   0.1103
B( 11-P , 12-S ) :   1.6673 B( 11-P , 13-O ) :   1.1477 B( 11-P , 16-O ) :   1.0814
B( 13-O , 14-C ) :   0.8916 B( 14-C , 15-C ) :   1.1648 B( 14-C , 31-H ) :   0.9121
B( 14-C , 32-H ) :   0.9320 B( 15-C , 33-H ) :   0.9405 B( 15-C , 34-H ) :   0.9472
B( 15-C , 35-H ) :   0.9434 B( 16-O , 17-C ) :   0.9115 B( 17-C , 18-C ) :   1.1672
B( 17-C , 36-H ) :   0.9267 B( 17-C , 37-H ) :   0.9329 B( 18-C , 38-H ) :   0.9318
B( 18-C , 39-H ) :   0.9343 B( 18-C , 40-H ) :   0.9425

Dispersion correction           -0.064366545
FINAL SINGLE POINT ENERGY     -2929.514920480401

DIPOLE MOMENT
-------------

Method             : SCF
Type of density    : Electron Density
Multiplicity       :   1
Irrep              :   0
Energy             : -2929.6361652202044752 Eh
Relativity type    :
Basis              : AO
                                X                 Y                 Z
Electronic contribution:      2.103235784       5.478895957       0.899379696
Nuclear contribution   :     -3.039695681      -6.762023076      -0.353042257
                        -----------------------------------------
Total Dipole Moment    :     -0.936459897      -1.283127119       0.546337439
                        -----------------------------------------
Magnitude (a.u.)       :      1.679838367
Magnitude (Debye)      :      4.269809801

Rotational constants in cm-1:             0.012663             0.004593             0.004360
Rotational constants in MHz :           379.613060           137.704796           130.694709

                             ****ORCA TERMINATED NORMALLY****
TOTAL RUN TIME: 0 days 0 hours 0 minutes 20 seconds 793 msec
