                         Program Version 6.0.1  -  RELEASE   -
|  1> ! pbe def2-sv(p) def2/J RI DEFGRID1 loosescf d4 GCP(DFT/SV(P)) printgap
|  2> %output
|  3>     printlevel normal
|  4> end
|  5> * xyz 0 1
|  6> C 2.2206355809 -3.2773391468 0.7966163814
|  7> C 3.2575961625 -2.3057278368 0.2573243031
|  8> O 2.754117981 -1.6135004834 -0.9015800118
|  9> C 2.1141150282 -0.4787454996 -0.7388567173
| 10> O 1.9159849725 0.070152902 0.3261188955
| 11> C 1.6597830508 0.1212972948 -2.0529093267
| 12> C 0.3333882886 0.8475224835 -1.8470293952
| 13> H 0.1152618287 1.4815176684 -2.7101373457
| 14> C 0.3423538534 1.7221634421 -0.6074124507
| 15> O -0.5168596519 1.6373957666 0.2558941309
| 16> O 1.2614368872 2.6422204959 -0.6621407159
| 17> C 1.3801512219 3.5781054994 0.4334257335
| 18> C 2.3254754458 3.0494702176 1.4980016083
| 19> S -1.0708173065 -0.3183685488 -1.7318342975
| 20> P -1.736200233 -0.4062766328 0.2846300204
| 21> S -0.6350000565 -0.8331642843 1.8600108956
| 22> O -2.9390096494 0.621208395 0.4604914216
| 23> C -3.0106039951 1.6265264672 1.4713109887
| 24> O -2.7303102834 -1.6487466473 -0.0033182162
| 25> C -2.2533816383 -2.9863872837 -0.1392214715
| 26> H 1.8968908014 -3.9553541868 0.011713724
| 27> H 2.6524523162 -3.8490804602 1.6110716952
| 28> H 1.3576066735 -2.7323498224 1.1763251714
| 29> H 4.1441199364 -2.8287078158 -0.102127388
| 30> H 3.5260720939 -1.5683068195 1.0188171232
| 31> H 1.562156035 -0.6559190297 -2.8085267035
| 32> H 2.4185514116 0.8415513538 -2.3675440192
| 33> H 1.7672812166 4.4843704292 -0.0330786906
| 34> H 0.3854510739 3.7540581972 0.8510097984
| 35> H 1.9636939482 2.0950898637 1.8757646306
| 36> H 3.3178605653 2.9013106916 1.0822868262
| 37> H 2.3784249975 3.7595414698 2.3164784445
| 38> H -2.265637798 1.4423910556 2.2477360517
| 39> H -4.0135967703 1.5710817356 1.8898850566
| 40> H -2.8350575694 2.5996383745 1.0152838463
| 41> H -3.1307460801 -3.6217489773 -0.0469976716
| 42> H -1.5384588267 -3.2110377366 0.6559976378
| 43> H -1.7834683514 -3.1232830884 -1.113808422
| 44> *
| 45>
| 46>                          ****END OF INPUT****

CARTESIAN COORDINATES (ANGSTROEM)
---------------------------------
  C      2.220636   -3.277339    0.796616
  C      3.257596   -2.305728    0.257324
  O      2.754118   -1.613500   -0.901580
  C      2.114115   -0.478745   -0.738857
  O      1.915985    0.070153    0.326119
  C      1.659783    0.121297   -2.052909
  C      0.333388    0.847522   -1.847029
  H      0.115262    1.481518   -2.710137
  C      0.342354    1.722163   -0.607412
  O     -0.516860    1.637396    0.255894
  O      1.261437    2.642220   -0.662141
  C      1.380151    3.578105    0.433426
  C      2.325475    3.049470    1.498002
  S     -1.070817   -0.318369   -1.731834
  P     -1.736200   -0.406277    0.284630
  S     -0.635000   -0.833164    1.860011
  O     -2.939010    0.621208    0.460491
  C     -3.010604    1.626526    1.471311
  O     -2.730310   -1.648747   -0.003318
  C     -2.253382   -2.986387   -0.139221
  H      1.896891   -3.955354    0.011714
  H      2.652452   -3.849080    1.611072
  H      1.357607   -2.732350    1.176325
  H      4.144120   -2.828708   -0.102127
  H      3.526072   -1.568307    1.018817
  H      1.562156   -0.655919   -2.808527
  H      2.418551    0.841551   -2.367544
  H      1.767281    4.484370   -0.033079
  H      0.385451    3.754058    0.851010
  H      1.963694    2.095090    1.875765
  H      3.317861    2.901311    1.082287
  H      2.378425    3.759541    2.316478
  H     -2.265638    1.442391    2.247736
  H     -4.013597    1.571082    1.889885
  H     -2.835058    2.599638    1.015284
  H     -3.130746   -3.621749   -0.046998
  H     -1.538459   -3.211038    0.655998
  H     -1.783468   -3.123283   -1.113808

 Total Charge           Charge          ....    0
 Multiplicity           Mult            ....    1
 Number of Electrons    NEL             ....  174
 Basis Dimension        Dim             ....  316

ORBITAL ENERGIES
----------------

  NO   OCC          E(Eh)            E(eV)
   0   2.0000     -88.031095     -2395.4479
   1   2.0000     -87.960394     -2393.5240
   2   2.0000     -76.412669     -2079.2944
   3   2.0000     -18.818433      -512.0756
   4   2.0000     -18.811841      -511.8962
   5   2.0000     -18.768299      -510.7114
   6   2.0000     -18.762326      -510.5488
   7   2.0000     -18.760957      -510.5116
   8   2.0000     -18.748571      -510.1746
   9   2.0000     -10.032597      -273.0008
  10   2.0000     -10.018951      -272.6295
  11   2.0000      -9.955923      -270.9144
  12   2.0000      -9.953919      -270.8599
  13   2.0000      -9.948978      -270.7255
  14   2.0000      -9.925766      -270.0938
  15   2.0000      -9.923426      -270.0302
  16   2.0000      -9.920831      -269.9595
  17   2.0000      -9.883664      -268.9482
  18   2.0000      -9.878725      -268.8138
  19   2.0000      -7.676111      -208.8776
  20   2.0000      -7.605449      -206.9548
  21   2.0000      -6.407404      -174.3543
  22   2.0000      -5.704420      -155.2252
  23   2.0000      -5.700172      -155.1096
  24   2.0000      -5.693095      -154.9170
  25   2.0000      -5.634555      -153.3240
  26   2.0000      -5.626431      -153.1030
  27   2.0000      -5.624977      -153.0634
  28   2.0000      -4.630045      -125.9899
  29   2.0000      -4.629559      -125.9767
  30   2.0000      -4.628024      -125.9349
  31   2.0000      -1.030713       -28.0471
  32   2.0000      -1.018635       -27.7185
  33   2.0000      -0.961375       -26.1603
  34   2.0000      -0.936870       -25.4935
  35   2.0000      -0.926904       -25.2223
  36   2.0000      -0.915424       -24.9099
  37   2.0000      -0.767810       -20.8932
  38   2.0000      -0.713371       -19.4118
  39   2.0000      -0.707439       -19.2504
  40   2.0000      -0.682868       -18.5818
  41   2.0000      -0.652106       -17.7447
  42   2.0000      -0.623910       -16.9774
  43   2.0000      -0.611189       -16.6313
  44   2.0000      -0.602397       -16.3920
  45   2.0000      -0.595847       -16.2138
  46   2.0000      -0.567470       -15.4416
  47   2.0000      -0.510869       -13.9015
  48   2.0000      -0.501457       -13.6453
  49   2.0000      -0.500236       -13.6121
  50   2.0000      -0.491570       -13.3763
  51   2.0000      -0.464065       -12.6279
  52   2.0000      -0.456511       -12.4223
  53   2.0000      -0.447351       -12.1730
  54   2.0000      -0.439901       -11.9703
  55   2.0000      -0.430893       -11.7252
  56   2.0000      -0.428870       -11.6701
  57   2.0000      -0.418000       -11.3744
  58   2.0000      -0.405292       -11.0285
  59   2.0000      -0.398950       -10.8560
  60   2.0000      -0.395580       -10.7643
  61   2.0000      -0.393569       -10.7095
  62   2.0000      -0.388117       -10.5612
  63   2.0000      -0.379969       -10.3395
  64   2.0000      -0.374492       -10.1905
  65   2.0000      -0.369990       -10.0679
  66   2.0000      -0.359782        -9.7902
  67   2.0000      -0.355615        -9.6768
  68   2.0000      -0.345724        -9.4076
  69   2.0000      -0.337989        -9.1971
  70   2.0000      -0.335288        -9.1237
  71   2.0000      -0.328117        -8.9285
  72   2.0000      -0.323201        -8.7947
  73   2.0000      -0.306598        -8.3430
  74   2.0000      -0.297552        -8.0968
  75   2.0000      -0.293693        -7.9918
  76   2.0000      -0.284579        -7.7438
  77   2.0000      -0.280712        -7.6386
  78   2.0000      -0.268288        -7.3005
  79   2.0000      -0.263714        -7.1760
  80   2.0000      -0.255781        -6.9602
  81   2.0000      -0.239807        -6.5255
  82   2.0000      -0.235485        -6.4079
  83   2.0000      -0.234938        -6.3930
  84   2.0000      -0.218461        -5.9446
  85   2.0000      -0.181915        -4.9502
  86   2.0000      -0.169974        -4.6252
  87   0.0000      -0.042397        -1.1537
  88   0.0000      -0.031117        -0.8467
  89   0.0000      -0.027175        -0.7395
  90   0.0000       0.004201         0.1143
  91   0.0000       0.034682         0.9437

MULLIKEN ATOMIC CHARGES
-----------------------
   0 C :   -0.326742
   1 C :   -0.013936
   2 O :   -0.220106
   3 C :    0.113676
   4 O :   -0.179414
   5 C :   -0.064582
   6 C :   -0.274202
   7 H :    0.148033
   8 C :    0.236838
   9 O :   -0.214982
  10 O :   -0.225509
  11 C :   -0.020666
  12 C :   -0.304503
  13 S :   -0.114380
  14 P :    0.636196
  15 S :   -0.327426
  16 O :   -0.374251
  17 C :   -0.084616
  18 O :   -0.384958
  19 C :   -0.101695
  20 H :    0.108875
  21 H :    0.109478
  22 H :    0.156053
  23 H :    0.102488
  24 H :    0.109913
  25 H :    0.121068
  26 H :    0.128080
  27 H :    0.104563
  28 H :    0.113364
  29 H :    0.157034
  30 H :    0.107995
  31 H :    0.110351
  32 H :    0.117100
  33 H :    0.116077
  34 H :    0.103944
  35 H :    0.116745
  36 H :    0.111101
  37 H :    0.102995
Sum of atomic charges:   -0.0000000

LOEWDIN ATOMIC CHARGES
----------------------
   0 C :   -0.363922
   1 C :   -0.108606
   2 O :   -0.047339
   3 C :    0.036951
   4 O :   -0.137376
   5 C :   -0.250512
   6 C :   -0.260614
   7 H :    0.149046
   8 C :    0.034077
   9 O :   -0.151800
  10 O :   -0.040477
  11 C :   -0.103620
  12 C :   -0.356838
  13 S :    0.093431
  14 P :    0.583225
  15 S :   -0.322791
  16 O :   -0.245809
  17 C :   -0.210358
  18 O :   -0.267817
  19 C :   -0.223530
  20 H :    0.122927
  21 H :    0.130278
  22 H :    0.127806
  23 H :    0.117127
  24 H :    0.120939
  25 H :    0.138749
  26 H :    0.149459
  27 H :    0.118220
  28 H :    0.121057
  29 H :    0.141338
  30 H :    0.123461
  31 H :    0.129578
  32 H :    0.108701
  33 H :    0.115712
  34 H :    0.107362
  35 H :    0.118182
  36 H :    0.103061
  37 H :    0.100723

  Mayer bond orders larger than 0.100000
B(  0-C ,  1-C ) :   1.1783 B(  0-C , 20-H ) :   0.9478 B(  0-C , 21-H ) :   0.9408
B(  0-C , 22-H ) :   0.9179 B(  1-C ,  2-O ) :   0.9033 B(  1-C , 23-H ) :   0.9369
B(  1-C , 24-H ) :   0.9121 B(  2-O ,  3-C ) :   1.2661 B(  3-C ,  4-O ) :   1.9538
B(  3-C ,  5-C ) :   0.9947 B(  4-O ,  8-C ) :   0.1273 B(  5-C ,  6-C ) :   1.0302
B(  5-C , 25-H ) :   0.9061 B(  5-C , 26-H ) :   0.8712 B(  6-C ,  7-H ) :   0.8748
B(  6-C ,  8-C ) :   0.9097 B(  6-C , 13-S ) :   1.0234 B(  8-C ,  9-O ) :   1.8549
B(  8-C , 10-O ) :   1.2679 B(  9-O , 14-P ) :   0.1702 B( 10-O , 11-C ) :   0.9021
B( 11-C , 12-C ) :   1.1805 B( 11-C , 27-H ) :   0.9373 B( 11-C , 28-H ) :   0.9160
B( 12-C , 29-H ) :   0.9316 B( 12-C , 30-H ) :   0.9489 B( 12-C , 31-H ) :   0.9408
B( 13-S , 14-P ) :   0.9335 B( 13-S , 15-S ) :   0.1143 B( 14-P , 15-S ) :   1.5678
B( 14-P , 16-O ) :   1.1163 B( 14-P , 18-O ) :   1.0404 B( 16-O , 17-C ) :   0.9351
B( 17-C , 32-H ) :   0.9306 B( 17-C , 33-H ) :   0.9550 B( 17-C , 34-H ) :   0.9565
B( 18-O , 19-C ) :   0.9539 B( 19-C , 35-H ) :   0.9595 B( 19-C , 36-H ) :   0.9278
B( 19-C , 37-H ) :   0.9464

Dispersion correction           -0.054337653
FINAL SINGLE POINT ENERGY     -1979.008323196749

DIPOLE MOMENT
-------------

Method             : SCF
Type of density    : Electron Density
Multiplicity       :   1
Irrep              :   0
Energy             : -1979.1385902066940616 Eh
Relativity type    :
Basis              : AO
                                X                 Y                 Z
Electronic contribution:    -11.387422958       0.874757452      -6.656250686
Nuclear contribution   :     12.778846440      -0.155545047       5.898128255
                        -----------------------------------------
Total Dipole Moment    :      1.391423482       0.719212405      -0.758122431
                        -----------------------------------------
Magnitude (a.u.)       :      1.740136607
Magnitude (Debye)      :      4.423075748

Rotational constants in cm-1:             0.011194             0.009774             0.007150
Rotational constants in MHz :           335.578576           293.030002           214.357695

                             ****ORCA TERMINATED NORMALLY****
TOTAL RUN TIME: 0 days 0 hours 0 minutes 33 seconds 595 msec
