                         Program Version 6.0.0  -   RELEASE  -
|  1> ! pbe def2-sv(p) def2/J RI DEFGRID1 loosescf d4 GCP(DFT/SV(P)) printgap
|  2> %output
|  3>     printlevel normal
|  4> end
|  5> * xyz 0 1
|  6> C 3.7773439701 -1.4583888472 -2.5522997299
|  7> C 4.0675910852 -1.7401223872 -1.09219555
|  8> O 2.8767554559 -1.705483265 -0.2865886814
|  9> P 2.0769575195 -0.3636829716 0.0015868645
| 10> S 3.1815567101 1.2344654857 0.2877159361
| 11> O 1.1497226359 -0.8080046904 1.2057243145
| 12> C 1.4732799864 -0.5210243427 2.5788967451
| 13> C 2.6524575406 -1.3426327411 3.0553470725
| 14> S 0.6460581511 -0.2713099738 -1.5533634337
| 15> C 0.130474901 1.4381374 -1.2452821595
| 16> S -0.6195869796 1.6633048275 0.3870535419
| 17> P -2.3094914564 0.4208219643 0.0458119381
| 18> S -3.0532903751 0.4826133168 -1.7713735732
| 19> O -3.2617543582 0.7966517654 1.2556133793
| 20> C -3.6107386308 2.1336742003 1.6603155929
| 21> C -4.197338989 2.9551847855 0.5307083013
| 22> O -1.9090010886 -1.0301651528 0.5377543926
| 23> C -2.0293143125 -2.2244501134 -0.2657287499
| 24> C -0.9486162901 -3.2031581437 0.1445890579
| 25> H 3.4490758629 -0.4270256029 -2.6755385929
| 26> H 4.6804651924 -1.6114612428 -3.1343778195
| 27> H 2.9952067489 -2.1192700469 -2.9175307836
| 28> H 4.7759314943 -1.0068539258 -0.6934691608
| 29> H 4.4538713433 -2.749523068 -0.9448802743
| 30> H 1.6816218142 0.5502651143 2.6707625512
| 31> H 0.5577492003 -0.7648176672 3.1200228602
| 32> H 2.8123759082 -1.1644028531 4.1140495588
| 33> H 2.4666087025 -2.4002785212 2.8883127118
| 34> H 3.5484559302 -1.0514900031 2.5079584537
| 35> H -0.5961591947 1.6856856555 -2.0191280787
| 36> H 0.9972443644 2.0972802198 -1.2821255317
| 37> H -4.3383137661 1.976143152 2.4585906684
| 38> H -2.7154897226 2.614312537 2.0652188891
| 39> H -5.040806531 2.4351270709 0.082721698
| 40> H -4.5293986956 3.9134119748 0.9171065097
| 41> H -3.4475324203 3.1244725305 -0.2408469435
| 42> H -3.0241119746 -2.6373705364 -0.0813823012
| 43> H -1.9475209823 -1.9559798291 -1.3243335071
| 44> H -1.030364256 -3.4222068626 1.2051916422
| 45> H -1.0702411278 -4.1187656864 -0.4249860579
| 46> H 0.0372556619 -2.7890449707 -0.052376237
| 47> *
| 48>
| 49>                          ****END OF INPUT****

CARTESIAN COORDINATES (ANGSTROEM)
---------------------------------
  C      3.777344   -1.458389   -2.552300
  C      4.067591   -1.740122   -1.092196
  O      2.876755   -1.705483   -0.286589
  P      2.076958   -0.363683    0.001587
  S      3.181557    1.234465    0.287716
  O      1.149723   -0.808005    1.205724
  C      1.473280   -0.521024    2.578897
  C      2.652458   -1.342633    3.055347
  S      0.646058   -0.271310   -1.553363
  C      0.130475    1.438137   -1.245282
  S     -0.619587    1.663305    0.387054
  P     -2.309491    0.420822    0.045812
  S     -3.053290    0.482613   -1.771374
  O     -3.261754    0.796652    1.255613
  C     -3.610739    2.133674    1.660316
  C     -4.197339    2.955185    0.530708
  O     -1.909001   -1.030165    0.537754
  C     -2.029314   -2.224450   -0.265729
  C     -0.948616   -3.203158    0.144589
  H      3.449076   -0.427026   -2.675539
  H      4.680465   -1.611461   -3.134378
  H      2.995207   -2.119270   -2.917531
  H      4.775931   -1.006854   -0.693469
  H      4.453871   -2.749523   -0.944880
  H      1.681622    0.550265    2.670763
  H      0.557749   -0.764818    3.120023
  H      2.812376   -1.164403    4.114050
  H      2.466609   -2.400279    2.888313
  H      3.548456   -1.051490    2.507958
  H     -0.596159    1.685686   -2.019128
  H      0.997244    2.097280   -1.282126
  H     -4.338314    1.976143    2.458591
  H     -2.715490    2.614313    2.065219
  H     -5.040807    2.435127    0.082722
  H     -4.529399    3.913412    0.917107
  H     -3.447532    3.124473   -0.240847
  H     -3.024112   -2.637371   -0.081382
  H     -1.947521   -1.955980   -1.324334
  H     -1.030364   -3.422207    1.205192
  H     -1.070241   -4.118766   -0.424986
  H      0.037256   -2.789045   -0.052376

 Total Charge           Charge          ....    0
 Multiplicity           Mult            ....    1
 Number of Electrons    NEL             ....  202
 Basis Dimension        Dim             ....  334

ORBITAL ENERGIES
----------------

  NO   OCC          E(Eh)            E(eV)
   0   2.0000     -88.046227     -2395.8596
   1   2.0000     -88.042949     -2395.7705
   2   2.0000     -87.993458     -2394.4237
   3   2.0000     -87.984654     -2394.1842
   4   2.0000     -76.430333     -2079.7751
   5   2.0000     -76.425246     -2079.6367
   6   2.0000     -18.799985      -511.5736
   7   2.0000     -18.791272      -511.3365
   8   2.0000     -18.790041      -511.3030
   9   2.0000     -18.782990      -511.1112
  10   2.0000      -9.957026      -270.9444
  11   2.0000      -9.956825      -270.9390
  12   2.0000      -9.955634      -270.9066
  13   2.0000      -9.950176      -270.7580
  14   2.0000      -9.942938      -270.5611
  15   2.0000      -9.887373      -269.0491
  16   2.0000      -9.884130      -268.9608
  17   2.0000      -9.882177      -268.9077
  18   2.0000      -9.876216      -268.7455
  19   2.0000      -7.690943      -209.2812
  20   2.0000      -7.687751      -209.1943
  21   2.0000      -7.638281      -207.8482
  22   2.0000      -7.629672      -207.6139
  23   2.0000      -6.427623      -174.9045
  24   2.0000      -6.422259      -174.7585
  25   2.0000      -5.718742      -155.6149
  26   2.0000      -5.715612      -155.5297
  27   2.0000      -5.715502      -155.5267
  28   2.0000      -5.712297      -155.4395
  29   2.0000      -5.707852      -155.3185
  30   2.0000      -5.704833      -155.2364
  31   2.0000      -5.667102      -154.2097
  32   2.0000      -5.658898      -153.9865
  33   2.0000      -5.658587      -153.9780
  34   2.0000      -5.658538      -153.9766
  35   2.0000      -5.650299      -153.7524
  36   2.0000      -5.649892      -153.7414
  37   2.0000      -4.650001      -126.5330
  38   2.0000      -4.649394      -126.5164
  39   2.0000      -4.648272      -126.4859
  40   2.0000      -4.644572      -126.3852
  41   2.0000      -4.644267      -126.3769
  42   2.0000      -4.642787      -126.3367
  43   2.0000      -0.990738       -26.9593
  44   2.0000      -0.983346       -26.7582
  45   2.0000      -0.949246       -25.8303
  46   2.0000      -0.939308       -25.5599
  47   2.0000      -0.767335       -20.8803
  48   2.0000      -0.721734       -19.6394
  49   2.0000      -0.709403       -19.3038
  50   2.0000      -0.689052       -18.7501
  51   2.0000      -0.682851       -18.5813
  52   2.0000      -0.674643       -18.3580
  53   2.0000      -0.652047       -17.7431
  54   2.0000      -0.639919       -17.4131
  55   2.0000      -0.604833       -16.4583
  56   2.0000      -0.593131       -16.1399
  57   2.0000      -0.574152       -15.6235
  58   2.0000      -0.569605       -15.4997
  59   2.0000      -0.557314       -15.1653
  60   2.0000      -0.500272       -13.6131
  61   2.0000      -0.494359       -13.4522
  62   2.0000      -0.476572       -12.9682
  63   2.0000      -0.468351       -12.7445
  64   2.0000      -0.459864       -12.5135
  65   2.0000      -0.443395       -12.0654
  66   2.0000      -0.442049       -12.0288
  67   2.0000      -0.431953       -11.7540
  68   2.0000      -0.422891       -11.5074
  69   2.0000      -0.417184       -11.3522
  70   2.0000      -0.412990       -11.2380
  71   2.0000      -0.397694       -10.8218
  72   2.0000      -0.394482       -10.7344
  73   2.0000      -0.389550       -10.6002
  74   2.0000      -0.381417       -10.3789
  75   2.0000      -0.379339       -10.3223
  76   2.0000      -0.368341       -10.0231
  77   2.0000      -0.357909        -9.7392
  78   2.0000      -0.350742        -9.5442
  79   2.0000      -0.348072        -9.4715
  80   2.0000      -0.347144        -9.4463
  81   2.0000      -0.345578        -9.4036
  82   2.0000      -0.341993        -9.3061
  83   2.0000      -0.337695        -9.1891
  84   2.0000      -0.327521        -8.9123
  85   2.0000      -0.323287        -8.7971
  86   2.0000      -0.311784        -8.4841
  87   2.0000      -0.299574        -8.1518
  88   2.0000      -0.295289        -8.0352
  89   2.0000      -0.286814        -7.8046
  90   2.0000      -0.282234        -7.6800
  91   2.0000      -0.276976        -7.5369
  92   2.0000      -0.270285        -7.3548
  93   2.0000      -0.268746        -7.3129
  94   2.0000      -0.253754        -6.9050
  95   2.0000      -0.233173        -6.3450
  96   2.0000      -0.219516        -5.9733
  97   2.0000      -0.216010        -5.8779
  98   2.0000      -0.210191        -5.7196
  99   2.0000      -0.200290        -5.4502
 100   2.0000      -0.198535        -5.4024
 101   0.0000      -0.048546        -1.3210
 102   0.0000      -0.025399        -0.6911
 103   0.0000      -0.003699        -0.1006
 104   0.0000      -0.000723        -0.0197
 105   0.0000       0.006845         0.1863

MULLIKEN ATOMIC CHARGES
-----------------------
   0 C :   -0.316754
   1 C :   -0.006061
   2 O :   -0.376118
   3 P :    0.617713
   4 S :   -0.328156
   5 O :   -0.356302
   6 C :   -0.001307
   7 C :   -0.305267
   8 S :   -0.076135
   9 C :   -0.354568
  10 S :   -0.100776
  11 P :    0.610684
  12 S :   -0.337392
  13 O :   -0.364014
  14 C :   -0.013478
  15 C :   -0.307970
  16 O :   -0.358453
  17 C :   -0.004383
  18 C :   -0.288263
  19 H :    0.128306
  20 H :    0.115240
  21 H :    0.119366
  22 H :    0.112238
  23 H :    0.107487
  24 H :    0.111172
  25 H :    0.107490
  26 H :    0.112025
  27 H :    0.116466
  28 H :    0.119976
  29 H :    0.193573
  30 H :    0.189681
  31 H :    0.109677
  32 H :    0.114625
  33 H :    0.126297
  34 H :    0.110615
  35 H :    0.124607
  36 H :    0.101000
  37 H :    0.112334
  38 H :    0.107264
  39 H :    0.102769
  40 H :    0.124796
Sum of atomic charges:    0.0000000

LOEWDIN ATOMIC CHARGES
----------------------
   0 C :   -0.369271
   1 C :   -0.118708
   2 O :   -0.242242
   3 P :    0.573587
   4 S :   -0.322728
   5 O :   -0.227970
   6 C :   -0.117959
   7 C :   -0.364282
   8 S :    0.104957
   9 C :   -0.481613
  10 S :    0.080249
  11 P :    0.572036
  12 S :   -0.319616
  13 O :   -0.240540
  14 C :   -0.115235
  15 C :   -0.369058
  16 O :   -0.237697
  17 C :   -0.118018
  18 C :   -0.355697
  19 H :    0.121857
  20 H :    0.132207
  21 H :    0.125081
  22 H :    0.111357
  23 H :    0.119841
  24 H :    0.109377
  25 H :    0.119876
  26 H :    0.130281
  27 H :    0.126148
  28 H :    0.121342
  29 H :    0.130364
  30 H :    0.130355
  31 H :    0.121620
  32 H :    0.108111
  33 H :    0.130104
  34 H :    0.129603
  35 H :    0.120781
  36 H :    0.112134
  37 H :    0.103017
  38 H :    0.123214
  39 H :    0.126835
  40 H :    0.116299

  Mayer bond orders larger than 0.100000
B(  0-C ,  1-C ) :   1.1662 B(  0-C , 19-H ) :   0.9354 B(  0-C , 20-H ) :   0.9376
B(  0-C , 21-H ) :   0.9448 B(  1-C ,  2-O ) :   0.9071 B(  1-C , 22-H ) :   0.9165
B(  1-C , 23-H ) :   0.9336 B(  2-O ,  3-P ) :   1.0933 B(  3-P ,  4-S ) :   1.5854
B(  3-P ,  5-O ) :   1.1168 B(  3-P ,  8-S ) :   0.9567 B(  4-S ,  8-S ) :   0.1051
B(  5-O ,  6-C ) :   0.9011 B(  6-C ,  7-C ) :   1.1639 B(  6-C , 24-H ) :   0.9158
B(  6-C , 25-H ) :   0.9329 B(  7-C , 26-H ) :   0.9399 B(  7-C , 27-H ) :   0.9469
B(  7-C , 28-H ) :   0.9362 B(  8-S ,  9-C ) :   1.0006 B(  9-C , 10-S ) :   1.0129
B(  9-C , 29-H ) :   0.8783 B(  9-C , 30-H ) :   0.8832 B( 10-S , 11-P ) :   0.9321
B( 10-S , 12-S ) :   0.1099 B( 11-P , 12-S ) :   1.6005 B( 11-P , 13-O ) :   1.1300
B( 11-P , 16-O ) :   1.1407 B( 13-O , 14-C ) :   0.9164 B( 14-C , 15-C ) :   1.1637
B( 14-C , 31-H ) :   0.9339 B( 14-C , 32-H ) :   0.9255 B( 15-C , 33-H ) :   0.9433
B( 15-C , 34-H ) :   0.9355 B( 15-C , 35-H ) :   0.9334 B( 16-O , 17-C ) :   0.8961
B( 17-C , 18-C ) :   1.1632 B( 17-C , 36-H ) :   0.9348 B( 17-C , 37-H ) :   0.9042
B( 18-C , 38-H ) :   0.9484 B( 18-C , 39-H ) :   0.9400 B( 18-C , 40-H ) :   0.9375

Dispersion correction           -0.067874344
FINAL SINGLE POINT ENERGY     -2929.524525765018

DIPOLE MOMENT
-------------

Method             : SCF
Type of density    : Electron Density
Multiplicity       :   1
Irrep              :   0
Energy             : -2929.6422693033996438 Eh
Relativity type    :
Basis              : AO
                                X                 Y                 Z
Electronic contribution:     -4.232678774       8.878405671      -5.252030372
Nuclear contribution   :      4.610690601      -9.396265473       5.927747452
                        -----------------------------------------
Total Dipole Moment    :      0.378011828      -0.517859802       0.675717080
                        -----------------------------------------
Magnitude (a.u.)       :      0.931485528
Magnitude (Debye)      :      2.367648052

Rotational constants in cm-1:             0.012735             0.005206             0.005047
Rotational constants in MHz :           381.772417           156.067018           151.317372

                             ****ORCA TERMINATED NORMALLY****
TOTAL RUN TIME: 0 days 0 hours 0 minutes 21 seconds 857 msec
