                         Program Version 6.0.0  -   RELEASE  -
|  1> ! r2scan-3c def2/J RI DEFGRID2 scfconv6 printgap
|  2> %output
|  3>     printlevel normal
|  4> end
|  5> * xyz 0 1
|  6> C 4.0798269074 -0.3088319269 -2.2653661575
|  7> C 4.3550730444 -0.5665515934 -0.797216058
|  8> O 3.1439249979 -0.7068818356 -0.0392220423
|  9> P 2.189649285 0.5392831513 0.2604418201
| 10> S 3.1123231031 2.2385962738 0.5688537339
| 11> O 1.3085448252 -0.0099181472 1.4569217457
| 12> C 1.7092937908 0.1471358542 2.8351945255
| 13> C 2.9487027821 -0.6579622307 3.1622741951
| 14> S 0.7353124152 0.5119909256 -1.2786280438
| 15> C 0.2221966284 -1.2279849772 -1.1441526098
| 16> S -0.9527113985 -1.5444005271 0.1940086558
| 17> P -2.4612884792 -0.2041469967 -0.4822779463
| 18> S -2.6864283348 -0.0656495154 -2.4194850045
| 19> O -2.1352047578 1.2182280763 0.1205885954
| 20> C -1.9471748109 1.4586883926 1.5361647363
| 21> C -1.0854153056 2.6947188614 1.6918106167
| 22> O -3.7168162412 -0.6204821065 0.4016186091
| 23> C -4.2294390411 -1.9591945946 0.5491525981
| 24> C -4.5249326235 -2.6257623067 -0.7776896885
| 25> H 3.4571786406 -1.0953639874 -2.6842763606
| 26> H 3.5666924069 0.6454774723 -2.3848947015
| 27> H 5.0199565367 -0.2707986318 -2.8062550828
| 28> H 4.9380648203 0.255622199 -0.3697472124
| 29> H 4.8767613633 -1.512227357 -0.6437155564
| 30> H 1.8778920469 1.2115799541 3.0257032938
| 31> H 0.8425234025 -0.2018246683 3.3981928096
| 32> H 2.8092936687 -1.696683317 2.8746014947
| 33> H 3.8062306182 -0.2533051662 2.6266493092
| 34> H 3.1416702103 -0.6005263653 4.2289767496
| 35> H 1.0885145456 -1.857423347 -0.9570822145
| 36> H -0.2534206461 -1.4623890503 -2.0960421719
| 37> H -2.9338280097 1.6004846757 1.9809933705
| 38> H -1.4704468481 0.5797873856 1.981695045
| 39> H -0.1030736232 2.5351069362 1.2494162843
| 40> H -1.5505062705 3.5381431826 1.189628388
| 41> H -0.9681472484 2.9214582479 2.7466445128
| 42> H -3.5002979568 -2.5403542646 1.1203773243
| 43> H -5.1380678455 -1.8204148506 1.1376763748
| 44> H -3.6036679932 -2.7689206117 -1.3402480923
| 45> H -4.9870392627 -3.5915681172 -0.6006391139
| 46> H -5.1945785022 -2.0083772874 -1.3717404963
| 47> *
| 48>
| 49>                          ****END OF INPUT****

CARTESIAN COORDINATES (ANGSTROEM)
---------------------------------
  C      4.079827   -0.308832   -2.265366
  C      4.355073   -0.566552   -0.797216
  O      3.143925   -0.706882   -0.039222
  P      2.189649    0.539283    0.260442
  S      3.112323    2.238596    0.568854
  O      1.308545   -0.009918    1.456922
  C      1.709294    0.147136    2.835195
  C      2.948703   -0.657962    3.162274
  S      0.735312    0.511991   -1.278628
  C      0.222197   -1.227985   -1.144153
  S     -0.952711   -1.544401    0.194009
  P     -2.461288   -0.204147   -0.482278
  S     -2.686428   -0.065650   -2.419485
  O     -2.135205    1.218228    0.120589
  C     -1.947175    1.458688    1.536165
  C     -1.085415    2.694719    1.691811
  O     -3.716816   -0.620482    0.401619
  C     -4.229439   -1.959195    0.549153
  C     -4.524933   -2.625762   -0.777690
  H      3.457179   -1.095364   -2.684276
  H      3.566692    0.645477   -2.384895
  H      5.019957   -0.270799   -2.806255
  H      4.938065    0.255622   -0.369747
  H      4.876761   -1.512227   -0.643716
  H      1.877892    1.211580    3.025703
  H      0.842523   -0.201825    3.398193
  H      2.809294   -1.696683    2.874601
  H      3.806231   -0.253305    2.626649
  H      3.141670   -0.600526    4.228977
  H      1.088515   -1.857423   -0.957082
  H     -0.253421   -1.462389   -2.096042
  H     -2.933828    1.600485    1.980993
  H     -1.470447    0.579787    1.981695
  H     -0.103074    2.535107    1.249416
  H     -1.550506    3.538143    1.189628
  H     -0.968147    2.921458    2.746645
  H     -3.500298   -2.540354    1.120377
  H     -5.138068   -1.820415    1.137676
  H     -3.603668   -2.768921   -1.340248
  H     -4.987039   -3.591568   -0.600639
  H     -5.194579   -2.008377   -1.371740

 Total Charge           Charge          ....    0
 Multiplicity           Mult            ....    1
 Number of Electrons    NEL             ....  202
 Basis Dimension        Dim             ....  539

ORBITAL ENERGIES
----------------

  NO   OCC          E(Eh)            E(eV)
   0   2.0000     -88.575858     -2410.2716
   1   2.0000     -88.575458     -2410.2607
   2   2.0000     -88.525892     -2408.9120
   3   2.0000     -88.515619     -2408.6324
   4   2.0000     -76.916772     -2093.0118
   5   2.0000     -76.912403     -2092.8929
   6   2.0000     -18.995499      -516.8938
   7   2.0000     -18.994539      -516.8677
   8   2.0000     -18.993712      -516.8452
   9   2.0000     -18.984794      -516.6025
  10   2.0000     -10.110295      -275.1151
  11   2.0000     -10.105436      -274.9829
  12   2.0000     -10.104526      -274.9581
  13   2.0000     -10.101675      -274.8806
  14   2.0000     -10.095576      -274.7146
  15   2.0000     -10.034770      -273.0600
  16   2.0000     -10.031165      -272.9619
  17   2.0000     -10.028227      -272.8819
  18   2.0000     -10.024091      -272.7694
  19   2.0000      -7.870478      -214.1666
  20   2.0000      -7.869301      -214.1346
  21   2.0000      -7.820441      -212.8050
  22   2.0000      -7.810387      -212.5314
  23   2.0000      -6.595268      -179.4664
  24   2.0000      -6.590573      -179.3386
  25   2.0000      -5.817267      -158.2959
  26   2.0000      -5.816698      -158.2804
  27   2.0000      -5.814184      -158.2120
  28   2.0000      -5.812913      -158.1774
  29   2.0000      -5.807775      -158.0376
  30   2.0000      -5.806206      -157.9949
  31   2.0000      -5.768060      -156.9569
  32   2.0000      -5.760805      -156.7595
  33   2.0000      -5.760427      -156.7492
  34   2.0000      -5.758220      -156.6891
  35   2.0000      -5.750657      -156.4833
  36   2.0000      -5.750230      -156.4717
  37   2.0000      -4.740617      -128.9987
  38   2.0000      -4.740352      -128.9915
  39   2.0000      -4.738984      -128.9543
  40   2.0000      -4.736375      -128.8833
  41   2.0000      -4.735833      -128.8686
  42   2.0000      -4.733784      -128.8128
  43   2.0000      -1.054158       -28.6851
  44   2.0000      -1.048868       -28.5411
  45   2.0000      -1.015746       -27.6398
  46   2.0000      -1.006306       -27.3830
  47   2.0000      -0.802931       -21.8489
  48   2.0000      -0.760101       -20.6834
  49   2.0000      -0.750911       -20.4333
  50   2.0000      -0.735798       -20.0221
  51   2.0000      -0.732228       -19.9249
  52   2.0000      -0.713292       -19.4097
  53   2.0000      -0.689574       -18.7643
  54   2.0000      -0.670060       -18.2333
  55   2.0000      -0.633974       -17.2513
  56   2.0000      -0.620086       -16.8734
  57   2.0000      -0.610382       -16.6093
  58   2.0000      -0.601138       -16.3578
  59   2.0000      -0.597698       -16.2642
  60   2.0000      -0.530394       -14.4327
  61   2.0000      -0.522255       -14.2113
  62   2.0000      -0.497324       -13.5329
  63   2.0000      -0.492645       -13.4056
  64   2.0000      -0.482782       -13.1372
  65   2.0000      -0.465471       -12.6661
  66   2.0000      -0.462829       -12.5942
  67   2.0000      -0.451737       -12.2924
  68   2.0000      -0.447205       -12.1691
  69   2.0000      -0.436668       -11.8823
  70   2.0000      -0.431900       -11.7526
  71   2.0000      -0.418205       -11.3799
  72   2.0000      -0.416855       -11.3432
  73   2.0000      -0.408001       -11.1023
  74   2.0000      -0.399431       -10.8691
  75   2.0000      -0.387885       -10.5549
  76   2.0000      -0.379489       -10.3264
  77   2.0000      -0.375035       -10.2052
  78   2.0000      -0.367666       -10.0047
  79   2.0000      -0.365206        -9.9378
  80   2.0000      -0.362418        -9.8619
  81   2.0000      -0.361140        -9.8271
  82   2.0000      -0.356857        -9.7106
  83   2.0000      -0.351540        -9.5659
  84   2.0000      -0.345350        -9.3975
  85   2.0000      -0.338514        -9.2114
  86   2.0000      -0.328849        -8.9484
  87   2.0000      -0.312841        -8.5128
  88   2.0000      -0.311997        -8.4899
  89   2.0000      -0.309951        -8.4342
  90   2.0000      -0.307227        -8.3601
  91   2.0000      -0.293824        -7.9954
  92   2.0000      -0.287182        -7.8146
  93   2.0000      -0.282323        -7.6824
  94   2.0000      -0.271696        -7.3932
  95   2.0000      -0.244101        -6.6423
  96   2.0000      -0.231227        -6.2920
  97   2.0000      -0.224781        -6.1166
  98   2.0000      -0.221069        -6.0156
  99   2.0000      -0.213381        -5.8064
 100   2.0000      -0.210218        -5.7203
 101   0.0000      -0.044450        -1.2095
 102   0.0000      -0.024173        -0.6578
 103   0.0000      -0.012374        -0.3367
 104   0.0000       0.001380         0.0376
 105   0.0000       0.006399         0.1741

MULLIKEN ATOMIC CHARGES
-----------------------
   0 C :   -0.429929
   1 C :   -0.160283
   2 O :   -0.299911
   3 P :    0.644522
   4 S :   -0.460529
   5 O :   -0.252970
   6 C :   -0.163910
   7 C :   -0.444124
   8 S :   -0.096251
   9 C :   -0.263649
  10 S :   -0.174137
  11 P :    0.662405
  12 S :   -0.424891
  13 O :   -0.263377
  14 C :   -0.113365
  15 C :   -0.460442
  16 O :   -0.291909
  17 C :   -0.158139
  18 C :   -0.429405
  19 H :    0.148244
  20 H :    0.175911
  21 H :    0.148285
  22 H :    0.170832
  23 H :    0.148070
  24 H :    0.176789
  25 H :    0.152056
  26 H :    0.157420
  27 H :    0.168410
  28 H :    0.148320
  29 H :    0.201508
  30 H :    0.218208
  31 H :    0.152910
  32 H :    0.153517
  33 H :    0.182085
  34 H :    0.156701
  35 H :    0.141059
  36 H :    0.149863
  37 H :    0.149811
  38 H :    0.168210
  39 H :    0.145858
  40 H :    0.166224
Sum of atomic charges:    0.0000000

LOEWDIN ATOMIC CHARGES
----------------------
   0 C :   -0.402157
   1 C :    0.016950
   2 O :   -0.686450
   3 P :    0.367050
   4 S :   -0.111912
   5 O :   -0.697473
   6 C :    0.019395
   7 C :   -0.397700
   8 S :    0.198227
   9 C :   -0.414876
  10 S :    0.143621
  11 P :    0.372835
  12 S :   -0.094437
  13 O :   -0.654903
  14 C :    0.021644
  15 C :   -0.388948
  16 O :   -0.662553
  17 C :    0.023167
  18 C :   -0.406523
  19 H :    0.157280
  20 H :    0.167532
  21 H :    0.159870
  22 H :    0.180245
  23 H :    0.178594
  24 H :    0.181006
  25 H :    0.179366
  26 H :    0.161674
  27 H :    0.165695
  28 H :    0.159903
  29 H :    0.189150
  30 H :    0.193386
  31 H :    0.172727
  32 H :    0.174822
  33 H :    0.170081
  34 H :    0.163208
  35 H :    0.158243
  36 H :    0.170550
  37 H :    0.181224
  38 H :    0.166346
  39 H :    0.157893
  40 H :    0.166249

  Mayer bond orders larger than 0.100000
B(  0-C ,  1-C ) :   0.9336 B(  0-C , 19-H ) :   0.9694 B(  0-C , 20-H ) :   0.9596
B(  0-C , 21-H ) :   0.9607 B(  1-C ,  2-O ) :   0.8098 B(  1-C , 22-H ) :   0.9609
B(  1-C , 23-H ) :   0.9592 B(  2-O ,  3-P ) :   1.0121 B(  3-P ,  4-S ) :   1.8073
B(  3-P ,  5-O ) :   1.1184 B(  3-P ,  8-S ) :   1.0871 B(  5-O ,  6-C ) :   0.7886
B(  6-C ,  7-C ) :   0.9250 B(  6-C , 24-H ) :   0.9590 B(  6-C , 25-H ) :   0.9599
B(  7-C , 26-H ) :   0.9732 B(  7-C , 27-H ) :   0.9615 B(  7-C , 28-H ) :   0.9603
B(  8-S ,  9-C ) :   0.9113 B(  9-C , 10-S ) :   0.9206 B(  9-C , 29-H ) :   0.9162
B(  9-C , 30-H ) :   0.9133 B( 10-S , 11-P ) :   0.9806 B( 11-P , 12-S ) :   1.8571
B( 11-P , 13-O ) :   1.1635 B( 11-P , 16-O ) :   1.0358 B( 13-O , 14-C ) :   0.7352
B( 14-C , 15-C ) :   0.9379 B( 14-C , 31-H ) :   0.9439 B( 14-C , 32-H ) :   0.9585
B( 15-C , 33-H ) :   0.9640 B( 15-C , 34-H ) :   0.9668 B( 15-C , 35-H ) :   0.9678
B( 16-O , 17-C ) :   0.8055 B( 17-C , 18-C ) :   0.9424 B( 17-C , 36-H ) :   0.9625
B( 17-C , 37-H ) :   0.9585 B( 18-C , 38-H ) :   0.9554 B( 18-C , 39-H ) :   0.9622
B( 18-C , 40-H ) :   0.9653

Dispersion correction           -0.022094864
FINAL SINGLE POINT ENERGY     -2932.459686074631

DIPOLE MOMENT
-------------

Method             : SCF
Type of density    : Electron Density
Multiplicity       :   1
Irrep              :   0
Energy             : -2932.4840101753643467 Eh
Relativity type    :
Basis              : AO
                                X                 Y                 Z
Electronic contribution:     -5.186131632       6.545157852     -10.292906745
Nuclear contribution   :      5.583889421      -8.207847254      11.856971052
                        -----------------------------------------
Total Dipole Moment    :      0.397757789      -1.662689403       1.564064307
                        -----------------------------------------
Magnitude (a.u.)       :      2.317119865
Magnitude (Debye)      :      5.889650637

Rotational constants in cm-1:             0.012945             0.004982             0.004611
Rotational constants in MHz :           388.068310           149.349418           138.245987

                             ****ORCA TERMINATED NORMALLY****
TOTAL RUN TIME: 0 days 0 hours 1 minutes 20 seconds 591 msec
