                         Program Version 6.0.0  -   RELEASE  -
|  1> ! r2scan-3c def2/J RI DEFGRID2 scfconv6 printgap
|  2> %output
|  3>     printlevel normal
|  4> end
|  5> %cpcm
|  6>     smd true
|  7>     smdsolvent "water"
|  8> end
|  9> * xyz 0 1
| 10> C 4.0798269074 -0.3088319269 -2.2653661575
| 11> C 4.3550730444 -0.5665515934 -0.797216058
| 12> O 3.1439249979 -0.7068818356 -0.0392220423
| 13> P 2.189649285 0.5392831513 0.2604418201
| 14> S 3.1123231031 2.2385962738 0.5688537339
| 15> O 1.3085448252 -0.0099181472 1.4569217457
| 16> C 1.7092937908 0.1471358542 2.8351945255
| 17> C 2.9487027821 -0.6579622307 3.1622741951
| 18> S 0.7353124152 0.5119909256 -1.2786280438
| 19> C 0.2221966284 -1.2279849772 -1.1441526098
| 20> S -0.9527113985 -1.5444005271 0.1940086558
| 21> P -2.4612884792 -0.2041469967 -0.4822779463
| 22> S -2.6864283348 -0.0656495154 -2.4194850045
| 23> O -2.1352047578 1.2182280763 0.1205885954
| 24> C -1.9471748109 1.4586883926 1.5361647363
| 25> C -1.0854153056 2.6947188614 1.6918106167
| 26> O -3.7168162412 -0.6204821065 0.4016186091
| 27> C -4.2294390411 -1.9591945946 0.5491525981
| 28> C -4.5249326235 -2.6257623067 -0.7776896885
| 29> H 3.4571786406 -1.0953639874 -2.6842763606
| 30> H 3.5666924069 0.6454774723 -2.3848947015
| 31> H 5.0199565367 -0.2707986318 -2.8062550828
| 32> H 4.9380648203 0.255622199 -0.3697472124
| 33> H 4.8767613633 -1.512227357 -0.6437155564
| 34> H 1.8778920469 1.2115799541 3.0257032938
| 35> H 0.8425234025 -0.2018246683 3.3981928096
| 36> H 2.8092936687 -1.696683317 2.8746014947
| 37> H 3.8062306182 -0.2533051662 2.6266493092
| 38> H 3.1416702103 -0.6005263653 4.2289767496
| 39> H 1.0885145456 -1.857423347 -0.9570822145
| 40> H -0.2534206461 -1.4623890503 -2.0960421719
| 41> H -2.9338280097 1.6004846757 1.9809933705
| 42> H -1.4704468481 0.5797873856 1.981695045
| 43> H -0.1030736232 2.5351069362 1.2494162843
| 44> H -1.5505062705 3.5381431826 1.189628388
| 45> H -0.9681472484 2.9214582479 2.7466445128
| 46> H -3.5002979568 -2.5403542646 1.1203773243
| 47> H -5.1380678455 -1.8204148506 1.1376763748
| 48> H -3.6036679932 -2.7689206117 -1.3402480923
| 49> H -4.9870392627 -3.5915681172 -0.6006391139
| 50> H -5.1945785022 -2.0083772874 -1.3717404963
| 51> *
| 52>
| 53>                          ****END OF INPUT****

CARTESIAN COORDINATES (ANGSTROEM)
---------------------------------
  C      4.079827   -0.308832   -2.265366
  C      4.355073   -0.566552   -0.797216
  O      3.143925   -0.706882   -0.039222
  P      2.189649    0.539283    0.260442
  S      3.112323    2.238596    0.568854
  O      1.308545   -0.009918    1.456922
  C      1.709294    0.147136    2.835195
  C      2.948703   -0.657962    3.162274
  S      0.735312    0.511991   -1.278628
  C      0.222197   -1.227985   -1.144153
  S     -0.952711   -1.544401    0.194009
  P     -2.461288   -0.204147   -0.482278
  S     -2.686428   -0.065650   -2.419485
  O     -2.135205    1.218228    0.120589
  C     -1.947175    1.458688    1.536165
  C     -1.085415    2.694719    1.691811
  O     -3.716816   -0.620482    0.401619
  C     -4.229439   -1.959195    0.549153
  C     -4.524933   -2.625762   -0.777690
  H      3.457179   -1.095364   -2.684276
  H      3.566692    0.645477   -2.384895
  H      5.019957   -0.270799   -2.806255
  H      4.938065    0.255622   -0.369747
  H      4.876761   -1.512227   -0.643716
  H      1.877892    1.211580    3.025703
  H      0.842523   -0.201825    3.398193
  H      2.809294   -1.696683    2.874601
  H      3.806231   -0.253305    2.626649
  H      3.141670   -0.600526    4.228977
  H      1.088515   -1.857423   -0.957082
  H     -0.253421   -1.462389   -2.096042
  H     -2.933828    1.600485    1.980993
  H     -1.470447    0.579787    1.981695
  H     -0.103074    2.535107    1.249416
  H     -1.550506    3.538143    1.189628
  H     -0.968147    2.921458    2.746645
  H     -3.500298   -2.540354    1.120377
  H     -5.138068   -1.820415    1.137676
  H     -3.603668   -2.768921   -1.340248
  H     -4.987039   -3.591568   -0.600639
  H     -5.194579   -2.008377   -1.371740

 Total Charge           Charge          ....    0
 Multiplicity           Mult            ....    1
 Number of Electrons    NEL             ....  202
 Basis Dimension        Dim             ....  539

ORBITAL ENERGIES
----------------

  NO   OCC          E(Eh)            E(eV)
   0   2.0000     -88.577920     -2410.3277
   1   2.0000     -88.577270     -2410.3101
   2   2.0000     -88.530686     -2409.0425
   3   2.0000     -88.527223     -2408.9482
   4   2.0000     -76.919443     -2093.0845
   5   2.0000     -76.918597     -2093.0614
   6   2.0000     -18.995436      -516.8921
   7   2.0000     -18.992618      -516.8154
   8   2.0000     -18.991595      -516.7876
   9   2.0000     -18.991347      -516.7808
  10   2.0000     -10.106275      -275.0057
  11   2.0000     -10.093023      -274.6451
  12   2.0000     -10.089995      -274.5627
  13   2.0000     -10.089841      -274.5585
  14   2.0000     -10.088498      -274.5220
  15   2.0000     -10.019050      -272.6322
  16   2.0000     -10.018788      -272.6251
  17   2.0000     -10.018593      -272.6198
  18   2.0000     -10.018058      -272.6052
  19   2.0000      -7.872004      -214.2081
  20   2.0000      -7.871725      -214.2005
  21   2.0000      -7.825613      -212.9458
  22   2.0000      -7.822406      -212.8585
  23   2.0000      -6.597690      -179.5323
  24   2.0000      -6.597074      -179.5155
  25   2.0000      -5.819332      -158.3521
  26   2.0000      -5.818559      -158.3310
  27   2.0000      -5.815574      -158.2498
  28   2.0000      -5.815465      -158.2468
  29   2.0000      -5.809006      -158.0711
  30   2.0000      -5.808973      -158.0702
  31   2.0000      -5.773144      -157.0952
  32   2.0000      -5.770095      -157.0123
  33   2.0000      -5.765992      -156.9006
  34   2.0000      -5.765601      -156.8900
  35   2.0000      -5.762665      -156.8101
  36   2.0000      -5.762322      -156.8007
  37   2.0000      -4.743447      -129.0758
  38   2.0000      -4.742881      -129.0604
  39   2.0000      -4.742323      -129.0452
  40   2.0000      -4.742138      -129.0401
  41   2.0000      -4.741045      -129.0104
  42   2.0000      -4.740959      -129.0081
  43   2.0000      -1.052596       -28.6426
  44   2.0000      -1.050641       -28.5894
  45   2.0000      -1.011491       -27.5241
  46   2.0000      -1.009892       -27.4806
  47   2.0000      -0.802314       -21.8321
  48   2.0000      -0.756011       -20.5721
  49   2.0000      -0.744482       -20.2584
  50   2.0000      -0.725264       -19.7354
  51   2.0000      -0.723012       -19.6742
  52   2.0000      -0.710539       -19.3347
  53   2.0000      -0.692708       -18.8495
  54   2.0000      -0.675275       -18.3752
  55   2.0000      -0.627565       -17.0769
  56   2.0000      -0.617183       -16.7944
  57   2.0000      -0.600073       -16.3288
  58   2.0000      -0.598413       -16.2837
  59   2.0000      -0.594789       -16.1850
  60   2.0000      -0.527221       -14.3464
  61   2.0000      -0.514420       -13.9981
  62   2.0000      -0.490248       -13.3403
  63   2.0000      -0.488320       -13.2879
  64   2.0000      -0.478798       -13.0287
  65   2.0000      -0.459766       -12.5109
  66   2.0000      -0.454819       -12.3763
  67   2.0000      -0.445950       -12.1349
  68   2.0000      -0.440730       -11.9929
  69   2.0000      -0.433070       -11.7844
  70   2.0000      -0.426772       -11.6130
  71   2.0000      -0.413788       -11.2597
  72   2.0000      -0.406208       -11.0535
  73   2.0000      -0.402759       -10.9596
  74   2.0000      -0.397534       -10.8175
  75   2.0000      -0.385323       -10.4852
  76   2.0000      -0.376843       -10.2544
  77   2.0000      -0.365097        -9.9348
  78   2.0000      -0.361641        -9.8407
  79   2.0000      -0.358680        -9.7602
  80   2.0000      -0.353926        -9.6308
  81   2.0000      -0.352962        -9.6046
  82   2.0000      -0.348906        -9.4942
  83   2.0000      -0.347560        -9.4576
  84   2.0000      -0.341562        -9.2944
  85   2.0000      -0.334265        -9.0958
  86   2.0000      -0.324102        -8.8193
  87   2.0000      -0.311107        -8.4657
  88   2.0000      -0.308049        -8.3824
  89   2.0000      -0.303254        -8.2520
  90   2.0000      -0.302791        -8.2394
  91   2.0000      -0.288235        -7.8433
  92   2.0000      -0.285374        -7.7654
  93   2.0000      -0.278967        -7.5911
  94   2.0000      -0.273082        -7.4310
  95   2.0000      -0.246896        -6.7184
  96   2.0000      -0.236012        -6.4222
  97   2.0000      -0.231347        -6.2953
  98   2.0000      -0.227796        -6.1986
  99   2.0000      -0.222646        -6.0585
 100   2.0000      -0.220770        -6.0075
 101   0.0000      -0.047359        -1.2887
 102   0.0000      -0.028051        -0.7633
 103   0.0000      -0.015998        -0.4353
 104   0.0000      -0.001535        -0.0418
 105   0.0000       0.006162         0.1677

MULLIKEN ATOMIC CHARGES
-----------------------
   0 C :   -0.470437
   1 C :   -0.155397
   2 O :   -0.313540
   3 P :    0.695682
   4 S :   -0.524216
   5 O :   -0.273817
   6 C :   -0.158729
   7 C :   -0.484812
   8 S :   -0.145456
   9 C :   -0.263103
  10 S :   -0.162333
  11 P :    0.674369
  12 S :   -0.490973
  13 O :   -0.295826
  14 C :   -0.107083
  15 C :   -0.504248
  16 O :   -0.315716
  17 C :   -0.158415
  18 C :   -0.467155
  19 H :    0.168543
  20 H :    0.166425
  21 H :    0.170956
  22 H :    0.174373
  23 H :    0.174874
  24 H :    0.180068
  25 H :    0.181675
  26 H :    0.170919
  27 H :    0.169089
  28 H :    0.172663
  29 H :    0.239976
  30 H :    0.235146
  31 H :    0.174475
  32 H :    0.173918
  33 H :    0.170305
  34 H :    0.167753
  35 H :    0.172569
  36 H :    0.172203
  37 H :    0.176924
  38 H :    0.164832
  39 H :    0.173383
  40 H :    0.170136
Sum of atomic charges:    0.0000000

LOEWDIN ATOMIC CHARGES
----------------------
   0 C :   -0.406744
   1 C :    0.023352
   2 O :   -0.687303
   3 P :    0.375408
   4 S :   -0.152543
   5 O :   -0.701593
   6 C :    0.026156
   7 C :   -0.401558
   8 S :    0.170827
   9 C :   -0.403926
  10 S :    0.159286
  11 P :    0.374752
  12 S :   -0.144734
  13 O :   -0.680849
  14 C :    0.028393
  15 C :   -0.394727
  16 O :   -0.672142
  17 C :    0.030570
  18 C :   -0.409949
  19 H :    0.162905
  20 H :    0.161340
  21 H :    0.167633
  22 H :    0.180977
  23 H :    0.190298
  24 H :    0.182379
  25 H :    0.191271
  26 H :    0.164806
  27 H :    0.163384
  28 H :    0.168832
  29 H :    0.203591
  30 H :    0.199185
  31 H :    0.182547
  32 H :    0.182979
  33 H :    0.163678
  34 H :    0.164244
  35 H :    0.170527
  36 H :    0.179328
  37 H :    0.192833
  38 H :    0.161938
  39 H :    0.168454
  40 H :    0.164194

  Mayer bond orders larger than 0.100000
B(  0-C ,  1-C ) :   0.9204 B(  0-C , 19-H ) :   0.9663 B(  0-C , 20-H ) :   0.9626
B(  0-C , 21-H ) :   0.9561 B(  1-C ,  2-O ) :   0.7975 B(  1-C , 22-H ) :   0.9610
B(  1-C , 23-H ) :   0.9493 B(  2-O ,  3-P ) :   1.0297 B(  3-P ,  4-S ) :   1.7543
B(  3-P ,  5-O ) :   1.1364 B(  3-P ,  8-S ) :   1.0874 B(  5-O ,  6-C ) :   0.7773
B(  6-C ,  7-C ) :   0.9093 B(  6-C , 24-H ) :   0.9565 B(  6-C , 25-H ) :   0.9506
B(  7-C , 26-H ) :   0.9712 B(  7-C , 27-H ) :   0.9606 B(  7-C , 28-H ) :   0.9548
B(  8-S ,  9-C ) :   0.9032 B(  9-C , 10-S ) :   0.9102 B(  9-C , 29-H ) :   0.9045
B(  9-C , 30-H ) :   0.9067 B( 10-S , 11-P ) :   1.0054 B( 11-P , 12-S ) :   1.8220
B( 11-P , 13-O ) :   1.1646 B( 11-P , 16-O ) :   1.0525 B( 13-O , 14-C ) :   0.7277
B( 14-C , 15-C ) :   0.9276 B( 14-C , 31-H ) :   0.9352 B( 14-C , 32-H ) :   0.9493
B( 15-C , 33-H ) :   0.9677 B( 15-C , 34-H ) :   0.9663 B( 15-C , 35-H ) :   0.9603
B( 16-O , 17-C ) :   0.7941 B( 17-C , 18-C ) :   0.9212 B( 17-C , 36-H ) :   0.9576
B( 17-C , 37-H ) :   0.9491 B( 18-C , 38-H ) :   0.9581 B( 18-C , 39-H ) :   0.9560
B( 18-C , 40-H ) :   0.9667

Dispersion correction           -0.022094864
FINAL SINGLE POINT ENERGY     -2932.471673182258

DIPOLE MOMENT
-------------

Method             : SCF
Type of density    : Electron Density
Multiplicity       :   1
Irrep              :   0
Energy             : -2932.4959972829910839 Eh
Relativity type    :
Basis              : AO
                                X                 Y                 Z
Electronic contribution:     -5.024172959       5.605551456      -9.505966214
Nuclear contribution   :      5.583889421      -8.207847254      11.856971052
                        -----------------------------------------
Total Dipole Moment    :      0.559716462      -2.602295798       2.351004838
                        -----------------------------------------
Magnitude (a.u.)       :      3.551401088
Magnitude (Debye)      :      9.026944183

Rotational constants in cm-1:             0.012945             0.004982             0.004611
Rotational constants in MHz :           388.068310           149.349418           138.245987

                             ****ORCA TERMINATED NORMALLY****
TOTAL RUN TIME: 0 days 0 hours 1 minutes 59 seconds 565 msec
