                         Program Version 6.0.0  -   RELEASE  -
|  1> ! pbe def2-sv(p) def2/J RI DEFGRID1 loosescf d4 GCP(DFT/SV(P)) printgap
|  2> %output
|  3>     printlevel normal
|  4> end
|  5> * xyz 0 1
|  6> C 2.3537909025 -0.6176659437 -2.6400013725
|  7> C 3.0495168161 0.5143554384 -1.9147051785
|  8> O 2.4614652435 0.8194790503 -0.6259497763
|  9> P 2.282211328 -0.1859082157 0.5773830266
| 10> S 2.2424094783 0.8088203646 2.2652988015
| 11> O 3.4994078493 -1.1814136775 0.3414113746
| 12> C 3.6321552878 -2.489778287 0.9280179053
| 13> C 3.5538657353 -2.4707241771 2.4398858892
| 14> S 0.5573622367 -1.3806967844 0.1997134757
| 15> C -0.5512385111 -0.666734586 1.4356596397
| 16> S -1.086660614 1.0321935221 1.0733524205
| 17> P -2.1106420474 0.7290333636 -0.7565062926
| 18> S -1.1283405551 0.6521800829 -2.4393275463
| 19> O -3.1094219367 1.9583585297 -0.8014644404
| 20> C -4.0577498787 2.2595125949 0.2525526757
| 21> C -3.6197998492 3.4923112473 1.0174067166
| 22> O -3.0054996156 -0.5491502655 -0.414005546
| 23> C -3.1934298256 -1.676655436 -1.2974203017
| 24> C -2.6340944135 -2.9378948387 -0.6707931185
| 25> H 2.4391996922 -1.545313781 -2.077545081
| 26> H 1.3006369896 -0.3880414195 -2.7863447701
| 27> H 2.8211452133 -0.7497122153 -3.6107162796
| 28> H 2.9500066701 1.4539774846 -2.4603301886
| 29> H 4.1047594304 0.286073059 -1.7512933505
| 30> H 2.8530190443 -3.1329045453 0.5087337865
| 31> H 4.6129218713 -2.8232789866 0.5841856942
| 32> H 3.7576367535 -3.4656017965 2.8224799819
| 33> H 4.2786207253 -1.7708922105 2.8489372084
| 34> H 2.5613977094 -2.1610666126 2.763049369
| 35> H -0.0336909611 -0.5936108793 2.3923970618
| 36> H -1.4183293597 -1.3189968903 1.4955949799
| 37> H -5.0031401063 2.4315131092 -0.2648150308
| 38> H -4.1487629013 1.3925372075 0.9106542592
| 39> H -3.4939939769 4.3280836458 0.3345514694
| 40> H -4.3759748526 3.7413012504 1.7551167072
| 41> H -2.6737365118 3.3110446874 1.5238302241
| 42> H -4.2720944862 -1.7523311232 -1.4472584804
| 43> H -2.7052089689 -1.4609028927 -2.2533810441
| 44> H -3.0877084048 -3.1091726239 0.3015512772
| 45> H -2.858472304 -3.7780410718 -1.3198074101
| 46> H -1.5543219891 -2.8595643724 -0.5573835294
| 47> *
| 48>
| 49>                          ****END OF INPUT****

CARTESIAN COORDINATES (ANGSTROEM)
---------------------------------
  C      2.353791   -0.617666   -2.640001
  C      3.049517    0.514355   -1.914705
  O      2.461465    0.819479   -0.625950
  P      2.282211   -0.185908    0.577383
  S      2.242409    0.808820    2.265299
  O      3.499408   -1.181414    0.341411
  C      3.632155   -2.489778    0.928018
  C      3.553866   -2.470724    2.439886
  S      0.557362   -1.380697    0.199713
  C     -0.551239   -0.666735    1.435660
  S     -1.086661    1.032194    1.073352
  P     -2.110642    0.729033   -0.756506
  S     -1.128341    0.652180   -2.439328
  O     -3.109422    1.958359   -0.801464
  C     -4.057750    2.259513    0.252553
  C     -3.619800    3.492311    1.017407
  O     -3.005500   -0.549150   -0.414006
  C     -3.193430   -1.676655   -1.297420
  C     -2.634094   -2.937895   -0.670793
  H      2.439200   -1.545314   -2.077545
  H      1.300637   -0.388041   -2.786345
  H      2.821145   -0.749712   -3.610716
  H      2.950007    1.453977   -2.460330
  H      4.104759    0.286073   -1.751293
  H      2.853019   -3.132905    0.508734
  H      4.612922   -2.823279    0.584186
  H      3.757637   -3.465602    2.822480
  H      4.278621   -1.770892    2.848937
  H      2.561398   -2.161067    2.763049
  H     -0.033691   -0.593611    2.392397
  H     -1.418329   -1.318997    1.495595
  H     -5.003140    2.431513   -0.264815
  H     -4.148763    1.392537    0.910654
  H     -3.493994    4.328084    0.334551
  H     -4.375975    3.741301    1.755117
  H     -2.673737    3.311045    1.523830
  H     -4.272094   -1.752331   -1.447258
  H     -2.705209   -1.460903   -2.253381
  H     -3.087708   -3.109173    0.301551
  H     -2.858472   -3.778041   -1.319807
  H     -1.554322   -2.859564   -0.557384

 Total Charge           Charge          ....    0
 Multiplicity           Mult            ....    1
 Number of Electrons    NEL             ....  202
 Basis Dimension        Dim             ....  334

ORBITAL ENERGIES
----------------

  NO   OCC          E(Eh)            E(eV)
   0   2.0000     -88.045904     -2395.8508
   1   2.0000     -88.039755     -2395.6835
   2   2.0000     -87.980845     -2394.0805
   3   2.0000     -87.979636     -2394.0476
   4   2.0000     -76.425674     -2079.6483
   5   2.0000     -76.422782     -2079.5696
   6   2.0000     -18.795531      -511.4524
   7   2.0000     -18.793988      -511.4104
   8   2.0000     -18.788157      -511.2518
   9   2.0000     -18.782166      -511.0887
  10   2.0000      -9.959834      -271.0209
  11   2.0000      -9.957660      -270.9617
  12   2.0000      -9.954404      -270.8731
  13   2.0000      -9.953636      -270.8522
  14   2.0000      -9.947790      -270.6931
  15   2.0000      -9.891350      -269.1573
  16   2.0000      -9.885255      -268.9915
  17   2.0000      -9.884901      -268.9818
  18   2.0000      -9.877026      -268.7675
  19   2.0000      -7.690015      -209.2559
  20   2.0000      -7.684634      -209.1095
  21   2.0000      -7.626096      -207.5166
  22   2.0000      -7.624859      -207.4830
  23   2.0000      -6.422586      -174.7674
  24   2.0000      -6.420463      -174.7097
  25   2.0000      -5.717811      -155.5896
  26   2.0000      -5.714496      -155.4993
  27   2.0000      -5.712696      -155.4504
  28   2.0000      -5.709007      -155.3500
  29   2.0000      -5.707254      -155.3023
  30   2.0000      -5.701572      -155.1477
  31   2.0000      -5.655217      -153.8863
  32   2.0000      -5.653777      -153.8471
  33   2.0000      -5.646504      -153.6492
  34   2.0000      -5.646233      -153.6418
  35   2.0000      -5.645251      -153.6151
  36   2.0000      -5.645141      -153.6121
  37   2.0000      -4.645569      -126.4123
  38   2.0000      -4.644448      -126.3819
  39   2.0000      -4.643583      -126.3583
  40   2.0000      -4.642694      -126.3341
  41   2.0000      -4.642041      -126.3163
  42   2.0000      -4.640606      -126.2773
  43   2.0000      -0.985813       -26.8253
  44   2.0000      -0.982986       -26.7484
  45   2.0000      -0.943100       -25.6631
  46   2.0000      -0.939191       -25.5567
  47   2.0000      -0.762979       -20.7617
  48   2.0000      -0.720771       -19.6132
  49   2.0000      -0.709959       -19.3190
  50   2.0000      -0.692934       -18.8557
  51   2.0000      -0.689240       -18.7552
  52   2.0000      -0.673780       -18.3345
  53   2.0000      -0.649008       -17.6604
  54   2.0000      -0.636485       -17.3196
  55   2.0000      -0.592841       -16.1320
  56   2.0000      -0.587792       -15.9946
  57   2.0000      -0.578750       -15.7486
  58   2.0000      -0.573928       -15.6174
  59   2.0000      -0.562968       -15.3191
  60   2.0000      -0.506121       -13.7723
  61   2.0000      -0.495455       -13.4820
  62   2.0000      -0.478552       -13.0221
  63   2.0000      -0.468408       -12.7460
  64   2.0000      -0.460293       -12.5252
  65   2.0000      -0.445078       -12.1112
  66   2.0000      -0.442226       -12.0336
  67   2.0000      -0.433485       -11.7957
  68   2.0000      -0.429036       -11.6747
  69   2.0000      -0.415279       -11.3003
  70   2.0000      -0.409595       -11.1456
  71   2.0000      -0.407315       -11.0836
  72   2.0000      -0.390935       -10.6379
  73   2.0000      -0.384173       -10.4539
  74   2.0000      -0.378154       -10.2901
  75   2.0000      -0.376131       -10.2350
  76   2.0000      -0.363002        -9.8778
  77   2.0000      -0.357600        -9.7308
  78   2.0000      -0.352399        -9.5893
  79   2.0000      -0.350829        -9.5466
  80   2.0000      -0.348922        -9.4946
  81   2.0000      -0.344674        -9.3791
  82   2.0000      -0.340564        -9.2672
  83   2.0000      -0.338210        -9.2032
  84   2.0000      -0.332489        -9.0475
  85   2.0000      -0.324820        -8.8388
  86   2.0000      -0.311262        -8.4699
  87   2.0000      -0.300292        -8.1714
  88   2.0000      -0.297691        -8.1006
  89   2.0000      -0.286475        -7.7954
  90   2.0000      -0.284349        -7.7375
  91   2.0000      -0.274908        -7.4806
  92   2.0000      -0.268821        -7.3150
  93   2.0000      -0.264326        -7.1927
  94   2.0000      -0.257837        -7.0161
  95   2.0000      -0.238088        -6.4787
  96   2.0000      -0.218650        -5.9498
  97   2.0000      -0.201735        -5.4895
  98   2.0000      -0.197761        -5.3814
  99   2.0000      -0.194775        -5.3001
 100   2.0000      -0.190055        -5.1717
 101   0.0000      -0.047993        -1.3060
 102   0.0000      -0.024254        -0.6600
 103   0.0000      -0.009042        -0.2460
 104   0.0000      -0.002378        -0.0647
 105   0.0000       0.014374         0.3911

MULLIKEN ATOMIC CHARGES
-----------------------
   0 C :   -0.349323
   1 C :    0.018025
   2 O :   -0.354962
   3 P :    0.629948
   4 S :   -0.311218
   5 O :   -0.384814
   6 C :   -0.005847
   7 C :   -0.306407
   8 S :   -0.127603
   9 C :   -0.351866
  10 S :   -0.075436
  11 P :    0.612495
  12 S :   -0.305030
  13 O :   -0.362584
  14 C :   -0.020095
  15 C :   -0.292130
  16 O :   -0.396550
  17 C :   -0.008262
  18 C :   -0.315978
  19 H :    0.110164
  20 H :    0.159924
  21 H :    0.108692
  22 H :    0.112609
  23 H :    0.104399
  24 H :    0.108021
  25 H :    0.107865
  26 H :    0.110240
  27 H :    0.128016
  28 H :    0.121332
  29 H :    0.191652
  30 H :    0.186344
  31 H :    0.108672
  32 H :    0.104961
  33 H :    0.122249
  34 H :    0.109404
  35 H :    0.130623
  36 H :    0.102496
  37 H :    0.114726
  38 H :    0.117355
  39 H :    0.114678
  40 H :    0.133217
Sum of atomic charges:    0.0000000

LOEWDIN ATOMIC CHARGES
----------------------
   0 C :   -0.377753
   1 C :   -0.104766
   2 O :   -0.231898
   3 P :    0.574688
   4 S :   -0.303957
   5 O :   -0.244232
   6 C :   -0.116157
   7 C :   -0.368005
   8 S :    0.078727
   9 C :   -0.481496
  10 S :    0.096773
  11 P :    0.560354
  12 S :   -0.296343
  13 O :   -0.243616
  14 C :   -0.118808
  15 C :   -0.358967
  16 O :   -0.261213
  17 C :   -0.118754
  18 C :   -0.362437
  19 H :    0.112212
  20 H :    0.123205
  21 H :    0.130682
  22 H :    0.125363
  23 H :    0.112276
  24 H :    0.105524
  25 H :    0.120597
  26 H :    0.129596
  27 H :    0.131236
  28 H :    0.119251
  29 H :    0.129206
  30 H :    0.131036
  31 H :    0.120286
  32 H :    0.107549
  33 H :    0.130042
  34 H :    0.129807
  35 H :    0.122395
  36 H :    0.115953
  37 H :    0.108505
  38 H :    0.123636
  39 H :    0.133353
  40 H :    0.116151

  Mayer bond orders larger than 0.100000
B(  0-C ,  1-C ) :   1.1699 B(  0-C , 19-H ) :   0.9391 B(  0-C , 20-H ) :   0.9177
B(  0-C , 21-H ) :   0.9346 B(  1-C ,  2-O ) :   0.8955 B(  1-C , 22-H ) :   0.9321
B(  1-C , 23-H ) :   0.9317 B(  2-O ,  3-P ) :   1.1539 B(  3-P ,  4-S ) :   1.6421
B(  3-P ,  5-O ) :   1.0748 B(  3-P ,  8-S ) :   0.9205 B(  4-S ,  8-S ) :   0.1107
B(  5-O ,  6-C ) :   0.9106 B(  6-C ,  7-C ) :   1.1685 B(  6-C , 24-H ) :   0.9227
B(  6-C , 25-H ) :   0.9332 B(  7-C , 26-H ) :   0.9348 B(  7-C , 27-H ) :   0.9428
B(  7-C , 28-H ) :   0.9346 B(  8-S ,  9-C ) :   1.0146 B(  9-C , 10-S ) :   0.9998
B(  9-C , 29-H ) :   0.8780 B(  9-C , 30-H ) :   0.8935 B( 10-S , 11-P ) :   0.9699
B( 11-P , 12-S ) :   1.6581 B( 11-P , 13-O ) :   1.1322 B( 11-P , 16-O ) :   1.0578
B( 13-O , 14-C ) :   0.8957 B( 14-C , 15-C ) :   1.1651 B( 14-C , 31-H ) :   0.9328
B( 14-C , 32-H ) :   0.9160 B( 15-C , 33-H ) :   0.9459 B( 15-C , 34-H ) :   0.9397
B( 15-C , 35-H ) :   0.9390 B( 16-O , 17-C ) :   0.9063 B( 17-C , 18-C ) :   1.1676
B( 17-C , 36-H ) :   0.9336 B( 17-C , 37-H ) :   0.8975 B( 18-C , 38-H ) :   0.9434
B( 18-C , 39-H ) :   0.9373 B( 18-C , 40-H ) :   0.9306

Dispersion correction           -0.065825586
FINAL SINGLE POINT ENERGY     -2929.513327546945

DIPOLE MOMENT
-------------

Method             : SCF
Type of density    : Electron Density
Multiplicity       :   1
Irrep              :   0
Energy             : -2929.6326666062886943 Eh
Relativity type    :
Basis              : AO
                                X                 Y                 Z
Electronic contribution:      3.188967630      11.953785830       0.262904913
Nuclear contribution   :     -3.874618030     -13.603454887      -0.163981417
                        -----------------------------------------
Total Dipole Moment    :     -0.685650400      -1.649669057       0.098923496
                        -----------------------------------------
Magnitude (a.u.)       :      1.789220592
Magnitude (Debye)      :      4.547837322

Rotational constants in cm-1:             0.011792             0.005084             0.004822
Rotational constants in MHz :           353.515016           152.423692           144.555520

                             ****ORCA TERMINATED NORMALLY****
TOTAL RUN TIME: 0 days 0 hours 0 minutes 20 seconds 894 msec
