                         Program Version 6.0.0  -   RELEASE  -
|  1> ! pbe def2-sv(p) def2/J RI DEFGRID1 loosescf d4 GCP(DFT/SV(P)) printgap
|  2> %output
|  3>     printlevel normal
|  4> end
|  5> * xyz 0 1
|  6> C 3.143345415 2.642941063 -0.7694745261
|  7> C 3.9796009525 1.3893329655 -0.9228029104
|  8> O 3.6546970458 0.3774700274 0.0458525588
|  9> P 2.1878047299 -0.0792480135 0.4583478248
| 10> S 1.3305772566 1.0478257087 1.8194029746
| 11> O 2.4356584989 -1.5789310224 0.9027395417
| 12> C 2.5592202151 -1.9525546471 2.2892617333
| 13> C 3.903104584 -1.5307856515 2.8438808054
| 14> S 1.2522953686 -0.3985414591 -1.4328327201
| 15> C 0.2356990394 -1.8446718792 -1.0316995378
| 16> S -0.8674182735 -1.584712549 0.3845882955
| 17> P -2.0429874471 -0.0728856705 -0.5039511513
| 18> S -2.4190334898 -0.2886993488 -2.4186260326
| 19> O -1.2559275084 1.2246968054 -0.07432353
| 20> C -1.3689806045 2.4763207382 -0.7815361707
| 21> C -2.7557174013 3.0675771091 -0.6514241665
| 22> O -3.3214944118 -0.0135401144 0.4327563441
| 23> C -4.3908583877 -0.9749568045 0.3166268184
| 24> C -5.6201965988 -0.388415181 0.9802400353
| 25> H 2.0936591792 2.4097232752 -0.9529355044
| 26> H 3.2383173276 3.0432339838 0.2374644571
| 27> H 3.470188227 3.3879285396 -1.4877504536
| 28> H 5.0377101857 1.5895161319 -0.7449551854
| 29> H 3.8445828463 0.9570766971 -1.9185968432
| 30> H 1.7424210286 -1.4889479052 2.8523265805
| 31> H 2.4374971998 -3.0363534755 2.2859565398
| 32> H 3.9820740005 -0.4444150167 2.8156300125
| 33> H 3.9937668733 -1.8682163654 3.8713961781
| 34> H 4.7060265766 -1.9553990235 2.2475877574
| 35> H 0.8752503142 -2.6881322486 -0.7864619715
| 36> H -0.3604379708 -2.0398205962 -1.9241399676
| 37> H -0.6116954887 3.1055976613 -0.3103603111
| 38> H -1.1131034651 2.3029805515 -1.8322725814
| 39> H -3.4789924529 2.4190456633 -1.1451944789
| 40> H -3.0242089864 3.1618912545 0.3976012879
| 41> H -2.7764664204 4.0452742062 -1.1224146881
| 42> H -4.5639545236 -1.1764718435 -0.746082327
| 43> H -4.0734304946 -1.8982307074 0.8089023902
| 44> H -5.4018751411 -0.1517812469 2.0175761097
| 45> H -5.9260097751 0.5199440115 0.4690116364
| 46> H -6.4268312734 -1.1128143315 0.9373817708
| 47> *
| 48>
| 49>                          ****END OF INPUT****

CARTESIAN COORDINATES (ANGSTROEM)
---------------------------------
  C      3.143345    2.642941   -0.769475
  C      3.979601    1.389333   -0.922803
  O      3.654697    0.377470    0.045853
  P      2.187805   -0.079248    0.458348
  S      1.330577    1.047826    1.819403
  O      2.435658   -1.578931    0.902740
  C      2.559220   -1.952555    2.289262
  C      3.903105   -1.530786    2.843881
  S      1.252295   -0.398541   -1.432833
  C      0.235699   -1.844672   -1.031700
  S     -0.867418   -1.584713    0.384588
  P     -2.042987   -0.072886   -0.503951
  S     -2.419033   -0.288699   -2.418626
  O     -1.255928    1.224697   -0.074324
  C     -1.368981    2.476321   -0.781536
  C     -2.755717    3.067577   -0.651424
  O     -3.321494   -0.013540    0.432756
  C     -4.390858   -0.974957    0.316627
  C     -5.620197   -0.388415    0.980240
  H      2.093659    2.409723   -0.952936
  H      3.238317    3.043234    0.237464
  H      3.470188    3.387929   -1.487750
  H      5.037710    1.589516   -0.744955
  H      3.844583    0.957077   -1.918597
  H      1.742421   -1.488948    2.852327
  H      2.437497   -3.036353    2.285957
  H      3.982074   -0.444415    2.815630
  H      3.993767   -1.868216    3.871396
  H      4.706027   -1.955399    2.247588
  H      0.875250   -2.688132   -0.786462
  H     -0.360438   -2.039821   -1.924140
  H     -0.611695    3.105598   -0.310360
  H     -1.113103    2.302981   -1.832273
  H     -3.478992    2.419046   -1.145194
  H     -3.024209    3.161891    0.397601
  H     -2.776466    4.045274   -1.122415
  H     -4.563955   -1.176472   -0.746082
  H     -4.073430   -1.898231    0.808902
  H     -5.401875   -0.151781    2.017576
  H     -5.926010    0.519944    0.469012
  H     -6.426831   -1.112814    0.937382

 Total Charge           Charge          ....    0
 Multiplicity           Mult            ....    1
 Number of Electrons    NEL             ....  202
 Basis Dimension        Dim             ....  334

ORBITAL ENERGIES
----------------

  NO   OCC          E(Eh)            E(eV)
   0   2.0000     -88.040411     -2395.7014
   1   2.0000     -88.039202     -2395.6685
   2   2.0000     -87.985871     -2394.2173
   3   2.0000     -87.977548     -2393.9908
   4   2.0000     -76.423792     -2079.5971
   5   2.0000     -76.423425     -2079.5871
   6   2.0000     -18.792617      -511.3731
   7   2.0000     -18.790935      -511.3273
   8   2.0000     -18.786499      -511.2066
   9   2.0000     -18.784144      -511.1425
  10   2.0000      -9.957074      -270.9457
  11   2.0000      -9.956078      -270.9186
  12   2.0000      -9.952424      -270.8192
  13   2.0000      -9.948886      -270.7230
  14   2.0000      -9.945345      -270.6266
  15   2.0000      -9.887966      -269.0652
  16   2.0000      -9.885705      -269.0037
  17   2.0000      -9.880412      -268.8597
  18   2.0000      -9.879181      -268.8262
  19   2.0000      -7.685691      -209.1383
  20   2.0000      -7.684101      -209.0950
  21   2.0000      -7.630861      -207.6463
  22   2.0000      -7.622653      -207.4229
  23   2.0000      -6.421459      -174.7368
  24   2.0000      -6.420557      -174.7122
  25   2.0000      -5.713538      -155.4733
  26   2.0000      -5.712193      -155.4367
  27   2.0000      -5.710286      -155.3848
  28   2.0000      -5.708610      -155.3392
  29   2.0000      -5.702544      -155.1741
  30   2.0000      -5.700880      -155.1288
  31   2.0000      -5.659590      -154.0053
  32   2.0000      -5.651594      -153.7877
  33   2.0000      -5.651556      -153.7866
  34   2.0000      -5.651113      -153.7746
  35   2.0000      -5.643409      -153.5650
  36   2.0000      -5.642703      -153.5458
  37   2.0000      -4.643806      -126.3644
  38   2.0000      -4.643263      -126.3496
  39   2.0000      -4.643207      -126.3481
  40   2.0000      -4.642660      -126.3332
  41   2.0000      -4.642112      -126.3183
  42   2.0000      -4.640631      -126.2780
  43   2.0000      -0.984649       -26.7937
  44   2.0000      -0.984143       -26.7799
  45   2.0000      -0.944093       -25.6901
  46   2.0000      -0.943203       -25.6658
  47   2.0000      -0.762940       -20.7606
  48   2.0000      -0.718944       -19.5635
  49   2.0000      -0.707548       -19.2534
  50   2.0000      -0.687539       -18.7089
  51   2.0000      -0.685146       -18.6438
  52   2.0000      -0.669994       -18.2315
  53   2.0000      -0.649496       -17.6737
  54   2.0000      -0.637109       -17.3366
  55   2.0000      -0.596421       -16.2294
  56   2.0000      -0.591030       -16.0827
  57   2.0000      -0.573196       -15.5975
  58   2.0000      -0.566027       -15.4024
  59   2.0000      -0.560928       -15.2636
  60   2.0000      -0.503376       -13.6976
  61   2.0000      -0.492930       -13.4133
  62   2.0000      -0.473227       -12.8772
  63   2.0000      -0.468557       -12.7501
  64   2.0000      -0.458793       -12.4844
  65   2.0000      -0.443931       -12.0800
  66   2.0000      -0.437209       -11.8971
  67   2.0000      -0.433042       -11.7837
  68   2.0000      -0.425137       -11.5686
  69   2.0000      -0.417334       -11.3562
  70   2.0000      -0.406206       -11.0534
  71   2.0000      -0.392852       -10.6901
  72   2.0000      -0.391230       -10.6459
  73   2.0000      -0.387106       -10.5337
  74   2.0000      -0.381652       -10.3853
  75   2.0000      -0.371865       -10.1190
  76   2.0000      -0.368259       -10.0208
  77   2.0000      -0.356531        -9.7017
  78   2.0000      -0.353053        -9.6071
  79   2.0000      -0.347923        -9.4675
  80   2.0000      -0.345964        -9.4142
  81   2.0000      -0.343211        -9.3392
  82   2.0000      -0.342352        -9.3159
  83   2.0000      -0.340312        -9.2603
  84   2.0000      -0.330724        -8.9994
  85   2.0000      -0.317440        -8.6380
  86   2.0000      -0.307465        -8.3666
  87   2.0000      -0.299470        -8.1490
  88   2.0000      -0.295009        -8.0276
  89   2.0000      -0.287451        -7.8219
  90   2.0000      -0.280979        -7.6458
  91   2.0000      -0.272874        -7.4253
  92   2.0000      -0.271170        -7.3789
  93   2.0000      -0.261946        -7.1279
  94   2.0000      -0.254235        -6.9181
  95   2.0000      -0.235304        -6.4029
  96   2.0000      -0.215871        -5.8741
  97   2.0000      -0.206521        -5.6197
  98   2.0000      -0.203102        -5.5267
  99   2.0000      -0.193766        -5.2727
 100   2.0000      -0.185944        -5.0598
 101   0.0000      -0.046571        -1.2673
 102   0.0000      -0.022713        -0.6181
 103   0.0000      -0.018374        -0.5000
 104   0.0000       0.008399         0.2285
 105   0.0000       0.021411         0.5826

MULLIKEN ATOMIC CHARGES
-----------------------
   0 C :   -0.335599
   1 C :   -0.002937
   2 O :   -0.373111
   3 P :    0.612321
   4 S :   -0.310303
   5 O :   -0.374370
   6 C :   -0.010177
   7 C :   -0.299453
   8 S :   -0.114548
   9 C :   -0.339958
  10 S :   -0.089566
  11 P :    0.622519
  12 S :   -0.345086
  13 O :   -0.341544
  14 C :   -0.012808
  15 C :   -0.303547
  16 O :   -0.372665
  17 C :   -0.012149
  18 C :   -0.281627
  19 H :    0.139842
  20 H :    0.130202
  21 H :    0.112786
  22 H :    0.110270
  23 H :    0.112134
  24 H :    0.117068
  25 H :    0.100099
  26 H :    0.124146
  27 H :    0.110201
  28 H :    0.114008
  29 H :    0.187643
  30 H :    0.192930
  31 H :    0.114499
  32 H :    0.110424
  33 H :    0.120661
  34 H :    0.118651
  35 H :    0.109617
  36 H :    0.106054
  37 H :    0.102403
  38 H :    0.119141
  39 H :    0.119907
  40 H :    0.111922
Sum of atomic charges:    0.0000000

LOEWDIN ATOMIC CHARGES
----------------------
   0 C :   -0.372959
   1 C :   -0.114560
   2 O :   -0.248789
   3 P :    0.571640
   4 S :   -0.306867
   5 O :   -0.241412
   6 C :   -0.121187
   7 C :   -0.362909
   8 S :    0.071415
   9 C :   -0.474570
  10 S :    0.083890
  11 P :    0.573438
  12 S :   -0.330190
  13 O :   -0.223624
  14 C :   -0.116713
  15 C :   -0.365678
  16 O :   -0.244626
  17 C :   -0.120330
  18 C :   -0.350291
  19 H :    0.119880
  20 H :    0.130463
  21 H :    0.130374
  22 H :    0.122174
  23 H :    0.109703
  24 H :    0.110701
  25 H :    0.115645
  26 H :    0.124291
  27 H :    0.129682
  28 H :    0.125334
  29 H :    0.134019
  30 H :    0.130456
  31 H :    0.119217
  32 H :    0.109788
  33 H :    0.120252
  34 H :    0.127327
  35 H :    0.129537
  36 H :    0.108077
  37 H :    0.110209
  38 H :    0.128137
  39 H :    0.128193
  40 H :    0.130866

  Mayer bond orders larger than 0.100000
B(  0-C ,  1-C ) :   1.1648 B(  0-C , 19-H ) :   0.9307 B(  0-C , 20-H ) :   0.9393
B(  0-C , 21-H ) :   0.9335 B(  1-C ,  2-O ) :   0.9222 B(  1-C , 22-H ) :   0.9341
B(  1-C , 23-H ) :   0.9252 B(  2-O ,  3-P ) :   1.0980 B(  3-P ,  4-S ) :   1.6415
B(  3-P ,  5-O ) :   1.1084 B(  3-P ,  8-S ) :   0.9289 B(  4-S ,  8-S ) :   0.1087
B(  5-O ,  6-C ) :   0.8992 B(  6-C ,  7-C ) :   1.1652 B(  6-C , 24-H ) :   0.9096
B(  6-C , 25-H ) :   0.9334 B(  7-C , 26-H ) :   0.9350 B(  7-C , 27-H ) :   0.9399
B(  7-C , 28-H ) :   0.9467 B(  8-S ,  9-C ) :   1.0079 B(  9-C , 10-S ) :   1.0111
B(  9-C , 29-H ) :   0.9013 B(  9-C , 30-H ) :   0.8797 B( 10-S , 11-P ) :   0.9530
B( 10-S , 12-S ) :   0.1093 B( 11-P , 12-S ) :   1.5909 B( 11-P , 13-O ) :   1.1563
B( 11-P , 16-O ) :   1.1125 B( 13-O , 14-C ) :   0.9033 B( 14-C , 15-C ) :   1.1637
B( 14-C , 31-H ) :   0.9251 B( 14-C , 32-H ) :   0.9191 B( 15-C , 33-H ) :   0.9339
B( 15-C , 34-H ) :   0.9450 B( 15-C , 35-H ) :   0.9390 B( 16-O , 17-C ) :   0.9036
B( 17-C , 18-C ) :   1.1612 B( 17-C , 36-H ) :   0.9089 B( 17-C , 37-H ) :   0.9292
B( 18-C , 38-H ) :   0.9501 B( 18-C , 39-H ) :   0.9514 B( 18-C , 40-H ) :   0.9417

Dispersion correction           -0.066403805
FINAL SINGLE POINT ENERGY     -2929.517096866326

DIPOLE MOMENT
-------------

Method             : SCF
Type of density    : Electron Density
Multiplicity       :   1
Irrep              :   0
Energy             : -2929.6347808386690303 Eh
Relativity type    :
Basis              : AO
                                X                 Y                 Z
Electronic contribution:      2.499902694      -8.846082362      -5.533171434
Nuclear contribution   :     -2.277733220       8.691639425       5.708370143
                        -----------------------------------------
Total Dipole Moment    :      0.222169475      -0.154442936       0.175198709
                        -----------------------------------------
Magnitude (a.u.)       :      0.322345286
Magnitude (Debye)      :      0.819336604

Rotational constants in cm-1:             0.012623             0.005143             0.004667
Rotational constants in MHz :           378.423941           154.190054           139.922739

                             ****ORCA TERMINATED NORMALLY****
TOTAL RUN TIME: 0 days 0 hours 0 minutes 21 seconds 24 msec
