                         Program Version 6.0.0  -   RELEASE  -
|  1> ! pbe def2-sv(p) def2/J RI DEFGRID1 loosescf d4 GCP(DFT/SV(P)) printgap
|  2> %output
|  3>     printlevel normal
|  4> end
|  5> * xyz 0 1
|  6> C 5.6319905056 0.8340186084 -1.2142960142
|  7> C 4.2749734042 0.1705828928 -1.3346551933
|  8> O 3.5724659399 0.3683705783 -0.0916662409
|  9> P 1.9882178305 0.263842153 0.0043917613
| 10> S 1.0595797624 1.3860799287 -1.3132097574
| 11> O 1.7309410193 0.7275385935 1.487610356
| 12> C 2.4305450196 0.1827455734 2.6398721824
| 13> C 1.5629205695 -0.8220404456 3.3721372043
| 14> S 1.791813256 -1.8563834772 -0.0691190736
| 15> C 0.0035313406 -2.157245592 -0.0017506277
| 16> S -0.8998284442 -1.4148428524 -1.4053143869
| 17> P -2.0118798945 0.0336191645 -0.3518664984
| 18> S -2.835708297 1.4146822876 -1.4663813424
| 19> O -1.0449639116 0.5104375305 0.8161187172
| 20> C -1.2231297136 1.8182672386 1.3989839791
| 21> C -2.4785079689 1.8792510283 2.2408780986
| 22> O -3.0087731566 -0.8634326856 0.5216701982
| 23> C -4.1010740707 -1.5830633984 -0.0786695049
| 24> C -5.3826830572 -0.7745528058 -0.0200657174
| 25> H 6.1828237661 0.6851936451 -2.1371066645
| 26> H 5.5115414541 1.8990732315 -1.0365652669
| 27> H 6.1870232903 0.3985589608 -0.3886681745
| 28> H 4.3689956738 -0.9053979193 -1.5029371678
| 29> H 3.6834445879 0.6117132615 -2.1438828419
| 30> H 3.3696781 -0.2632136278 2.3098562939
| 31> H 2.6370868048 1.0556913315 3.260969785
| 32> H 2.0336323933 -1.0671910489 4.3190804019
| 33> H 0.5807566527 -0.3974097519 3.563576405
| 34> H 1.4513422572 -1.7331608327 2.7899918037
| 35> H -0.4131116872 -1.7787910075 0.9283323922
| 36> H -0.1017512924 -3.2367694993 -0.0806558657
| 37> H -0.318017779 1.9697306599 1.9880581559
| 38> H -1.2549579604 2.5567190374 0.5907139033
| 39> H -2.4721766513 1.0892262043 2.9871064998
| 40> H -2.5330007797 2.8456451675 2.7318998984
| 41> H -3.3518491156 1.7556491886 1.6016264911
| 42> H -3.8422257884 -1.8313356193 -1.1134793016
| 43> H -4.1840406581 -2.5003173253 0.5074446227
| 44> H -5.6139460764 -0.5148248955 1.0090854442
| 45> H -5.2754027058 0.1404351772 -0.5987580955
| 46> H -6.1955162658 -1.3618012724 -0.4346830535
| 47> *
| 48>
| 49>                          ****END OF INPUT****

CARTESIAN COORDINATES (ANGSTROEM)
---------------------------------
  C      5.631991    0.834019   -1.214296
  C      4.274973    0.170583   -1.334655
  O      3.572466    0.368371   -0.091666
  P      1.988218    0.263842    0.004392
  S      1.059580    1.386080   -1.313210
  O      1.730941    0.727539    1.487610
  C      2.430545    0.182746    2.639872
  C      1.562921   -0.822040    3.372137
  S      1.791813   -1.856383   -0.069119
  C      0.003531   -2.157246   -0.001751
  S     -0.899828   -1.414843   -1.405314
  P     -2.011880    0.033619   -0.351866
  S     -2.835708    1.414682   -1.466381
  O     -1.044964    0.510438    0.816119
  C     -1.223130    1.818267    1.398984
  C     -2.478508    1.879251    2.240878
  O     -3.008773   -0.863433    0.521670
  C     -4.101074   -1.583063   -0.078670
  C     -5.382683   -0.774553   -0.020066
  H      6.182824    0.685194   -2.137107
  H      5.511541    1.899073   -1.036565
  H      6.187023    0.398559   -0.388668
  H      4.368996   -0.905398   -1.502937
  H      3.683445    0.611713   -2.143883
  H      3.369678   -0.263214    2.309856
  H      2.637087    1.055691    3.260970
  H      2.033632   -1.067191    4.319080
  H      0.580757   -0.397410    3.563576
  H      1.451342   -1.733161    2.789992
  H     -0.413112   -1.778791    0.928332
  H     -0.101751   -3.236769   -0.080656
  H     -0.318018    1.969731    1.988058
  H     -1.254958    2.556719    0.590714
  H     -2.472177    1.089226    2.987106
  H     -2.533001    2.845645    2.731900
  H     -3.351849    1.755649    1.601626
  H     -3.842226   -1.831336   -1.113479
  H     -4.184041   -2.500317    0.507445
  H     -5.613946   -0.514825    1.009085
  H     -5.275403    0.140435   -0.598758
  H     -6.195516   -1.361801   -0.434683

 Total Charge           Charge          ....    0
 Multiplicity           Mult            ....    1
 Number of Electrons    NEL             ....  202
 Basis Dimension        Dim             ....  334

ORBITAL ENERGIES
----------------

  NO   OCC          E(Eh)            E(eV)
   0   2.0000     -88.045910     -2395.8510
   1   2.0000     -88.038620     -2395.6526
   2   2.0000     -87.981200     -2394.0902
   3   2.0000     -87.977687     -2393.9946
   4   2.0000     -76.425427     -2079.6416
   5   2.0000     -76.420941     -2079.5195
   6   2.0000     -18.795262      -511.4451
   7   2.0000     -18.793534      -511.3981
   8   2.0000     -18.785613      -511.1825
   9   2.0000     -18.784040      -511.1397
  10   2.0000      -9.961922      -271.0777
  11   2.0000      -9.961426      -271.0642
  12   2.0000      -9.952371      -270.8178
  13   2.0000      -9.949236      -270.7325
  14   2.0000      -9.939349      -270.4634
  15   2.0000      -9.892852      -269.1982
  16   2.0000      -9.888302      -269.0744
  17   2.0000      -9.876882      -268.7636
  18   2.0000      -9.876643      -268.7571
  19   2.0000      -7.690839      -209.2784
  20   2.0000      -7.683823      -209.0875
  21   2.0000      -7.626335      -207.5231
  22   2.0000      -7.622536      -207.4198
  23   2.0000      -6.422660      -174.7695
  24   2.0000      -6.418378      -174.6529
  25   2.0000      -5.718528      -155.6091
  26   2.0000      -5.715288      -155.5209
  27   2.0000      -5.712167      -155.4360
  28   2.0000      -5.708220      -155.3286
  29   2.0000      -5.708095      -155.3252
  30   2.0000      -5.700394      -155.1156
  31   2.0000      -5.655363      -153.8903
  32   2.0000      -5.651851      -153.7947
  33   2.0000      -5.647096      -153.6653
  34   2.0000      -5.646241      -153.6420
  35   2.0000      -5.642820      -153.5489
  36   2.0000      -5.642655      -153.5445
  37   2.0000      -4.645704      -126.4160
  38   2.0000      -4.644531      -126.3841
  39   2.0000      -4.642604      -126.3317
  40   2.0000      -4.640778      -126.2820
  41   2.0000      -4.640398      -126.2716
  42   2.0000      -4.638778      -126.2276
  43   2.0000      -0.990330       -26.9483
  44   2.0000      -0.980836       -26.6899
  45   2.0000      -0.946422       -25.7534
  46   2.0000      -0.937642       -25.5145
  47   2.0000      -0.761650       -20.7255
  48   2.0000      -0.721126       -19.6228
  49   2.0000      -0.707474       -19.2514
  50   2.0000      -0.694071       -18.8866
  51   2.0000      -0.679340       -18.4858
  52   2.0000      -0.671728       -18.2786
  53   2.0000      -0.650195       -17.6927
  54   2.0000      -0.635316       -17.2878
  55   2.0000      -0.589926       -16.0527
  56   2.0000      -0.585229       -15.9249
  57   2.0000      -0.577461       -15.7135
  58   2.0000      -0.569656       -15.5011
  59   2.0000      -0.559094       -15.2137
  60   2.0000      -0.510344       -13.8872
  61   2.0000      -0.494680       -13.4609
  62   2.0000      -0.481546       -13.1035
  63   2.0000      -0.467719       -12.7273
  64   2.0000      -0.457361       -12.4454
  65   2.0000      -0.449144       -12.2218
  66   2.0000      -0.438894       -11.9429
  67   2.0000      -0.435757       -11.8576
  68   2.0000      -0.429552       -11.6887
  69   2.0000      -0.416235       -11.3263
  70   2.0000      -0.409356       -11.1392
  71   2.0000      -0.395145       -10.7524
  72   2.0000      -0.391314       -10.6482
  73   2.0000      -0.385438       -10.4883
  74   2.0000      -0.379805       -10.3350
  75   2.0000      -0.368781       -10.0350
  76   2.0000      -0.364009        -9.9052
  77   2.0000      -0.357508        -9.7283
  78   2.0000      -0.354615        -9.6496
  79   2.0000      -0.353428        -9.6173
  80   2.0000      -0.348272        -9.4770
  81   2.0000      -0.342044        -9.3075
  82   2.0000      -0.338760        -9.2181
  83   2.0000      -0.333350        -9.0709
  84   2.0000      -0.324983        -8.8432
  85   2.0000      -0.320333        -8.7167
  86   2.0000      -0.314539        -8.5590
  87   2.0000      -0.302379        -8.2281
  88   2.0000      -0.297697        -8.1008
  89   2.0000      -0.291055        -7.9200
  90   2.0000      -0.283730        -7.7207
  91   2.0000      -0.275003        -7.4832
  92   2.0000      -0.268729        -7.3125
  93   2.0000      -0.260433        -7.0867
  94   2.0000      -0.255782        -6.9602
  95   2.0000      -0.241344        -6.5673
  96   2.0000      -0.218917        -5.9570
  97   2.0000      -0.202840        -5.5196
  98   2.0000      -0.197540        -5.3753
  99   2.0000      -0.189069        -5.1448
 100   2.0000      -0.183800        -5.0015
 101   0.0000      -0.045285        -1.2323
 102   0.0000      -0.023921        -0.6509
 103   0.0000      -0.013907        -0.3784
 104   0.0000      -0.003752        -0.1021
 105   0.0000       0.023179         0.6307

MULLIKEN ATOMIC CHARGES
-----------------------
   0 C :   -0.281713
   1 C :   -0.011078
   2 O :   -0.386353
   3 P :    0.610749
   4 S :   -0.283843
   5 O :   -0.361934
   6 C :   -0.010943
   7 C :   -0.303448
   8 S :   -0.131991
   9 C :   -0.347180
  10 S :   -0.050422
  11 P :    0.601489
  12 S :   -0.305468
  13 O :   -0.383052
  14 C :   -0.016203
  15 C :   -0.300027
  16 O :   -0.377799
  17 C :   -0.009884
  18 C :   -0.291415
  19 H :    0.113163
  20 H :    0.122370
  21 H :    0.112253
  22 H :    0.103535
  23 H :    0.109034
  24 H :    0.110711
  25 H :    0.111584
  26 H :    0.111740
  27 H :    0.125368
  28 H :    0.124218
  29 H :    0.198650
  30 H :    0.182985
  31 H :    0.111139
  32 H :    0.121694
  33 H :    0.107129
  34 H :    0.108871
  35 H :    0.123613
  36 H :    0.097120
  37 H :    0.099114
  38 H :    0.111118
  39 H :    0.129821
  40 H :    0.105286
Sum of atomic charges:   -0.0000000

LOEWDIN ATOMIC CHARGES
----------------------
   0 C :   -0.350588
   1 C :   -0.121126
   2 O :   -0.253248
   3 P :    0.561727
   4 S :   -0.287761
   5 O :   -0.230093
   6 C :   -0.111650
   7 C :   -0.362835
   8 S :    0.058200
   9 C :   -0.472981
  10 S :    0.096971
  11 P :    0.573643
  12 S :   -0.303905
  13 O :   -0.242844
  14 C :   -0.125135
  15 C :   -0.365984
  16 O :   -0.257075
  17 C :   -0.120635
  18 C :   -0.364421
  19 H :    0.131532
  20 H :    0.129948
  21 H :    0.124569
  22 H :    0.108886
  23 H :    0.110207
  24 H :    0.112442
  25 H :    0.122077
  26 H :    0.131093
  27 H :    0.128769
  28 H :    0.119505
  29 H :    0.129906
  30 H :    0.138318
  31 H :    0.114051
  32 H :    0.112625
  33 H :    0.120980
  34 H :    0.129296
  35 H :    0.121423
  36 H :    0.104052
  37 H :    0.114560
  38 H :    0.123716
  39 H :    0.124385
  40 H :    0.127401

  Mayer bond orders larger than 0.100000
B(  0-C ,  1-C ) :   1.1613 B(  0-C , 19-H ) :   0.9418 B(  0-C , 20-H ) :   0.9505
B(  0-C , 21-H ) :   0.9515 B(  1-C ,  2-O ) :   0.9030 B(  1-C , 22-H ) :   0.9300
B(  1-C , 23-H ) :   0.9053 B(  2-O ,  3-P ) :   1.0757 B(  3-P ,  4-S ) :   1.6658
B(  3-P ,  5-O ) :   1.1148 B(  3-P ,  8-S ) :   0.9458 B(  4-S ,  8-S ) :   0.1218
B(  5-O ,  6-C ) :   0.8884 B(  6-C ,  7-C ) :   1.1658 B(  6-C , 24-H ) :   0.9174
B(  6-C , 25-H ) :   0.9355 B(  7-C , 26-H ) :   0.9381 B(  7-C , 27-H ) :   0.9443
B(  7-C , 28-H ) :   0.9311 B(  8-S ,  9-C ) :   0.9816 B(  9-C , 10-S ) :   0.9872
B(  9-C , 29-H ) :   0.8838 B(  9-C , 30-H ) :   0.9113 B( 10-S , 11-P ) :   0.9837
B( 11-P , 12-S ) :   1.6455 B( 11-P , 13-O ) :   1.0906 B( 11-P , 16-O ) :   1.0601
B( 13-O , 14-C ) :   0.8857 B( 14-C , 15-C ) :   1.1608 B( 14-C , 31-H ) :   0.9214
B( 14-C , 32-H ) :   0.9136 B( 15-C , 33-H ) :   0.9465 B( 15-C , 34-H ) :   0.9394
B( 15-C , 35-H ) :   0.9312 B( 16-O , 17-C ) :   0.9157 B( 17-C , 18-C ) :   1.1670
B( 17-C , 36-H ) :   0.9118 B( 17-C , 37-H ) :   0.9367 B( 18-C , 38-H ) :   0.9462
B( 18-C , 39-H ) :   0.9303 B( 18-C , 40-H ) :   0.9400

Dispersion correction           -0.067211550
FINAL SINGLE POINT ENERGY     -2929.511133742109

DIPOLE MOMENT
-------------

Method             : SCF
Type of density    : Electron Density
Multiplicity       :   1
Irrep              :   0
Energy             : -2929.6312344372313419 Eh
Relativity type    :
Basis              : AO
                                X                 Y                 Z
Electronic contribution:      0.350257942      -0.448518771     -16.765796378
Nuclear contribution   :      0.487728789      -0.787719148      18.441033187
                        -----------------------------------------
Total Dipole Moment    :      0.837986732      -1.236237919       1.675236810
                        -----------------------------------------
Magnitude (a.u.)       :      2.244309320
Magnitude (Debye)      :      5.704580941

Rotational constants in cm-1:             0.013376             0.005060             0.004910
Rotational constants in MHz :           401.012134           151.692274           147.198352

                             ****ORCA TERMINATED NORMALLY****
TOTAL RUN TIME: 0 days 0 hours 0 minutes 21 seconds 612 msec
