                         Program Version 6.0.0  -   RELEASE  -
|  1> ! pbe def2-sv(p) def2/J RI DEFGRID1 loosescf d4 GCP(DFT/SV(P)) printgap
|  2> %output
|  3>     printlevel normal
|  4> end
|  5> * xyz 0 1
|  6> C 2.7403292334 0.6937490456 -2.2235838363
|  7> C 2.1783838213 1.6594119989 -1.2030702495
|  8> O 1.3583339668 1.0076100327 -0.1991241211
|  9> P 1.8932573827 -0.0073882175 0.8883393749
| 10> S 0.97043173 0.1862390046 2.6089170297
| 11> O 3.4444080996 0.3232979086 0.954897855
| 12> C 4.2609199039 -0.0871138645 2.0650287658
| 13> C 4.4253763546 -1.5916602837 2.1195820445
| 14> S 1.8233364473 -1.9404649774 -0.0288059094
| 15> C 0.2184003288 -1.845856547 -0.8583674305
| 16> S -1.1383859956 -1.3747204019 0.2588518118
| 17> P -2.0867443394 0.1118430264 -0.9523781135
| 18> S -1.060594958 0.8024219671 -2.4616271873
| 19> O -2.6614065434 1.1387848008 0.1168727682
| 20> C -1.8514155261 2.0318917535 0.9003595068
| 21> C -1.6018332594 3.3326184458 0.16407236
| 22> O -3.4029290738 -0.5708403316 -1.4845361536
| 23> C -4.3945064469 -1.1985088227 -0.6363916014
| 24> C -5.5313218572 -0.2429867564 -0.3371154603
| 25> H 3.3638981671 -0.0542358693 -1.7392357675
| 26> H 1.934458836 0.2023883016 -2.7636918101
| 27> H 3.3427436813 1.2516348189 -2.9335898642
| 28> H 1.487185746 2.3631622848 -1.6694499707
| 29> H 2.9761325461 2.1960183758 -0.6880508906
| 30> H 5.211522612 0.4184963283 1.8904775021
| 31> H 3.8032137914 0.2842353127 2.9874996813
| 32> H 5.1215128299 -1.8496794806 2.911069367
| 33> H 3.4644322582 -2.0614893166 2.3280638459
| 34> H 4.7986935692 -1.9691604409 1.1712267275
| 35> H 0.0303176834 -2.8474224719 -1.2376673854
| 36> H 0.2547151423 -1.1140607779 -1.6701849607
| 37> H -2.4277447248 2.1939557391 1.8134079784
| 38> H -0.9098584523 1.5403539404 1.160405997
| 39> H -1.0254474812 3.9959947653 0.8007739704
| 40> H -1.0443882345 3.1450282337 -0.7510739535
| 41> H -2.5461555344 3.8052082468 -0.092284697
| 42> H -4.7395447064 -2.0574763919 -1.214712003
| 43> H -3.9099237676 -1.5422908372 0.2821547637
| 44> H -5.1714218718 0.605197961 0.2390241783
| 45> H -5.9630394911 0.1215785442 -1.2652160679
| 46> H -6.293189952 -0.7658354807 0.2326388194
| 47> *
| 48>
| 49>                          ****END OF INPUT****

CARTESIAN COORDINATES (ANGSTROEM)
---------------------------------
  C      2.740329    0.693749   -2.223584
  C      2.178384    1.659412   -1.203070
  O      1.358334    1.007610   -0.199124
  P      1.893257   -0.007388    0.888339
  S      0.970432    0.186239    2.608917
  O      3.444408    0.323298    0.954898
  C      4.260920   -0.087114    2.065029
  C      4.425376   -1.591660    2.119582
  S      1.823336   -1.940465   -0.028806
  C      0.218400   -1.845857   -0.858367
  S     -1.138386   -1.374720    0.258852
  P     -2.086744    0.111843   -0.952378
  S     -1.060595    0.802422   -2.461627
  O     -2.661407    1.138785    0.116873
  C     -1.851416    2.031892    0.900360
  C     -1.601833    3.332618    0.164072
  O     -3.402929   -0.570840   -1.484536
  C     -4.394506   -1.198509   -0.636392
  C     -5.531322   -0.242987   -0.337115
  H      3.363898   -0.054236   -1.739236
  H      1.934459    0.202388   -2.763692
  H      3.342744    1.251635   -2.933590
  H      1.487186    2.363162   -1.669450
  H      2.976133    2.196018   -0.688051
  H      5.211523    0.418496    1.890478
  H      3.803214    0.284235    2.987500
  H      5.121513   -1.849679    2.911069
  H      3.464432   -2.061489    2.328064
  H      4.798694   -1.969160    1.171227
  H      0.030318   -2.847422   -1.237667
  H      0.254715   -1.114061   -1.670185
  H     -2.427745    2.193956    1.813408
  H     -0.909858    1.540354    1.160406
  H     -1.025447    3.995995    0.800774
  H     -1.044388    3.145028   -0.751074
  H     -2.546156    3.805208   -0.092285
  H     -4.739545   -2.057476   -1.214712
  H     -3.909924   -1.542291    0.282155
  H     -5.171422    0.605198    0.239024
  H     -5.963039    0.121579   -1.265216
  H     -6.293190   -0.765835    0.232639

 Total Charge           Charge          ....    0
 Multiplicity           Mult            ....    1
 Number of Electrons    NEL             ....  202
 Basis Dimension        Dim             ....  334

ORBITAL ENERGIES
----------------

  NO   OCC          E(Eh)            E(eV)
   0   2.0000     -88.041697     -2395.7364
   1   2.0000     -88.040047     -2395.6915
   2   2.0000     -87.987251     -2394.2548
   3   2.0000     -87.982089     -2394.1143
   4   2.0000     -76.428600     -2079.7279
   5   2.0000     -76.425233     -2079.6363
   6   2.0000     -18.797939      -511.5179
   7   2.0000     -18.792263      -511.3635
   8   2.0000     -18.791702      -511.3482
   9   2.0000     -18.787591      -511.2364
  10   2.0000      -9.956837      -270.9393
  11   2.0000      -9.954982      -270.8888
  12   2.0000      -9.954006      -270.8623
  13   2.0000      -9.952362      -270.8175
  14   2.0000      -9.941672      -270.5266
  15   2.0000      -9.889111      -269.0964
  16   2.0000      -9.884553      -268.9724
  17   2.0000      -9.881904      -268.9003
  18   2.0000      -9.874325      -268.6940
  19   2.0000      -7.686642      -209.1642
  20   2.0000      -7.684599      -209.1086
  21   2.0000      -7.632458      -207.6897
  22   2.0000      -7.627008      -207.5414
  23   2.0000      -6.425585      -174.8490
  24   2.0000      -6.422811      -174.7736
  25   2.0000      -5.714679      -155.5043
  26   2.0000      -5.712422      -155.4429
  27   2.0000      -5.711175      -155.4090
  28   2.0000      -5.709147      -155.3538
  29   2.0000      -5.703487      -155.1998
  30   2.0000      -5.701657      -155.1500
  31   2.0000      -5.661292      -154.0516
  32   2.0000      -5.656094      -153.9102
  33   2.0000      -5.653113      -153.8290
  34   2.0000      -5.652535      -153.8133
  35   2.0000      -5.647805      -153.6846
  36   2.0000      -5.646845      -153.6585
  37   2.0000      -4.649006      -126.5059
  38   2.0000      -4.647214      -126.4571
  39   2.0000      -4.645548      -126.4118
  40   2.0000      -4.645462      -126.4094
  41   2.0000      -4.644544      -126.3845
  42   2.0000      -4.643193      -126.3477
  43   2.0000      -0.991369       -26.9765
  44   2.0000      -0.985881       -26.8272
  45   2.0000      -0.947090       -25.7716
  46   2.0000      -0.942144       -25.6371
  47   2.0000      -0.759770       -20.6744
  48   2.0000      -0.719804       -19.5868
  49   2.0000      -0.709580       -19.3087
  50   2.0000      -0.692723       -18.8500
  51   2.0000      -0.684733       -18.6325
  52   2.0000      -0.673545       -18.3281
  53   2.0000      -0.650572       -17.7030
  54   2.0000      -0.637739       -17.3538
  55   2.0000      -0.596367       -16.2280
  56   2.0000      -0.586378       -15.9562
  57   2.0000      -0.579098       -15.7581
  58   2.0000      -0.570673       -15.5288
  59   2.0000      -0.561238       -15.2721
  60   2.0000      -0.502426       -13.6717
  61   2.0000      -0.496234       -13.5032
  62   2.0000      -0.474623       -12.9151
  63   2.0000      -0.471989       -12.8435
  64   2.0000      -0.453878       -12.3506
  65   2.0000      -0.445691       -12.1279
  66   2.0000      -0.443754       -12.0752
  67   2.0000      -0.434622       -11.8267
  68   2.0000      -0.426170       -11.5967
  69   2.0000      -0.420541       -11.4435
  70   2.0000      -0.412961       -11.2372
  71   2.0000      -0.397144       -10.8068
  72   2.0000      -0.393181       -10.6990
  73   2.0000      -0.384132       -10.4528
  74   2.0000      -0.381513       -10.3815
  75   2.0000      -0.369147       -10.0450
  76   2.0000      -0.364849        -9.9281
  77   2.0000      -0.357840        -9.7373
  78   2.0000      -0.354379        -9.6431
  79   2.0000      -0.349321        -9.5055
  80   2.0000      -0.348959        -9.4957
  81   2.0000      -0.342101        -9.3090
  82   2.0000      -0.338773        -9.2185
  83   2.0000      -0.332865        -9.0577
  84   2.0000      -0.331462        -9.0195
  85   2.0000      -0.322293        -8.7700
  86   2.0000      -0.316202        -8.6043
  87   2.0000      -0.299618        -8.1530
  88   2.0000      -0.295756        -8.0479
  89   2.0000      -0.288890        -7.8611
  90   2.0000      -0.286389        -7.7930
  91   2.0000      -0.273615        -7.4454
  92   2.0000      -0.272504        -7.4152
  93   2.0000      -0.261164        -7.1066
  94   2.0000      -0.257489        -7.0066
  95   2.0000      -0.240147        -6.5347
  96   2.0000      -0.222095        -6.0435
  97   2.0000      -0.206250        -5.6124
  98   2.0000      -0.204855        -5.5744
  99   2.0000      -0.193646        -5.2694
 100   2.0000      -0.187901        -5.1130
 101   0.0000      -0.048165        -1.3106
 102   0.0000      -0.032683        -0.8893
 103   0.0000      -0.016794        -0.4570
 104   0.0000       0.001060         0.0288
 105   0.0000       0.019017         0.5175

MULLIKEN ATOMIC CHARGES
-----------------------
   0 C :   -0.336009
   1 C :    0.009284
   2 O :   -0.367657
   3 P :    0.614280
   4 S :   -0.308578
   5 O :   -0.379293
   6 C :   -0.001011
   7 C :   -0.330596
   8 S :   -0.113805
   9 C :   -0.346867
  10 S :   -0.100980
  11 P :    0.614400
  12 S :   -0.317814
  13 O :   -0.380954
  14 C :   -0.031624
  15 C :   -0.302440
  16 O :   -0.356238
  17 C :   -0.011847
  18 C :   -0.290141
  19 H :    0.124711
  20 H :    0.138794
  21 H :    0.109975
  22 H :    0.119167
  23 H :    0.106494
  24 H :    0.105649
  25 H :    0.114404
  26 H :    0.118892
  27 H :    0.135368
  28 H :    0.121772
  29 H :    0.181336
  30 H :    0.205447
  31 H :    0.101032
  32 H :    0.141169
  33 H :    0.108617
  34 H :    0.131757
  35 H :    0.107729
  36 H :    0.108894
  37 H :    0.104368
  38 H :    0.123930
  39 H :    0.119395
  40 H :    0.108990
Sum of atomic charges:    0.0000000

LOEWDIN ATOMIC CHARGES
----------------------
   0 C :   -0.370692
   1 C :   -0.111312
   2 O :   -0.238729
   3 P :    0.576016
   4 S :   -0.309651
   5 O :   -0.242626
   6 C :   -0.119917
   7 C :   -0.372544
   8 S :    0.069687
   9 C :   -0.480942
  10 S :    0.075679
  11 P :    0.571008
  12 S :   -0.290182
  13 O :   -0.240906
  14 C :   -0.123054
  15 C :   -0.362878
  16 O :   -0.238583
  17 C :   -0.113975
  18 C :   -0.359460
  19 H :    0.118315
  20 H :    0.125738
  21 H :    0.131606
  22 H :    0.120163
  23 H :    0.113082
  24 H :    0.118958
  25 H :    0.112141
  26 H :    0.134481
  27 H :    0.123155
  28 H :    0.125246
  29 H :    0.136509
  30 H :    0.117670
  31 H :    0.116932
  32 H :    0.105426
  33 H :    0.129792
  34 H :    0.121602
  35 H :    0.122545
  36 H :    0.120855
  37 H :    0.104068
  38 H :    0.127006
  39 H :    0.128744
  40 H :    0.129025

  Mayer bond orders larger than 0.100000
B(  0-C ,  1-C ) :   1.1770 B(  0-C , 19-H ) :   0.9352 B(  0-C , 20-H ) :   0.9330
B(  0-C , 21-H ) :   0.9353 B(  1-C ,  2-O ) :   0.8863 B(  1-C , 22-H ) :   0.9194
B(  1-C , 23-H ) :   0.9275 B(  2-O ,  3-P ) :   1.1226 B(  3-P ,  4-S ) :   1.6393
B(  3-P ,  5-O ) :   1.0727 B(  3-P ,  8-S ) :   0.9401 B(  4-S ,  8-S ) :   0.1092
B(  5-O ,  6-C ) :   0.9036 B(  6-C ,  7-C ) :   1.1652 B(  6-C , 24-H ) :   0.9325
B(  6-C , 25-H ) :   0.9128 B(  7-C , 26-H ) :   0.9375 B(  7-C , 27-H ) :   0.9294
B(  7-C , 28-H ) :   0.9437 B(  8-S ,  9-C ) :   1.0025 B(  9-C , 10-S ) :   1.0017
B(  9-C , 29-H ) :   0.9115 B(  9-C , 30-H ) :   0.8423 B( 10-S , 11-P ) :   0.9606
B( 10-S , 12-S ) :   0.1184 B( 11-P , 12-S ) :   1.6213 B( 11-P , 13-O ) :   1.0990
B( 11-P , 16-O ) :   1.1380 B( 12-S , 30-H ) :   0.1093 B( 13-O , 14-C ) :   0.8898
B( 14-C , 15-C ) :   1.1692 B( 14-C , 31-H ) :   0.9360 B( 14-C , 32-H ) :   0.8926
B( 15-C , 33-H ) :   0.9402 B( 15-C , 34-H ) :   0.9310 B( 15-C , 35-H ) :   0.9470
B( 16-O , 17-C ) :   0.8971 B( 17-C , 18-C ) :   1.1639 B( 17-C , 36-H ) :   0.9365
B( 17-C , 37-H ) :   0.9138 B( 18-C , 38-H ) :   0.9419 B( 18-C , 39-H ) :   0.9470
B( 18-C , 40-H ) :   0.9397

Dispersion correction           -0.067590566
FINAL SINGLE POINT ENERGY     -2929.514227046831

DIPOLE MOMENT
-------------

Method             : SCF
Type of density    : Electron Density
Multiplicity       :   1
Irrep              :   0
Energy             : -2929.6342165252640370 Eh
Relativity type    :
Basis              : AO
                                X                 Y                 Z
Electronic contribution:     -1.322296850      -7.470086918       0.279571374
Nuclear contribution   :      1.786391498       7.377670996      -0.158294592
                        -----------------------------------------
Total Dipole Moment    :      0.464094648      -0.092415922       0.121276782
                        -----------------------------------------
Magnitude (a.u.)       :      0.488500361
Magnitude (Debye)      :      1.241669241

Rotational constants in cm-1:             0.013388             0.005076             0.004972
Rotational constants in MHz :           401.352291           152.188710           149.068781

                             ****ORCA TERMINATED NORMALLY****
TOTAL RUN TIME: 0 days 0 hours 0 minutes 21 seconds 845 msec
