                         Program Version 6.0.0  -   RELEASE  -
|  1> ! pbe def2-sv(p) def2/J RI DEFGRID1 loosescf d4 GCP(DFT/SV(P)) printgap
|  2> %output
|  3>     printlevel normal
|  4> end
|  5> * xyz 0 1
|  6> C 5.4475275198 -0.1832334549 -0.8483060172
|  7> C 4.4498531272 -0.9288912102 0.0166713699
|  8> O 3.4390330004 -0.0327302862 0.519203982
|  9> P 2.0192563275 0.1222368019 -0.1828668836
| 10> S 2.0447388997 0.4635796673 -2.1165031682
| 11> O 1.3540883503 1.2098261808 0.752287228
| 12> C 1.4405557565 2.6204086385 0.4732647576
| 13> C 2.8610163282 3.1294972339 0.5830196735
| 14> S 1.0727157005 -1.6522816946 0.4332465238
| 15> C -0.1598835917 -1.8902777377 -0.8963287991
| 16> S -1.8518306453 -1.9434955241 -0.2725737431
| 17> P -2.0572352757 0.1208283472 0.1917633995
| 18> S -1.3493128193 1.3687978792 -1.1418160842
| 19> O -1.3858565853 0.3415798438 1.6005098198
| 20> C -1.4329341304 -0.5526544471 2.7411710324
| 21> C -2.8428269283 -0.9097571268 3.1563270563
| 22> O -3.6038757111 0.3034895072 0.5002008297
| 23> C -4.573641953 0.5955062037 -0.5204114115
| 24> C -4.7645696027 -0.5592838917 -1.4824182991
| 25> H 5.8916877584 0.6340621989 -0.2870350792
| 26> H 6.2275860882 -0.8676726705 -1.1653216737
| 27> H 4.9517704112 0.220786797 -1.7284991266
| 28> H 4.9243813014 -1.3398568402 0.9095642865
| 29> H 3.971614411 -1.7356560383 -0.5463357043
| 30> H 1.0338041159 2.8011945885 -0.5277074406
| 31> H 0.7806775972 3.071257622 1.2162315277
| 32> H 2.8658690301 4.2080476386 0.4603798641
| 33> H 3.2786764756 2.8688114894 1.5520119065
| 34> H 3.4726775284 2.6804478916 -0.1988044531
| 35> H 0.026057966 -2.8572317067 -1.3561789334
| 36> H -0.0493120578 -1.0792500037 -1.6220212864
| 37> H -0.8572478379 -1.4501106519 2.4961876782
| 38> H -0.9121018456 0.0130614713 3.5152554603
| 39> H -3.3243883244 -1.5062397944 2.3844387603
| 40> H -2.8013202187 -1.4868553623 4.0750313057
| 41> H -3.4276250289 -0.0088401768 3.3221839254
| 42> H -5.4843296303 0.8057270226 0.0422047835
| 43> H -4.25201907 1.4937703021 -1.056954797
| 44> H -5.5999517354 -0.3414381268 -2.1401044092
| 45> H -3.8687998048 -0.6945720328 -2.0863596369
| 46> H -4.9633548939 -1.4785592846 -0.9376434272
| 47> *
| 48>
| 49>                          ****END OF INPUT****

CARTESIAN COORDINATES (ANGSTROEM)
---------------------------------
  C      5.447528   -0.183233   -0.848306
  C      4.449853   -0.928891    0.016671
  O      3.439033   -0.032730    0.519204
  P      2.019256    0.122237   -0.182867
  S      2.044739    0.463580   -2.116503
  O      1.354088    1.209826    0.752287
  C      1.440556    2.620409    0.473265
  C      2.861016    3.129497    0.583020
  S      1.072716   -1.652282    0.433247
  C     -0.159884   -1.890278   -0.896329
  S     -1.851831   -1.943496   -0.272574
  P     -2.057235    0.120828    0.191763
  S     -1.349313    1.368798   -1.141816
  O     -1.385857    0.341580    1.600510
  C     -1.432934   -0.552654    2.741171
  C     -2.842827   -0.909757    3.156327
  O     -3.603876    0.303490    0.500201
  C     -4.573642    0.595506   -0.520411
  C     -4.764570   -0.559284   -1.482418
  H      5.891688    0.634062   -0.287035
  H      6.227586   -0.867673   -1.165322
  H      4.951770    0.220787   -1.728499
  H      4.924381   -1.339857    0.909564
  H      3.971614   -1.735656   -0.546336
  H      1.033804    2.801195   -0.527707
  H      0.780678    3.071258    1.216232
  H      2.865869    4.208048    0.460380
  H      3.278676    2.868811    1.552012
  H      3.472678    2.680448   -0.198804
  H      0.026058   -2.857232   -1.356179
  H     -0.049312   -1.079250   -1.622021
  H     -0.857248   -1.450111    2.496188
  H     -0.912102    0.013061    3.515255
  H     -3.324388   -1.506240    2.384439
  H     -2.801320   -1.486855    4.075031
  H     -3.427625   -0.008840    3.322184
  H     -5.484330    0.805727    0.042205
  H     -4.252019    1.493770   -1.056955
  H     -5.599952   -0.341438   -2.140104
  H     -3.868800   -0.694572   -2.086360
  H     -4.963355   -1.478559   -0.937643

 Total Charge           Charge          ....    0
 Multiplicity           Mult            ....    1
 Number of Electrons    NEL             ....  202
 Basis Dimension        Dim             ....  334

ORBITAL ENERGIES
----------------

  NO   OCC          E(Eh)            E(eV)
   0   2.0000     -88.045935     -2395.8517
   1   2.0000     -88.041921     -2395.7425
   2   2.0000     -87.981897     -2394.1091
   3   2.0000     -87.979766     -2394.0512
   4   2.0000     -76.424500     -2079.6164
   5   2.0000     -76.421276     -2079.5286
   6   2.0000     -18.793629      -511.4006
   7   2.0000     -18.788456      -511.2599
   8   2.0000     -18.787856      -511.2435
   9   2.0000     -18.779746      -511.0229
  10   2.0000      -9.955339      -270.8985
  11   2.0000      -9.952548      -270.8226
  12   2.0000      -9.951169      -270.7851
  13   2.0000      -9.951093      -270.7830
  14   2.0000      -9.938469      -270.4395
  15   2.0000      -9.885482      -268.9976
  16   2.0000      -9.884244      -268.9640
  17   2.0000      -9.879057      -268.8228
  18   2.0000      -9.875438      -268.7243
  19   2.0000      -7.690846      -209.2786
  20   2.0000      -7.687009      -209.1742
  21   2.0000      -7.626821      -207.5364
  22   2.0000      -7.624680      -207.4781
  23   2.0000      -6.421803      -174.7461
  24   2.0000      -6.418819      -174.6649
  25   2.0000      -5.718655      -155.6125
  26   2.0000      -5.715202      -155.5185
  27   2.0000      -5.714836      -155.5086
  28   2.0000      -5.711412      -155.4154
  29   2.0000      -5.708062      -155.3243
  30   2.0000      -5.704080      -155.2159
  31   2.0000      -5.655669      -153.8986
  32   2.0000      -5.653676      -153.8443
  33   2.0000      -5.647592      -153.6788
  34   2.0000      -5.646912      -153.6603
  35   2.0000      -5.645203      -153.6138
  36   2.0000      -5.644828      -153.6036
  37   2.0000      -4.644574      -126.3853
  38   2.0000      -4.643683      -126.3610
  39   2.0000      -4.641999      -126.3152
  40   2.0000      -4.641141      -126.2919
  41   2.0000      -4.640494      -126.2743
  42   2.0000      -4.639610      -126.2502
  43   2.0000      -0.985441       -26.8152
  44   2.0000      -0.980709       -26.6864
  45   2.0000      -0.943629       -25.6774
  46   2.0000      -0.937862       -25.5205
  47   2.0000      -0.762459       -20.7476
  48   2.0000      -0.718466       -19.5505
  49   2.0000      -0.706857       -19.2346
  50   2.0000      -0.689629       -18.7658
  51   2.0000      -0.681316       -18.5396
  52   2.0000      -0.673272       -18.3207
  53   2.0000      -0.649108       -17.6631
  54   2.0000      -0.632382       -17.2080
  55   2.0000      -0.598389       -16.2830
  56   2.0000      -0.590002       -16.0548
  57   2.0000      -0.575577       -15.6622
  58   2.0000      -0.565770       -15.3954
  59   2.0000      -0.558764       -15.2048
  60   2.0000      -0.497958       -13.5501
  61   2.0000      -0.489585       -13.3223
  62   2.0000      -0.469915       -12.7870
  63   2.0000      -0.466612       -12.6972
  64   2.0000      -0.449070       -12.2198
  65   2.0000      -0.444684       -12.1005
  66   2.0000      -0.439683       -11.9644
  67   2.0000      -0.434522       -11.8239
  68   2.0000      -0.429045       -11.6749
  69   2.0000      -0.414277       -11.2730
  70   2.0000      -0.408570       -11.1178
  71   2.0000      -0.396488       -10.7890
  72   2.0000      -0.393413       -10.7053
  73   2.0000      -0.382310       -10.4032
  74   2.0000      -0.379590       -10.3292
  75   2.0000      -0.369512       -10.0549
  76   2.0000      -0.365181        -9.9371
  77   2.0000      -0.359691        -9.7877
  78   2.0000      -0.351260        -9.5583
  79   2.0000      -0.349848        -9.5198
  80   2.0000      -0.345879        -9.4119
  81   2.0000      -0.341917        -9.3040
  82   2.0000      -0.335599        -9.1321
  83   2.0000      -0.333714        -9.0808
  84   2.0000      -0.329012        -8.9529
  85   2.0000      -0.314001        -8.5444
  86   2.0000      -0.309471        -8.4211
  87   2.0000      -0.294182        -8.0051
  88   2.0000      -0.291509        -7.9324
  89   2.0000      -0.290760        -7.9120
  90   2.0000      -0.276668        -7.5285
  91   2.0000      -0.270786        -7.3685
  92   2.0000      -0.263265        -7.1638
  93   2.0000      -0.260854        -7.0982
  94   2.0000      -0.258312        -7.0290
  95   2.0000      -0.238047        -6.4776
  96   2.0000      -0.221983        -6.0405
  97   2.0000      -0.212125        -5.7722
  98   2.0000      -0.201701        -5.4886
  99   2.0000      -0.193211        -5.2575
 100   2.0000      -0.184459        -5.0194
 101   0.0000      -0.039748        -1.0816
 102   0.0000      -0.029503        -0.8028
 103   0.0000      -0.009457        -0.2573
 104   0.0000       0.013427         0.3654
 105   0.0000       0.022781         0.6199

MULLIKEN ATOMIC CHARGES
-----------------------
   0 C :   -0.292067
   1 C :   -0.006878
   2 O :   -0.374609
   3 P :    0.608529
   4 S :   -0.317841
   5 O :   -0.352136
   6 C :   -0.002413
   7 C :   -0.306122
   8 S :   -0.102710
   9 C :   -0.349055
  10 S :   -0.112011
  11 P :    0.597887
  12 S :   -0.303985
  13 O :   -0.349468
  14 C :   -0.002178
  15 C :   -0.303876
  16 O :   -0.374290
  17 C :   -0.000962
  18 C :   -0.318886
  19 H :    0.114050
  20 H :    0.106474
  21 H :    0.128137
  22 H :    0.104827
  23 H :    0.097413
  24 H :    0.123529
  25 H :    0.102387
  26 H :    0.108944
  27 H :    0.112343
  28 H :    0.123699
  29 H :    0.182724
  30 H :    0.210866
  31 H :    0.114205
  32 H :    0.107930
  33 H :    0.116111
  34 H :    0.111785
  35 H :    0.119917
  36 H :    0.104095
  37 H :    0.113430
  38 H :    0.114383
  39 H :    0.130638
  40 H :    0.115185
Sum of atomic charges:   -0.0000000

LOEWDIN ATOMIC CHARGES
----------------------
   0 C :   -0.363119
   1 C :   -0.117465
   2 O :   -0.247220
   3 P :    0.568431
   4 S :   -0.311157
   5 O :   -0.229438
   6 C :   -0.118156
   7 C :   -0.366910
   8 S :    0.081399
   9 C :   -0.478300
  10 S :    0.074835
  11 P :    0.568055
  12 S :   -0.293557
  13 O :   -0.229236
  14 C :   -0.115524
  15 C :   -0.366397
  16 O :   -0.242227
  17 C :   -0.118047
  18 C :   -0.371016
  19 H :    0.124865
  20 H :    0.128133
  21 H :    0.124671
  22 H :    0.117362
  23 H :    0.105610
  24 H :    0.109292
  25 H :    0.118737
  26 H :    0.129191
  27 H :    0.123933
  28 H :    0.121284
  29 H :    0.137511
  30 H :    0.127035
  31 H :    0.101745
  32 H :    0.122354
  33 H :    0.117283
  34 H :    0.130556
  35 H :    0.127545
  36 H :    0.118305
  37 H :    0.112697
  38 H :    0.131847
  39 H :    0.122666
  40 H :    0.122428

  Mayer bond orders larger than 0.100000
B(  0-C ,  1-C ) :   1.1683 B(  0-C , 19-H ) :   0.9458 B(  0-C , 20-H ) :   0.9400
B(  0-C , 21-H ) :   0.9315 B(  1-C ,  2-O ) :   0.9074 B(  1-C , 22-H ) :   0.9359
B(  1-C , 23-H ) :   0.9126 B(  2-O ,  3-P ) :   1.0957 B(  3-P ,  4-S ) :   1.6019
B(  3-P ,  5-O ) :   1.1545 B(  3-P ,  8-S ) :   0.9598 B(  4-S ,  8-S ) :   0.1156
B(  5-O ,  6-C ) :   0.9001 B(  6-C ,  7-C ) :   1.1580 B(  6-C , 24-H ) :   0.9127
B(  6-C , 25-H ) :   0.9359 B(  7-C , 26-H ) :   0.9387 B(  7-C , 27-H ) :   0.9447
B(  7-C , 28-H ) :   0.9343 B(  8-S ,  9-C ) :   0.9907 B(  9-C , 10-S ) :   1.0058
B(  9-C , 29-H ) :   0.9112 B(  9-C , 30-H ) :   0.8467 B( 10-S , 11-P ) :   0.9335
B( 10-S , 12-S ) :   0.1042 B( 11-P , 12-S ) :   1.6317 B( 11-P , 13-O ) :   1.1530
B( 11-P , 16-O ) :   1.0906 B( 13-O , 14-C ) :   0.8981 B( 14-C , 15-C ) :   1.1692
B( 14-C , 31-H ) :   0.9086 B( 14-C , 32-H ) :   0.9351 B( 15-C , 33-H ) :   0.9385
B( 15-C , 34-H ) :   0.9362 B( 15-C , 35-H ) :   0.9435 B( 16-O , 17-C ) :   0.9057
B( 17-C , 18-C ) :   1.1658 B( 17-C , 36-H ) :   0.9339 B( 17-C , 37-H ) :   0.9147
B( 18-C , 38-H ) :   0.9376 B( 18-C , 39-H ) :   0.9345 B( 18-C , 40-H ) :   0.9449

Dispersion correction           -0.068212448
FINAL SINGLE POINT ENERGY     -2929.520186125921

DIPOLE MOMENT
-------------

Method             : SCF
Type of density    : Electron Density
Multiplicity       :   1
Irrep              :   0
Energy             : -2929.6380537885738704 Eh
Relativity type    :
Basis              : AO
                                X                 Y                 Z
Electronic contribution:     -2.104928336      -4.170062252      -5.038730880
Nuclear contribution   :      1.801291166       3.567460421       6.061399157
                        -----------------------------------------
Total Dipole Moment    :     -0.303637170      -0.602601831       1.022668277
                        -----------------------------------------
Magnitude (a.u.)       :      1.225224430
Magnitude (Debye)      :      3.114273005

Rotational constants in cm-1:             0.013824             0.005040             0.004918
Rotational constants in MHz :           414.420356           151.087808           147.446305

                             ****ORCA TERMINATED NORMALLY****
TOTAL RUN TIME: 0 days 0 hours 0 minutes 21 seconds 912 msec
