                         Program Version 6.0.0  -   RELEASE  -
|  1> ! wb97x-v def2-tzvp def2/J RIJCOSX DEFGRID2 scfconv7 GCP(DFT/TZ) printgap
|  2> %output
|  3>     printlevel normal
|  4> end
|  5> * xyz 0 1
|  6> C -0.6915866533949422 -1.2061041484503219 0.3246040260322152
|  7> C 0.692907670955016 -1.2053415296262946 -0.3244736791788793
|  8> C 1.4911893476392044 0.022262979714294518 0.12013675846826641
|  9> C 0.6642173682071854 1.2753078302429501 0.066034597347146
| 10> C -0.6657076283208925 1.2745466575895206 -0.0660053748348221
| 11> C -1.4912157002855475 0.020577515689544183 -0.12014198970123548
| 12> H -0.5738061162937171 -1.1846713657405747 1.416262273928369
| 13> H -1.23734766814409 -2.1228423264662295 0.07697932369875381
| 14> H 1.2397154684934533 -2.121437405409562 -0.07677213304362375
| 15> H 0.5751059467796956 -1.1841303108452668 -1.416134919019238
| 16> H 1.8686617531918146 -0.12239408729836157 1.1435982256573072
| 17> H 2.3830594569333043 0.1476397647859297 -0.5067500042152646
| 18> H 1.1944868357805503 2.2243811545093157 0.13011240740631708
| 19> H -1.1970008622107393 2.2230379133286577 -0.13005359898189361
| 20> H -2.3832776834435507 0.14493732121615963 0.506650635489855
| 21> H -1.86842478139566 -0.12457057311565087 -1.1436178546722318
| 22> *
| 23>
| 24>                          ****END OF INPUT****

CARTESIAN COORDINATES (ANGSTROEM)
---------------------------------
  C     -0.691587   -1.206104    0.324604
  C      0.692908   -1.205342   -0.324474
  C      1.491189    0.022263    0.120137
  C      0.664217    1.275308    0.066035
  C     -0.665708    1.274547   -0.066005
  C     -1.491216    0.020578   -0.120142
  H     -0.573806   -1.184671    1.416262
  H     -1.237348   -2.122842    0.076979
  H      1.239715   -2.121437   -0.076772
  H      0.575106   -1.184130   -1.416135
  H      1.868662   -0.122394    1.143598
  H      2.383059    0.147640   -0.506750
  H      1.194487    2.224381    0.130112
  H     -1.197001    2.223038   -0.130054
  H     -2.383278    0.144937    0.506651
  H     -1.868425   -0.124571   -1.143618

 Total Charge           Charge          ....    0
 Multiplicity           Mult            ....    1
 Number of Electrons    NEL             ....   46
 Basis Dimension        Dim             ....  246

ORBITAL ENERGIES
----------------

  NO   OCC          E(Eh)            E(eV)
   0   2.0000     -12.041957      -327.6783
   1   2.0000     -12.041721      -327.6719
   2   2.0000     -12.039337      -327.6070
   3   2.0000     -12.038638      -327.5880
   4   2.0000     -12.037693      -327.5623
   5   2.0000     -12.036594      -327.5324
   6   2.0000      -1.343636       -36.5622
   7   2.0000      -1.255840       -34.1731
   8   2.0000      -1.246906       -33.9300
   9   2.0000      -1.114080       -30.3157
  10   2.0000      -1.080487       -29.4015
  11   2.0000      -0.964834       -26.2545
  12   2.0000      -0.928656       -25.2700
  13   2.0000      -0.880059       -23.9476
  14   2.0000      -0.875572       -23.8255
  15   2.0000      -0.852932       -23.2095
  16   2.0000      -0.835732       -22.7414
  17   2.0000      -0.821623       -22.3575
  18   2.0000      -0.806882       -21.9564
  19   2.0000      -0.769891       -20.9498
  20   2.0000      -0.751659       -20.4537
  21   2.0000      -0.748906       -20.3788
  22   2.0000      -0.634500       -17.2656
  23   0.0000      -0.188002        -5.1158
  24   0.0000      -0.028457        -0.7743
  25   0.0000      -0.020903        -0.5688
  26   0.0000      -0.020800        -0.5660
  27   0.0000       0.000851         0.0232

MULLIKEN ATOMIC CHARGES
-----------------------
   0 C :   -0.187082
   1 C :   -0.187078
   2 C :   -0.127058
   3 C :   -0.184749
   4 C :   -0.184720
   5 C :   -0.127045
   6 H :    0.090971
   7 H :    0.101337
   8 H :    0.101331
   9 H :    0.090973
  10 H :    0.095927
  11 H :    0.101339
  12 H :    0.109290
  13 H :    0.109295
  14 H :    0.101340
  15 H :    0.095928
Sum of atomic charges:   -0.0000000

LOEWDIN ATOMIC CHARGES
----------------------
   0 C :   -0.251968
   1 C :   -0.251976
   2 C :   -0.251466
   3 C :   -0.174252
   4 C :   -0.174261
   5 C :   -0.251468
   6 H :    0.136044
   7 H :    0.129778
   8 H :    0.129778
   9 H :    0.136044
  10 H :    0.139023
  11 H :    0.137168
  12 H :    0.135682
  13 H :    0.135683
  14 H :    0.137168
  15 H :    0.139025

  Mayer bond orders larger than 0.100000
B(  0-C ,  1-C ) :   0.9699 B(  0-C ,  5-C ) :   1.0048 B(  0-C ,  6-H ) :   0.9769
B(  0-C ,  7-H ) :   0.9788 B(  1-C ,  2-C ) :   1.0048 B(  1-C ,  8-H ) :   0.9788
B(  1-C ,  9-H ) :   0.9769 B(  2-C ,  3-C ) :   0.9776 B(  2-C , 10-H ) :   0.9587
B(  2-C , 11-H ) :   0.9722 B(  3-C ,  4-C ) :   1.9598 B(  3-C , 12-H ) :   0.9684
B(  4-C ,  5-C ) :   0.9776 B(  4-C , 13-H ) :   0.9684 B(  5-C , 14-H ) :   0.9722
B(  5-C , 15-H ) :   0.9587

FINAL SINGLE POINT ENERGY      -234.656379935023

DIPOLE MOMENT
-------------

Method             : SCF
Type of density    : Electron Density
Multiplicity       :   1
Irrep              :   0
Energy             :  -234.6665115367225951 Eh
Relativity type    :
Basis              : AO
                                X                 Y                 Z
Electronic contribution:     -0.001164830       1.864552187      -0.000017586
Nuclear contribution   :      0.001233217      -1.993546323       0.000014096
                        -----------------------------------------
Total Dipole Moment    :      0.000068386      -0.128994136      -0.000003491
                        -----------------------------------------
Magnitude (a.u.)       :      0.128994154
Magnitude (Debye)      :      0.327877083

Rotational constants in cm-1:             0.158804             0.152001             0.085741
Rotational constants in MHz :          4760.832966          4556.877423          2570.462164

                             ****ORCA TERMINATED NORMALLY****
TOTAL RUN TIME: 0 days 0 hours 1 minutes 59 seconds 262 msec
