                         Program Version 6.0.0  -   RELEASE  -
|  1> ! wb97x-v def2-tzvp def2/J RIJCOSX DEFGRID2 scfconv7 GCP(DFT/TZ) printgap
|  2> %output
|  3>     printlevel normal
|  4> end
|  5> %cpcm
|  6>     smd true
|  7>     smdsolvent "water"
|  8> end
|  9> * xyz 0 1
| 10> C -0.6915866533949422 -1.2061041484503219 0.3246040260322152
| 11> C 0.692907670955016 -1.2053415296262946 -0.3244736791788793
| 12> C 1.4911893476392044 0.022262979714294518 0.12013675846826641
| 13> C 0.6642173682071854 1.2753078302429501 0.066034597347146
| 14> C -0.6657076283208925 1.2745466575895206 -0.0660053748348221
| 15> C -1.4912157002855475 0.020577515689544183 -0.12014198970123548
| 16> H -0.5738061162937171 -1.1846713657405747 1.416262273928369
| 17> H -1.23734766814409 -2.1228423264662295 0.07697932369875381
| 18> H 1.2397154684934533 -2.121437405409562 -0.07677213304362375
| 19> H 0.5751059467796956 -1.1841303108452668 -1.416134919019238
| 20> H 1.8686617531918146 -0.12239408729836157 1.1435982256573072
| 21> H 2.3830594569333043 0.1476397647859297 -0.5067500042152646
| 22> H 1.1944868357805503 2.2243811545093157 0.13011240740631708
| 23> H -1.1970008622107393 2.2230379133286577 -0.13005359898189361
| 24> H -2.3832776834435507 0.14493732121615963 0.506650635489855
| 25> H -1.86842478139566 -0.12457057311565087 -1.1436178546722318
| 26> *
| 27>
| 28>                          ****END OF INPUT****

CARTESIAN COORDINATES (ANGSTROEM)
---------------------------------
  C     -0.691587   -1.206104    0.324604
  C      0.692908   -1.205342   -0.324474
  C      1.491189    0.022263    0.120137
  C      0.664217    1.275308    0.066035
  C     -0.665708    1.274547   -0.066005
  C     -1.491216    0.020578   -0.120142
  H     -0.573806   -1.184671    1.416262
  H     -1.237348   -2.122842    0.076979
  H      1.239715   -2.121437   -0.076772
  H      0.575106   -1.184130   -1.416135
  H      1.868662   -0.122394    1.143598
  H      2.383059    0.147640   -0.506750
  H      1.194487    2.224381    0.130112
  H     -1.197001    2.223038   -0.130054
  H     -2.383278    0.144937    0.506651
  H     -1.868425   -0.124571   -1.143618

 Total Charge           Charge          ....    0
 Multiplicity           Mult            ....    1
 Number of Electrons    NEL             ....   46
 Basis Dimension        Dim             ....  246

ORBITAL ENERGIES
----------------

  NO   OCC          E(Eh)            E(eV)
   0   2.0000     -12.036958      -327.5423
   1   2.0000     -12.035454      -327.5014
   2   2.0000     -12.034565      -327.4772
   3   2.0000     -12.033783      -327.4559
   4   2.0000     -12.031158      -327.3844
   5   2.0000     -12.030011      -327.3533
   6   2.0000      -1.339250       -36.4428
   7   2.0000      -1.251411       -34.0526
   8   2.0000      -1.240967       -33.7684
   9   2.0000      -1.108550       -30.1652
  10   2.0000      -1.074570       -29.2405
  11   2.0000      -0.959349       -26.1052
  12   2.0000      -0.924155       -25.1475
  13   2.0000      -0.875204       -23.8155
  14   2.0000      -0.868830       -23.6421
  15   2.0000      -0.846215       -23.0267
  16   2.0000      -0.830047       -22.5867
  17   2.0000      -0.815659       -22.1952
  18   2.0000      -0.800724       -21.7888
  19   2.0000      -0.763029       -20.7631
  20   2.0000      -0.745748       -20.2928
  21   2.0000      -0.741498       -20.1772
  22   2.0000      -0.633530       -17.2392
  23   0.0000      -0.186825        -5.0838
  24   0.0000      -0.021344        -0.5808
  25   0.0000      -0.015346        -0.4176
  26   0.0000      -0.013929        -0.3790
  27   0.0000       0.008195         0.2230

MULLIKEN ATOMIC CHARGES
-----------------------
   0 C :   -0.210613
   1 C :   -0.210608
   2 C :   -0.142378
   3 C :   -0.244418
   4 C :   -0.244384
   5 C :   -0.142355
   6 H :    0.102380
   7 H :    0.116272
   8 H :    0.116266
   9 H :    0.102383
  10 H :    0.112653
  11 H :    0.120164
  12 H :    0.145907
  13 H :    0.145913
  14 H :    0.120163
  15 H :    0.112654
Sum of atomic charges:   -0.0000000

LOEWDIN ATOMIC CHARGES
----------------------
   0 C :   -0.254578
   1 C :   -0.254586
   2 C :   -0.253565
   3 C :   -0.187437
   4 C :   -0.187444
   5 C :   -0.253566
   6 H :    0.137552
   7 H :    0.132733
   8 H :    0.132733
   9 H :    0.137553
  10 H :    0.142929
  11 H :    0.141154
  12 H :    0.141218
  13 H :    0.141220
  14 H :    0.141154
  15 H :    0.142931

  Mayer bond orders larger than 0.100000
B(  0-C ,  1-C ) :   0.9628 B(  0-C ,  5-C ) :   0.9994 B(  0-C ,  6-H ) :   0.9773
B(  0-C ,  7-H ) :   0.9762 B(  1-C ,  2-C ) :   0.9994 B(  1-C ,  8-H ) :   0.9762
B(  1-C ,  9-H ) :   0.9773 B(  2-C ,  3-C ) :   0.9716 B(  2-C , 10-H ) :   0.9554
B(  2-C , 11-H ) :   0.9710 B(  3-C ,  4-C ) :   1.9406 B(  3-C , 12-H ) :   0.9683
B(  4-C ,  5-C ) :   0.9716 B(  4-C , 13-H ) :   0.9683 B(  5-C , 14-H ) :   0.9710
B(  5-C , 15-H ) :   0.9554

FINAL SINGLE POINT ENERGY      -234.656108048419

DIPOLE MOMENT
-------------

Method             : SCF
Type of density    : Electron Density
Multiplicity       :   1
Irrep              :   0
Energy             :  -234.6662396501188539 Eh
Relativity type    :
Basis              : AO
                                X                 Y                 Z
Electronic contribution:     -0.001137671       1.802449545      -0.000022238
Nuclear contribution   :      0.001233217      -1.993546323       0.000014096
                        -----------------------------------------
Total Dipole Moment    :      0.000095546      -0.191096778      -0.000008142
                        -----------------------------------------
Magnitude (a.u.)       :      0.191096802
Magnitude (Debye)      :      0.485729469

Rotational constants in cm-1:             0.158804             0.152001             0.085741
Rotational constants in MHz :          4760.832966          4556.877423          2570.462164

                             ****ORCA TERMINATED NORMALLY****
TOTAL RUN TIME: 0 days 0 hours 1 minutes 45 seconds 522 msec
