                         Program Version 6.0.0  -   RELEASE  -
|  1> ! r2scan-3c def2/J RI DEFGRID2 scfconv6 printgap
|  2> %output
|  3>     printlevel normal
|  4> end
|  5> * xyz 0 1
|  6> C 5.4304027663 -2.0932260582 -0.4783355997
|  7> C 4.3019452228 -1.2448000555 -1.028219716
|  8> O 3.429362005 -0.9064749332 0.0706082516
|  9> P 2.3350344803 0.2338848448 -0.0750255013
| 10> S 2.9836621634 1.9727958907 -0.6854808482
| 11> O 1.7019695188 0.2946574764 1.3631266144
| 12> C 1.283243105 -0.88613046 2.0921269719
| 13> C 2.340491069 -1.2905740249 3.0980094326
| 14> S 0.8850397327 -0.6947820812 -1.3495693398
| 15> C 0.0721618937 0.8347972263 -1.8568441689
| 16> S -0.7989250417 1.6573859962 -0.4975501416
| 17> P -2.358198295 0.2304671016 -0.344323505
| 18> S -3.0331696655 -0.5434624952 -2.0027729688
| 19> O -3.4910774044 1.0000895182 0.4509791014
| 20> C -3.2455174699 1.6391753188 1.7286399159
| 21> C -4.5894083288 1.9078393293 2.3732156861
| 22> O -1.6900064368 -0.8011244326 0.6829561341
| 23> C -2.0910733867 -2.1865359893 0.7125744446
| 24> C -3.4750667662 -2.346251635 1.3077892718
| 25> H 6.0964530124 -2.3668638374 -1.2898953318
| 26> H 5.9877186332 -1.5348972378 0.268553192
| 27> H 5.0310217291 -2.9945355468 -0.0225939876
| 28> H 3.7163998872 -1.7896976538 -1.7736248613
| 29> H 4.6749696047 -0.3169543838 -1.4735715578
| 30> H 0.3535508017 -0.5902307424 2.5817928049
| 31> H 1.0852117564 -1.6895755464 1.377183715
| 32> H 1.9776210367 -2.1336175262 3.6776482298
| 33> H 3.2560827008 -1.5729931321 2.5854797609
| 34> H 2.5544850042 -0.4602925337 3.765232005
| 35> H -0.639548572 0.5724690953 -2.6398641818
| 36> H 0.8226181875 1.5405506976 -2.2137761345
| 37> H -2.6295581478 0.9755027956 2.3406899972
| 38> H -2.6958824794 2.5652920197 1.5407686067
| 39> H -5.1194988945 0.9747067594 2.5416622136
| 40> H -4.4349579387 2.4116654693 3.3218901862
| 41> H -5.1909741246 2.5380069399 1.7247308894
| 42> H -2.0606519764 -2.5783912857 -0.3086603226
| 43> H -1.3279429262 -2.6743955662 1.3201280878
| 44> H -3.7337555821 -3.3998177116 1.3408861589
| 45> H -3.5073494602 -1.9360544696 2.3139127067
| 46> H -4.2027024372 -1.8232844215 0.6870583651
| 47> *
| 48>
| 49>                          ****END OF INPUT****

CARTESIAN COORDINATES (ANGSTROEM)
---------------------------------
  C      5.430403   -2.093226   -0.478336
  C      4.301945   -1.244800   -1.028220
  O      3.429362   -0.906475    0.070608
  P      2.335034    0.233885   -0.075026
  S      2.983662    1.972796   -0.685481
  O      1.701970    0.294657    1.363127
  C      1.283243   -0.886130    2.092127
  C      2.340491   -1.290574    3.098009
  S      0.885040   -0.694782   -1.349569
  C      0.072162    0.834797   -1.856844
  S     -0.798925    1.657386   -0.497550
  P     -2.358198    0.230467   -0.344324
  S     -3.033170   -0.543462   -2.002773
  O     -3.491077    1.000090    0.450979
  C     -3.245517    1.639175    1.728640
  C     -4.589408    1.907839    2.373216
  O     -1.690006   -0.801124    0.682956
  C     -2.091073   -2.186536    0.712574
  C     -3.475067   -2.346252    1.307789
  H      6.096453   -2.366864   -1.289895
  H      5.987719   -1.534897    0.268553
  H      5.031022   -2.994536   -0.022594
  H      3.716400   -1.789698   -1.773625
  H      4.674970   -0.316954   -1.473572
  H      0.353551   -0.590231    2.581793
  H      1.085212   -1.689576    1.377184
  H      1.977621   -2.133618    3.677648
  H      3.256083   -1.572993    2.585480
  H      2.554485   -0.460293    3.765232
  H     -0.639549    0.572469   -2.639864
  H      0.822618    1.540551   -2.213776
  H     -2.629558    0.975503    2.340690
  H     -2.695882    2.565292    1.540769
  H     -5.119499    0.974707    2.541662
  H     -4.434958    2.411665    3.321890
  H     -5.190974    2.538007    1.724731
  H     -2.060652   -2.578391   -0.308660
  H     -1.327943   -2.674396    1.320128
  H     -3.733756   -3.399818    1.340886
  H     -3.507349   -1.936054    2.313913
  H     -4.202702   -1.823284    0.687058

 Total Charge           Charge          ....    0
 Multiplicity           Mult            ....    1
 Number of Electrons    NEL             ....  202
 Basis Dimension        Dim             ....  539

ORBITAL ENERGIES
----------------

  NO   OCC          E(Eh)            E(eV)
   0   2.0000     -88.572717     -2410.1862
   1   2.0000     -88.572688     -2410.1854
   2   2.0000     -88.521473     -2408.7917
   3   2.0000     -88.519389     -2408.7350
   4   2.0000     -76.913901     -2092.9337
   5   2.0000     -76.913786     -2092.9305
   6   2.0000     -18.997129      -516.9381
   7   2.0000     -18.995168      -516.8848
   8   2.0000     -18.992693      -516.8174
   9   2.0000     -18.991982      -516.7981
  10   2.0000     -10.108045      -275.0539
  11   2.0000     -10.104513      -274.9578
  12   2.0000     -10.102583      -274.9053
  13   2.0000     -10.101518      -274.8763
  14   2.0000     -10.100924      -274.8601
  15   2.0000     -10.039480      -273.1881
  16   2.0000     -10.037441      -273.1327
  17   2.0000     -10.034651      -273.0567
  18   2.0000     -10.034198      -273.0444
  19   2.0000      -7.866969      -214.0711
  20   2.0000      -7.866935      -214.0702
  21   2.0000      -7.816352      -212.6937
  22   2.0000      -7.814172      -212.6344
  23   2.0000      -6.592490      -179.3908
  24   2.0000      -6.592399      -179.3883
  25   2.0000      -5.813838      -158.2026
  26   2.0000      -5.813696      -158.1987
  27   2.0000      -5.810928      -158.1234
  28   2.0000      -5.810793      -158.1197
  29   2.0000      -5.804197      -157.9402
  30   2.0000      -5.803997      -157.9348
  31   2.0000      -5.764102      -156.8492
  32   2.0000      -5.761903      -156.7894
  33   2.0000      -5.756683      -156.6473
  34   2.0000      -5.756168      -156.6333
  35   2.0000      -5.754364      -156.5842
  36   2.0000      -5.754171      -156.5789
  37   2.0000      -4.738374      -128.9377
  38   2.0000      -4.738245      -128.9342
  39   2.0000      -4.737378      -128.9106
  40   2.0000      -4.737089      -128.9027
  41   2.0000      -4.736177      -128.8779
  42   2.0000      -4.735750      -128.8663
  43   2.0000      -1.054876       -28.7046
  44   2.0000      -1.050157       -28.5762
  45   2.0000      -1.013733       -27.5851
  46   2.0000      -1.012028       -27.5387
  47   2.0000      -0.800814       -21.7913
  48   2.0000      -0.763101       -20.7650
  49   2.0000      -0.755235       -20.5510
  50   2.0000      -0.740304       -20.1447
  51   2.0000      -0.739474       -20.1221
  52   2.0000      -0.709482       -19.3060
  53   2.0000      -0.685403       -18.6508
  54   2.0000      -0.669995       -18.2315
  55   2.0000      -0.626178       -17.0392
  56   2.0000      -0.621463       -16.9109
  57   2.0000      -0.610871       -16.6226
  58   2.0000      -0.607117       -16.5205
  59   2.0000      -0.595427       -16.2024
  60   2.0000      -0.539296       -14.6750
  61   2.0000      -0.528858       -14.3910
  62   2.0000      -0.504721       -13.7342
  63   2.0000      -0.501761       -13.6536
  64   2.0000      -0.477122       -12.9832
  65   2.0000      -0.466913       -12.7053
  66   2.0000      -0.463543       -12.6137
  67   2.0000      -0.460794       -12.5388
  68   2.0000      -0.450134       -12.2488
  69   2.0000      -0.427818       -11.6415
  70   2.0000      -0.425059       -11.5664
  71   2.0000      -0.416148       -11.3240
  72   2.0000      -0.411093       -11.1864
  73   2.0000      -0.404485       -11.0066
  74   2.0000      -0.398235       -10.8365
  75   2.0000      -0.388433       -10.5698
  76   2.0000      -0.383078       -10.4241
  77   2.0000      -0.376724       -10.2512
  78   2.0000      -0.375808       -10.2263
  79   2.0000      -0.370379       -10.0785
  80   2.0000      -0.368433       -10.0256
  81   2.0000      -0.364296        -9.9130
  82   2.0000      -0.361697        -9.8423
  83   2.0000      -0.358954        -9.7676
  84   2.0000      -0.351874        -9.5750
  85   2.0000      -0.338166        -9.2020
  86   2.0000      -0.331285        -9.0147
  87   2.0000      -0.328968        -8.9517
  88   2.0000      -0.319771        -8.7014
  89   2.0000      -0.312093        -8.4925
  90   2.0000      -0.298963        -8.1352
  91   2.0000      -0.293348        -7.9824
  92   2.0000      -0.286991        -7.8094
  93   2.0000      -0.284705        -7.7472
  94   2.0000      -0.272406        -7.4125
  95   2.0000      -0.244576        -6.6553
  96   2.0000      -0.229655        -6.2492
  97   2.0000      -0.226943        -6.1754
  98   2.0000      -0.218003        -5.9322
  99   2.0000      -0.213772        -5.8170
 100   2.0000      -0.212739        -5.7889
 101   0.0000      -0.045462        -1.2371
 102   0.0000      -0.023608        -0.6424
 103   0.0000       0.001266         0.0345
 104   0.0000       0.003881         0.1056
 105   0.0000       0.013675         0.3721

MULLIKEN ATOMIC CHARGES
-----------------------
   0 C :   -0.442418
   1 C :   -0.153467
   2 O :   -0.282945
   3 P :    0.663628
   4 S :   -0.446575
   5 O :   -0.254751
   6 C :   -0.106290
   7 C :   -0.482467
   8 S :   -0.187339
   9 C :   -0.235156
  10 S :   -0.132757
  11 P :    0.651414
  12 S :   -0.454158
  13 O :   -0.278626
  14 C :   -0.124359
  15 C :   -0.450945
  16 O :   -0.268202
  17 C :   -0.155155
  18 C :   -0.447729
  19 H :    0.148621
  20 H :    0.159543
  21 H :    0.150657
  22 H :    0.154383
  23 H :    0.171148
  24 H :    0.162664
  25 H :    0.156881
  26 H :    0.144469
  27 H :    0.167984
  28 H :    0.159923
  29 H :    0.213916
  30 H :    0.218022
  31 H :    0.159127
  32 H :    0.154552
  33 H :    0.154747
  34 H :    0.147988
  35 H :    0.161155
  36 H :    0.180602
  37 H :    0.144729
  38 H :    0.149552
  39 H :    0.146349
  40 H :    0.181285
Sum of atomic charges:   -0.0000000

LOEWDIN ATOMIC CHARGES
----------------------
   0 C :   -0.386354
   1 C :    0.019903
   2 O :   -0.678292
   3 P :    0.378336
   4 S :   -0.101727
   5 O :   -0.644623
   6 C :    0.019641
   7 C :   -0.392266
   8 S :    0.135142
   9 C :   -0.424132
  10 S :    0.170101
  11 P :    0.376233
  12 S :   -0.101400
  13 O :   -0.662832
  14 C :    0.021018
  15 C :   -0.382900
  16 O :   -0.703269
  17 C :    0.010045
  18 C :   -0.399691
  19 H :    0.161186
  20 H :    0.161814
  21 H :    0.158260
  22 H :    0.173242
  23 H :    0.181647
  24 H :    0.183715
  25 H :    0.176082
  26 H :    0.157975
  27 H :    0.166878
  28 H :    0.162743
  29 H :    0.191814
  30 H :    0.192662
  31 H :    0.174696
  32 H :    0.175550
  33 H :    0.160351
  34 H :    0.160369
  35 H :    0.164225
  36 H :    0.183369
  37 H :    0.175571
  38 H :    0.160796
  39 H :    0.154781
  40 H :    0.169340

  Mayer bond orders larger than 0.100000
B(  0-C ,  1-C ) :   0.9537 B(  0-C , 19-H ) :   0.9631 B(  0-C , 20-H ) :   0.9714
B(  0-C , 21-H ) :   0.9720 B(  1-C ,  2-O ) :   0.7883 B(  1-C , 22-H ) :   0.9414
B(  1-C , 23-H ) :   0.9499 B(  2-O ,  3-P ) :   1.0484 B(  3-P ,  4-S ) :   1.8348
B(  3-P ,  5-O ) :   1.1604 B(  3-P ,  8-S ) :   0.9813 B(  5-O ,  6-C ) :   0.7327
B(  6-C ,  7-C ) :   0.9317 B(  6-C , 24-H ) :   0.9563 B(  6-C , 25-H ) :   0.9700
B(  7-C , 26-H ) :   0.9659 B(  7-C , 27-H ) :   0.9689 B(  7-C , 28-H ) :   0.9732
B(  8-S ,  9-C ) :   0.9119 B(  9-C , 10-S ) :   0.9125 B(  9-C , 29-H ) :   0.9064
B(  9-C , 30-H ) :   0.9068 B( 10-S , 11-P ) :   1.0779 B( 11-P , 12-S ) :   1.8285
B( 11-P , 13-O ) :   1.1312 B( 11-P , 16-O ) :   1.0185 B( 13-O , 14-C ) :   0.7399
B( 14-C , 15-C ) :   0.9597 B( 14-C , 31-H ) :   0.9574 B( 14-C , 32-H ) :   0.9343
B( 15-C , 33-H ) :   0.9738 B( 15-C , 34-H ) :   0.9637 B( 15-C , 35-H ) :   0.9704
B( 16-O , 17-C ) :   0.7774 B( 17-C , 18-C ) :   0.9185 B( 17-C , 36-H ) :   0.9579
B( 17-C , 37-H ) :   0.9634 B( 18-C , 38-H ) :   0.9617 B( 18-C , 39-H ) :   0.9745
B( 18-C , 40-H ) :   0.9587

Dispersion correction           -0.021119655
FINAL SINGLE POINT ENERGY     -2932.463496508131

DIPOLE MOMENT
-------------

Method             : SCF
Type of density    : Electron Density
Multiplicity       :   1
Irrep              :   0
Energy             : -2932.4886960597368670 Eh
Relativity type    :
Basis              : AO
                                X                 Y                 Z
Electronic contribution:      0.113905492      14.304983352     -19.183791858
Nuclear contribution   :      0.031387361     -15.766889338      20.870088347
                        -----------------------------------------
Total Dipole Moment    :      0.145292853      -1.461905986       1.686296489
                        -----------------------------------------
Magnitude (a.u.)       :      2.236487195
Magnitude (Debye)      :      5.684698679

Rotational constants in cm-1:             0.012455             0.004646             0.004496
Rotational constants in MHz :           373.396550           139.290591           134.786948

                             ****ORCA TERMINATED NORMALLY****
TOTAL RUN TIME: 0 days 0 hours 1 minutes 19 seconds 645 msec
