                         Program Version 6.0.0  -   RELEASE  -
|  1> ! r2scan-3c def2/J RI DEFGRID2 scfconv6 printgap
|  2> %output
|  3>     printlevel normal
|  4> end
|  5> %cpcm
|  6>     smd true
|  7>     smdsolvent "water"
|  8> end
|  9> * xyz 0 1
| 10> C 5.4304027663 -2.0932260582 -0.4783355997
| 11> C 4.3019452228 -1.2448000555 -1.028219716
| 12> O 3.429362005 -0.9064749332 0.0706082516
| 13> P 2.3350344803 0.2338848448 -0.0750255013
| 14> S 2.9836621634 1.9727958907 -0.6854808482
| 15> O 1.7019695188 0.2946574764 1.3631266144
| 16> C 1.283243105 -0.88613046 2.0921269719
| 17> C 2.340491069 -1.2905740249 3.0980094326
| 18> S 0.8850397327 -0.6947820812 -1.3495693398
| 19> C 0.0721618937 0.8347972263 -1.8568441689
| 20> S -0.7989250417 1.6573859962 -0.4975501416
| 21> P -2.358198295 0.2304671016 -0.344323505
| 22> S -3.0331696655 -0.5434624952 -2.0027729688
| 23> O -3.4910774044 1.0000895182 0.4509791014
| 24> C -3.2455174699 1.6391753188 1.7286399159
| 25> C -4.5894083288 1.9078393293 2.3732156861
| 26> O -1.6900064368 -0.8011244326 0.6829561341
| 27> C -2.0910733867 -2.1865359893 0.7125744446
| 28> C -3.4750667662 -2.346251635 1.3077892718
| 29> H 6.0964530124 -2.3668638374 -1.2898953318
| 30> H 5.9877186332 -1.5348972378 0.268553192
| 31> H 5.0310217291 -2.9945355468 -0.0225939876
| 32> H 3.7163998872 -1.7896976538 -1.7736248613
| 33> H 4.6749696047 -0.3169543838 -1.4735715578
| 34> H 0.3535508017 -0.5902307424 2.5817928049
| 35> H 1.0852117564 -1.6895755464 1.377183715
| 36> H 1.9776210367 -2.1336175262 3.6776482298
| 37> H 3.2560827008 -1.5729931321 2.5854797609
| 38> H 2.5544850042 -0.4602925337 3.765232005
| 39> H -0.639548572 0.5724690953 -2.6398641818
| 40> H 0.8226181875 1.5405506976 -2.2137761345
| 41> H -2.6295581478 0.9755027956 2.3406899972
| 42> H -2.6958824794 2.5652920197 1.5407686067
| 43> H -5.1194988945 0.9747067594 2.5416622136
| 44> H -4.4349579387 2.4116654693 3.3218901862
| 45> H -5.1909741246 2.5380069399 1.7247308894
| 46> H -2.0606519764 -2.5783912857 -0.3086603226
| 47> H -1.3279429262 -2.6743955662 1.3201280878
| 48> H -3.7337555821 -3.3998177116 1.3408861589
| 49> H -3.5073494602 -1.9360544696 2.3139127067
| 50> H -4.2027024372 -1.8232844215 0.6870583651
| 51> *
| 52>
| 53>                          ****END OF INPUT****

CARTESIAN COORDINATES (ANGSTROEM)
---------------------------------
  C      5.430403   -2.093226   -0.478336
  C      4.301945   -1.244800   -1.028220
  O      3.429362   -0.906475    0.070608
  P      2.335034    0.233885   -0.075026
  S      2.983662    1.972796   -0.685481
  O      1.701970    0.294657    1.363127
  C      1.283243   -0.886130    2.092127
  C      2.340491   -1.290574    3.098009
  S      0.885040   -0.694782   -1.349569
  C      0.072162    0.834797   -1.856844
  S     -0.798925    1.657386   -0.497550
  P     -2.358198    0.230467   -0.344324
  S     -3.033170   -0.543462   -2.002773
  O     -3.491077    1.000090    0.450979
  C     -3.245517    1.639175    1.728640
  C     -4.589408    1.907839    2.373216
  O     -1.690006   -0.801124    0.682956
  C     -2.091073   -2.186536    0.712574
  C     -3.475067   -2.346252    1.307789
  H      6.096453   -2.366864   -1.289895
  H      5.987719   -1.534897    0.268553
  H      5.031022   -2.994536   -0.022594
  H      3.716400   -1.789698   -1.773625
  H      4.674970   -0.316954   -1.473572
  H      0.353551   -0.590231    2.581793
  H      1.085212   -1.689576    1.377184
  H      1.977621   -2.133618    3.677648
  H      3.256083   -1.572993    2.585480
  H      2.554485   -0.460293    3.765232
  H     -0.639549    0.572469   -2.639864
  H      0.822618    1.540551   -2.213776
  H     -2.629558    0.975503    2.340690
  H     -2.695882    2.565292    1.540769
  H     -5.119499    0.974707    2.541662
  H     -4.434958    2.411665    3.321890
  H     -5.190974    2.538007    1.724731
  H     -2.060652   -2.578391   -0.308660
  H     -1.327943   -2.674396    1.320128
  H     -3.733756   -3.399818    1.340886
  H     -3.507349   -1.936054    2.313913
  H     -4.202702   -1.823284    0.687058

 Total Charge           Charge          ....    0
 Multiplicity           Mult            ....    1
 Number of Electrons    NEL             ....  202
 Basis Dimension        Dim             ....  539

ORBITAL ENERGIES
----------------

  NO   OCC          E(Eh)            E(eV)
   0   2.0000     -88.579254     -2410.3640
   1   2.0000     -88.577235     -2410.3091
   2   2.0000     -88.531196     -2409.0563
   3   2.0000     -88.530920     -2409.0488
   4   2.0000     -76.920553     -2093.1147
   5   2.0000     -76.919548     -2093.0873
   6   2.0000     -18.997366      -516.9446
   7   2.0000     -18.996624      -516.9244
   8   2.0000     -18.996436      -516.9193
   9   2.0000     -18.990633      -516.7614
  10   2.0000     -10.103799      -274.9383
  11   2.0000     -10.093849      -274.6676
  12   2.0000     -10.092772      -274.6383
  13   2.0000     -10.091633      -274.6073
  14   2.0000     -10.087513      -274.4952
  15   2.0000     -10.021253      -272.6922
  16   2.0000     -10.020219      -272.6640
  17   2.0000     -10.018829      -272.6262
  18   2.0000     -10.018549      -272.6186
  19   2.0000      -7.873574      -214.2508
  20   2.0000      -7.871466      -214.1935
  21   2.0000      -7.826429      -212.9679
  22   2.0000      -7.826075      -212.9583
  23   2.0000      -6.599192      -179.5731
  24   2.0000      -6.598126      -179.5441
  25   2.0000      -5.820372      -158.3804
  26   2.0000      -5.818234      -158.3222
  27   2.0000      -5.817489      -158.3019
  28   2.0000      -5.815355      -158.2439
  29   2.0000      -5.810721      -158.1178
  30   2.0000      -5.808691      -158.0625
  31   2.0000      -5.774077      -157.1206
  32   2.0000      -5.773678      -157.1098
  33   2.0000      -5.766714      -156.9203
  34   2.0000      -5.766326      -156.9097
  35   2.0000      -5.766247      -156.9076
  36   2.0000      -5.766151      -156.9049
  37   2.0000      -4.744953      -129.1167
  38   2.0000      -4.744142      -129.0947
  39   2.0000      -4.743918      -129.0886
  40   2.0000      -4.742712      -129.0557
  41   2.0000      -4.742701      -129.0554
  42   2.0000      -4.741967      -129.0355
  43   2.0000      -1.056629       -28.7523
  44   2.0000      -1.049812       -28.5668
  45   2.0000      -1.014846       -27.6154
  46   2.0000      -1.010577       -27.4992
  47   2.0000      -0.804846       -21.9010
  48   2.0000      -0.757857       -20.6223
  49   2.0000      -0.746902       -20.3242
  50   2.0000      -0.728228       -19.8161
  51   2.0000      -0.726478       -19.7685
  52   2.0000      -0.708237       -19.2721
  53   2.0000      -0.688997       -18.7486
  54   2.0000      -0.676949       -18.4207
  55   2.0000      -0.622449       -16.9377
  56   2.0000      -0.614810       -16.7298
  57   2.0000      -0.600253       -16.3337
  58   2.0000      -0.598097       -16.2750
  59   2.0000      -0.592810       -16.1312
  60   2.0000      -0.534851       -14.5540
  61   2.0000      -0.523761       -14.2523
  62   2.0000      -0.499563       -13.5938
  63   2.0000      -0.495262       -13.4768
  64   2.0000      -0.475987       -12.9523
  65   2.0000      -0.460297       -12.5253
  66   2.0000      -0.454113       -12.3570
  67   2.0000      -0.452162       -12.3040
  68   2.0000      -0.443312       -12.0631
  69   2.0000      -0.426052       -11.5935
  70   2.0000      -0.419734       -11.4215
  71   2.0000      -0.408758       -11.1229
  72   2.0000      -0.405112       -11.0237
  73   2.0000      -0.401553       -10.9268
  74   2.0000      -0.391590       -10.6557
  75   2.0000      -0.388453       -10.5704
  76   2.0000      -0.377945       -10.2844
  77   2.0000      -0.366948        -9.9852
  78   2.0000      -0.362614        -9.8672
  79   2.0000      -0.361072        -9.8253
  80   2.0000      -0.356899        -9.7117
  81   2.0000      -0.352925        -9.6036
  82   2.0000      -0.350342        -9.5333
  83   2.0000      -0.347906        -9.4670
  84   2.0000      -0.346246        -9.4218
  85   2.0000      -0.333004        -9.0615
  86   2.0000      -0.326303        -8.8792
  87   2.0000      -0.319372        -8.6906
  88   2.0000      -0.315400        -8.5825
  89   2.0000      -0.305444        -8.3115
  90   2.0000      -0.296614        -8.0713
  91   2.0000      -0.290753        -7.9118
  92   2.0000      -0.282742        -7.6938
  93   2.0000      -0.281815        -7.6686
  94   2.0000      -0.273906        -7.4534
  95   2.0000      -0.250048        -6.8042
  96   2.0000      -0.239333        -6.5126
  97   2.0000      -0.238034        -6.4772
  98   2.0000      -0.229185        -6.2364
  99   2.0000      -0.224872        -6.1191
 100   2.0000      -0.222211        -6.0467
 101   0.0000      -0.052047        -1.4163
 102   0.0000      -0.031467        -0.8563
 103   0.0000      -0.003894        -0.1060
 104   0.0000      -0.001220        -0.0332
 105   0.0000       0.013204         0.3593

MULLIKEN ATOMIC CHARGES
-----------------------
   0 C :   -0.481688
   1 C :   -0.140327
   2 O :   -0.298808
   3 P :    0.676722
   4 S :   -0.502759
   5 O :   -0.290220
   6 C :   -0.092626
   7 C :   -0.527496
   8 S :   -0.184877
   9 C :   -0.241757
  10 S :   -0.160296
  11 P :    0.664756
  12 S :   -0.506222
  13 O :   -0.308780
  14 C :   -0.112218
  15 C :   -0.499366
  16 O :   -0.280081
  17 C :   -0.146791
  18 C :   -0.481211
  19 H :    0.169860
  20 H :    0.167099
  21 H :    0.166493
  22 H :    0.170394
  23 H :    0.172648
  24 H :    0.182348
  25 H :    0.176605
  26 H :    0.172164
  27 H :    0.170683
  28 H :    0.169426
  29 H :    0.233249
  30 H :    0.234311
  31 H :    0.183630
  32 H :    0.168217
  33 H :    0.169158
  34 H :    0.171551
  35 H :    0.167766
  36 H :    0.176909
  37 H :    0.179911
  38 H :    0.171736
  39 H :    0.169879
  40 H :    0.170005
Sum of atomic charges:   -0.0000000

LOEWDIN ATOMIC CHARGES
----------------------
   0 C :   -0.388846
   1 C :    0.025341
   2 O :   -0.681619
   3 P :    0.380125
   4 S :   -0.145771
   5 O :   -0.667849
   6 C :    0.027285
   7 C :   -0.393883
   8 S :    0.140510
   9 C :   -0.421082
  10 S :    0.154514
  11 P :    0.378083
  12 S :   -0.140380
  13 O :   -0.681476
  14 C :    0.028546
  15 C :   -0.386517
  16 O :   -0.703234
  17 C :    0.017221
  18 C :   -0.401592
  19 H :    0.169380
  20 H :    0.163461
  21 H :    0.163455
  22 H :    0.180068
  23 H :    0.181899
  24 H :    0.192145
  25 H :    0.184296
  26 H :    0.169517
  27 H :    0.166050
  28 H :    0.164547
  29 H :    0.196965
  30 H :    0.197168
  31 H :    0.184888
  32 H :    0.181301
  33 H :    0.163887
  34 H :    0.170210
  35 H :    0.164460
  36 H :    0.181762
  37 H :    0.190089
  38 H :    0.168558
  39 H :    0.163271
  40 H :    0.163248

  Mayer bond orders larger than 0.100000
B(  0-C ,  1-C ) :   0.9540 B(  0-C , 19-H ) :   0.9576 B(  0-C , 20-H ) :   0.9691
B(  0-C , 21-H ) :   0.9681 B(  1-C ,  2-O ) :   0.7790 B(  1-C , 22-H ) :   0.9324
B(  1-C , 23-H ) :   0.9473 B(  2-O ,  3-P ) :   1.0636 B(  3-P ,  4-S ) :   1.8081
B(  3-P ,  5-O ) :   1.1678 B(  3-P ,  8-S ) :   0.9942 B(  5-O ,  6-C ) :   0.7193
B(  6-C ,  7-C ) :   0.9282 B(  6-C , 24-H ) :   0.9451 B(  6-C , 25-H ) :   0.9560
B(  7-C , 26-H ) :   0.9584 B(  7-C , 27-H ) :   0.9684 B(  7-C , 28-H ) :   0.9719
B(  8-S ,  9-C ) :   0.9017 B(  9-C , 10-S ) :   0.8965 B(  9-C , 29-H ) :   0.9030
B(  9-C , 30-H ) :   0.9025 B( 10-S , 11-P ) :   1.0840 B( 11-P , 12-S ) :   1.8066
B( 11-P , 13-O ) :   1.1407 B( 11-P , 16-O ) :   1.0368 B( 13-O , 14-C ) :   0.7335
B( 14-C , 15-C ) :   0.9496 B( 14-C , 31-H ) :   0.9450 B( 14-C , 32-H ) :   0.9275
B( 15-C , 33-H ) :   0.9715 B( 15-C , 34-H ) :   0.9569 B( 15-C , 35-H ) :   0.9696
B( 16-O , 17-C ) :   0.7615 B( 17-C , 18-C ) :   0.9124 B( 17-C , 36-H ) :   0.9559
B( 17-C , 37-H ) :   0.9523 B( 18-C , 38-H ) :   0.9571 B( 18-C , 39-H ) :   0.9698
B( 18-C , 40-H ) :   0.9606

Dispersion correction           -0.021119655
FINAL SINGLE POINT ENERGY     -2932.476242147836

DIPOLE MOMENT
-------------

Method             : SCF
Type of density    : Electron Density
Multiplicity       :   1
Irrep              :   0
Energy             : -2932.5014416994422390 Eh
Relativity type    :
Basis              : AO
                                X                 Y                 Z
Electronic contribution:      0.210337373      13.566903383     -18.619204217
Nuclear contribution   :      0.031387361     -15.766889338      20.870088347
                        -----------------------------------------
Total Dipole Moment    :      0.241724734      -2.199985954       2.250884130
                        -----------------------------------------
Magnitude (a.u.)       :      3.156714813
Magnitude (Debye)      :      8.023731399

Rotational constants in cm-1:             0.012455             0.004646             0.004496
Rotational constants in MHz :           373.396550           139.290591           134.786948

                             ****ORCA TERMINATED NORMALLY****
TOTAL RUN TIME: 0 days 0 hours 1 minutes 57 seconds 203 msec
