                         Program Version 6.0.0  -   RELEASE  -
|  1> ! pbe def2-sv(p) def2/J RI DEFGRID1 loosescf d4 GCP(DFT/SV(P)) printgap
|  2> %output
|  3>     printlevel normal
|  4> end
|  5> * xyz 0 1
|  6> C 5.1568363992 -0.7688365545 -2.4824258991
|  7> C 3.714884632 -0.9266479519 -2.0438904052
|  8> O 3.4940345338 -0.0500950637 -0.9238884228
|  9> P 2.0228711047 0.2883083643 -0.4113909141
| 10> S 0.8656801519 0.9621565155 -1.8365149408
| 11> O 2.3250548625 1.3546883469 0.6963763107
| 12> C 2.7708953545 1.1051541375 2.0506701396
| 13> C 3.9968106134 0.221634435 2.1129303493
| 14> S 1.3965061792 -1.5354141606 0.5054451396
| 15> C -0.0588011379 -1.9423022533 -0.5042210991
| 16> S -1.6050787264 -2.0268786286 0.4422985392
| 17> P -2.0167733011 0.0151873163 0.6791017977
| 18> S -0.7451728288 1.1980793277 1.5790643943
| 19> O -3.3809347478 0.0276450525 1.4868511293
| 20> C -4.5442233799 -0.7266721548 1.0554473725
| 21> C -5.7834344354 0.0630547931 1.4244034701
| 22> O -2.3651895317 0.3793578308 -0.8373995274
| 23> C -2.5477403753 1.746600832 -1.2576562361
| 24> C -2.6198380354 1.7572292086 -2.7695036845
| 25> H 5.8244065148 -1.0339787044 -1.6679840615
| 26> H 5.3448080144 -1.4203426087 -3.3293789857
| 27> H 5.3465148835 0.2608453728 -2.7721441897
| 28> H 3.5058326402 -1.9511405582 -1.7222829496
| 29> H 3.0202834087 -0.6519076882 -2.8453324821
| 30> H 2.9709883077 2.1082105574 2.43021864
| 31> H 1.9320602723 0.6720162643 2.6026918926
| 32> H 3.7607661097 -0.7789918561 1.7534543439
| 33> H 4.791418812 0.6405963405 1.5009849383
| 34> H 4.3301516342 0.15509352 3.1439428721
| 35> H 0.085794606 -2.9414084719 -0.9064972827
| 36> H -0.1565962255 -1.1967212501 -1.2987275512
| 37> H -4.4807691621 -0.8951266565 -0.0227049207
| 38> H -4.513256471 -1.6870720091 1.5739226202
| 39> H -6.6636620854 -0.5116647211 1.1550009096
| 40> H -5.7929061789 0.2581193025 2.4929379849
| 41> H -5.8002822337 1.0133614793 0.8971886237
| 42> H -3.4663013923 2.1281774938 -0.8024694988
| 43> H -1.7009514761 2.3389615787 -0.8954828306
| 44> H -2.8135167363 2.7695246288 -3.1080947427
| 45> H -1.6724407858 1.417905802 -3.1811812747
| 46> H -3.414316678 1.1000023036 -3.1100578277
| 47> *
| 48>
| 49>                          ****END OF INPUT****

CARTESIAN COORDINATES (ANGSTROEM)
---------------------------------
  C      5.156836   -0.768837   -2.482426
  C      3.714885   -0.926648   -2.043890
  O      3.494035   -0.050095   -0.923888
  P      2.022871    0.288308   -0.411391
  S      0.865680    0.962157   -1.836515
  O      2.325055    1.354688    0.696376
  C      2.770895    1.105154    2.050670
  C      3.996811    0.221634    2.112930
  S      1.396506   -1.535414    0.505445
  C     -0.058801   -1.942302   -0.504221
  S     -1.605079   -2.026879    0.442299
  P     -2.016773    0.015187    0.679102
  S     -0.745173    1.198079    1.579064
  O     -3.380935    0.027645    1.486851
  C     -4.544223   -0.726672    1.055447
  C     -5.783434    0.063055    1.424403
  O     -2.365190    0.379358   -0.837400
  C     -2.547740    1.746601   -1.257656
  C     -2.619838    1.757229   -2.769504
  H      5.824407   -1.033979   -1.667984
  H      5.344808   -1.420343   -3.329379
  H      5.346515    0.260845   -2.772144
  H      3.505833   -1.951141   -1.722283
  H      3.020283   -0.651908   -2.845332
  H      2.970988    2.108211    2.430219
  H      1.932060    0.672016    2.602692
  H      3.760766   -0.778992    1.753454
  H      4.791419    0.640596    1.500985
  H      4.330152    0.155094    3.143943
  H      0.085795   -2.941408   -0.906497
  H     -0.156596   -1.196721   -1.298728
  H     -4.480769   -0.895127   -0.022705
  H     -4.513256   -1.687072    1.573923
  H     -6.663662   -0.511665    1.155001
  H     -5.792906    0.258119    2.492938
  H     -5.800282    1.013361    0.897189
  H     -3.466301    2.128177   -0.802469
  H     -1.700951    2.338962   -0.895483
  H     -2.813517    2.769525   -3.108095
  H     -1.672441    1.417906   -3.181181
  H     -3.414317    1.100002   -3.110058

 Total Charge           Charge          ....    0
 Multiplicity           Mult            ....    1
 Number of Electrons    NEL             ....  202
 Basis Dimension        Dim             ....  334

ORBITAL ENERGIES
----------------

  NO   OCC          E(Eh)            E(eV)
   0   2.0000     -88.041150     -2395.7215
   1   2.0000     -88.040770     -2395.7112
   2   2.0000     -87.981110     -2394.0877
   3   2.0000     -87.973884     -2393.8911
   4   2.0000     -76.422954     -2079.5743
   5   2.0000     -76.417459     -2079.4248
   6   2.0000     -18.788488      -511.2607
   7   2.0000     -18.787304      -511.2285
   8   2.0000     -18.783745      -511.1317
   9   2.0000     -18.783144      -511.1153
  10   2.0000      -9.956217      -270.9224
  11   2.0000      -9.956033      -270.9174
  12   2.0000      -9.951144      -270.7844
  13   2.0000      -9.948128      -270.7023
  14   2.0000      -9.941600      -270.5247
  15   2.0000      -9.891341      -269.1571
  16   2.0000      -9.886408      -269.0228
  17   2.0000      -9.885851      -269.0077
  18   2.0000      -9.877685      -268.7855
  19   2.0000      -7.686650      -209.1644
  20   2.0000      -7.685853      -209.1427
  21   2.0000      -7.626150      -207.5181
  22   2.0000      -7.618985      -207.3231
  23   2.0000      -6.420087      -174.6995
  24   2.0000      -6.415650      -174.5787
  25   2.0000      -5.714533      -155.5004
  26   2.0000      -5.713763      -155.4794
  27   2.0000      -5.711071      -155.4061
  28   2.0000      -5.710310      -155.3854
  29   2.0000      -5.703549      -155.2015
  30   2.0000      -5.702941      -155.1849
  31   2.0000      -5.654963      -153.8794
  32   2.0000      -5.648045      -153.6911
  33   2.0000      -5.647068      -153.6645
  34   2.0000      -5.645996      -153.6353
  35   2.0000      -5.639584      -153.4609
  36   2.0000      -5.638963      -153.4440
  37   2.0000      -4.642680      -126.3337
  38   2.0000      -4.641950      -126.3139
  39   2.0000      -4.640494      -126.2743
  40   2.0000      -4.638681      -126.2249
  41   2.0000      -4.637215      -126.1850
  42   2.0000      -4.635821      -126.1471
  43   2.0000      -0.982310       -26.7300
  44   2.0000      -0.979669       -26.6581
  45   2.0000      -0.939442       -25.5635
  46   2.0000      -0.937944       -25.5228
  47   2.0000      -0.760491       -20.6940
  48   2.0000      -0.720034       -19.5931
  49   2.0000      -0.710477       -19.3331
  50   2.0000      -0.689735       -18.7686
  51   2.0000      -0.688158       -18.7257
  52   2.0000      -0.671864       -18.2824
  53   2.0000      -0.645285       -17.5591
  54   2.0000      -0.631928       -17.1956
  55   2.0000      -0.595164       -16.1952
  56   2.0000      -0.578515       -15.7422
  57   2.0000      -0.572153       -15.5691
  58   2.0000      -0.563221       -15.3260
  59   2.0000      -0.557340       -15.1660
  60   2.0000      -0.508127       -13.8269
  61   2.0000      -0.499254       -13.5854
  62   2.0000      -0.480276       -13.0690
  63   2.0000      -0.471837       -12.8393
  64   2.0000      -0.452629       -12.3167
  65   2.0000      -0.447812       -12.1856
  66   2.0000      -0.436815       -11.8863
  67   2.0000      -0.432105       -11.7582
  68   2.0000      -0.425137       -11.5686
  69   2.0000      -0.416853       -11.3432
  70   2.0000      -0.408416       -11.1136
  71   2.0000      -0.401477       -10.9247
  72   2.0000      -0.386082       -10.5058
  73   2.0000      -0.379774       -10.3342
  74   2.0000      -0.376779       -10.2527
  75   2.0000      -0.362889        -9.8747
  76   2.0000      -0.359622        -9.7858
  77   2.0000      -0.356481        -9.7003
  78   2.0000      -0.354242        -9.6394
  79   2.0000      -0.350184        -9.5290
  80   2.0000      -0.349688        -9.5155
  81   2.0000      -0.346471        -9.4279
  82   2.0000      -0.339216        -9.2305
  83   2.0000      -0.334393        -9.0993
  84   2.0000      -0.328662        -8.9434
  85   2.0000      -0.313397        -8.5280
  86   2.0000      -0.309016        -8.4088
  87   2.0000      -0.307221        -8.3599
  88   2.0000      -0.295565        -8.0427
  89   2.0000      -0.284938        -7.7536
  90   2.0000      -0.275229        -7.4894
  91   2.0000      -0.270578        -7.3628
  92   2.0000      -0.269219        -7.3258
  93   2.0000      -0.260500        -7.0886
  94   2.0000      -0.255856        -6.9622
  95   2.0000      -0.239155        -6.5077
  96   2.0000      -0.219243        -5.9659
  97   2.0000      -0.202851        -5.5199
  98   2.0000      -0.200609        -5.4588
  99   2.0000      -0.189446        -5.1551
 100   2.0000      -0.181470        -4.9380
 101   0.0000      -0.038358        -1.0438
 102   0.0000      -0.029978        -0.8158
 103   0.0000      -0.009142        -0.2488
 104   0.0000       0.007284         0.1982
 105   0.0000       0.022298         0.6068

MULLIKEN ATOMIC CHARGES
-----------------------
   0 C :   -0.280030
   1 C :   -0.005746
   2 O :   -0.374731
   3 P :    0.609555
   4 S :   -0.316863
   5 O :   -0.349508
   6 C :   -0.005484
   7 C :   -0.318875
   8 S :   -0.108733
   9 C :   -0.341014
  10 S :   -0.098216
  11 P :    0.609010
  12 S :   -0.308967
  13 O :   -0.372222
  14 C :   -0.035009
  15 C :   -0.278539
  16 O :   -0.387626
  17 C :   -0.017491
  18 C :   -0.281986
  19 H :    0.114233
  20 H :    0.109489
  21 H :    0.121163
  22 H :    0.090897
  23 H :    0.099645
  24 H :    0.111391
  25 H :    0.128828
  26 H :    0.125575
  27 H :    0.124371
  28 H :    0.116238
  29 H :    0.180217
  30 H :    0.199696
  31 H :    0.111049
  32 H :    0.113080
  33 H :    0.111454
  34 H :    0.124960
  35 H :    0.117803
  36 H :    0.094574
  37 H :    0.123927
  38 H :    0.107606
  39 H :    0.131129
  40 H :    0.105152
Sum of atomic charges:    0.0000000

LOEWDIN ATOMIC CHARGES
----------------------
   0 C :   -0.350211
   1 C :   -0.125312
   2 O :   -0.250295
   3 P :    0.576282
   4 S :   -0.295992
   5 O :   -0.220561
   6 C :   -0.112552
   7 C :   -0.367767
   8 S :    0.067299
   9 C :   -0.479692
  10 S :    0.077099
  11 P :    0.559215
  12 S :   -0.302186
  13 O :   -0.247724
  14 C :   -0.122724
  15 C :   -0.350118
  16 O :   -0.254922
  17 C :   -0.123065
  18 C :   -0.352155
  19 H :    0.125411
  20 H :    0.129507
  21 H :    0.129223
  22 H :    0.102809
  23 H :    0.105257
  24 H :    0.124379
  25 H :    0.113503
  26 H :    0.116050
  27 H :    0.129139
  28 H :    0.133083
  29 H :    0.136520
  30 H :    0.123744
  31 H :    0.109262
  32 H :    0.115411
  33 H :    0.130544
  34 H :    0.131513
  35 H :    0.126329
  36 H :    0.104367
  37 H :    0.112744
  38 H :    0.129321
  39 H :    0.125619
  40 H :    0.121647

  Mayer bond orders larger than 0.100000
B(  0-C ,  1-C ) :   1.1610 B(  0-C , 19-H ) :   0.9517 B(  0-C , 20-H ) :   0.9424
B(  0-C , 21-H ) :   0.9512 B(  1-C ,  2-O ) :   0.9146 B(  1-C , 22-H ) :   0.9224
B(  1-C , 23-H ) :   0.9085 B(  2-O ,  3-P ) :   1.0746 B(  3-P ,  4-S ) :   1.6082
B(  3-P ,  5-O ) :   1.1681 B(  3-P ,  8-S ) :   0.9383 B(  4-S ,  8-S ) :   0.1145
B(  4-S , 30-H ) :   0.1159 B(  5-O ,  6-C ) :   0.8923 B(  6-C ,  7-C ) :   1.1667
B(  6-C , 24-H ) :   0.9345 B(  6-C , 25-H ) :   0.9156 B(  7-C , 26-H ) :   0.9370
B(  7-C , 27-H ) :   0.9413 B(  7-C , 28-H ) :   0.9349 B(  8-S ,  9-C ) :   1.0031
B(  9-C , 10-S ) :   0.9992 B(  9-C , 29-H ) :   0.9126 B(  9-C , 30-H ) :   0.8442
B( 10-S , 11-P ) :   0.9788 B( 10-S , 12-S ) :   0.1109 B( 11-P , 12-S ) :   1.6728
B( 11-P , 13-O ) :   1.1153 B( 11-P , 16-O ) :   1.0719 B( 13-O , 14-C ) :   0.8994
B( 14-C , 15-C ) :   1.1658 B( 14-C , 31-H ) :   0.9146 B( 14-C , 32-H ) :   0.9310
B( 15-C , 33-H ) :   0.9405 B( 15-C , 34-H ) :   0.9488 B( 15-C , 35-H ) :   0.9500
B( 16-O , 17-C ) :   0.8929 B( 17-C , 18-C ) :   1.1637 B( 17-C , 36-H ) :   0.9286
B( 17-C , 37-H ) :   0.9064 B( 18-C , 38-H ) :   0.9417 B( 18-C , 39-H ) :   0.9443
B( 18-C , 40-H ) :   0.9499

Dispersion correction           -0.065395382
FINAL SINGLE POINT ENERGY     -2929.514577873357

DIPOLE MOMENT
-------------

Method             : SCF
Type of density    : Electron Density
Multiplicity       :   1
Irrep              :   0
Energy             : -2929.6337702258524587 Eh
Relativity type    :
Basis              : AO
                                X                 Y                 Z
Electronic contribution:     -0.598688986      -2.364652717       7.522452643
Nuclear contribution   :      0.409124845       1.478271598      -7.863379672
                        -----------------------------------------
Total Dipole Moment    :     -0.189564141      -0.886381120      -0.340927029
                        -----------------------------------------
Magnitude (a.u.)       :      0.968419998
Magnitude (Debye)      :      2.461528013

Rotational constants in cm-1:             0.013577             0.004794             0.004511
Rotational constants in MHz :           407.023870           143.734201           135.223229

                             ****ORCA TERMINATED NORMALLY****
TOTAL RUN TIME: 0 days 0 hours 0 minutes 20 seconds 889 msec
