                         Program Version 6.0.0  -   RELEASE  -
|  1> ! r2scan-3c def2/J RI DEFGRID2 scfconv6 printgap
|  2> %output
|  3>     printlevel normal
|  4> end
|  5> * xyz 0 1
|  6> C -7.18434e-05 3.32161e-05 0.5060489714
|  7> Cl -1.5895480124 0.5284283343 -0.0722931223
|  8> Cl 0.3371067142 -1.6406835059 -0.0722844652
|  9> Cl 1.2524650471 1.1122447195 -0.0722850007
| 10> H 2.07735e-05 -2.81793e-05 1.5976536759
| 11> *
| 12>
| 13>                          ****END OF INPUT****

CARTESIAN COORDINATES (ANGSTROEM)
---------------------------------
  C     -0.000072    0.000033    0.506049
  Cl    -1.589548    0.528428   -0.072293
  Cl     0.337107   -1.640684   -0.072284
  Cl     1.252465    1.112245   -0.072285
  H      0.000021   -0.000028    1.597654

 Total Charge           Charge          ....    0
 Multiplicity           Mult            ....    1
 Number of Electrons    NEL             ....   58
 Basis Dimension        Dim             ....  105

ORBITAL ENERGIES
----------------

  NO   OCC          E(Eh)            E(eV)
   0   2.0000    -101.242674     -2754.9532
   1   2.0000    -101.242662     -2754.9529
   2   2.0000    -101.242660     -2754.9528
   3   2.0000     -10.228466      -278.3307
   4   2.0000      -9.398707      -255.7518
   5   2.0000      -9.398695      -255.7515
   6   2.0000      -9.398692      -255.7514
   7   2.0000      -7.145664      -194.4434
   8   2.0000      -7.145648      -194.4430
   9   2.0000      -7.145647      -194.4429
  10   2.0000      -7.134403      -194.1370
  11   2.0000      -7.134392      -194.1367
  12   2.0000      -7.134389      -194.1366
  13   2.0000      -7.134333      -194.1351
  14   2.0000      -7.134324      -194.1348
  15   2.0000      -7.134319      -194.1347
  16   2.0000      -0.917003       -24.9529
  17   2.0000      -0.808901       -22.0113
  18   2.0000      -0.808884       -22.0109
  19   2.0000      -0.626178       -17.0392
  20   2.0000      -0.487998       -13.2791
  21   2.0000      -0.457907       -12.4603
  22   2.0000      -0.457892       -12.4599
  23   2.0000      -0.333462        -9.0740
  24   2.0000      -0.333452        -9.0737
  25   2.0000      -0.304756        -8.2928
  26   2.0000      -0.303593        -8.2612
  27   2.0000      -0.303579        -8.2608
  28   2.0000      -0.285318        -7.7639
  29   0.0000      -0.065545        -1.7836
  30   0.0000      -0.017902        -0.4871
  31   0.0000      -0.017880        -0.4866
  32   0.0000       0.082015         2.2317
  33   0.0000       0.170827         4.6484

MULLIKEN ATOMIC CHARGES
-----------------------
   0 C :    0.021414
   1 Cl:   -0.073300
   2 Cl:   -0.073332
   3 Cl:   -0.073356
   4 H :    0.198573
Sum of atomic charges:   -0.0000000

LOEWDIN ATOMIC CHARGES
----------------------
   0 C :   -0.414854
   1 Cl:    0.082991
   2 Cl:    0.082955
   3 Cl:    0.082924
   4 H :    0.165985

  Mayer bond orders larger than 0.100000
B(  0-C ,  1-Cl) :   1.0451 B(  0-C ,  2-Cl) :   1.0451 B(  0-C ,  3-Cl) :   1.0451
B(  0-C ,  4-H ) :   0.9188

Dispersion correction           -0.001479450
FINAL SINGLE POINT ENERGY     -1419.213987486954

DIPOLE MOMENT
-------------

Method             : SCF
Type of density    : Electron Density
Multiplicity       :   1
Irrep              :   0
Energy             : -1419.2199744381844084 Eh
Relativity type    :
Basis              : AO
                                X                 Y                 Z
Electronic contribution:     -0.000092914      -0.000035711      -1.346698736
Nuclear contribution   :     -0.000012387      -0.000012408       1.789959714
                        -----------------------------------------
Total Dipole Moment    :     -0.000105300      -0.000048120       0.443260978
                        -----------------------------------------
Magnitude (a.u.)       :      0.443260993
Magnitude (Debye)      :      1.126679907

Rotational constants in cm-1:             0.108481             0.108461             0.056491
Rotational constants in MHz :          3252.189480          3251.592058          1693.558012

                             ****ORCA TERMINATED NORMALLY****
TOTAL RUN TIME: 0 days 0 hours 0 minutes 7 seconds 478 msec
