                         Program Version 6.0.0  -   RELEASE  -
|  1> ! r2scan-3c def2/J RI DEFGRID2 scfconv6 printgap
|  2> %output
|  3>     printlevel normal
|  4> end
|  5> %cpcm
|  6>     smd true
|  7>     smdsolvent "water"
|  8> end
|  9> * xyz 0 1
| 10> C -7.18434e-05 3.32161e-05 0.5060489714
| 11> Cl -1.5895480124 0.5284283343 -0.0722931223
| 12> Cl 0.3371067142 -1.6406835059 -0.0722844652
| 13> Cl 1.2524650471 1.1122447195 -0.0722850007
| 14> H 2.07735e-05 -2.81793e-05 1.5976536759
| 15> *
| 16>
| 17>                          ****END OF INPUT****

CARTESIAN COORDINATES (ANGSTROEM)
---------------------------------
  C     -0.000072    0.000033    0.506049
  Cl    -1.589548    0.528428   -0.072293
  Cl     0.337107   -1.640684   -0.072284
  Cl     1.252465    1.112245   -0.072285
  H      0.000021   -0.000028    1.597654

 Total Charge           Charge          ....    0
 Multiplicity           Mult            ....    1
 Number of Electrons    NEL             ....   58
 Basis Dimension        Dim             ....  105

ORBITAL ENERGIES
----------------

  NO   OCC          E(Eh)            E(eV)
   0   2.0000    -101.239703     -2754.8724
   1   2.0000    -101.239699     -2754.8723
   2   2.0000    -101.239684     -2754.8719
   3   2.0000     -10.221129      -278.1311
   4   2.0000      -9.395895      -255.6753
   5   2.0000      -9.395891      -255.6752
   6   2.0000      -9.395875      -255.6748
   7   2.0000      -7.142718      -194.3632
   8   2.0000      -7.142713      -194.3631
   9   2.0000      -7.142695      -194.3626
  10   2.0000      -7.131675      -194.0627
  11   2.0000      -7.131672      -194.0627
  12   2.0000      -7.131656      -194.0622
  13   2.0000      -7.131533      -194.0589
  14   2.0000      -7.131531      -194.0588
  15   2.0000      -7.131517      -194.0584
  16   2.0000      -0.912909       -24.8415
  17   2.0000      -0.806136       -21.9361
  18   2.0000      -0.806117       -21.9356
  19   2.0000      -0.618543       -16.8314
  20   2.0000      -0.479575       -13.0499
  21   2.0000      -0.454200       -12.3594
  22   2.0000      -0.454190       -12.3591
  23   2.0000      -0.331736        -9.0270
  24   2.0000      -0.331721        -9.0266
  25   2.0000      -0.301568        -8.2061
  26   2.0000      -0.301553        -8.2057
  27   2.0000      -0.299989        -8.1631
  28   2.0000      -0.283870        -7.7245
  29   0.0000      -0.061967        -1.6862
  30   0.0000      -0.012858        -0.3499
  31   0.0000      -0.012825        -0.3490
  32   0.0000       0.099688         2.7127
  33   0.0000       0.179904         4.8954

MULLIKEN ATOMIC CHARGES
-----------------------
   0 C :    0.019076
   1 Cl:   -0.091770
   2 Cl:   -0.091866
   3 Cl:   -0.091834
   4 H :    0.256394
Sum of atomic charges:   -0.0000000

LOEWDIN ATOMIC CHARGES
----------------------
   0 C :   -0.407793
   1 Cl:    0.072953
   2 Cl:    0.072941
   3 Cl:    0.072838
   4 H :    0.189062

  Mayer bond orders larger than 0.100000
B(  0-C ,  1-Cl) :   1.0325 B(  0-C ,  2-Cl) :   1.0325 B(  0-C ,  3-Cl) :   1.0325
B(  0-C ,  4-H ) :   0.8987

Dispersion correction           -0.001479450
FINAL SINGLE POINT ENERGY     -1419.216309292706

DIPOLE MOMENT
-------------

Method             : SCF
Type of density    : Electron Density
Multiplicity       :   1
Irrep              :   0
Energy             : -1419.2222962439363982 Eh
Relativity type    :
Basis              : AO
                                X                 Y                 Z
Electronic contribution:     -0.000355579      -0.000765098      -1.139489193
Nuclear contribution   :     -0.000012387      -0.000012408       1.789959714
                        -----------------------------------------
Total Dipole Moment    :     -0.000367966      -0.000777507       0.650470522
                        -----------------------------------------
Magnitude (a.u.)       :      0.650471090
Magnitude (Debye)      :      1.653366116

Rotational constants in cm-1:             0.108481             0.108461             0.056491
Rotational constants in MHz :          3252.189480          3251.592058          1693.558012

                             ****ORCA TERMINATED NORMALLY****
TOTAL RUN TIME: 0 days 0 hours 0 minutes 9 seconds 207 msec
