                         Program Version 6.0.0  -   RELEASE  -
|  1> ! pbe def2-sv(p) def2/J RI DEFGRID1 loosescf d4 GCP(DFT/SV(P)) printgap
|  2> %output
|  3>     printlevel normal
|  4> end
|  5> * xyz 0 1
|  6> C 3.1572029036 2.3000701112 0.3448688333
|  7> C 2.8072803664 1.5524963204 1.6147578511
|  8> O 1.7301331974 0.6004059389 1.4132667382
|  9> P 1.8190407323 -0.7702276248 0.6487408526
| 10> S 0.316818183 -1.9439419028 1.1074175112
| 11> O 3.2611384238 -1.2927749817 1.0559297855
| 12> C 3.7349890058 -2.5884495945 0.6354258334
| 13> C 4.9681155334 -2.9167879575 1.4521903435
| 14> S 2.0386327978 -0.4158966851 -1.446994737
| 15> C 0.2940285018 -0.2536823814 -1.8520392747
| 16> S -0.4726742658 1.1328071399 -0.9497223193
| 17> P -2.452042508 0.3660214455 -0.7603245459
| 18> S -2.6853340687 -1.5369231778 -1.1569994274
| 19> O -3.3315912068 1.2426860576 -1.7277529938
| 20> C -3.1690705133 2.6561019292 -2.0075263823
| 21> C -3.1284985068 3.5059572565 -0.7566720992
| 22> O -2.9776997685 0.8271601422 0.6669222248
| 23> C -2.6367047511 0.1729656524 1.900045566
| 24> C -1.5885020301 0.9673856876 2.6541107702
| 25> H 3.6538181481 1.6435265408 -0.3653838863
| 26> H 2.2552961403 2.6972747104 -0.1156400207
| 27> H 3.8233104956 3.1205542813 0.5926714229
| 28> H 2.3993756019 2.2232502559 2.3725334621
| 29> H 3.6699939317 1.0178889275 2.0139902145
| 30> H 2.9373384058 -3.3209510559 0.797239319
| 31> H 3.9631043602 -2.5385822934 -0.4326252226
| 32> H 5.346288966 -3.8876375276 1.1495156943
| 33> H 5.7342534179 -2.165080853 1.2869838414
| 34> H 4.7197114493 -2.9430580289 2.5094786526
| 35> H -0.2417664505 -1.1702414226 -1.5867490473
| 36> H 0.2435664915 -0.0647906139 -2.9216113928
| 37> H -2.2537989204 2.7820242971 -2.5914042373
| 38> H -4.0382487503 2.8854358365 -2.625529552
| 39> H -2.2356108093 3.2766024367 -0.1773156617
| 40> H -3.1056787414 4.5534845424 -1.0409962177
| 41> H -4.005271355 3.3164633486 -0.1431145794
| 42> H -3.5729367541 0.1230237432 2.4595179992
| 43> H -2.2896474339 -0.8447753465 1.6911399388
| 44> H -1.4206367599 0.5003759972 3.619359256
| 45> H -0.6489628376 0.9753012549 2.1055472045
| 46> H -1.92720895 1.9892943887 2.7980972105
| 47> *
| 48>
| 49>                          ****END OF INPUT****

CARTESIAN COORDINATES (ANGSTROEM)
---------------------------------
  C      3.157203    2.300070    0.344869
  C      2.807280    1.552496    1.614758
  O      1.730133    0.600406    1.413267
  P      1.819041   -0.770228    0.648741
  S      0.316818   -1.943942    1.107418
  O      3.261138   -1.292775    1.055930
  C      3.734989   -2.588450    0.635426
  C      4.968116   -2.916788    1.452190
  S      2.038633   -0.415897   -1.446995
  C      0.294029   -0.253682   -1.852039
  S     -0.472674    1.132807   -0.949722
  P     -2.452043    0.366021   -0.760325
  S     -2.685334   -1.536923   -1.156999
  O     -3.331591    1.242686   -1.727753
  C     -3.169071    2.656102   -2.007526
  C     -3.128499    3.505957   -0.756672
  O     -2.977700    0.827160    0.666922
  C     -2.636705    0.172966    1.900046
  C     -1.588502    0.967386    2.654111
  H      3.653818    1.643527   -0.365384
  H      2.255296    2.697275   -0.115640
  H      3.823310    3.120554    0.592671
  H      2.399376    2.223250    2.372533
  H      3.669994    1.017889    2.013990
  H      2.937338   -3.320951    0.797239
  H      3.963104   -2.538582   -0.432625
  H      5.346289   -3.887638    1.149516
  H      5.734253   -2.165081    1.286984
  H      4.719711   -2.943058    2.509479
  H     -0.241766   -1.170241   -1.586749
  H      0.243566   -0.064791   -2.921611
  H     -2.253799    2.782024   -2.591404
  H     -4.038249    2.885436   -2.625530
  H     -2.235611    3.276602   -0.177316
  H     -3.105679    4.553485   -1.040996
  H     -4.005271    3.316463   -0.143115
  H     -3.572937    0.123024    2.459518
  H     -2.289647   -0.844775    1.691140
  H     -1.420637    0.500376    3.619359
  H     -0.648963    0.975301    2.105547
  H     -1.927209    1.989294    2.798097

 Total Charge           Charge          ....    0
 Multiplicity           Mult            ....    1
 Number of Electrons    NEL             ....  202
 Basis Dimension        Dim             ....  334

ORBITAL ENERGIES
----------------

  NO   OCC          E(Eh)            E(eV)
   0   2.0000     -88.046309     -2395.8619
   1   2.0000     -88.041071     -2395.7193
   2   2.0000     -87.981729     -2394.1046
   3   2.0000     -87.974290     -2393.9021
   4   2.0000     -76.428629     -2079.7287
   5   2.0000     -76.419136     -2079.4704
   6   2.0000     -18.799846      -511.5698
   7   2.0000     -18.796399      -511.4760
   8   2.0000     -18.784439      -511.1506
   9   2.0000     -18.783594      -511.1276
  10   2.0000      -9.961474      -271.0655
  11   2.0000      -9.958574      -270.9866
  12   2.0000      -9.954233      -270.8684
  13   2.0000      -9.951094      -270.7830
  14   2.0000      -9.938127      -270.4302
  15   2.0000      -9.893428      -269.2139
  16   2.0000      -9.890790      -269.1421
  17   2.0000      -9.887483      -269.0521
  18   2.0000      -9.869667      -268.5673
  19   2.0000      -7.691218      -209.2887
  20   2.0000      -7.685211      -209.1252
  21   2.0000      -7.626591      -207.5301
  22   2.0000      -7.619618      -207.3403
  23   2.0000      -6.425796      -174.8548
  24   2.0000      -6.416526      -174.6025
  25   2.0000      -5.719070      -155.6238
  26   2.0000      -5.715653      -155.5308
  27   2.0000      -5.712995      -155.4585
  28   2.0000      -5.709752      -155.3702
  29   2.0000      -5.708348      -155.3320
  30   2.0000      -5.702391      -155.1700
  31   2.0000      -5.655614      -153.8971
  32   2.0000      -5.648690      -153.7087
  33   2.0000      -5.647220      -153.6687
  34   2.0000      -5.646636      -153.6528
  35   2.0000      -5.640110      -153.4752
  36   2.0000      -5.639676      -153.4634
  37   2.0000      -4.648827      -126.5010
  38   2.0000      -4.647552      -126.4663
  39   2.0000      -4.645848      -126.4200
  40   2.0000      -4.639166      -126.2381
  41   2.0000      -4.638448      -126.2186
  42   2.0000      -4.636802      -126.1738
  43   2.0000      -0.994190       -27.0533
  44   2.0000      -0.979319       -26.6486
  45   2.0000      -0.950391       -25.8615
  46   2.0000      -0.937163       -25.5015
  47   2.0000      -0.762407       -20.7462
  48   2.0000      -0.722638       -19.6640
  49   2.0000      -0.711117       -19.3505
  50   2.0000      -0.697718       -18.9859
  51   2.0000      -0.684252       -18.6194
  52   2.0000      -0.673760       -18.3340
  53   2.0000      -0.647301       -17.6139
  54   2.0000      -0.629156       -17.1202
  55   2.0000      -0.594763       -16.1843
  56   2.0000      -0.589842       -16.0504
  57   2.0000      -0.578803       -15.7500
  58   2.0000      -0.567830       -15.4515
  59   2.0000      -0.558908       -15.2086
  60   2.0000      -0.511319       -13.9137
  61   2.0000      -0.490851       -13.3567
  62   2.0000      -0.480723       -13.0811
  63   2.0000      -0.468889       -12.7591
  64   2.0000      -0.451235       -12.2787
  65   2.0000      -0.450290       -12.2530
  66   2.0000      -0.446409       -12.1474
  67   2.0000      -0.434805       -11.8317
  68   2.0000      -0.431586       -11.7441
  69   2.0000      -0.419046       -11.4028
  70   2.0000      -0.408384       -11.1127
  71   2.0000      -0.400654       -10.9024
  72   2.0000      -0.395750       -10.7689
  73   2.0000      -0.381614       -10.3843
  74   2.0000      -0.377815       -10.2809
  75   2.0000      -0.371139       -10.0992
  76   2.0000      -0.360505        -9.8098
  77   2.0000      -0.359090        -9.7713
  78   2.0000      -0.354446        -9.6450
  79   2.0000      -0.353163        -9.6101
  80   2.0000      -0.350780        -9.5452
  81   2.0000      -0.347743        -9.4626
  82   2.0000      -0.341898        -9.3035
  83   2.0000      -0.336031        -9.1439
  84   2.0000      -0.324863        -8.8400
  85   2.0000      -0.322210        -8.7678
  86   2.0000      -0.310841        -8.4584
  87   2.0000      -0.306714        -8.3461
  88   2.0000      -0.298281        -8.1166
  89   2.0000      -0.286089        -7.7849
  90   2.0000      -0.280000        -7.6192
  91   2.0000      -0.278702        -7.5839
  92   2.0000      -0.269686        -7.3385
  93   2.0000      -0.263501        -7.1702
  94   2.0000      -0.254659        -6.9296
  95   2.0000      -0.233861        -6.3637
  96   2.0000      -0.220530        -6.0009
  97   2.0000      -0.205698        -5.5973
  98   2.0000      -0.199104        -5.4179
  99   2.0000      -0.190287        -5.1780
 100   2.0000      -0.184165        -5.0114
 101   0.0000      -0.046851        -1.2749
 102   0.0000      -0.032755        -0.8913
 103   0.0000      -0.007317        -0.1991
 104   0.0000       0.009448         0.2571
 105   0.0000       0.014846         0.4040

MULLIKEN ATOMIC CHARGES
-----------------------
   0 C :   -0.316485
   1 C :    0.000312
   2 O :   -0.351024
   3 P :    0.613656
   4 S :   -0.301830
   5 O :   -0.387217
   6 C :   -0.012737
   7 C :   -0.281526
   8 S :   -0.122648
   9 C :   -0.336707
  10 S :   -0.149552
  11 P :    0.609525
  12 S :   -0.298442
  13 O :   -0.360718
  14 C :    0.001258
  15 C :   -0.314959
  16 O :   -0.374623
  17 C :   -0.010434
  18 C :   -0.318478
  19 H :    0.125328
  20 H :    0.125768
  21 H :    0.112759
  22 H :    0.110659
  23 H :    0.112785
  24 H :    0.110993
  25 H :    0.106764
  26 H :    0.115719
  27 H :    0.113782
  28 H :    0.122566
  29 H :    0.218412
  30 H :    0.178442
  31 H :    0.106201
  32 H :    0.110603
  33 H :    0.123910
  34 H :    0.112322
  35 H :    0.126790
  36 H :    0.100124
  37 H :    0.124418
  38 H :    0.105962
  39 H :    0.147466
  40 H :    0.100856
Sum of atomic charges:    0.0000000

LOEWDIN ATOMIC CHARGES
----------------------
   0 C :   -0.369352
   1 C :   -0.107120
   2 O :   -0.227678
   3 P :    0.563905
   4 S :   -0.295855
   5 O :   -0.250802
   6 C :   -0.119218
   7 C :   -0.350384
   8 S :    0.071191
   9 C :   -0.480477
  10 S :    0.056453
  11 P :    0.567408
  12 S :   -0.293800
  13 O :   -0.239654
  14 C :   -0.113768
  15 C :   -0.367047
  16 O :   -0.240236
  17 C :   -0.117990
  18 C :   -0.368554
  19 H :    0.117899
  20 H :    0.126173
  21 H :    0.130618
  22 H :    0.122279
  23 H :    0.114843
  24 H :    0.112880
  25 H :    0.109428
  26 H :    0.132841
  27 H :    0.125404
  28 H :    0.129887
  29 H :    0.124598
  30 H :    0.133877
  31 H :    0.107807
  32 H :    0.122728
  33 H :    0.116946
  34 H :    0.130665
  35 H :    0.130628
  36 H :    0.115668
  37 H :    0.108529
  38 H :    0.129418
  39 H :    0.121997
  40 H :    0.117866

  Mayer bond orders larger than 0.100000
B(  0-C ,  1-C ) :   1.1698 B(  0-C , 19-H ) :   0.9385 B(  0-C , 20-H ) :   0.9420
B(  0-C , 21-H ) :   0.9360 B(  1-C ,  2-O ) :   0.8942 B(  1-C , 22-H ) :   0.9344
B(  1-C , 23-H ) :   0.9257 B(  2-O ,  3-P ) :   1.1232 B(  3-P ,  4-S ) :   1.6652
B(  3-P ,  5-O ) :   1.0807 B(  3-P ,  8-S ) :   0.9317 B(  4-S ,  8-S ) :   0.1105
B(  5-O ,  6-C ) :   0.8997 B(  6-C ,  7-C ) :   1.1599 B(  6-C , 24-H ) :   0.9117
B(  6-C , 25-H ) :   0.9280 B(  7-C , 26-H ) :   0.9416 B(  7-C , 27-H ) :   0.9511
B(  7-C , 28-H ) :   0.9507 B(  8-S ,  9-C ) :   1.0108 B(  9-C , 10-S ) :   0.9885
B(  9-C , 29-H ) :   0.8385 B(  9-C , 30-H ) :   0.9098 B( 10-S , 11-P ) :   0.9266
B( 10-S , 12-S ) :   0.1164 B( 11-P , 12-S ) :   1.6570 B( 11-P , 13-O ) :   1.1372
B( 11-P , 16-O ) :   1.1048 B( 13-O , 14-C ) :   0.9070 B( 14-C , 15-C ) :   1.1690
B( 14-C , 31-H ) :   0.9215 B( 14-C , 32-H ) :   0.9340 B( 15-C , 33-H ) :   0.9376
B( 15-C , 34-H ) :   0.9349 B( 15-C , 35-H ) :   0.9424 B( 16-O , 17-C ) :   0.8983
B( 17-C , 18-C ) :   1.1707 B( 17-C , 36-H ) :   0.9345 B( 17-C , 37-H ) :   0.9010
B( 18-C , 38-H ) :   0.9404 B( 18-C , 39-H ) :   0.9242 B( 18-C , 40-H ) :   0.9453

Dispersion correction           -0.065840563
FINAL SINGLE POINT ENERGY     -2929.514997444156

DIPOLE MOMENT
-------------

Method             : SCF
Type of density    : Electron Density
Multiplicity       :   1
Irrep              :   0
Energy             : -2929.6344938774182083 Eh
Relativity type    :
Basis              : AO
                                X                 Y                 Z
Electronic contribution:    -11.064515468     -12.219331653     -10.588717756
Nuclear contribution   :     12.771436336      13.754885875      10.882500891
                        -----------------------------------------
Total Dipole Moment    :      1.706920867       1.535554221       0.293783135
                        -----------------------------------------
Magnitude (a.u.)       :      2.314695259
Magnitude (Debye)      :      5.883487781

Rotational constants in cm-1:             0.012980             0.004953             0.004697
Rotational constants in MHz :           389.126041           148.472485           140.800506

                             ****ORCA TERMINATED NORMALLY****
TOTAL RUN TIME: 0 days 0 hours 0 minutes 21 seconds 509 msec
