                         Program Version 6.0.1  -  RELEASE   -
|  1> ! pbe def2-sv(p) def2/J RI DEFGRID1 loosescf d4 GCP(DFT/SV(P)) printgap
|  2> %output
|  3>     printlevel normal
|  4> end
|  5> * xyz 0 1
|  6> C 5.3356886948 -2.2394979054 -0.5183054516
|  7> C 4.6036786844 -1.0983613854 0.1699787566
|  8> O 3.1787004478 -1.3112425387 0.1505055554
|  9> C 2.5012476552 -0.9084525632 -0.9026341292
| 10> O 2.981139607 -0.3460097005 -1.8623065079
| 11> C 1.0253144477 -1.2445092031 -0.7742108624
| 12> C 0.2003756225 -0.0871717493 -1.3249702366
| 13> H 0.5979578633 0.1916326658 -2.3082333131
| 14> C 0.2578784511 1.1404222554 -0.44174111
| 15> O -0.6999781825 1.8712051157 -0.267758449
| 16> O 1.434974903 1.3222445236 0.0842118922
| 17> C 1.6075792797 2.4397042857 0.9844006074
| 18> C 3.0152326046 2.3745799125 1.5395442172
| 19> S -1.5478885449 -0.5084879783 -1.6179387961
| 20> P -2.4020295993 -0.0928744361 0.2789589131
| 21> S -1.2680344274 -0.2343177727 1.881699379
| 22> O -3.3754101834 1.1510462898 0.1599711433
| 23> C -3.2396991822 2.3947909697 0.8514620524
| 24> O -3.5825172077 -1.1697838669 0.275002472
| 25> C -3.3056829277 -2.5717337445 0.3613217775
| 26> H 5.0724561784 -2.2703995882 -1.5730641796
| 27> H 6.4058388363 -2.0857112414 -0.4269975909
| 28> H 5.069070957 -3.1868682998 -0.0580940797
| 29> H 4.819016908 -0.1467959793 -0.3237494463
| 30> H 4.857462059 -1.0456277401 1.2286922195
| 31> H 0.7903705548 -1.4487058202 0.270937102
| 32> H 0.8258233468 -2.1369479175 -1.3701831032
| 33> H 1.4276414048 3.3615489703 0.423869933
| 34> H 0.8526615975 2.3528199329 1.7722549659
| 35> H 3.7371297759 2.4287877921 0.7299201069
| 36> H 3.1704469382 3.2082038419 2.2159217786
| 37> H 3.1567227712 1.4428920464 2.0793004336
| 38> H -2.6474376911 2.2648282511 1.7590608714
| 39> H -4.2510813425 2.7084133476 1.1001408624
| 40> H -2.7540425794 3.1178210677 0.1987458957
| 41> H -4.2671839001 -3.0468791897 0.5379143973
| 42> H -2.6261306364 -2.7693530292 1.1925795823
| 43> H -2.8691140488 -2.9266337801 -0.5723475078
| 44> *
| 45>
| 46>                          ****END OF INPUT****

CARTESIAN COORDINATES (ANGSTROEM)
---------------------------------
  C      5.335689   -2.239498   -0.518305
  C      4.603679   -1.098361    0.169979
  O      3.178700   -1.311243    0.150506
  C      2.501248   -0.908453   -0.902634
  O      2.981140   -0.346010   -1.862307
  C      1.025314   -1.244509   -0.774211
  C      0.200376   -0.087172   -1.324970
  H      0.597958    0.191633   -2.308233
  C      0.257878    1.140422   -0.441741
  O     -0.699978    1.871205   -0.267758
  O      1.434975    1.322245    0.084212
  C      1.607579    2.439704    0.984401
  C      3.015233    2.374580    1.539544
  S     -1.547889   -0.508488   -1.617939
  P     -2.402030   -0.092874    0.278959
  S     -1.268034   -0.234318    1.881699
  O     -3.375410    1.151046    0.159971
  C     -3.239699    2.394791    0.851462
  O     -3.582517   -1.169784    0.275002
  C     -3.305683   -2.571734    0.361322
  H      5.072456   -2.270400   -1.573064
  H      6.405839   -2.085711   -0.426998
  H      5.069071   -3.186868   -0.058094
  H      4.819017   -0.146796   -0.323749
  H      4.857462   -1.045628    1.228692
  H      0.790371   -1.448706    0.270937
  H      0.825823   -2.136948   -1.370183
  H      1.427641    3.361549    0.423870
  H      0.852662    2.352820    1.772255
  H      3.737130    2.428788    0.729920
  H      3.170447    3.208204    2.215922
  H      3.156723    1.442892    2.079300
  H     -2.647438    2.264828    1.759061
  H     -4.251081    2.708413    1.100141
  H     -2.754043    3.117821    0.198746
  H     -4.267184   -3.046879    0.537914
  H     -2.626131   -2.769353    1.192580
  H     -2.869114   -2.926634   -0.572348

 Total Charge           Charge          ....    0
 Multiplicity           Mult            ....    1
 Number of Electrons    NEL             ....  174
 Basis Dimension        Dim             ....  316

ORBITAL ENERGIES
----------------

  NO   OCC          E(Eh)            E(eV)
   0   2.0000     -88.036852     -2395.6045
   1   2.0000     -87.980773     -2394.0785
   2   2.0000     -76.423168     -2079.5801
   3   2.0000     -18.820549      -512.1332
   4   2.0000     -18.804696      -511.7018
   5   2.0000     -18.782438      -511.0961
   6   2.0000     -18.780511      -511.0437
   7   2.0000     -18.749297      -510.1943
   8   2.0000     -18.740092      -509.9438
   9   2.0000     -10.026411      -272.8325
  10   2.0000     -10.011693      -272.4320
  11   2.0000      -9.956654      -270.9343
  12   2.0000      -9.951335      -270.7896
  13   2.0000      -9.948945      -270.7246
  14   2.0000      -9.936648      -270.3899
  15   2.0000      -9.933035      -270.2916
  16   2.0000      -9.906531      -269.5704
  17   2.0000      -9.895283      -269.2643
  18   2.0000      -9.890352      -269.1302
  19   2.0000      -7.681981      -209.0373
  20   2.0000      -7.625731      -207.5067
  21   2.0000      -6.419309      -174.6783
  22   2.0000      -5.710069      -155.3789
  23   2.0000      -5.706498      -155.2817
  24   2.0000      -5.698709      -155.0697
  25   2.0000      -5.654626      -153.8702
  26   2.0000      -5.646513      -153.6494
  27   2.0000      -5.645705      -153.6274
  28   2.0000      -4.641627      -126.3051
  29   2.0000      -4.641429      -126.2997
  30   2.0000      -4.639945      -126.2593
  31   2.0000      -1.030191       -28.0329
  32   2.0000      -1.012578       -27.5537
  33   2.0000      -0.976992       -26.5853
  34   2.0000      -0.933587       -25.4042
  35   2.0000      -0.928703       -25.2713
  36   2.0000      -0.917829       -24.9754
  37   2.0000      -0.765907       -20.8414
  38   2.0000      -0.716619       -19.5002
  39   2.0000      -0.712899       -19.3990
  40   2.0000      -0.690528       -18.7902
  41   2.0000      -0.656185       -17.8557
  42   2.0000      -0.629674       -17.1343
  43   2.0000      -0.621072       -16.9002
  44   2.0000      -0.615507       -16.7488
  45   2.0000      -0.596440       -16.2300
  46   2.0000      -0.564087       -15.3496
  47   2.0000      -0.520143       -14.1538
  48   2.0000      -0.505432       -13.7535
  49   2.0000      -0.502553       -13.6751
  50   2.0000      -0.480072       -13.0634
  51   2.0000      -0.467375       -12.7179
  52   2.0000      -0.463448       -12.6111
  53   2.0000      -0.451240       -12.2789
  54   2.0000      -0.442606       -12.0439
  55   2.0000      -0.435098       -11.8396
  56   2.0000      -0.421203       -11.4615
  57   2.0000      -0.415276       -11.3002
  58   2.0000      -0.413453       -11.2506
  59   2.0000      -0.404182       -10.9984
  60   2.0000      -0.402786       -10.9604
  61   2.0000      -0.391626       -10.6567
  62   2.0000      -0.388014       -10.5584
  63   2.0000      -0.384210       -10.4549
  64   2.0000      -0.380487       -10.3536
  65   2.0000      -0.368147       -10.0178
  66   2.0000      -0.365349        -9.9416
  67   2.0000      -0.360784        -9.8174
  68   2.0000      -0.351221        -9.5572
  69   2.0000      -0.345583        -9.4038
  70   2.0000      -0.336178        -9.1479
  71   2.0000      -0.328133        -8.9290
  72   2.0000      -0.325655        -8.8615
  73   2.0000      -0.313214        -8.5230
  74   2.0000      -0.305935        -8.3249
  75   2.0000      -0.296715        -8.0740
  76   2.0000      -0.295404        -8.0383
  77   2.0000      -0.285691        -7.7740
  78   2.0000      -0.275772        -7.5041
  79   2.0000      -0.263021        -7.1572
  80   2.0000      -0.261272        -7.1096
  81   2.0000      -0.252832        -6.8799
  82   2.0000      -0.237390        -6.4597
  83   2.0000      -0.231464        -6.2984
  84   2.0000      -0.216135        -5.8813
  85   2.0000      -0.198014        -5.3882
  86   2.0000      -0.195937        -5.3317
  87   0.0000      -0.049031        -1.3342
  88   0.0000      -0.030883        -0.8404
  89   0.0000      -0.018752        -0.5103
  90   0.0000       0.007689         0.2092
  91   0.0000       0.028016         0.7623

MULLIKEN ATOMIC CHARGES
-----------------------
   0 C :   -0.300880
   1 C :   -0.022276
   2 O :   -0.224409
   3 C :    0.116045
   4 O :   -0.215282
   5 C :   -0.054728
   6 C :   -0.302727
   7 H :    0.168093
   8 C :    0.192803
   9 O :   -0.207045
  10 O :   -0.212132
  11 C :   -0.028316
  12 C :   -0.288003
  13 S :   -0.078064
  14 P :    0.621498
  15 S :   -0.350138
  16 O :   -0.364150
  17 C :   -0.089649
  18 O :   -0.369051
  19 C :   -0.100522
  20 H :    0.126942
  21 H :    0.113201
  22 H :    0.115632
  23 H :    0.111002
  24 H :    0.104660
  25 H :    0.117119
  26 H :    0.118947
  27 H :    0.109049
  28 H :    0.119894
  29 H :    0.124206
  30 H :    0.114743
  31 H :    0.125990
  32 H :    0.114064
  33 H :    0.117960
  34 H :    0.126724
  35 H :    0.124428
  36 H :    0.112609
  37 H :    0.111764
Sum of atomic charges:    0.0000000

LOEWDIN ATOMIC CHARGES
----------------------
   0 C :   -0.355518
   1 C :   -0.111651
   2 O :   -0.052433
   3 C :    0.027058
   4 O :   -0.176782
   5 C :   -0.256202
   6 C :   -0.266174
   7 H :    0.158659
   8 C :    0.016082
   9 O :   -0.168991
  10 O :   -0.026262
  11 C :   -0.101990
  12 C :   -0.351689
  13 S :    0.112586
  14 P :    0.588534
  15 S :   -0.332395
  16 O :   -0.234183
  17 C :   -0.207066
  18 O :   -0.253442
  19 C :   -0.219813
  20 H :    0.130696
  21 H :    0.130972
  22 H :    0.125698
  23 H :    0.119235
  24 H :    0.117554
  25 H :    0.133082
  26 H :    0.145169
  27 H :    0.119167
  28 H :    0.122477
  29 H :    0.128273
  30 H :    0.133041
  31 H :    0.129662
  32 H :    0.107629
  33 H :    0.117215
  34 H :    0.116639
  35 H :    0.122139
  36 H :    0.107931
  37 H :    0.105093

  Mayer bond orders larger than 0.100000
B(  0-C ,  1-C ) :   1.1742 B(  0-C , 20-H ) :   0.9458 B(  0-C , 21-H ) :   0.9442
B(  0-C , 22-H ) :   0.9485 B(  1-C ,  2-O ) :   0.9154 B(  1-C , 23-H ) :   0.9117
B(  1-C , 24-H ) :   0.9356 B(  2-O ,  3-C ) :   1.2449 B(  3-C ,  4-O ) :   2.0242
B(  3-C ,  5-C ) :   0.9919 B(  5-C ,  6-C ) :   1.0272 B(  5-C , 25-H ) :   0.8886
B(  5-C , 26-H ) :   0.8809 B(  6-C ,  7-H ) :   0.8466 B(  6-C ,  8-C ) :   0.9203
B(  6-C , 13-S ) :   1.0213 B(  8-C ,  9-O ) :   1.9610 B(  8-C , 10-O ) :   1.2820
B( 10-O , 11-C ) :   0.8879 B( 11-C , 12-C ) :   1.1581 B( 11-C , 27-H ) :   0.9322
B( 11-C , 28-H ) :   0.9234 B( 12-C , 29-H ) :   0.9463 B( 12-C , 30-H ) :   0.9411
B( 12-C , 31-H ) :   0.9464 B( 13-S , 14-P ) :   0.9441 B( 13-S , 15-S ) :   0.1152
B( 14-P , 15-S ) :   1.5507 B( 14-P , 16-O ) :   1.1473 B( 14-P , 18-O ) :   1.0994
B( 16-O , 17-C ) :   0.9236 B( 17-C , 32-H ) :   0.9362 B( 17-C , 33-H ) :   0.9542
B( 17-C , 34-H ) :   0.9504 B( 18-O , 19-C ) :   0.9400 B( 19-C , 35-H ) :   0.9592
B( 19-C , 36-H ) :   0.9350 B( 19-C , 37-H ) :   0.9437

Dispersion correction           -0.052421653
FINAL SINGLE POINT ENERGY     -1979.018294100001

DIPOLE MOMENT
-------------

Method             : SCF
Type of density    : Electron Density
Multiplicity       :   1
Irrep              :   0
Energy             : -1979.1491784128993459 Eh
Relativity type    :
Basis              : AO
                                X                 Y                 Z
Electronic contribution:    -21.134484766      -0.102905454      -5.758238972
Nuclear contribution   :     22.273289941       0.139180886       6.172978214
                        -----------------------------------------
Total Dipole Moment    :      1.138805174       0.036275432       0.414739242
                        -----------------------------------------
Magnitude (a.u.)       :      1.212518771
Magnitude (Debye)      :      3.081977788

Rotational constants in cm-1:             0.016186             0.006217             0.005402
Rotational constants in MHz :           485.247229           186.373889           161.956891

                             ****ORCA TERMINATED NORMALLY****
TOTAL RUN TIME: 0 days 0 hours 0 minutes 43 seconds 459 msec
