                         Program Version 6.0.0  -   RELEASE  -
|  1> ! r2scan-3c def2/J RI DEFGRID2 scfconv6 printgap
|  2> %output
|  3>     printlevel normal
|  4> end
|  5> * xyz 0 1
|  6> C 4.0461843266 0.0945239089 -2.4202991821
|  7> C 4.4886081963 -0.2531571781 -1.0128544852
|  8> O 3.3748620206 -0.5481479039 -0.1560412286
|  9> P 2.3582664645 0.5899131825 0.3212483609
| 10> S 3.1717769332 2.3325327856 0.6819402791
| 11> O 1.6354522933 -0.1207820131 1.5393335426
| 12> C 2.1260957286 -0.015687519 2.8916842073
| 13> C 3.4502441647 -0.7270136159 3.0710970943
| 14> S 0.7714625424 0.5373764227 -1.0785943094
| 15> C 0.3577526958 -1.2285138582 -0.941399541
| 16> S -0.7942242407 -1.6038196599 0.4091426387
| 17> P -2.5058490337 -0.6434952679 -0.374756105
| 18> S -2.4527232258 -0.2506085776 -2.3012179003
| 19> O -2.8488064888 0.6195246819 0.5396740033
| 20> C -2.3062306779 1.934547127 0.3413142509
| 21> C -1.2932419245 2.2538321504 1.4233438255
| 22> O -3.5627313129 -1.6918936547 0.1565293358
| 23> C -4.9552220356 -1.398294091 0.405338864
| 24> C -5.6851657232 -0.965077771 -0.8491850523
| 25> H 3.4362822631 -0.7020085115 -2.839256509
| 26> H 3.4618290407 1.014564217 -2.4089191647
| 27> H 4.9206149194 0.2422990088 -3.0458942043
| 28> H 5.0515922939 0.5774785365 -0.5751055706
| 29> H 5.0897629385 -1.1632405918 -0.9910129874
| 30> H 2.220337487 1.0455428343 3.1431226761
| 31> H 1.3355138348 -0.4736938859 3.4877399606
| 32> H 3.724191166 -0.7154716911 4.1214066959
| 33> H 3.3740899024 -1.7554404896 2.7280169174
| 34> H 4.224662804 -0.2182732739 2.4986343469
| 35> H 1.2615908926 -1.8014722889 -0.7524717595
| 36> H -0.1028046603 -1.4980455503 -1.8909413562
| 37> H -1.8601873757 1.9956697651 -0.657311618
| 38> H -3.1605458166 2.612473218 0.3955184826
| 39> H -0.9178351645 3.2619196285 1.2776108819
| 40> H -1.7555760388 2.1764556697 2.4032588627
| 41> H -0.4546630736 1.5611885274 1.379210949
| 42> H -5.3462669416 -2.3416918467 0.7901556862
| 43> H -5.0127981809 -0.6283024408 1.1776109731
| 44> H -5.2743769029 -0.0259379613 -1.2177036498
| 45> H -5.5758144091 -1.7156659572 -1.6284035315
| 46> H -6.7386325543 -0.8287421907 -0.6259088456
| 47> *
| 48>
| 49>                          ****END OF INPUT****

CARTESIAN COORDINATES (ANGSTROEM)
---------------------------------
  C      4.046184    0.094524   -2.420299
  C      4.488608   -0.253157   -1.012854
  O      3.374862   -0.548148   -0.156041
  P      2.358266    0.589913    0.321248
  S      3.171777    2.332533    0.681940
  O      1.635452   -0.120782    1.539334
  C      2.126096   -0.015688    2.891684
  C      3.450244   -0.727014    3.071097
  S      0.771463    0.537376   -1.078594
  C      0.357753   -1.228514   -0.941400
  S     -0.794224   -1.603820    0.409143
  P     -2.505849   -0.643495   -0.374756
  S     -2.452723   -0.250609   -2.301218
  O     -2.848806    0.619525    0.539674
  C     -2.306231    1.934547    0.341314
  C     -1.293242    2.253832    1.423344
  O     -3.562731   -1.691894    0.156529
  C     -4.955222   -1.398294    0.405339
  C     -5.685166   -0.965078   -0.849185
  H      3.436282   -0.702009   -2.839257
  H      3.461829    1.014564   -2.408919
  H      4.920615    0.242299   -3.045894
  H      5.051592    0.577479   -0.575106
  H      5.089763   -1.163241   -0.991013
  H      2.220337    1.045543    3.143123
  H      1.335514   -0.473694    3.487740
  H      3.724191   -0.715472    4.121407
  H      3.374090   -1.755440    2.728017
  H      4.224663   -0.218273    2.498634
  H      1.261591   -1.801472   -0.752472
  H     -0.102805   -1.498046   -1.890941
  H     -1.860187    1.995670   -0.657312
  H     -3.160546    2.612473    0.395518
  H     -0.917835    3.261920    1.277611
  H     -1.755576    2.176456    2.403259
  H     -0.454663    1.561189    1.379211
  H     -5.346267   -2.341692    0.790156
  H     -5.012798   -0.628302    1.177611
  H     -5.274377   -0.025938   -1.217704
  H     -5.575814   -1.715666   -1.628404
  H     -6.738633   -0.828742   -0.625909

 Total Charge           Charge          ....    0
 Multiplicity           Mult            ....    1
 Number of Electrons    NEL             ....  202
 Basis Dimension        Dim             ....  539

ORBITAL ENERGIES
----------------

  NO   OCC          E(Eh)            E(eV)
   0   2.0000     -88.575236     -2410.2547
   1   2.0000     -88.573779     -2410.2151
   2   2.0000     -88.525075     -2408.8898
   3   2.0000     -88.520334     -2408.7607
   4   2.0000     -76.915520     -2092.9777
   5   2.0000     -76.914928     -2092.9616
   6   2.0000     -18.994012      -516.8534
   7   2.0000     -18.992758      -516.8192
   8   2.0000     -18.991084      -516.7737
   9   2.0000     -18.989944      -516.7426
  10   2.0000     -10.106811      -275.0203
  11   2.0000     -10.101942      -274.8878
  12   2.0000     -10.100834      -274.8577
  13   2.0000     -10.100226      -274.8411
  14   2.0000     -10.092621      -274.6342
  15   2.0000     -10.031867      -272.9810
  16   2.0000     -10.029885      -272.9271
  17   2.0000     -10.028434      -272.8876
  18   2.0000     -10.020145      -272.6620
  19   2.0000      -7.869247      -214.1331
  20   2.0000      -7.867996      -214.0991
  21   2.0000      -7.819655      -212.7836
  22   2.0000      -7.815073      -212.6590
  23   2.0000      -6.594064      -179.4336
  24   2.0000      -6.592933      -179.4028
  25   2.0000      -5.816556      -158.2765
  26   2.0000      -5.814941      -158.2326
  27   2.0000      -5.812835      -158.1753
  28   2.0000      -5.811824      -158.1478
  29   2.0000      -5.806246      -157.9960
  30   2.0000      -5.805089      -157.9645
  31   2.0000      -5.767273      -156.9355
  32   2.0000      -5.762723      -156.8117
  33   2.0000      -5.760037      -156.7386
  34   2.0000      -5.759619      -156.7272
  35   2.0000      -5.755457      -156.6140
  36   2.0000      -5.754990      -156.6012
  37   2.0000      -4.739403      -128.9657
  38   2.0000      -4.739126      -128.9582
  39   2.0000      -4.738680      -128.9460
  40   2.0000      -4.737808      -128.9223
  41   2.0000      -4.737781      -128.9216
  42   2.0000      -4.736586      -128.8891
  43   2.0000      -1.052417       -28.6377
  44   2.0000      -1.049728       -28.5646
  45   2.0000      -1.013943       -27.5908
  46   2.0000      -1.007618       -27.4187
  47   2.0000      -0.800708       -21.7884
  48   2.0000      -0.760262       -20.6878
  49   2.0000      -0.747893       -20.3512
  50   2.0000      -0.733578       -19.9617
  51   2.0000      -0.729657       -19.8550
  52   2.0000      -0.710822       -19.3424
  53   2.0000      -0.689792       -18.7702
  54   2.0000      -0.669330       -18.2134
  55   2.0000      -0.632834       -17.2203
  56   2.0000      -0.624158       -16.9842
  57   2.0000      -0.608131       -16.5481
  58   2.0000      -0.605676       -16.4813
  59   2.0000      -0.591296       -16.0900
  60   2.0000      -0.524766       -14.2796
  61   2.0000      -0.519847       -14.1458
  62   2.0000      -0.495232       -13.4760
  63   2.0000      -0.492351       -13.3976
  64   2.0000      -0.481940       -13.1143
  65   2.0000      -0.465831       -12.6759
  66   2.0000      -0.461272       -12.5519
  67   2.0000      -0.446354       -12.1459
  68   2.0000      -0.441950       -12.0261
  69   2.0000      -0.432898       -11.7797
  70   2.0000      -0.431492       -11.7415
  71   2.0000      -0.416152       -11.3241
  72   2.0000      -0.414678       -11.2840
  73   2.0000      -0.407516       -11.0891
  74   2.0000      -0.398138       -10.8339
  75   2.0000      -0.388995       -10.5851
  76   2.0000      -0.379825       -10.3356
  77   2.0000      -0.373856       -10.1731
  78   2.0000      -0.365865        -9.9557
  79   2.0000      -0.364617        -9.9217
  80   2.0000      -0.363858        -9.9011
  81   2.0000      -0.360011        -9.7964
  82   2.0000      -0.353577        -9.6213
  83   2.0000      -0.348860        -9.4930
  84   2.0000      -0.345662        -9.4060
  85   2.0000      -0.338942        -9.2231
  86   2.0000      -0.329412        -8.9638
  87   2.0000      -0.311708        -8.4820
  88   2.0000      -0.308495        -8.3946
  89   2.0000      -0.307082        -8.3561
  90   2.0000      -0.303068        -8.2469
  91   2.0000      -0.291552        -7.9335
  92   2.0000      -0.289061        -7.8657
  93   2.0000      -0.280664        -7.6373
  94   2.0000      -0.272703        -7.4206
  95   2.0000      -0.244065        -6.6413
  96   2.0000      -0.230300        -6.2668
  97   2.0000      -0.223613        -6.0848
  98   2.0000      -0.220674        -6.0048
  99   2.0000      -0.217329        -5.9138
 100   2.0000      -0.213501        -5.8096
 101   0.0000      -0.043274        -1.1775
 102   0.0000      -0.025151        -0.6844
 103   0.0000      -0.013193        -0.3590
 104   0.0000       0.001209         0.0329
 105   0.0000       0.010212         0.2779

MULLIKEN ATOMIC CHARGES
-----------------------
   0 C :   -0.428532
   1 C :   -0.161536
   2 O :   -0.298169
   3 P :    0.668208
   4 S :   -0.460789
   5 O :   -0.270897
   6 C :   -0.163905
   7 C :   -0.435897
   8 S :   -0.137069
   9 C :   -0.245895
  10 S :   -0.105119
  11 P :    0.660825
  12 S :   -0.451571
  13 O :   -0.281697
  14 C :   -0.139583
  15 C :   -0.438410
  16 O :   -0.305248
  17 C :   -0.144209
  18 C :   -0.441305
  19 H :    0.150799
  20 H :    0.173139
  21 H :    0.147677
  22 H :    0.170372
  23 H :    0.148100
  24 H :    0.172365
  25 H :    0.155965
  26 H :    0.148267
  27 H :    0.155842
  28 H :    0.166696
  29 H :    0.204984
  30 H :    0.218336
  31 H :    0.171100
  32 H :    0.145718
  33 H :    0.152623
  34 H :    0.144569
  35 H :    0.170226
  36 H :    0.148749
  37 H :    0.159240
  38 H :    0.166866
  39 H :    0.162986
  40 H :    0.146177
Sum of atomic charges:   -0.0000000

LOEWDIN ATOMIC CHARGES
----------------------
   0 C :   -0.402737
   1 C :    0.017187
   2 O :   -0.685201
   3 P :    0.367388
   4 S :   -0.110460
   5 O :   -0.696884
   6 C :    0.023120
   7 C :   -0.398451
   8 S :    0.166480
   9 C :   -0.414966
  10 S :    0.187374
  11 P :    0.386558
  12 S :   -0.121948
  13 O :   -0.671137
  14 C :    0.017685
  15 C :   -0.400423
  16 O :   -0.662720
  17 C :    0.032153
  18 C :   -0.401647
  19 H :    0.158344
  20 H :    0.166556
  21 H :    0.159539
  22 H :    0.179926
  23 H :    0.178834
  24 H :    0.180435
  25 H :    0.182123
  26 H :    0.159934
  27 H :    0.161135
  28 H :    0.164756
  29 H :    0.191251
  30 H :    0.193675
  31 H :    0.182616
  32 H :    0.174816
  33 H :    0.163489
  34 H :    0.155355
  35 H :    0.170579
  36 H :    0.181223
  37 H :    0.175908
  38 H :    0.165574
  39 H :    0.164510
  40 H :    0.158051

  Mayer bond orders larger than 0.100000
B(  0-C ,  1-C ) :   0.9328 B(  0-C , 19-H ) :   0.9691 B(  0-C , 20-H ) :   0.9603
B(  0-C , 21-H ) :   0.9603 B(  1-C ,  2-O ) :   0.8102 B(  1-C , 22-H ) :   0.9615
B(  1-C , 23-H ) :   0.9588 B(  2-O ,  3-P ) :   1.0221 B(  3-P ,  4-S ) :   1.8104
B(  3-P ,  5-O ) :   1.1053 B(  3-P ,  8-S ) :   1.0654 B(  5-O ,  6-C ) :   0.7959
B(  6-C ,  7-C ) :   0.9220 B(  6-C , 24-H ) :   0.9628 B(  6-C , 25-H ) :   0.9620
B(  7-C , 26-H ) :   0.9613 B(  7-C , 27-H ) :   0.9719 B(  7-C , 28-H ) :   0.9603
B(  8-S ,  9-C ) :   0.8890 B(  9-C , 10-S ) :   0.9150 B(  9-C , 29-H ) :   0.9142
B(  9-C , 30-H ) :   0.9101 B( 10-S , 11-P ) :   1.0882 B( 11-P , 12-S ) :   1.7726
B( 11-P , 13-O ) :   1.0350 B( 11-P , 16-O ) :   1.1695 B( 13-O , 14-C ) :   0.7654
B( 14-C , 15-C ) :   0.9511 B( 14-C , 31-H ) :   0.9545 B( 14-C , 32-H ) :   0.9641
B( 15-C , 33-H ) :   0.9645 B( 15-C , 34-H ) :   0.9734 B( 15-C , 35-H ) :   0.9533
B( 16-O , 17-C ) :   0.7924 B( 17-C , 18-C ) :   0.9414 B( 17-C , 36-H ) :   0.9583
B( 17-C , 37-H ) :   0.9697 B( 18-C , 38-H ) :   0.9552 B( 18-C , 39-H ) :   0.9670
B( 18-C , 40-H ) :   0.9633

Dispersion correction           -0.021580107
FINAL SINGLE POINT ENERGY     -2932.462437864426

DIPOLE MOMENT
-------------

Method             : SCF
Type of density    : Electron Density
Multiplicity       :   1
Irrep              :   0
Energy             : -2932.4874275372612829 Eh
Relativity type    :
Basis              : AO
                                X                 Y                 Z
Electronic contribution:     -1.871195633      -1.248666594      -5.600328271
Nuclear contribution   :      1.874390769       0.573987337       6.495679661
                        -----------------------------------------
Total Dipole Moment    :      0.003195135      -0.674679257       0.895351389
                        -----------------------------------------
Magnitude (a.u.)       :      1.121096079
Magnitude (Debye)      :      2.849599772

Rotational constants in cm-1:             0.014361             0.004425             0.004197
Rotational constants in MHz :           430.525146           132.646921           125.824065

                             ****ORCA TERMINATED NORMALLY****
TOTAL RUN TIME: 0 days 0 hours 1 minutes 18 seconds 977 msec
