                         Program Version 6.0.0  -   RELEASE  -
|  1> ! r2scan-3c def2/J RI DEFGRID2 scfconv6 printgap
|  2> %output
|  3>     printlevel normal
|  4> end
|  5> %cpcm
|  6>     smd true
|  7>     smdsolvent "water"
|  8> end
|  9> * xyz 0 1
| 10> C 4.0461843266 0.0945239089 -2.4202991821
| 11> C 4.4886081963 -0.2531571781 -1.0128544852
| 12> O 3.3748620206 -0.5481479039 -0.1560412286
| 13> P 2.3582664645 0.5899131825 0.3212483609
| 14> S 3.1717769332 2.3325327856 0.6819402791
| 15> O 1.6354522933 -0.1207820131 1.5393335426
| 16> C 2.1260957286 -0.015687519 2.8916842073
| 17> C 3.4502441647 -0.7270136159 3.0710970943
| 18> S 0.7714625424 0.5373764227 -1.0785943094
| 19> C 0.3577526958 -1.2285138582 -0.941399541
| 20> S -0.7942242407 -1.6038196599 0.4091426387
| 21> P -2.5058490337 -0.6434952679 -0.374756105
| 22> S -2.4527232258 -0.2506085776 -2.3012179003
| 23> O -2.8488064888 0.6195246819 0.5396740033
| 24> C -2.3062306779 1.934547127 0.3413142509
| 25> C -1.2932419245 2.2538321504 1.4233438255
| 26> O -3.5627313129 -1.6918936547 0.1565293358
| 27> C -4.9552220356 -1.398294091 0.405338864
| 28> C -5.6851657232 -0.965077771 -0.8491850523
| 29> H 3.4362822631 -0.7020085115 -2.839256509
| 30> H 3.4618290407 1.014564217 -2.4089191647
| 31> H 4.9206149194 0.2422990088 -3.0458942043
| 32> H 5.0515922939 0.5774785365 -0.5751055706
| 33> H 5.0897629385 -1.1632405918 -0.9910129874
| 34> H 2.220337487 1.0455428343 3.1431226761
| 35> H 1.3355138348 -0.4736938859 3.4877399606
| 36> H 3.724191166 -0.7154716911 4.1214066959
| 37> H 3.3740899024 -1.7554404896 2.7280169174
| 38> H 4.224662804 -0.2182732739 2.4986343469
| 39> H 1.2615908926 -1.8014722889 -0.7524717595
| 40> H -0.1028046603 -1.4980455503 -1.8909413562
| 41> H -1.8601873757 1.9956697651 -0.657311618
| 42> H -3.1605458166 2.612473218 0.3955184826
| 43> H -0.9178351645 3.2619196285 1.2776108819
| 44> H -1.7555760388 2.1764556697 2.4032588627
| 45> H -0.4546630736 1.5611885274 1.379210949
| 46> H -5.3462669416 -2.3416918467 0.7901556862
| 47> H -5.0127981809 -0.6283024408 1.1776109731
| 48> H -5.2743769029 -0.0259379613 -1.2177036498
| 49> H -5.5758144091 -1.7156659572 -1.6284035315
| 50> H -6.7386325543 -0.8287421907 -0.6259088456
| 51> *
| 52>
| 53>                          ****END OF INPUT****

CARTESIAN COORDINATES (ANGSTROEM)
---------------------------------
  C      4.046184    0.094524   -2.420299
  C      4.488608   -0.253157   -1.012854
  O      3.374862   -0.548148   -0.156041
  P      2.358266    0.589913    0.321248
  S      3.171777    2.332533    0.681940
  O      1.635452   -0.120782    1.539334
  C      2.126096   -0.015688    2.891684
  C      3.450244   -0.727014    3.071097
  S      0.771463    0.537376   -1.078594
  C      0.357753   -1.228514   -0.941400
  S     -0.794224   -1.603820    0.409143
  P     -2.505849   -0.643495   -0.374756
  S     -2.452723   -0.250609   -2.301218
  O     -2.848806    0.619525    0.539674
  C     -2.306231    1.934547    0.341314
  C     -1.293242    2.253832    1.423344
  O     -3.562731   -1.691894    0.156529
  C     -4.955222   -1.398294    0.405339
  C     -5.685166   -0.965078   -0.849185
  H      3.436282   -0.702009   -2.839257
  H      3.461829    1.014564   -2.408919
  H      4.920615    0.242299   -3.045894
  H      5.051592    0.577479   -0.575106
  H      5.089763   -1.163241   -0.991013
  H      2.220337    1.045543    3.143123
  H      1.335514   -0.473694    3.487740
  H      3.724191   -0.715472    4.121407
  H      3.374090   -1.755440    2.728017
  H      4.224663   -0.218273    2.498634
  H      1.261591   -1.801472   -0.752472
  H     -0.102805   -1.498046   -1.890941
  H     -1.860187    1.995670   -0.657312
  H     -3.160546    2.612473    0.395518
  H     -0.917835    3.261920    1.277611
  H     -1.755576    2.176456    2.403259
  H     -0.454663    1.561189    1.379211
  H     -5.346267   -2.341692    0.790156
  H     -5.012798   -0.628302    1.177611
  H     -5.274377   -0.025938   -1.217704
  H     -5.575814   -1.715666   -1.628404
  H     -6.738633   -0.828742   -0.625909

 Total Charge           Charge          ....    0
 Multiplicity           Mult            ....    1
 Number of Electrons    NEL             ....  202
 Basis Dimension        Dim             ....  539

ORBITAL ENERGIES
----------------

  NO   OCC          E(Eh)            E(eV)
   0   2.0000     -88.578916     -2410.3548
   1   2.0000     -88.577657     -2410.3206
   2   2.0000     -88.531166     -2409.0555
   3   2.0000     -88.528839     -2408.9922
   4   2.0000     -76.920862     -2093.1231
   5   2.0000     -76.918382     -2093.0556
   6   2.0000     -18.994646      -516.8706
   7   2.0000     -18.993534      -516.8403
   8   2.0000     -18.992474      -516.8115
   9   2.0000     -18.991753      -516.7919
  10   2.0000     -10.105221      -274.9771
  11   2.0000     -10.091290      -274.5979
  12   2.0000     -10.089893      -274.5600
  13   2.0000     -10.088450      -274.5207
  14   2.0000     -10.088394      -274.5191
  15   2.0000     -10.018778      -272.6248
  16   2.0000     -10.018538      -272.6183
  17   2.0000     -10.018117      -272.6068
  18   2.0000     -10.016085      -272.5515
  19   2.0000      -7.873118      -214.2384
  20   2.0000      -7.871807      -214.2028
  21   2.0000      -7.826098      -212.9590
  22   2.0000      -7.823886      -212.8988
  23   2.0000      -6.598940      -179.5663
  24   2.0000      -6.596929      -179.5116
  25   2.0000      -5.820027      -158.3710
  26   2.0000      -5.819093      -158.3456
  27   2.0000      -5.816891      -158.2857
  28   2.0000      -5.815369      -158.2442
  29   2.0000      -5.810325      -158.1070
  30   2.0000      -5.808841      -158.0666
  31   2.0000      -5.773629      -157.1084
  32   2.0000      -5.771463      -157.0495
  33   2.0000      -5.766478      -156.9138
  34   2.0000      -5.766086      -156.9032
  35   2.0000      -5.764218      -156.8523
  36   2.0000      -5.763869      -156.8429
  37   2.0000      -4.744659      -129.1087
  38   2.0000      -4.743767      -129.0845
  39   2.0000      -4.742664      -129.0545
  40   2.0000      -4.742200      -129.0418
  41   2.0000      -4.741971      -129.0356
  42   2.0000      -4.740806      -129.0039
  43   2.0000      -1.052889       -28.6506
  44   2.0000      -1.050774       -28.5930
  45   2.0000      -1.011596       -27.5269
  46   2.0000      -1.010373       -27.4936
  47   2.0000      -0.801972       -21.8228
  48   2.0000      -0.757371       -20.6091
  49   2.0000      -0.741933       -20.1890
  50   2.0000      -0.724421       -19.7125
  51   2.0000      -0.722851       -19.6698
  52   2.0000      -0.709100       -19.2956
  53   2.0000      -0.692877       -18.8541
  54   2.0000      -0.675352       -18.3773
  55   2.0000      -0.630003       -17.1433
  56   2.0000      -0.621519       -16.9124
  57   2.0000      -0.601968       -16.3804
  58   2.0000      -0.598908       -16.2971
  59   2.0000      -0.589810       -16.0496
  60   2.0000      -0.522239       -14.2109
  61   2.0000      -0.514274       -13.9941
  62   2.0000      -0.490293       -13.3416
  63   2.0000      -0.488454       -13.2915
  64   2.0000      -0.479980       -13.0609
  65   2.0000      -0.461268       -12.5517
  66   2.0000      -0.454836       -12.3767
  67   2.0000      -0.440119       -11.9763
  68   2.0000      -0.438243       -11.9252
  69   2.0000      -0.432260       -11.7624
  70   2.0000      -0.427089       -11.6217
  71   2.0000      -0.413621       -11.2552
  72   2.0000      -0.406678       -11.0663
  73   2.0000      -0.403973       -10.9927
  74   2.0000      -0.397159       -10.8073
  75   2.0000      -0.387801       -10.5526
  76   2.0000      -0.377756       -10.2793
  77   2.0000      -0.365510        -9.9460
  78   2.0000      -0.361489        -9.8366
  79   2.0000      -0.359433        -9.7807
  80   2.0000      -0.354442        -9.6449
  81   2.0000      -0.352698        -9.5974
  82   2.0000      -0.347949        -9.4682
  83   2.0000      -0.345431        -9.3997
  84   2.0000      -0.342057        -9.3078
  85   2.0000      -0.336157        -9.1473
  86   2.0000      -0.326341        -8.8802
  87   2.0000      -0.307642        -8.3714
  88   2.0000      -0.303344        -8.2544
  89   2.0000      -0.302800        -8.2396
  90   2.0000      -0.300851        -8.1866
  91   2.0000      -0.289398        -7.8749
  92   2.0000      -0.286480        -7.7955
  93   2.0000      -0.278131        -7.5683
  94   2.0000      -0.275711        -7.5025
  95   2.0000      -0.248007        -6.7486
  96   2.0000      -0.236317        -6.4305
  97   2.0000      -0.231061        -6.2875
  98   2.0000      -0.228196        -6.2095
  99   2.0000      -0.224533        -6.1099
 100   2.0000      -0.221085        -6.0160
 101   0.0000      -0.048560        -1.3214
 102   0.0000      -0.029544        -0.8039
 103   0.0000      -0.016762        -0.4561
 104   0.0000      -0.002869        -0.0781
 105   0.0000       0.007961         0.2166

MULLIKEN ATOMIC CHARGES
-----------------------
   0 C :   -0.469583
   1 C :   -0.155980
   2 O :   -0.314585
   3 P :    0.707974
   4 S :   -0.521159
   5 O :   -0.288267
   6 C :   -0.159262
   7 C :   -0.476697
   8 S :   -0.161050
   9 C :   -0.249486
  10 S :   -0.122090
  11 P :    0.683770
  12 S :   -0.499242
  13 O :   -0.301702
  14 C :   -0.121302
  15 C :   -0.490677
  16 O :   -0.336478
  17 C :   -0.134576
  18 C :   -0.486981
  19 H :    0.168663
  20 H :    0.165987
  21 H :    0.170816
  22 H :    0.174408
  23 H :    0.174878
  24 H :    0.177358
  25 H :    0.178671
  26 H :    0.172455
  27 H :    0.169979
  28 H :    0.168152
  29 H :    0.240034
  30 H :    0.234609
  31 H :    0.166756
  32 H :    0.173424
  33 H :    0.171934
  34 H :    0.165208
  35 H :    0.165279
  36 H :    0.173702
  37 H :    0.175615
  38 H :    0.166638
  39 H :    0.170510
  40 H :    0.172295
Sum of atomic charges:   -0.0000000

LOEWDIN ATOMIC CHARGES
----------------------
   0 C :   -0.407176
   1 C :    0.023307
   2 O :   -0.688091
   3 P :    0.375084
   4 S :   -0.149375
   5 O :   -0.702831
   6 C :    0.027872
   7 C :   -0.401945
   8 S :    0.154492
   9 C :   -0.405172
  10 S :    0.178567
  11 P :    0.388087
  12 S :   -0.154635
  13 O :   -0.676580
  14 C :    0.021871
  15 C :   -0.406725
  16 O :   -0.679673
  17 C :    0.038445
  18 C :   -0.405313
  19 H :    0.162967
  20 H :    0.161158
  21 H :    0.167564
  22 H :    0.180908
  23 H :    0.190391
  24 H :    0.181940
  25 H :    0.191297
  26 H :    0.168839
  27 H :    0.164520
  28 H :    0.162923
  29 H :    0.204145
  30 H :    0.199094
  31 H :    0.181356
  32 H :    0.186165
  33 H :    0.169231
  34 H :    0.161713
  35 H :    0.166099
  36 H :    0.191650
  37 H :    0.183306
  38 H :    0.162644
  39 H :    0.163531
  40 H :    0.168352

  Mayer bond orders larger than 0.100000
B(  0-C ,  1-C ) :   0.9196 B(  0-C , 19-H ) :   0.9664 B(  0-C , 20-H ) :   0.9626
B(  0-C , 21-H ) :   0.9556 B(  1-C ,  2-O ) :   0.7985 B(  1-C , 22-H ) :   0.9612
B(  1-C , 23-H ) :   0.9491 B(  2-O ,  3-P ) :   1.0357 B(  3-P ,  4-S ) :   1.7604
B(  3-P ,  5-O ) :   1.1209 B(  3-P ,  8-S ) :   1.0719 B(  5-O ,  6-C ) :   0.7854
B(  6-C ,  7-C ) :   0.9096 B(  6-C , 24-H ) :   0.9594 B(  6-C , 25-H ) :   0.9532
B(  7-C , 26-H ) :   0.9556 B(  7-C , 27-H ) :   0.9705 B(  7-C , 28-H ) :   0.9594
B(  8-S ,  9-C ) :   0.8895 B(  9-C , 10-S ) :   0.9076 B(  9-C , 29-H ) :   0.9022
B(  9-C , 30-H ) :   0.9053 B( 10-S , 11-P ) :   1.1008 B( 11-P , 12-S ) :   1.7389
B( 11-P , 13-O ) :   1.0399 B( 11-P , 16-O ) :   1.1741 B( 13-O , 14-C ) :   0.7572
B( 14-C , 15-C ) :   0.9383 B( 14-C , 31-H ) :   0.9538 B( 14-C , 32-H ) :   0.9548
B( 15-C , 33-H ) :   0.9622 B( 15-C , 34-H ) :   0.9693 B( 15-C , 35-H ) :   0.9566
B( 16-O , 17-C ) :   0.7837 B( 17-C , 18-C ) :   0.9221 B( 17-C , 36-H ) :   0.9501
B( 17-C , 37-H ) :   0.9620 B( 18-C , 38-H ) :   0.9571 B( 18-C , 39-H ) :   0.9691
B( 18-C , 40-H ) :   0.9565

Dispersion correction           -0.021580107
FINAL SINGLE POINT ENERGY     -2932.470807778100

DIPOLE MOMENT
-------------

Method             : SCF
Type of density    : Electron Density
Multiplicity       :   1
Irrep              :   0
Energy             : -2932.4957974509352425 Eh
Relativity type    :
Basis              : AO
                                X                 Y                 Z
Electronic contribution:     -1.831110675      -1.536065639      -5.283545160
Nuclear contribution   :      1.874390769       0.573987337       6.495679661
                        -----------------------------------------
Total Dipole Moment    :      0.043280094      -0.962078302       1.212134501
                        -----------------------------------------
Magnitude (a.u.)       :      1.548140134
Magnitude (Debye)      :      3.935059495

Rotational constants in cm-1:             0.014361             0.004425             0.004197
Rotational constants in MHz :           430.525146           132.646921           125.824065

                             ****ORCA TERMINATED NORMALLY****
TOTAL RUN TIME: 0 days 0 hours 1 minutes 48 seconds 692 msec
