                         Program Version 6.0.0  -   RELEASE  -
|  1> ! pbe def2-sv(p) def2/J RI DEFGRID1 loosescf d4 GCP(DFT/SV(P)) printgap
|  2> %output
|  3>     printlevel normal
|  4> end
|  5> * xyz 0 1
|  6> C 4.6908488186 -1.1398309112 -1.9970894591
|  7> C 3.9830882609 -1.9533815393 -0.9342679837
|  8> O 3.4770089777 -1.1433556626 0.1436173671
|  9> P 2.5203008969 0.1152797487 -0.0175607756
| 10> S 3.2810775711 1.8181516303 -0.606256135
| 11> O 1.9631711232 0.272095308 1.4454074292
| 12> C 1.3488679478 -0.8073908626 2.1938933729
| 13> C 0.434896494 -0.1859295402 3.2289715573
| 14> S 0.9346253047 -0.6520276811 -1.2310921103
| 15> C 0.1580940754 0.9466883951 -1.5410384969
| 16> S -0.7688444198 1.5744235048 -0.1192677222
| 17> P -2.3616952464 0.1839963485 -0.2692750388
| 18> S -2.9657758264 -0.2444269135 -2.0773419918
| 19> O -3.5392852359 0.7840566273 0.6027244298
| 20> C -3.4784336771 0.9906441093 2.0352944555
| 21> C -3.0225400694 2.3963137963 2.3707114954
| 22> O -1.7428098066 -1.0339195274 0.5647193995
| 23> C -2.1122401056 -2.3998637095 0.2938459277
| 24> C -3.5168787351 -2.6977490333 0.7771216269
| 25> H 5.1227205831 -1.8077487476 -2.7353922209
| 26> H 3.9862837485 -0.4723872563 -2.4915470842
| 27> H 5.4782722442 -0.5362781433 -1.5518310792
| 28> H 4.6679581207 -2.6421120662 -0.4364520711
| 29> H 3.1448112702 -2.5073640721 -1.3658387837
| 30> H 0.7916297518 -1.4425888649 1.4986689467
| 31> H 2.149833537 -1.3885691713 2.6541915148
| 32> H 1.0017950567 0.4786664433 3.8741209439
| 33> H -0.3425657755 0.3913497157 2.734962755
| 34> H -0.018205052 -0.971308824 3.8252437181
| 35> H -0.5225270837 0.8143088174 -2.3826348399
| 36> H 0.9327773477 1.6829131312 -1.7620014511
| 37> H -4.503449775 0.8202287655 2.3689843498
| 38> H -2.8153110993 0.2416393238 2.4741899928
| 39> H -3.0688551825 2.5372365854 3.4461188206
| 40> H -2.0008718262 2.5631330497 2.033842632
| 41> H -3.6677602828 3.1235794189 1.8856822965
| 42> H -2.0272315931 -2.5765694994 -0.7827526322
| 43> H -1.3653754197 -2.9914110878 0.8250687285
| 44> H -3.7512281365 -3.7393587761 0.5816861769
| 45> H -3.6041479289 -2.5032277898 1.8428256544
| 46> H -4.2290598841 -2.0701465254 0.2415320519
| 47> *
| 48>
| 49>                          ****END OF INPUT****

CARTESIAN COORDINATES (ANGSTROEM)
---------------------------------
  C      4.690849   -1.139831   -1.997089
  C      3.983088   -1.953382   -0.934268
  O      3.477009   -1.143356    0.143617
  P      2.520301    0.115280   -0.017561
  S      3.281078    1.818152   -0.606256
  O      1.963171    0.272095    1.445407
  C      1.348868   -0.807391    2.193893
  C      0.434896   -0.185930    3.228972
  S      0.934625   -0.652028   -1.231092
  C      0.158094    0.946688   -1.541038
  S     -0.768844    1.574424   -0.119268
  P     -2.361695    0.183996   -0.269275
  S     -2.965776   -0.244427   -2.077342
  O     -3.539285    0.784057    0.602724
  C     -3.478434    0.990644    2.035294
  C     -3.022540    2.396314    2.370711
  O     -1.742810   -1.033920    0.564719
  C     -2.112240   -2.399864    0.293846
  C     -3.516879   -2.697749    0.777122
  H      5.122721   -1.807749   -2.735392
  H      3.986284   -0.472387   -2.491547
  H      5.478272   -0.536278   -1.551831
  H      4.667958   -2.642112   -0.436452
  H      3.144811   -2.507364   -1.365839
  H      0.791630   -1.442589    1.498669
  H      2.149834   -1.388569    2.654192
  H      1.001795    0.478666    3.874121
  H     -0.342566    0.391350    2.734963
  H     -0.018205   -0.971309    3.825244
  H     -0.522527    0.814309   -2.382635
  H      0.932777    1.682913   -1.762001
  H     -4.503450    0.820229    2.368984
  H     -2.815311    0.241639    2.474190
  H     -3.068855    2.537237    3.446119
  H     -2.000872    2.563133    2.033843
  H     -3.667760    3.123579    1.885682
  H     -2.027232   -2.576569   -0.782753
  H     -1.365375   -2.991411    0.825069
  H     -3.751228   -3.739359    0.581686
  H     -3.604148   -2.503228    1.842826
  H     -4.229060   -2.070147    0.241532

 Total Charge           Charge          ....    0
 Multiplicity           Mult            ....    1
 Number of Electrons    NEL             ....  202
 Basis Dimension        Dim             ....  334

ORBITAL ENERGIES
----------------

  NO   OCC          E(Eh)            E(eV)
   0   2.0000     -88.043747     -2395.7922
   1   2.0000     -88.043704     -2395.7910
   2   2.0000     -87.990123     -2394.3330
   3   2.0000     -87.982405     -2394.1230
   4   2.0000     -76.430083     -2079.7683
   5   2.0000     -76.425963     -2079.6562
   6   2.0000     -18.800390      -511.5846
   7   2.0000     -18.797553      -511.5074
   8   2.0000     -18.796226      -511.4713
   9   2.0000     -18.789422      -511.2862
  10   2.0000      -9.965403      -271.1724
  11   2.0000      -9.960918      -271.0504
  12   2.0000      -9.957045      -270.9450
  13   2.0000      -9.953925      -270.8601
  14   2.0000      -9.951843      -270.8034
  15   2.0000      -9.894781      -269.2507
  16   2.0000      -9.891646      -269.1654
  17   2.0000      -9.888683      -269.0847
  18   2.0000      -9.884073      -268.9593
  19   2.0000      -7.688702      -209.2202
  20   2.0000      -7.688445      -209.2132
  21   2.0000      -7.635357      -207.7686
  22   2.0000      -7.627748      -207.5616
  23   2.0000      -6.427957      -174.9136
  24   2.0000      -6.423240      -174.7852
  25   2.0000      -5.716486      -155.5535
  26   2.0000      -5.716054      -155.5417
  27   2.0000      -5.713405      -155.4697
  28   2.0000      -5.712976      -155.4580
  29   2.0000      -5.705731      -155.2608
  30   2.0000      -5.705574      -155.2566
  31   2.0000      -5.664419      -154.1367
  32   2.0000      -5.656813      -153.9297
  33   2.0000      -5.655914      -153.9052
  34   2.0000      -5.655378      -153.8907
  35   2.0000      -5.648308      -153.6983
  36   2.0000      -5.647770      -153.6836
  37   2.0000      -4.650993      -126.5600
  38   2.0000      -4.649278      -126.5133
  39   2.0000      -4.648394      -126.4892
  40   2.0000      -4.646118      -126.4273
  41   2.0000      -4.645246      -126.4036
  42   2.0000      -4.643234      -126.3488
  43   2.0000      -0.991745       -26.9868
  44   2.0000      -0.989205       -26.9176
  45   2.0000      -0.950997       -25.8779
  46   2.0000      -0.945114       -25.7179
  47   2.0000      -0.766316       -20.8525
  48   2.0000      -0.725971       -19.7547
  49   2.0000      -0.715525       -19.4704
  50   2.0000      -0.698323       -19.0023
  51   2.0000      -0.691459       -18.8155
  52   2.0000      -0.678697       -18.4683
  53   2.0000      -0.652682       -17.7604
  54   2.0000      -0.639549       -17.4030
  55   2.0000      -0.598775       -16.2935
  56   2.0000      -0.589796       -16.0492
  57   2.0000      -0.586386       -15.9564
  58   2.0000      -0.572420       -15.5763
  59   2.0000      -0.563925       -15.3452
  60   2.0000      -0.510332       -13.8868
  61   2.0000      -0.502658       -13.6780
  62   2.0000      -0.485556       -13.2127
  63   2.0000      -0.476001       -12.9526
  64   2.0000      -0.462361       -12.5815
  65   2.0000      -0.454002       -12.3540
  66   2.0000      -0.445032       -12.1099
  67   2.0000      -0.437465       -11.9040
  68   2.0000      -0.431865       -11.7516
  69   2.0000      -0.418913       -11.3992
  70   2.0000      -0.415024       -11.2934
  71   2.0000      -0.406301       -11.0560
  72   2.0000      -0.395855       -10.7718
  73   2.0000      -0.386982       -10.5303
  74   2.0000      -0.379993       -10.3401
  75   2.0000      -0.379696       -10.3321
  76   2.0000      -0.365062        -9.9339
  77   2.0000      -0.362808        -9.8725
  78   2.0000      -0.360399        -9.8069
  79   2.0000      -0.355218        -9.6660
  80   2.0000      -0.351050        -9.5526
  81   2.0000      -0.349460        -9.5093
  82   2.0000      -0.346053        -9.4166
  83   2.0000      -0.342293        -9.3143
  84   2.0000      -0.340081        -9.2541
  85   2.0000      -0.325932        -8.8690
  86   2.0000      -0.318797        -8.6749
  87   2.0000      -0.307655        -8.3717
  88   2.0000      -0.298440        -8.1210
  89   2.0000      -0.295172        -8.0320
  90   2.0000      -0.287167        -7.8142
  91   2.0000      -0.277666        -7.5557
  92   2.0000      -0.277269        -7.5449
  93   2.0000      -0.273569        -7.4442
  94   2.0000      -0.259024        -7.0484
  95   2.0000      -0.235189        -6.3998
  96   2.0000      -0.220506        -6.0003
  97   2.0000      -0.212535        -5.7834
  98   2.0000      -0.204489        -5.5644
  99   2.0000      -0.200526        -5.4566
 100   2.0000      -0.197249        -5.3674
 101   0.0000      -0.045046        -1.2258
 102   0.0000      -0.025160        -0.6846
 103   0.0000      -0.007223        -0.1965
 104   0.0000      -0.000295        -0.0080
 105   0.0000       0.007078         0.1926

MULLIKEN ATOMIC CHARGES
-----------------------
   0 C :   -0.308829
   1 C :   -0.011462
   2 O :   -0.383962
   3 P :    0.596514
   4 S :   -0.307963
   5 O :   -0.350939
   6 C :   -0.015960
   7 C :   -0.296444
   8 S :   -0.109620
   9 C :   -0.358811
  10 S :   -0.089425
  11 P :    0.622688
  12 S :   -0.312168
  13 O :   -0.365267
  14 C :   -0.039907
  15 C :   -0.309101
  16 O :   -0.384139
  17 C :   -0.009191
  18 C :   -0.313691
  19 H :    0.111595
  20 H :    0.127365
  21 H :    0.127645
  22 H :    0.108940
  23 H :    0.112479
  24 H :    0.113203
  25 H :    0.105313
  26 H :    0.119100
  27 H :    0.130700
  28 H :    0.102630
  29 H :    0.195103
  30 H :    0.195861
  31 H :    0.113288
  32 H :    0.117945
  33 H :    0.114691
  34 H :    0.146963
  35 H :    0.127142
  36 H :    0.115254
  37 H :    0.103046
  38 H :    0.115703
  39 H :    0.111620
  40 H :    0.132091
Sum of atomic charges:   -0.0000000

LOEWDIN ATOMIC CHARGES
----------------------
   0 C :   -0.368705
   1 C :   -0.114321
   2 O :   -0.247742
   3 P :    0.568148
   4 S :   -0.306033
   5 O :   -0.232362
   6 C :   -0.115406
   7 C :   -0.353879
   8 S :    0.066539
   9 C :   -0.488027
  10 S :    0.093624
  11 P :    0.572688
  12 S :   -0.305023
  13 O :   -0.240068
  14 C :   -0.117143
  15 C :   -0.362189
  16 O :   -0.252047
  17 C :   -0.122126
  18 C :   -0.365604
  19 H :    0.130287
  20 H :    0.122439
  21 H :    0.131007
  22 H :    0.121056
  23 H :    0.107975
  24 H :    0.104488
  25 H :    0.113872
  26 H :    0.129268
  27 H :    0.119852
  28 H :    0.126202
  29 H :    0.129703
  30 H :    0.129030
  31 H :    0.123140
  32 H :    0.109174
  33 H :    0.133119
  34 H :    0.120806
  35 H :    0.132946
  36 H :    0.110737
  37 H :    0.113737
  38 H :    0.132636
  39 H :    0.121572
  40 H :    0.126630

  Mayer bond orders larger than 0.100000
B(  0-C ,  1-C ) :   1.1672 B(  0-C , 19-H ) :   0.9349 B(  0-C , 20-H ) :   0.9320
B(  0-C , 21-H ) :   0.9432 B(  1-C ,  2-O ) :   0.9134 B(  1-C , 22-H ) :   0.9334
B(  1-C , 23-H ) :   0.9266 B(  2-O ,  3-P ) :   1.0863 B(  3-P ,  4-S ) :   1.6481
B(  3-P ,  5-O ) :   1.1430 B(  3-P ,  8-S ) :   0.9379 B(  4-S ,  8-S ) :   0.1091
B(  5-O ,  6-C ) :   0.8874 B(  6-C ,  7-C ) :   1.1685 B(  6-C , 24-H ) :   0.9051
B(  6-C , 25-H ) :   0.9311 B(  7-C , 26-H ) :   0.9463 B(  7-C , 27-H ) :   0.9315
B(  7-C , 28-H ) :   0.9410 B(  8-S ,  9-C ) :   1.0078 B(  9-C , 10-S ) :   1.0040
B(  9-C , 29-H ) :   0.8707 B(  9-C , 30-H ) :   0.8639 B( 10-S , 11-P ) :   0.9662
B( 10-S , 12-S ) :   0.1041 B( 11-P , 12-S ) :   1.6323 B( 11-P , 13-O ) :   1.1273
B( 11-P , 16-O ) :   1.0616 B( 13-O , 14-C ) :   0.8998 B( 14-C , 15-C ) :   1.1725
B( 14-C , 31-H ) :   0.9322 B( 14-C , 32-H ) :   0.9091 B( 15-C , 33-H ) :   0.9378
B( 15-C , 34-H ) :   0.9284 B( 15-C , 35-H ) :   0.9447 B( 16-O , 17-C ) :   0.9047
B( 17-C , 18-C ) :   1.1625 B( 17-C , 36-H ) :   0.9123 B( 17-C , 37-H ) :   0.9296
B( 18-C , 38-H ) :   0.9397 B( 18-C , 39-H ) :   0.9461 B( 18-C , 40-H ) :   0.9344

Dispersion correction           -0.066305528
FINAL SINGLE POINT ENERGY     -2929.518803410880

DIPOLE MOMENT
-------------

Method             : SCF
Type of density    : Electron Density
Multiplicity       :   1
Irrep              :   0
Energy             : -2929.6388908088338212 Eh
Relativity type    :
Basis              : AO
                                X                 Y                 Z
Electronic contribution:      4.186928157      10.879609840     -14.685553075
Nuclear contribution   :     -4.506892861     -12.548760048      16.155158636
                        -----------------------------------------
Total Dipole Moment    :     -0.319964703      -1.669150208       1.469605561
                        -----------------------------------------
Magnitude (a.u.)       :      2.246815598
Magnitude (Debye)      :      5.710951394

Rotational constants in cm-1:             0.012300             0.005023             0.004812
Rotational constants in MHz :           368.745417           150.583169           144.261513

                             ****ORCA TERMINATED NORMALLY****
TOTAL RUN TIME: 0 days 0 hours 0 minutes 21 seconds 934 msec
