                         Program Version 6.0.0  -   RELEASE  -
|  1> ! r2scan-3c def2/J RI DEFGRID2 scfconv6 printgap
|  2> %output
|  3>     printlevel normal
|  4> end
|  5> * xyz 0 1
|  6> C 5.3831679156 0.756616529 -0.4208142629
|  7> C 4.8501947756 -0.6267967495 -0.7280355294
|  8> O 3.6281184463 -0.9069561891 -0.0140552247
|  9> P 2.2787794736 -0.1430739728 -0.3230899041
| 10> S 1.9736661777 0.3193151862 -2.2067739774
| 11> O 2.3755104235 1.0809235187 0.6887858911
| 12> C 1.4833788238 2.2070099894 0.6710584338
| 13> C 2.1742612483 3.3584814946 1.3723413067
| 14> S 0.9599700635 -1.5087563728 0.5950350527
| 15> C -0.1462926138 -1.909332122 -0.8096029551
| 16> S -1.8713323105 -1.9859454302 -0.298554589
| 17> P -2.1361352841 0.0829223599 0.1453115621
| 18> S -1.4135556159 1.3559124093 -1.1522438195
| 19> O -1.4949115022 0.2943403417 1.5721363243
| 20> C -1.8466111533 -0.4926876379 2.7389276722
| 21> C -2.8851956883 0.2237758995 3.5765770006
| 22> O -3.6923742628 0.2001063983 0.4384696581
| 23> C -4.6645566452 0.4390307125 -0.595854726
| 24> C -4.7615198199 -0.7123917504 -1.5750549309
| 25> H 6.3521304449 0.8827573273 -0.8936833841
| 26> H 4.698930556 1.5097492785 -0.8099862347
| 27> H 5.481467646 0.8913657129 0.6531147178
| 28> H 5.5309987787 -1.4092565572 -0.3906234524
| 29> H 4.6550415133 -0.7364108097 -1.7995121865
| 30> H 1.2409176978 2.4532664095 -0.3687893303
| 31> H 0.5578508323 1.9244422535 1.1823851951
| 32> H 3.0786876455 3.6344146922 0.8374229942
| 33> H 1.5016109191 4.2093294515 1.4012349895
| 34> H 2.4365027983 3.0685440503 2.385598453
| 35> H 0.1048731401 -2.8973753556 -1.1863858067
| 36> H -0.0181034034 -1.1457139798 -1.5827174847
| 37> H -2.2068233206 -1.4711167505 2.4101299842
| 38> H -0.904983893 -0.6136114285 3.2782079599
| 39> H -2.5269822563 1.2115891642 3.8531321516
| 40> H -3.8113103153 0.3294241135 3.0182977355
| 41> H -3.0722313552 -0.3544660271 4.4759756726
| 42> H -5.5967465491 0.5797674284 -0.0469088091
| 43> H -4.3943825025 1.3640473429 -1.1142305422
| 44> H -3.8498109156 -0.7774070933 -2.1668401272
| 45> H -4.9026050186 -1.6506644049 -1.0445510328
| 46> H -5.6006668729 -0.5442131672 -2.2424706407
| 47> *
| 48>
| 49>                          ****END OF INPUT****

CARTESIAN COORDINATES (ANGSTROEM)
---------------------------------
  C      5.383168    0.756617   -0.420814
  C      4.850195   -0.626797   -0.728036
  O      3.628118   -0.906956   -0.014055
  P      2.278779   -0.143074   -0.323090
  S      1.973666    0.319315   -2.206774
  O      2.375510    1.080924    0.688786
  C      1.483379    2.207010    0.671058
  C      2.174261    3.358481    1.372341
  S      0.959970   -1.508756    0.595035
  C     -0.146293   -1.909332   -0.809603
  S     -1.871332   -1.985945   -0.298555
  P     -2.136135    0.082922    0.145312
  S     -1.413556    1.355912   -1.152244
  O     -1.494912    0.294340    1.572136
  C     -1.846611   -0.492688    2.738928
  C     -2.885196    0.223776    3.576577
  O     -3.692374    0.200106    0.438470
  C     -4.664557    0.439031   -0.595855
  C     -4.761520   -0.712392   -1.575055
  H      6.352130    0.882757   -0.893683
  H      4.698931    1.509749   -0.809986
  H      5.481468    0.891366    0.653115
  H      5.530999   -1.409257   -0.390623
  H      4.655042   -0.736411   -1.799512
  H      1.240918    2.453266   -0.368789
  H      0.557851    1.924442    1.182385
  H      3.078688    3.634415    0.837423
  H      1.501611    4.209329    1.401235
  H      2.436503    3.068544    2.385598
  H      0.104873   -2.897375   -1.186386
  H     -0.018103   -1.145714   -1.582717
  H     -2.206823   -1.471117    2.410130
  H     -0.904984   -0.613611    3.278208
  H     -2.526982    1.211589    3.853132
  H     -3.811310    0.329424    3.018298
  H     -3.072231   -0.354466    4.475976
  H     -5.596747    0.579767   -0.046909
  H     -4.394383    1.364047   -1.114231
  H     -3.849811   -0.777407   -2.166840
  H     -4.902605   -1.650664   -1.044551
  H     -5.600667   -0.544213   -2.242471

 Total Charge           Charge          ....    0
 Multiplicity           Mult            ....    1
 Number of Electrons    NEL             ....  202
 Basis Dimension        Dim             ....  539

ORBITAL ENERGIES
----------------

  NO   OCC          E(Eh)            E(eV)
   0   2.0000     -88.577807     -2410.3247
   1   2.0000     -88.569005     -2410.0852
   2   2.0000     -88.517401     -2408.6809
   3   2.0000     -88.515488     -2408.6289
   4   2.0000     -76.914723     -2092.9560
   5   2.0000     -76.907449     -2092.7581
   6   2.0000     -18.996928      -516.9327
   7   2.0000     -18.991515      -516.7854
   8   2.0000     -18.982782      -516.5478
   9   2.0000     -18.982277      -516.5340
  10   2.0000     -10.103394      -274.9273
  11   2.0000     -10.102563      -274.9047
  12   2.0000     -10.101621      -274.8791
  13   2.0000     -10.092711      -274.6366
  14   2.0000     -10.082781      -274.3664
  15   2.0000     -10.032421      -272.9961
  16   2.0000     -10.031358      -272.9671
  17   2.0000     -10.024237      -272.7734
  18   2.0000     -10.023370      -272.7498
  19   2.0000      -7.872235      -214.2144
  20   2.0000      -7.863490      -213.9765
  21   2.0000      -7.812124      -212.5787
  22   2.0000      -7.810171      -212.5255
  23   2.0000      -6.593082      -179.4069
  24   2.0000      -6.585919      -179.2120
  25   2.0000      -5.819141      -158.3469
  26   2.0000      -5.815874      -158.2580
  27   2.0000      -5.810344      -158.1075
  28   2.0000      -5.809510      -158.0848
  29   2.0000      -5.807512      -158.0304
  30   2.0000      -5.800416      -157.8374
  31   2.0000      -5.759906      -156.7350
  32   2.0000      -5.757764      -156.6767
  33   2.0000      -5.752242      -156.5265
  34   2.0000      -5.752163      -156.5243
  35   2.0000      -5.750665      -156.4835
  36   2.0000      -5.750023      -156.4661
  37   2.0000      -4.738937      -128.9530
  38   2.0000      -4.738055      -128.9290
  39   2.0000      -4.736452      -128.8854
  40   2.0000      -4.731124      -128.7404
  41   2.0000      -4.730794      -128.7315
  42   2.0000      -4.729974      -128.7091
  43   2.0000      -1.053208       -28.6592
  44   2.0000      -1.042018       -28.3547
  45   2.0000      -1.012827       -27.5604
  46   2.0000      -1.002341       -27.2751
  47   2.0000      -0.797671       -21.7057
  48   2.0000      -0.757868       -20.6226
  49   2.0000      -0.747738       -20.3470
  50   2.0000      -0.736957       -20.0536
  51   2.0000      -0.725414       -19.7395
  52   2.0000      -0.708127       -19.2691
  53   2.0000      -0.684628       -18.6297
  54   2.0000      -0.662754       -18.0344
  55   2.0000      -0.630563       -17.1585
  56   2.0000      -0.621881       -16.9222
  57   2.0000      -0.609749       -16.5921
  58   2.0000      -0.590944       -16.0804
  59   2.0000      -0.590120       -16.0580
  60   2.0000      -0.528560       -14.3829
  61   2.0000      -0.516948       -14.0669
  62   2.0000      -0.496394       -13.5076
  63   2.0000      -0.488866       -13.3027
  64   2.0000      -0.470447       -12.8015
  65   2.0000      -0.464736       -12.6461
  66   2.0000      -0.459306       -12.4983
  67   2.0000      -0.448119       -12.1939
  68   2.0000      -0.440997       -12.0002
  69   2.0000      -0.434673       -11.8281
  70   2.0000      -0.425098       -11.5675
  71   2.0000      -0.413258       -11.2453
  72   2.0000      -0.408268       -11.1095
  73   2.0000      -0.397672       -10.8212
  74   2.0000      -0.395984       -10.7753
  75   2.0000      -0.383985       -10.4488
  76   2.0000      -0.383327       -10.4309
  77   2.0000      -0.373429       -10.1615
  78   2.0000      -0.370288       -10.0761
  79   2.0000      -0.364930        -9.9302
  80   2.0000      -0.363737        -9.8978
  81   2.0000      -0.356392        -9.6979
  82   2.0000      -0.353056        -9.6072
  83   2.0000      -0.352283        -9.5861
  84   2.0000      -0.345194        -9.3932
  85   2.0000      -0.330330        -8.9887
  86   2.0000      -0.319232        -8.6868
  87   2.0000      -0.312530        -8.5044
  88   2.0000      -0.308586        -8.3970
  89   2.0000      -0.304389        -8.2828
  90   2.0000      -0.294948        -8.0259
  91   2.0000      -0.288470        -7.8497
  92   2.0000      -0.282910        -7.6984
  93   2.0000      -0.279126        -7.5954
  94   2.0000      -0.268125        -7.2960
  95   2.0000      -0.245627        -6.6838
  96   2.0000      -0.231509        -6.2997
  97   2.0000      -0.224571        -6.1109
  98   2.0000      -0.216361        -5.8875
  99   2.0000      -0.208427        -5.6716
 100   2.0000      -0.201718        -5.4890
 101   0.0000      -0.042488        -1.1562
 102   0.0000      -0.031606        -0.8601
 103   0.0000      -0.009984        -0.2717
 104   0.0000       0.015121         0.4115
 105   0.0000       0.018390         0.5004

MULLIKEN ATOMIC CHARGES
-----------------------
   0 C :   -0.439632
   1 C :   -0.157132
   2 O :   -0.294056
   3 P :    0.659772
   4 S :   -0.462555
   5 O :   -0.264838
   6 C :   -0.130325
   7 C :   -0.468622
   8 S :   -0.138066
   9 C :   -0.223058
  10 S :   -0.157764
  11 P :    0.635014
  12 S :   -0.408401
  13 O :   -0.266418
  14 C :   -0.109838
  15 C :   -0.462723
  16 O :   -0.297278
  17 C :   -0.161768
  18 C :   -0.456497
  19 H :    0.145909
  20 H :    0.168180
  21 H :    0.155292
  22 H :    0.147698
  23 H :    0.171185
  24 H :    0.172671
  25 H :    0.171419
  26 H :    0.150660
  27 H :    0.148882
  28 H :    0.150830
  29 H :    0.193769
  30 H :    0.221062
  31 H :    0.164732
  32 H :    0.162747
  33 H :    0.155415
  34 H :    0.165079
  35 H :    0.147007
  36 H :    0.147547
  37 H :    0.175925
  38 H :    0.184549
  39 H :    0.154081
  40 H :    0.149545
Sum of atomic charges:   -0.0000000

LOEWDIN ATOMIC CHARGES
----------------------
   0 C :   -0.401304
   1 C :    0.022098
   2 O :   -0.668733
   3 P :    0.376248
   4 S :   -0.123081
   5 O :   -0.665363
   6 C :    0.012016
   7 C :   -0.387621
   8 S :    0.175693
   9 C :   -0.411039
  10 S :    0.128403
  11 P :    0.377706
  12 S :   -0.082777
  13 O :   -0.676217
  14 C :    0.014192
  15 C :   -0.393251
  16 O :   -0.671516
  17 C :    0.022256
  18 C :   -0.408612
  19 H :    0.158514
  20 H :    0.165150
  21 H :    0.161206
  22 H :    0.179340
  23 H :    0.179483
  24 H :    0.182954
  25 H :    0.184205
  26 H :    0.158039
  27 H :    0.160403
  28 H :    0.158485
  29 H :    0.178858
  30 H :    0.201036
  31 H :    0.177230
  32 H :    0.182328
  33 H :    0.160767
  34 H :    0.165793
  35 H :    0.158832
  36 H :    0.179245
  37 H :    0.181348
  38 H :    0.167707
  39 H :    0.159646
  40 H :    0.160334

  Mayer bond orders larger than 0.100000
B(  0-C ,  1-C ) :   0.9284 B(  0-C , 19-H ) :   0.9617 B(  0-C , 20-H ) :   0.9604
B(  0-C , 21-H ) :   0.9699 B(  1-C ,  2-O ) :   0.8109 B(  1-C , 22-H ) :   0.9613
B(  1-C , 23-H ) :   0.9660 B(  2-O ,  3-P ) :   1.1893 B(  3-P ,  4-S ) :   1.7558
B(  3-P ,  5-O ) :   1.0913 B(  3-P ,  8-S ) :   1.0865 B(  5-O ,  6-C ) :   0.7733
B(  6-C ,  7-C ) :   0.9374 B(  6-C , 24-H ) :   0.9446 B(  6-C , 25-H ) :   0.9372
B(  7-C , 26-H ) :   0.9745 B(  7-C , 27-H ) :   0.9659 B(  7-C , 28-H ) :   0.9751
B(  8-S ,  9-C ) :   0.9044 B(  9-C , 10-S ) :   0.9197 B(  9-C , 29-H ) :   0.9130
B(  9-C , 30-H ) :   0.9030 B( 10-S , 11-P ) :   1.0159 B( 11-P , 12-S ) :   1.8542
B( 11-P , 13-O ) :   1.1156 B( 11-P , 16-O ) :   1.0483 B( 13-O , 14-C ) :   0.7414
B( 14-C , 15-C ) :   0.9375 B( 14-C , 31-H ) :   0.9644 B( 14-C , 32-H ) :   0.9597
B( 15-C , 33-H ) :   0.9726 B( 15-C , 34-H ) :   0.9679 B( 15-C , 35-H ) :   0.9658
B( 16-O , 17-C ) :   0.8203 B( 17-C , 18-C ) :   0.9133 B( 17-C , 36-H ) :   0.9610
B( 17-C , 37-H ) :   0.9675 B( 18-C , 38-H ) :   0.9622 B( 18-C , 39-H ) :   0.9677
B( 18-C , 40-H ) :   0.9561

Dispersion correction           -0.021566410
FINAL SINGLE POINT ENERGY     -2932.459494876909

DIPOLE MOMENT
-------------

Method             : SCF
Type of density    : Electron Density
Multiplicity       :   1
Irrep              :   0
Energy             : -2932.4843903202590809 Eh
Relativity type    :
Basis              : AO
                                X                 Y                 Z
Electronic contribution:      0.649813432     -10.202651131      -8.439706819
Nuclear contribution   :     -1.273814553       9.928147628       9.527135412
                        -----------------------------------------
Total Dipole Moment    :     -0.624001121      -0.274503503       1.087428593
                        -----------------------------------------
Magnitude (a.u.)       :      1.283444785
Magnitude (Debye)      :      3.262257389

Rotational constants in cm-1:             0.013171             0.004826             0.004607
Rotational constants in MHz :           394.864515           144.668350           138.113263

                             ****ORCA TERMINATED NORMALLY****
TOTAL RUN TIME: 0 days 0 hours 1 minutes 19 seconds 302 msec
