                         Program Version 6.0.0  -   RELEASE  -
|  1> ! r2scan-3c def2/J RI DEFGRID2 scfconv6 printgap
|  2> %output
|  3>     printlevel normal
|  4> end
|  5> %cpcm
|  6>     smd true
|  7>     smdsolvent "water"
|  8> end
|  9> * xyz 0 1
| 10> C 5.3831679156 0.756616529 -0.4208142629
| 11> C 4.8501947756 -0.6267967495 -0.7280355294
| 12> O 3.6281184463 -0.9069561891 -0.0140552247
| 13> P 2.2787794736 -0.1430739728 -0.3230899041
| 14> S 1.9736661777 0.3193151862 -2.2067739774
| 15> O 2.3755104235 1.0809235187 0.6887858911
| 16> C 1.4833788238 2.2070099894 0.6710584338
| 17> C 2.1742612483 3.3584814946 1.3723413067
| 18> S 0.9599700635 -1.5087563728 0.5950350527
| 19> C -0.1462926138 -1.909332122 -0.8096029551
| 20> S -1.8713323105 -1.9859454302 -0.298554589
| 21> P -2.1361352841 0.0829223599 0.1453115621
| 22> S -1.4135556159 1.3559124093 -1.1522438195
| 23> O -1.4949115022 0.2943403417 1.5721363243
| 24> C -1.8466111533 -0.4926876379 2.7389276722
| 25> C -2.8851956883 0.2237758995 3.5765770006
| 26> O -3.6923742628 0.2001063983 0.4384696581
| 27> C -4.6645566452 0.4390307125 -0.595854726
| 28> C -4.7615198199 -0.7123917504 -1.5750549309
| 29> H 6.3521304449 0.8827573273 -0.8936833841
| 30> H 4.698930556 1.5097492785 -0.8099862347
| 31> H 5.481467646 0.8913657129 0.6531147178
| 32> H 5.5309987787 -1.4092565572 -0.3906234524
| 33> H 4.6550415133 -0.7364108097 -1.7995121865
| 34> H 1.2409176978 2.4532664095 -0.3687893303
| 35> H 0.5578508323 1.9244422535 1.1823851951
| 36> H 3.0786876455 3.6344146922 0.8374229942
| 37> H 1.5016109191 4.2093294515 1.4012349895
| 38> H 2.4365027983 3.0685440503 2.385598453
| 39> H 0.1048731401 -2.8973753556 -1.1863858067
| 40> H -0.0181034034 -1.1457139798 -1.5827174847
| 41> H -2.2068233206 -1.4711167505 2.4101299842
| 42> H -0.904983893 -0.6136114285 3.2782079599
| 43> H -2.5269822563 1.2115891642 3.8531321516
| 44> H -3.8113103153 0.3294241135 3.0182977355
| 45> H -3.0722313552 -0.3544660271 4.4759756726
| 46> H -5.5967465491 0.5797674284 -0.0469088091
| 47> H -4.3943825025 1.3640473429 -1.1142305422
| 48> H -3.8498109156 -0.7774070933 -2.1668401272
| 49> H -4.9026050186 -1.6506644049 -1.0445510328
| 50> H -5.6006668729 -0.5442131672 -2.2424706407
| 51> *
| 52>
| 53>                          ****END OF INPUT****

CARTESIAN COORDINATES (ANGSTROEM)
---------------------------------
  C      5.383168    0.756617   -0.420814
  C      4.850195   -0.626797   -0.728036
  O      3.628118   -0.906956   -0.014055
  P      2.278779   -0.143074   -0.323090
  S      1.973666    0.319315   -2.206774
  O      2.375510    1.080924    0.688786
  C      1.483379    2.207010    0.671058
  C      2.174261    3.358481    1.372341
  S      0.959970   -1.508756    0.595035
  C     -0.146293   -1.909332   -0.809603
  S     -1.871332   -1.985945   -0.298555
  P     -2.136135    0.082922    0.145312
  S     -1.413556    1.355912   -1.152244
  O     -1.494912    0.294340    1.572136
  C     -1.846611   -0.492688    2.738928
  C     -2.885196    0.223776    3.576577
  O     -3.692374    0.200106    0.438470
  C     -4.664557    0.439031   -0.595855
  C     -4.761520   -0.712392   -1.575055
  H      6.352130    0.882757   -0.893683
  H      4.698931    1.509749   -0.809986
  H      5.481468    0.891366    0.653115
  H      5.530999   -1.409257   -0.390623
  H      4.655042   -0.736411   -1.799512
  H      1.240918    2.453266   -0.368789
  H      0.557851    1.924442    1.182385
  H      3.078688    3.634415    0.837423
  H      1.501611    4.209329    1.401235
  H      2.436503    3.068544    2.385598
  H      0.104873   -2.897375   -1.186386
  H     -0.018103   -1.145714   -1.582717
  H     -2.206823   -1.471117    2.410130
  H     -0.904984   -0.613611    3.278208
  H     -2.526982    1.211589    3.853132
  H     -3.811310    0.329424    3.018298
  H     -3.072231   -0.354466    4.475976
  H     -5.596747    0.579767   -0.046909
  H     -4.394383    1.364047   -1.114231
  H     -3.849811   -0.777407   -2.166840
  H     -4.902605   -1.650664   -1.044551
  H     -5.600667   -0.544213   -2.242471

 Total Charge           Charge          ....    0
 Multiplicity           Mult            ....    1
 Number of Electrons    NEL             ....  202
 Basis Dimension        Dim             ....  539

ORBITAL ENERGIES
----------------

  NO   OCC          E(Eh)            E(eV)
   0   2.0000     -88.579778     -2410.3783
   1   2.0000     -88.576099     -2410.2782
   2   2.0000     -88.527559     -2408.9574
   3   2.0000     -88.525097     -2408.8904
   4   2.0000     -76.918432     -2093.0569
   5   2.0000     -76.917641     -2093.0354
   6   2.0000     -18.995787      -516.9016
   7   2.0000     -18.992462      -516.8112
   8   2.0000     -18.992334      -516.8077
   9   2.0000     -18.991160      -516.7757
  10   2.0000     -10.103867      -274.9402
  11   2.0000     -10.090724      -274.5826
  12   2.0000     -10.090689      -274.5816
  13   2.0000     -10.088801      -274.5302
  14   2.0000     -10.085065      -274.4286
  15   2.0000     -10.019080      -272.6330
  16   2.0000     -10.018242      -272.6102
  17   2.0000     -10.018142      -272.6075
  18   2.0000     -10.017715      -272.5959
  19   2.0000      -7.874140      -214.2662
  20   2.0000      -7.870580      -214.1694
  21   2.0000      -7.822534      -212.8620
  22   2.0000      -7.820184      -212.7980
  23   2.0000      -6.596823      -179.5087
  24   2.0000      -6.596192      -179.4915
  25   2.0000      -5.821071      -158.3994
  26   2.0000      -5.817805      -158.3105
  27   2.0000      -5.817407      -158.2997
  28   2.0000      -5.814579      -158.2227
  29   2.0000      -5.811373      -158.1355
  30   2.0000      -5.807569      -158.0320
  31   2.0000      -5.770068      -157.0115
  32   2.0000      -5.767856      -156.9513
  33   2.0000      -5.762985      -156.8188
  34   2.0000      -5.762434      -156.8038
  35   2.0000      -5.760364      -156.7475
  36   2.0000      -5.760201      -156.7430
  37   2.0000      -4.742614      -129.0531
  38   2.0000      -4.741775      -129.0303
  39   2.0000      -4.741399      -129.0200
  40   2.0000      -4.741042      -129.0103
  41   2.0000      -4.740321      -128.9907
  42   2.0000      -4.740289      -128.9898
  43   2.0000      -1.052756       -28.6470
  44   2.0000      -1.050971       -28.5984
  45   2.0000      -1.011924       -27.5359
  46   2.0000      -1.010841       -27.5064
  47   2.0000      -0.800371       -21.7792
  48   2.0000      -0.756481       -20.5849
  49   2.0000      -0.744517       -20.2593
  50   2.0000      -0.726102       -19.7582
  51   2.0000      -0.723388       -19.6844
  52   2.0000      -0.708979       -19.2923
  53   2.0000      -0.688809       -18.7434
  54   2.0000      -0.670688       -18.2504
  55   2.0000      -0.630991       -17.1701
  56   2.0000      -0.619517       -16.8579
  57   2.0000      -0.602024       -16.3819
  58   2.0000      -0.591094       -16.0845
  59   2.0000      -0.589049       -16.0288
  60   2.0000      -0.527110       -14.3434
  61   2.0000      -0.516761       -14.0618
  62   2.0000      -0.493221       -13.4212
  63   2.0000      -0.489285       -13.3141
  64   2.0000      -0.469155       -12.7664
  65   2.0000      -0.464927       -12.6513
  66   2.0000      -0.457927       -12.4608
  67   2.0000      -0.443389       -12.0652
  68   2.0000      -0.438910       -11.9433
  69   2.0000      -0.434772       -11.8307
  70   2.0000      -0.424067       -11.5395
  71   2.0000      -0.412029       -11.2119
  72   2.0000      -0.404555       -11.0085
  73   2.0000      -0.399982       -10.8841
  74   2.0000      -0.392363       -10.6768
  75   2.0000      -0.386620       -10.5205
  76   2.0000      -0.379541       -10.3278
  77   2.0000      -0.367063        -9.9883
  78   2.0000      -0.362604        -9.8670
  79   2.0000      -0.361606        -9.8398
  80   2.0000      -0.353331        -9.6146
  81   2.0000      -0.352104        -9.5812
  82   2.0000      -0.350150        -9.5281
  83   2.0000      -0.348135        -9.4732
  84   2.0000      -0.345144        -9.3918
  85   2.0000      -0.325793        -8.8653
  86   2.0000      -0.320254        -8.7145
  87   2.0000      -0.309669        -8.4265
  88   2.0000      -0.306129        -8.3302
  89   2.0000      -0.301569        -8.2061
  90   2.0000      -0.299269        -8.1435
  91   2.0000      -0.289757        -7.8847
  92   2.0000      -0.284264        -7.7352
  93   2.0000      -0.277945        -7.5633
  94   2.0000      -0.274566        -7.4713
  95   2.0000      -0.249078        -6.7778
  96   2.0000      -0.241731        -6.5778
  97   2.0000      -0.234535        -6.3820
  98   2.0000      -0.225107        -6.1255
  99   2.0000      -0.217520        -5.9190
 100   2.0000      -0.212308        -5.7772
 101   0.0000      -0.047754        -1.2994
 102   0.0000      -0.038694        -1.0529
 103   0.0000      -0.013881        -0.3777
 104   0.0000       0.011096         0.3019
 105   0.0000       0.013839         0.3766

MULLIKEN ATOMIC CHARGES
-----------------------
   0 C :   -0.480280
   1 C :   -0.150117
   2 O :   -0.328689
   3 P :    0.687924
   4 S :   -0.508424
   5 O :   -0.290030
   6 C :   -0.119311
   7 C :   -0.504670
   8 S :   -0.151012
   9 C :   -0.225989
  10 S :   -0.154880
  11 P :    0.656499
  12 S :   -0.464075
  13 O :   -0.294306
  14 C :   -0.092945
  15 C :   -0.506874
  16 O :   -0.315429
  17 C :   -0.156842
  18 C :   -0.491972
  19 H :    0.172138
  20 H :    0.168649
  21 H :    0.168870
  22 H :    0.174381
  23 H :    0.175586
  24 H :    0.170631
  25 H :    0.173236
  26 H :    0.165100
  27 H :    0.168586
  28 H :    0.165818
  29 H :    0.233864
  30 H :    0.215975
  31 H :    0.176020
  32 H :    0.179770
  33 H :    0.167302
  34 H :    0.169457
  35 H :    0.170565
  36 H :    0.175849
  37 H :    0.179514
  38 H :    0.176409
  39 H :    0.169964
  40 H :    0.173738
Sum of atomic charges:   -0.0000000

LOEWDIN ATOMIC CHARGES
----------------------
   0 C :   -0.404077
   1 C :    0.026586
   2 O :   -0.686396
   3 P :    0.378746
   4 S :   -0.153343
   5 O :   -0.677548
   6 C :    0.013968
   7 C :   -0.390464
   8 S :    0.171256
   9 C :   -0.406579
  10 S :    0.137850
  11 P :    0.381485
  12 S :   -0.123039
  13 O :   -0.690701
  14 C :    0.021079
  15 C :   -0.396192
  16 O :   -0.675997
  17 C :    0.027384
  18 C :   -0.411363
  19 H :    0.168609
  20 H :    0.162747
  21 H :    0.164148
  22 H :    0.190478
  23 H :    0.181285
  24 H :    0.182068
  25 H :    0.184499
  26 H :    0.162226
  27 H :    0.168296
  28 H :    0.163210
  29 H :    0.194090
  30 H :    0.198548
  31 H :    0.182263
  32 H :    0.189507
  33 H :    0.163389
  34 H :    0.165432
  35 H :    0.168392
  36 H :    0.191295
  37 H :    0.181813
  38 H :    0.162122
  39 H :    0.163891
  40 H :    0.169037

  Mayer bond orders larger than 0.100000
B(  0-C ,  1-C ) :   0.9147 B(  0-C , 19-H ) :   0.9553 B(  0-C , 20-H ) :   0.9593
B(  0-C , 21-H ) :   0.9694 B(  1-C ,  2-O ) :   0.8001 B(  1-C , 22-H ) :   0.9513
B(  1-C , 23-H ) :   0.9612 B(  2-O ,  3-P ) :   1.1880 B(  3-P ,  4-S ) :   1.7232
B(  3-P ,  5-O ) :   1.0910 B(  3-P ,  8-S ) :   1.1041 B(  5-O ,  6-C ) :   0.7709
B(  6-C ,  7-C ) :   0.9329 B(  6-C , 24-H ) :   0.9432 B(  6-C , 25-H ) :   0.9335
B(  7-C , 26-H ) :   0.9711 B(  7-C , 27-H ) :   0.9587 B(  7-C , 28-H ) :   0.9711
B(  8-S ,  9-C ) :   0.8944 B(  9-C , 10-S ) :   0.9163 B(  9-C , 29-H ) :   0.8987
B(  9-C , 30-H ) :   0.9070 B( 10-S , 11-P ) :   1.0265 B( 11-P , 12-S ) :   1.8234
B( 11-P , 13-O ) :   1.1237 B( 11-P , 16-O ) :   1.0594 B( 13-O , 14-C ) :   0.7311
B( 14-C , 15-C ) :   0.9303 B( 14-C , 31-H ) :   0.9558 B( 14-C , 32-H ) :   0.9508
B( 15-C , 33-H ) :   0.9710 B( 15-C , 34-H ) :   0.9674 B( 15-C , 35-H ) :   0.9592
B( 16-O , 17-C ) :   0.8095 B( 17-C , 18-C ) :   0.9005 B( 17-C , 36-H ) :   0.9506
B( 17-C , 37-H ) :   0.9667 B( 18-C , 38-H ) :   0.9649 B( 18-C , 39-H ) :   0.9646
B( 18-C , 40-H ) :   0.9509

Dispersion correction           -0.021566410
FINAL SINGLE POINT ENERGY     -2932.467276703421

DIPOLE MOMENT
-------------

Method             : SCF
Type of density    : Electron Density
Multiplicity       :   1
Irrep              :   0
Energy             : -2932.4921721467708267 Eh
Relativity type    :
Basis              : AO
                                X                 Y                 Z
Electronic contribution:      0.414304818     -10.509673449      -8.064427528
Nuclear contribution   :     -1.273814553       9.928147628       9.527135412
                        -----------------------------------------
Total Dipole Moment    :     -0.859509736      -0.581525821       1.462707884
                        -----------------------------------------
Magnitude (a.u.)       :      1.793444624
Magnitude (Debye)      :      4.558573959

Rotational constants in cm-1:             0.013171             0.004826             0.004607
Rotational constants in MHz :           394.864515           144.668350           138.113263

                             ****ORCA TERMINATED NORMALLY****
TOTAL RUN TIME: 0 days 0 hours 1 minutes 48 seconds 887 msec
