                         Program Version 6.0.1  -  RELEASE   -
|  1> ! pbe def2-sv(p) def2/J RI DEFGRID1 loosescf d4 GCP(DFT/SV(P)) printgap
|  2> %output
|  3>     printlevel normal
|  4> end
|  5> * xyz 0 1
|  6> C 3.7005697786 -3.7357600547 -0.5425358193
|  7> C 4.2335165358 -2.4833914213 -1.2200095471
|  8> O 3.1840158529 -1.8101472922 -1.9445959687
|  9> C 2.4207573854 -0.9592617154 -1.2965281812
| 10> O 2.5505580685 -0.6635087024 -0.1260517012
| 11> C 1.3570251042 -0.3578719753 -2.1909085266
| 12> C 0.3012098725 0.3232234776 -1.3295287895
| 13> H -0.3826523832 0.9116397369 -1.9499712054
| 14> C 0.9759869651 1.283114117 -0.3640725143
| 15> O 1.7969068975 2.0884006773 -0.7457425018
| 16> O 0.5336359608 1.1954532405 0.872492118
| 17> C 1.1273188951 2.086920171 1.8394121179
| 18> C 0.881173401 1.5455293116 3.2324063818
| 19> S -0.6890874231 -0.9325476584 -0.457911638
| 20> P -2.1278539662 0.3589373048 0.424212494
| 21> S -2.2963968402 2.1572199973 -0.3337014186
| 22> O -3.466128149 -0.5165182928 0.308804978
| 23> C -4.0893409037 -0.7575242923 -0.9572158812
| 24> O -1.9329370945 0.3422014828 1.9900778388
| 25> C -1.8333583757 -0.8967153773 2.7221592284
| 26> H 3.2487612927 -4.3949716651 -1.2781704521
| 27> H 4.5175462417 -4.252783558 -0.0502526101
| 28> H 2.952089601 -3.4681891281 0.1998466476
| 29> H 4.9763479698 -2.72511761 -1.979940882
| 30> H 4.6510988252 -1.7897233151 -0.4847908879
| 31> H 0.9217222365 -1.1317492754 -2.8215576812
| 32> H 1.8391065656 0.3900036541 -2.8248316945
| 33> H 2.1949461158 2.1544539569 1.6085196951
| 34> H 0.6726866441 3.0730142902 1.6996332805
| 35> H 1.2874656805 0.5416089371 3.3162730656
| 36> H 1.3713832105 2.1931438346 3.9517280349
| 37> H -0.1846167248 1.5224126556 3.4375509602
| 38> H -3.4868152964 -1.4549742587 -1.5388403148
| 39> H -4.2071537595 0.1806549705 -1.5018571425
| 40> H -5.0610497679 -1.1870460951 -0.7276189226
| 41> H -1.737231499 -0.6075242145 3.7652915692
| 42> H -0.9531350763 -1.448472479 2.3927823446
| 43> H -2.7297257411 -1.4938069405 2.5678797833
| 44> *
| 45>
| 46>                          ****END OF INPUT****

CARTESIAN COORDINATES (ANGSTROEM)
---------------------------------
  C      3.700570   -3.735760   -0.542536
  C      4.233517   -2.483391   -1.220010
  O      3.184016   -1.810147   -1.944596
  C      2.420757   -0.959262   -1.296528
  O      2.550558   -0.663509   -0.126052
  C      1.357025   -0.357872   -2.190909
  C      0.301210    0.323223   -1.329529
  H     -0.382652    0.911640   -1.949971
  C      0.975987    1.283114   -0.364073
  O      1.796907    2.088401   -0.745743
  O      0.533636    1.195453    0.872492
  C      1.127319    2.086920    1.839412
  C      0.881173    1.545529    3.232406
  S     -0.689087   -0.932548   -0.457912
  P     -2.127854    0.358937    0.424212
  S     -2.296397    2.157220   -0.333701
  O     -3.466128   -0.516518    0.308805
  C     -4.089341   -0.757524   -0.957216
  O     -1.932937    0.342201    1.990078
  C     -1.833358   -0.896715    2.722159
  H      3.248761   -4.394972   -1.278170
  H      4.517546   -4.252784   -0.050253
  H      2.952090   -3.468189    0.199847
  H      4.976348   -2.725118   -1.979941
  H      4.651099   -1.789723   -0.484791
  H      0.921722   -1.131749   -2.821558
  H      1.839107    0.390004   -2.824832
  H      2.194946    2.154454    1.608520
  H      0.672687    3.073014    1.699633
  H      1.287466    0.541609    3.316273
  H      1.371383    2.193144    3.951728
  H     -0.184617    1.522413    3.437551
  H     -3.486815   -1.454974   -1.538840
  H     -4.207154    0.180655   -1.501857
  H     -5.061050   -1.187046   -0.727619
  H     -1.737231   -0.607524    3.765292
  H     -0.953135   -1.448472    2.392782
  H     -2.729726   -1.493807    2.567880

 Total Charge           Charge          ....    0
 Multiplicity           Mult            ....    1
 Number of Electrons    NEL             ....  174
 Basis Dimension        Dim             ....  316

ORBITAL ENERGIES
----------------

  NO   OCC          E(Eh)            E(eV)
   0   2.0000     -88.037994     -2395.6356
   1   2.0000     -87.981657     -2394.1026
   2   2.0000     -76.424685     -2079.6214
   3   2.0000     -18.811015      -511.8737
   4   2.0000     -18.794558      -511.4259
   5   2.0000     -18.794285      -511.4185
   6   2.0000     -18.790077      -511.3040
   7   2.0000     -18.749749      -510.2066
   8   2.0000     -18.722191      -509.4567
   9   2.0000     -10.018944      -272.6293
  10   2.0000     -10.004379      -272.2330
  11   2.0000      -9.955088      -270.8917
  12   2.0000      -9.949841      -270.7489
  13   2.0000      -9.943695      -270.5817
  14   2.0000      -9.942481      -270.5487
  15   2.0000      -9.935384      -270.3556
  16   2.0000      -9.917624      -269.8723
  17   2.0000      -9.893497      -269.2157
  18   2.0000      -9.878231      -268.8003
  19   2.0000      -7.682626      -209.0549
  20   2.0000      -7.626822      -207.5364
  21   2.0000      -6.421636      -174.7416
  22   2.0000      -5.710276      -155.3845
  23   2.0000      -5.707343      -155.3047
  24   2.0000      -5.699698      -155.0967
  25   2.0000      -5.656001      -153.9076
  26   2.0000      -5.647296      -153.6707
  27   2.0000      -5.646845      -153.6585
  28   2.0000      -4.644356      -126.3794
  29   2.0000      -4.643535      -126.3570
  30   2.0000      -4.641957      -126.3141
  31   2.0000      -1.020381       -27.7660
  32   2.0000      -1.001690       -27.2574
  33   2.0000      -0.986823       -26.8528
  34   2.0000      -0.941854       -25.6291
  35   2.0000      -0.926523       -25.2120
  36   2.0000      -0.903623       -24.5888
  37   2.0000      -0.764023       -20.7901
  38   2.0000      -0.718686       -19.5564
  39   2.0000      -0.697277       -18.9739
  40   2.0000      -0.693220       -18.8635
  41   2.0000      -0.660644       -17.9770
  42   2.0000      -0.636579       -17.3222
  43   2.0000      -0.621231       -16.9046
  44   2.0000      -0.613463       -16.6932
  45   2.0000      -0.594087       -16.1659
  46   2.0000      -0.557063       -15.1585
  47   2.0000      -0.514624       -14.0036
  48   2.0000      -0.506207       -13.7746
  49   2.0000      -0.498523       -13.5655
  50   2.0000      -0.478442       -13.0191
  51   2.0000      -0.473719       -12.8906
  52   2.0000      -0.464775       -12.6472
  53   2.0000      -0.442418       -12.0388
  54   2.0000      -0.441206       -12.0058
  55   2.0000      -0.432454       -11.7677
  56   2.0000      -0.429204       -11.6792
  57   2.0000      -0.419123       -11.4049
  58   2.0000      -0.415220       -11.2987
  59   2.0000      -0.409162       -11.1339
  60   2.0000      -0.401411       -10.9230
  61   2.0000      -0.398163       -10.8346
  62   2.0000      -0.388880       -10.5820
  63   2.0000      -0.380754       -10.3608
  64   2.0000      -0.376085       -10.2338
  65   2.0000      -0.365485        -9.9454
  66   2.0000      -0.355641        -9.6775
  67   2.0000      -0.349300        -9.5049
  68   2.0000      -0.346089        -9.4176
  69   2.0000      -0.337014        -9.1706
  70   2.0000      -0.335168        -9.1204
  71   2.0000      -0.330383        -8.9902
  72   2.0000      -0.319808        -8.7024
  73   2.0000      -0.309718        -8.4279
  74   2.0000      -0.306576        -8.3423
  75   2.0000      -0.301964        -8.2169
  76   2.0000      -0.297360        -8.0916
  77   2.0000      -0.289880        -7.8880
  78   2.0000      -0.270575        -7.3627
  79   2.0000      -0.268623        -7.3096
  80   2.0000      -0.259315        -7.0563
  81   2.0000      -0.247933        -6.7466
  82   2.0000      -0.237622        -6.4660
  83   2.0000      -0.231046        -6.2871
  84   2.0000      -0.204256        -5.5581
  85   2.0000      -0.200424        -5.4538
  86   2.0000      -0.196650        -5.3511
  87   0.0000      -0.040888        -1.1126
  88   0.0000      -0.026781        -0.7288
  89   0.0000      -0.009694        -0.2638
  90   0.0000       0.007817         0.2127
  91   0.0000       0.018498         0.5033

MULLIKEN ATOMIC CHARGES
-----------------------
   0 C :   -0.306309
   1 C :   -0.012747
   2 O :   -0.224464
   3 C :    0.116681
   4 O :   -0.198135
   5 C :   -0.099373
   6 C :   -0.301477
   7 H :    0.149956
   8 C :    0.235283
   9 O :   -0.213501
  10 O :   -0.232153
  11 C :   -0.015314
  12 C :   -0.294795
  13 S :   -0.106700
  14 P :    0.621818
  15 S :   -0.316286
  16 O :   -0.390364
  17 C :   -0.097915
  18 O :   -0.361024
  19 C :   -0.114777
  20 H :    0.115814
  21 H :    0.115933
  22 H :    0.128097
  23 H :    0.106957
  24 H :    0.113629
  25 H :    0.125788
  26 H :    0.146829
  27 H :    0.111363
  28 H :    0.107158
  29 H :    0.112959
  30 H :    0.106437
  31 H :    0.130760
  32 H :    0.110798
  33 H :    0.117432
  34 H :    0.124326
  35 H :    0.131679
  36 H :    0.128433
  37 H :    0.127206
Sum of atomic charges:   -0.0000000

LOEWDIN ATOMIC CHARGES
----------------------
   0 C :   -0.355631
   1 C :   -0.108807
   2 O :   -0.053716
   3 C :    0.038350
   4 O :   -0.151973
   5 C :   -0.249038
   6 C :   -0.267401
   7 H :    0.142393
   8 C :    0.014793
   9 O :   -0.170055
  10 O :   -0.057914
  11 C :   -0.101181
  12 C :   -0.355383
  13 S :    0.085422
  14 P :    0.578898
  15 S :   -0.309863
  16 O :   -0.262696
  17 C :   -0.217256
  18 O :   -0.234077
  19 C :   -0.212353
  20 H :    0.125753
  21 H :    0.132046
  22 H :    0.130945
  23 H :    0.119932
  24 H :    0.122224
  25 H :    0.141035
  26 H :    0.161704
  27 H :    0.120224
  28 H :    0.118564
  29 H :    0.125268
  30 H :    0.128609
  31 H :    0.127035
  32 H :    0.106655
  33 H :    0.111453
  34 H :    0.121964
  35 H :    0.124531
  36 H :    0.113474
  37 H :    0.116073

  Mayer bond orders larger than 0.100000
B(  0-C ,  1-C ) :   1.1739 B(  0-C , 20-H ) :   0.9487 B(  0-C , 21-H ) :   0.9439
B(  0-C , 22-H ) :   0.9461 B(  1-C ,  2-O ) :   0.9095 B(  1-C , 23-H ) :   0.9369
B(  1-C , 24-H ) :   0.9149 B(  2-O ,  3-C ) :   1.2526 B(  3-C ,  4-O ) :   1.9970
B(  3-C ,  5-C ) :   0.9955 B(  5-C ,  6-C ) :   1.0633 B(  5-C , 25-H ) :   0.9034
B(  5-C , 26-H ) :   0.8691 B(  6-C ,  7-H ) :   0.8531 B(  6-C ,  8-C ) :   0.8724
B(  6-C , 13-S ) :   1.0184 B(  8-C ,  9-O ) :   2.0473 B(  8-C , 10-O ) :   1.2407
B( 10-O , 11-C ) :   0.8974 B( 11-C , 12-C ) :   1.1628 B( 11-C , 27-H ) :   0.9229
B( 11-C , 28-H ) :   0.9319 B( 12-C , 29-H ) :   0.9498 B( 12-C , 30-H ) :   0.9418
B( 12-C , 31-H ) :   0.9366 B( 13-S , 14-P ) :   0.9578 B( 13-S , 15-S ) :   0.1142
B( 14-P , 15-S ) :   1.6370 B( 14-P , 16-O ) :   1.0658 B( 14-P , 18-O ) :   1.1219
B( 16-O , 17-C ) :   0.9341 B( 17-C , 32-H ) :   0.9453 B( 17-C , 33-H ) :   0.9355
B( 17-C , 34-H ) :   0.9587 B( 18-O , 19-C ) :   0.9144 B( 19-C , 35-H ) :   0.9560
B( 19-C , 36-H ) :   0.9382 B( 19-C , 37-H ) :   0.9454

Dispersion correction           -0.052841227
FINAL SINGLE POINT ENERGY     -1979.021209135659

DIPOLE MOMENT
-------------

Method             : SCF
Type of density    : Electron Density
Multiplicity       :   1
Irrep              :   0
Energy             : -1979.1515200116427877 Eh
Relativity type    :
Basis              : AO
                                X                 Y                 Z
Electronic contribution:    -11.009207932      10.498108832      -6.761938931
Nuclear contribution   :     11.306402276     -12.531179335       6.949680079
                        -----------------------------------------
Total Dipole Moment    :      0.297194344      -2.033070503       0.187741148
                        -----------------------------------------
Magnitude (a.u.)       :      2.063236993
Magnitude (Debye)      :      5.244331661

Rotational constants in cm-1:             0.014193             0.006580             0.006020
Rotational constants in MHz :           425.490491           197.274441           180.484102

                             ****ORCA TERMINATED NORMALLY****
TOTAL RUN TIME: 0 days 0 hours 0 minutes 49 seconds 999 msec
