                         Program Version 6.0.1  -  RELEASE   -
|  1> ! pbe def2-sv(p) def2/J RI DEFGRID1 loosescf d4 GCP(DFT/SV(P)) printgap
|  2> %output
|  3>     printlevel normal
|  4> end
|  5> * xyz 0 1
|  6> C 1.2385674825 -3.5792849647 -2.3159954328
|  7> C 2.5097599695 -2.7456516476 -2.3330665027
|  8> O 2.3517070774 -1.5821924068 -1.4996860666
|  9> C 2.7769732229 -1.6344246007 -0.252734178
| 10> O 3.3650410479 -2.571179843 0.2377212026
| 11> C 2.4700190966 -0.3541220422 0.5050060197
| 12> C 1.0812873737 0.1797131842 0.1736817457
| 13> H 0.9935974068 0.3607274043 -0.9029234481
| 14> C 0.7736891263 1.4802869223 0.8929385624
| 15> O -0.2391068558 1.6434837972 1.5421823158
| 16> O 1.7140112743 2.3676742651 0.7158037475
| 17> C 1.5098390303 3.6981264363 1.2400273532
| 18> C 0.7875748412 4.5601621674 0.2181100091
| 19> S -0.1997557567 -1.0386433274 0.6370548182
| 20> P -1.914299267 0.1077146059 0.1152030987
| 21> S -1.6741353607 1.5016928525 -1.2359456444
| 22> O -2.9017957404 -1.0636719833 -0.3765079932
| 23> C -2.6564271728 -1.7879404099 -1.5840571458
| 24> O -2.7143367461 0.5728182568 1.3934928877
| 25> C -2.9815072747 -0.3013430103 2.5059034796
| 26> H 1.364816907 -4.442382899 -2.9609289177
| 27> H 1.0301651888 -3.9181761836 -1.3034918103
| 28> H 0.3996163308 -2.9867405475 -2.6712766841
| 29> H 2.714047274 -2.3527324118 -3.3295200162
| 30> H 3.3627056401 -3.3238168496 -1.9673639232
| 31> H 3.2082872454 0.3996923654 0.2227258804
| 32> H 2.5660914824 -0.5661132061 1.5703935849
| 33> H 0.9343493544 3.6246332288 2.1664755994
| 34> H 2.5151045297 4.0689935354 1.4390044544
| 35> H 0.6572524695 5.5603672488 0.6172703706
| 36> H 1.3602121366 4.6109962605 -0.7035290484
| 37> H -0.1910960056 4.1383248245 -0.0055440598
| 38> H -1.8376362145 -2.4913741484 -1.4318349597
| 39> H -2.4133051266 -1.0965271616 -2.3928988
| 40> H -3.5800276514 -2.317478421 -1.8032887913
| 41> H -3.5380106561 -1.1746822619 2.170073143
| 42> H -3.5718425974 0.2952150972 3.1964099145
| 43> H -2.0426838999 -0.6053387161 2.9686701543
| 44> *
| 45>
| 46>                          ****END OF INPUT****

CARTESIAN COORDINATES (ANGSTROEM)
---------------------------------
  C      1.238567   -3.579285   -2.315995
  C      2.509760   -2.745652   -2.333067
  O      2.351707   -1.582192   -1.499686
  C      2.776973   -1.634425   -0.252734
  O      3.365041   -2.571180    0.237721
  C      2.470019   -0.354122    0.505006
  C      1.081287    0.179713    0.173682
  H      0.993597    0.360727   -0.902923
  C      0.773689    1.480287    0.892939
  O     -0.239107    1.643484    1.542182
  O      1.714011    2.367674    0.715804
  C      1.509839    3.698126    1.240027
  C      0.787575    4.560162    0.218110
  S     -0.199756   -1.038643    0.637055
  P     -1.914299    0.107715    0.115203
  S     -1.674135    1.501693   -1.235946
  O     -2.901796   -1.063672   -0.376508
  C     -2.656427   -1.787940   -1.584057
  O     -2.714337    0.572818    1.393493
  C     -2.981507   -0.301343    2.505903
  H      1.364817   -4.442383   -2.960929
  H      1.030165   -3.918176   -1.303492
  H      0.399616   -2.986741   -2.671277
  H      2.714047   -2.352732   -3.329520
  H      3.362706   -3.323817   -1.967364
  H      3.208287    0.399692    0.222726
  H      2.566091   -0.566113    1.570394
  H      0.934349    3.624633    2.166476
  H      2.515105    4.068994    1.439004
  H      0.657252    5.560367    0.617270
  H      1.360212    4.610996   -0.703529
  H     -0.191096    4.138325   -0.005544
  H     -1.837636   -2.491374   -1.431835
  H     -2.413305   -1.096527   -2.392899
  H     -3.580028   -2.317478   -1.803289
  H     -3.538011   -1.174682    2.170073
  H     -3.571843    0.295215    3.196410
  H     -2.042684   -0.605339    2.968670

 Total Charge           Charge          ....    0
 Multiplicity           Mult            ....    1
 Number of Electrons    NEL             ....  174
 Basis Dimension        Dim             ....  316

ORBITAL ENERGIES
----------------

  NO   OCC          E(Eh)            E(eV)
   0   2.0000     -88.039505     -2395.6767
   1   2.0000     -87.978025     -2394.0038
   2   2.0000     -76.422751     -2079.5688
   3   2.0000     -18.817373      -512.0468
   4   2.0000     -18.807501      -511.7781
   5   2.0000     -18.785261      -511.1729
   6   2.0000     -18.784601      -511.1550
   7   2.0000     -18.746648      -510.1222
   8   2.0000     -18.741799      -509.9903
   9   2.0000     -10.021007      -272.6855
  10   2.0000     -10.015392      -272.5327
  11   2.0000      -9.954027      -270.8629
  12   2.0000      -9.951423      -270.7920
  13   2.0000      -9.947382      -270.6820
  14   2.0000      -9.943877      -270.5867
  15   2.0000      -9.940056      -270.4827
  16   2.0000      -9.918677      -269.9009
  17   2.0000      -9.890829      -269.1431
  18   2.0000      -9.885290      -268.9924
  19   2.0000      -7.684159      -209.0966
  20   2.0000      -7.623292      -207.4403
  21   2.0000      -6.419024      -174.6705
  22   2.0000      -5.711888      -155.4284
  23   2.0000      -5.708844      -155.3455
  24   2.0000      -5.701207      -155.1377
  25   2.0000      -5.652417      -153.8101
  26   2.0000      -5.643852      -153.5770
  27   2.0000      -5.643212      -153.5596
  28   2.0000      -4.641725      -126.3077
  29   2.0000      -4.641090      -126.2905
  30   2.0000      -4.639373      -126.2437
  31   2.0000      -1.025504       -27.9054
  32   2.0000      -1.015498       -27.6331
  33   2.0000      -0.979907       -26.6646
  34   2.0000      -0.935256       -25.4496
  35   2.0000      -0.927684       -25.2436
  36   2.0000      -0.919607       -25.0238
  37   2.0000      -0.768741       -20.9185
  38   2.0000      -0.714036       -19.4299
  39   2.0000      -0.710248       -19.3268
  40   2.0000      -0.690961       -18.8020
  41   2.0000      -0.659293       -17.9403
  42   2.0000      -0.630774       -17.1642
  43   2.0000      -0.624962       -17.0061
  44   2.0000      -0.616256       -16.7692
  45   2.0000      -0.596708       -16.2372
  46   2.0000      -0.568702       -15.4752
  47   2.0000      -0.513362       -13.9693
  48   2.0000      -0.505050       -13.7431
  49   2.0000      -0.502184       -13.6651
  50   2.0000      -0.478485       -13.0202
  51   2.0000      -0.469207       -12.7678
  52   2.0000      -0.467619       -12.7246
  53   2.0000      -0.450313       -12.2536
  54   2.0000      -0.440798       -11.9947
  55   2.0000      -0.435257       -11.8439
  56   2.0000      -0.426348       -11.6015
  57   2.0000      -0.421050       -11.4574
  58   2.0000      -0.410313       -11.1652
  59   2.0000      -0.408430       -11.1140
  60   2.0000      -0.403729       -10.9860
  61   2.0000      -0.400316       -10.8932
  62   2.0000      -0.394630       -10.7384
  63   2.0000      -0.388663       -10.5761
  64   2.0000      -0.379605       -10.3296
  65   2.0000      -0.367876       -10.0104
  66   2.0000      -0.360914        -9.8210
  67   2.0000      -0.357264        -9.7216
  68   2.0000      -0.349217        -9.5027
  69   2.0000      -0.337133        -9.1739
  70   2.0000      -0.335327        -9.1247
  71   2.0000      -0.333175        -9.0662
  72   2.0000      -0.329619        -8.9694
  73   2.0000      -0.316041        -8.5999
  74   2.0000      -0.303244        -8.2517
  75   2.0000      -0.299090        -8.1386
  76   2.0000      -0.294874        -8.0239
  77   2.0000      -0.290680        -7.9098
  78   2.0000      -0.272426        -7.4131
  79   2.0000      -0.264882        -7.2078
  80   2.0000      -0.263590        -7.1726
  81   2.0000      -0.255814        -6.9611
  82   2.0000      -0.240657        -6.5486
  83   2.0000      -0.224601        -6.1117
  84   2.0000      -0.219005        -5.9594
  85   2.0000      -0.198873        -5.4116
  86   2.0000      -0.193903        -5.2764
  87   0.0000      -0.045141        -1.2284
  88   0.0000      -0.036302        -0.9878
  89   0.0000      -0.014795        -0.4026
  90   0.0000       0.004774         0.1299
  91   0.0000       0.023872         0.6496

MULLIKEN ATOMIC CHARGES
-----------------------
   0 C :   -0.308298
   1 C :   -0.018573
   2 O :   -0.234688
   3 C :    0.128139
   4 O :   -0.188892
   5 C :   -0.108288
   6 C :   -0.300185
   7 H :    0.158966
   8 C :    0.213938
   9 O :   -0.182428
  10 O :   -0.226736
  11 C :   -0.012079
  12 C :   -0.309025
  13 S :   -0.109006
  14 P :    0.624173
  15 S :   -0.327161
  16 O :   -0.391956
  17 C :   -0.112465
  18 O :   -0.350266
  19 C :   -0.103194
  20 H :    0.113022
  21 H :    0.126684
  22 H :    0.124223
  23 H :    0.105773
  24 H :    0.113867
  25 H :    0.139053
  26 H :    0.112209
  27 H :    0.114179
  28 H :    0.104877
  29 H :    0.112917
  30 H :    0.114259
  31 H :    0.144297
  32 H :    0.122274
  33 H :    0.114663
  34 H :    0.122338
  35 H :    0.119869
  36 H :    0.130988
  37 H :    0.122533
Sum of atomic charges:   -0.0000000

LOEWDIN ATOMIC CHARGES
----------------------
   0 C :   -0.355408
   1 C :   -0.110566
   2 O :   -0.057940
   3 C :    0.024316
   4 O :   -0.159089
   5 C :   -0.245266
   6 C :   -0.270840
   7 H :    0.144323
   8 C :    0.013468
   9 O :   -0.159692
  10 O :   -0.042049
  11 C :   -0.106738
  12 C :   -0.356957
  13 S :    0.091363
  14 P :    0.589447
  15 S :   -0.320295
  16 O :   -0.265722
  17 C :   -0.221320
  18 O :   -0.228566
  19 C :   -0.207753
  20 H :    0.130669
  21 H :    0.130170
  22 H :    0.124505
  23 H :    0.119097
  24 H :    0.121485
  25 H :    0.154891
  26 H :    0.141321
  27 H :    0.123043
  28 H :    0.118519
  29 H :    0.131090
  30 H :    0.125695
  31 H :    0.134874
  32 H :    0.106671
  33 H :    0.109020
  34 H :    0.121358
  35 H :    0.113232
  36 H :    0.126646
  37 H :    0.113000

  Mayer bond orders larger than 0.100000
B(  0-C ,  1-C ) :   1.1772 B(  0-C , 20-H ) :   0.9417 B(  0-C , 21-H ) :   0.9457
B(  0-C , 22-H ) :   0.9410 B(  1-C ,  2-O ) :   0.9129 B(  1-C , 23-H ) :   0.9358
B(  1-C , 24-H ) :   0.9093 B(  2-O ,  3-C ) :   1.2144 B(  3-C ,  4-O ) :   2.0792
B(  3-C ,  5-C ) :   1.0137 B(  5-C ,  6-C ) :   1.0804 B(  5-C , 25-H ) :   0.8716
B(  5-C , 26-H ) :   0.9075 B(  6-C ,  7-H ) :   0.8348 B(  6-C ,  8-C ) :   0.8991
B(  6-C , 13-S ) :   1.0217 B(  8-C ,  9-O ) :   2.0130 B(  8-C , 10-O ) :   1.2623
B( 10-O , 11-C ) :   0.8980 B( 11-C , 12-C ) :   1.1805 B( 11-C , 27-H ) :   0.9119
B( 11-C , 28-H ) :   0.9364 B( 12-C , 29-H ) :   0.9419 B( 12-C , 30-H ) :   0.9487
B( 12-C , 31-H ) :   0.9350 B( 13-S , 14-P ) :   0.9401 B( 13-S , 15-S ) :   0.1112
B( 14-P , 15-S ) :   1.6143 B( 14-P , 16-O ) :   1.0562 B( 14-P , 18-O ) :   1.1410
B( 16-O , 17-C ) :   0.9390 B( 17-C , 32-H ) :   0.9410 B( 17-C , 33-H ) :   0.9336
B( 17-C , 34-H ) :   0.9564 B( 18-O , 19-C ) :   0.9206 B( 19-C , 35-H ) :   0.9459
B( 19-C , 36-H ) :   0.9599 B( 19-C , 37-H ) :   0.9417

Dispersion correction           -0.051366809
FINAL SINGLE POINT ENERGY     -1979.018842338567

DIPOLE MOMENT
-------------

Method             : SCF
Type of density    : Electron Density
Multiplicity       :   1
Irrep              :   0
Energy             : -1979.1486977814333841 Eh
Relativity type    :
Basis              : AO
                                X                 Y                 Z
Electronic contribution:     -5.090920328       1.996246774       4.756430182
Nuclear contribution   :      5.476574505      -2.198399118      -4.860701733
                        -----------------------------------------
Total Dipole Moment    :      0.385654178      -0.202152344      -0.104271551
                        -----------------------------------------
Magnitude (a.u.)       :      0.447735716
Magnitude (Debye)      :      1.138053747

Rotational constants in cm-1:             0.010679             0.008242             0.005847
Rotational constants in MHz :           320.154954           247.096982           175.282909

                             ****ORCA TERMINATED NORMALLY****
TOTAL RUN TIME: 0 days 0 hours 0 minutes 40 seconds 903 msec
