                         Program Version 6.0.0  -   RELEASE  -
|  1> ! pbe def2-sv(p) def2/J RI DEFGRID1 loosescf d4 GCP(DFT/SV(P)) printgap
|  2> %output
|  3>     printlevel normal
|  4> end
|  5> * xyz 0 1
|  6> C 0.8446804788 2.756229353 1.1232372556
|  7> C 2.2025036711 2.0998198496 1.2742239514
|  8> O 2.3465764336 1.0346572592 0.3053841954
|  9> P 2.2124670351 -0.4923725105 0.6905191792
| 10> S 0.8241256419 -0.9669663355 1.9982554737
| 11> O 3.6897177997 -0.8187570463 1.1802671146
| 12> C 4.0180220304 -2.011038078 1.9141865354
| 13> C 3.8862273025 -3.2570759949 1.0626735153
| 14> S 2.0663018276 -1.3292336806 -1.2389950579
| 15> C 0.2738238302 -1.2107206362 -1.3829948116
| 16> S -0.2673178093 0.5113345188 -1.6753027241
| 17> P -2.2082027353 0.2488874671 -0.8965222706
| 18> S -3.132630564 -1.3977878329 -1.3938241791
| 19> O -3.0238445159 1.5346793296 -1.3302659436
| 20> C -2.6490223337 2.8877052096 -0.9673816422
| 21> C -1.8646349882 3.5496855986 -2.0819601717
| 22> O -1.8859864754 0.4041876755 0.6643734613
| 23> C -2.7020607363 -0.2194744828 1.6710276932
| 24> C -3.9956866016 0.5407237904 1.8762125095
| 25> H 0.7683656857 3.5896984457 1.8141084124
| 26> H 0.7195167444 3.1129102286 0.1043302043
| 27> H 0.0593972198 2.0351635305 1.3434223572
| 28> H 2.3347292786 1.6946009518 2.2815719257
| 29> H 3.0120435615 2.7954595217 1.0486520874
| 30> H 5.0480436549 -1.8466582873 2.2330811931
| 31> H 3.3616766298 -2.0708941949 2.7885967177
| 32> H 4.4535524232 -3.1468431728 0.1420295565
| 33> H 4.2579570998 -4.1128019225 1.6171186502
| 34> H 2.8403863298 -3.4276915786 0.8098976581
| 35> H -0.1852544301 -1.5683356633 -0.4587381591
| 36> H -0.0235514181 -1.8253585825 -2.2296793833
| 37> H -3.6022122172 3.392993388 -0.8024682413
| 38> H -2.0757984104 2.8618168084 -0.0377255204
| 39> H -1.6669458434 4.5820981594 -1.8109293918
| 40> H -0.9198714077 3.0342045365 -2.2443916989
| 41> H -2.4362151644 3.5238620648 -3.0054453554
| 42> H -2.9042715112 -1.2514236224 1.3662501683
| 43> H -2.072690258 -0.2229351167 2.562998619
| 44> H -4.5694471102 0.0639206188 2.6644607928
| 45> H -3.7919501043 1.5719277432 2.152205668
| 46> H -4.5778560605 0.5249129174 0.9549101354
| 47> *
| 48>
| 49>                          ****END OF INPUT****

CARTESIAN COORDINATES (ANGSTROEM)
---------------------------------
  C      0.844680    2.756229    1.123237
  C      2.202504    2.099820    1.274224
  O      2.346576    1.034657    0.305384
  P      2.212467   -0.492373    0.690519
  S      0.824126   -0.966966    1.998255
  O      3.689718   -0.818757    1.180267
  C      4.018022   -2.011038    1.914187
  C      3.886227   -3.257076    1.062674
  S      2.066302   -1.329234   -1.238995
  C      0.273824   -1.210721   -1.382995
  S     -0.267318    0.511335   -1.675303
  P     -2.208203    0.248887   -0.896522
  S     -3.132631   -1.397788   -1.393824
  O     -3.023845    1.534679   -1.330266
  C     -2.649022    2.887705   -0.967382
  C     -1.864635    3.549686   -2.081960
  O     -1.885986    0.404188    0.664373
  C     -2.702061   -0.219474    1.671028
  C     -3.995687    0.540724    1.876213
  H      0.768366    3.589698    1.814108
  H      0.719517    3.112910    0.104330
  H      0.059397    2.035164    1.343422
  H      2.334729    1.694601    2.281572
  H      3.012044    2.795460    1.048652
  H      5.048044   -1.846658    2.233081
  H      3.361677   -2.070894    2.788597
  H      4.453552   -3.146843    0.142030
  H      4.257957   -4.112802    1.617119
  H      2.840386   -3.427692    0.809898
  H     -0.185254   -1.568336   -0.458738
  H     -0.023551   -1.825359   -2.229679
  H     -3.602212    3.392993   -0.802468
  H     -2.075798    2.861817   -0.037726
  H     -1.666946    4.582098   -1.810929
  H     -0.919871    3.034205   -2.244392
  H     -2.436215    3.523862   -3.005445
  H     -2.904272   -1.251424    1.366250
  H     -2.072690   -0.222935    2.562999
  H     -4.569447    0.063921    2.664461
  H     -3.791950    1.571928    2.152206
  H     -4.577856    0.524913    0.954910

 Total Charge           Charge          ....    0
 Multiplicity           Mult            ....    1
 Number of Electrons    NEL             ....  202
 Basis Dimension        Dim             ....  334

ORBITAL ENERGIES
----------------

  NO   OCC          E(Eh)            E(eV)
   0   2.0000     -88.049786     -2395.9565
   1   2.0000     -88.038615     -2395.6525
   2   2.0000     -87.991415     -2394.3681
   3   2.0000     -87.981349     -2394.0942
   4   2.0000     -76.429601     -2079.7552
   5   2.0000     -76.423095     -2079.5781
   6   2.0000     -18.795776      -511.4591
   7   2.0000     -18.795456      -511.4504
   8   2.0000     -18.789748      -511.2950
   9   2.0000     -18.787710      -511.2396
  10   2.0000      -9.960907      -271.0501
  11   2.0000      -9.955068      -270.8912
  12   2.0000      -9.954741      -270.8823
  13   2.0000      -9.954533      -270.8766
  14   2.0000      -9.943431      -270.5745
  15   2.0000      -9.892206      -269.1806
  16   2.0000      -9.886461      -269.0243
  17   2.0000      -9.882616      -268.9197
  18   2.0000      -9.882423      -268.9144
  19   2.0000      -7.695224      -209.3977
  20   2.0000      -7.683711      -209.0844
  21   2.0000      -7.636190      -207.7913
  22   2.0000      -7.626726      -207.5338
  23   2.0000      -6.427300      -174.8957
  24   2.0000      -6.420935      -174.7225
  25   2.0000      -5.723101      -155.7335
  26   2.0000      -5.719836      -155.6447
  27   2.0000      -5.712020      -155.4320
  28   2.0000      -5.711630      -155.4214
  29   2.0000      -5.708470      -155.3354
  30   2.0000      -5.700370      -155.1149
  31   2.0000      -5.664909      -154.1500
  32   2.0000      -5.657128      -153.9383
  33   2.0000      -5.656242      -153.9142
  34   2.0000      -5.655787      -153.9018
  35   2.0000      -5.647246      -153.6694
  36   2.0000      -5.646786      -153.6569
  37   2.0000      -4.649751      -126.5262
  38   2.0000      -4.648966      -126.5048
  39   2.0000      -4.647943      -126.4769
  40   2.0000      -4.643907      -126.3671
  41   2.0000      -4.642392      -126.3259
  42   2.0000      -4.641325      -126.2969
  43   2.0000      -0.988862       -26.9083
  44   2.0000      -0.984495       -26.7895
  45   2.0000      -0.946848       -25.7650
  46   2.0000      -0.943190       -25.6655
  47   2.0000      -0.766064       -20.8456
  48   2.0000      -0.724350       -19.7106
  49   2.0000      -0.711146       -19.3513
  50   2.0000      -0.692409       -18.8414
  51   2.0000      -0.687365       -18.7042
  52   2.0000      -0.675554       -18.3828
  53   2.0000      -0.652718       -17.7613
  54   2.0000      -0.636778       -17.3276
  55   2.0000      -0.601733       -16.3740
  56   2.0000      -0.587602       -15.9895
  57   2.0000      -0.579367       -15.7654
  58   2.0000      -0.575860       -15.6699
  59   2.0000      -0.555350       -15.1119
  60   2.0000      -0.503942       -13.7130
  61   2.0000      -0.498876       -13.5751
  62   2.0000      -0.477498       -12.9934
  63   2.0000      -0.472296       -12.8518
  64   2.0000      -0.453019       -12.3273
  65   2.0000      -0.450799       -12.2669
  66   2.0000      -0.441764       -12.0210
  67   2.0000      -0.437979       -11.9180
  68   2.0000      -0.428472       -11.6593
  69   2.0000      -0.420189       -11.4339
  70   2.0000      -0.412246       -11.2178
  71   2.0000      -0.396888       -10.7999
  72   2.0000      -0.395955       -10.7745
  73   2.0000      -0.386617       -10.5204
  74   2.0000      -0.382314       -10.4033
  75   2.0000      -0.372045       -10.1239
  76   2.0000      -0.369709       -10.0603
  77   2.0000      -0.360346        -9.8055
  78   2.0000      -0.357659        -9.7324
  79   2.0000      -0.354168        -9.6374
  80   2.0000      -0.351932        -9.5766
  81   2.0000      -0.345356        -9.3976
  82   2.0000      -0.342880        -9.3302
  83   2.0000      -0.337489        -9.1835
  84   2.0000      -0.336174        -9.1478
  85   2.0000      -0.316937        -8.6243
  86   2.0000      -0.310214        -8.4413
  87   2.0000      -0.304647        -8.2899
  88   2.0000      -0.298560        -8.1242
  89   2.0000      -0.289172        -7.8688
  90   2.0000      -0.279460        -7.6045
  91   2.0000      -0.276320        -7.5191
  92   2.0000      -0.271774        -7.3954
  93   2.0000      -0.266717        -7.2577
  94   2.0000      -0.264348        -7.1933
  95   2.0000      -0.233600        -6.3566
  96   2.0000      -0.220655        -6.0043
  97   2.0000      -0.211145        -5.7455
  98   2.0000      -0.206232        -5.6118
  99   2.0000      -0.201724        -5.4892
 100   2.0000      -0.195207        -5.3119
 101   0.0000      -0.042770        -1.1638
 102   0.0000      -0.031950        -0.8694
 103   0.0000      -0.012109        -0.3295
 104   0.0000       0.009991         0.2719
 105   0.0000       0.014246         0.3876

MULLIKEN ATOMIC CHARGES
-----------------------
   0 C :   -0.331970
   1 C :    0.009391
   2 O :   -0.359065
   3 P :    0.611490
   4 S :   -0.334200
   5 O :   -0.370890
   6 C :   -0.004168
   7 C :   -0.318759
   8 S :   -0.070856
   9 C :   -0.347566
  10 S :   -0.106246
  11 P :    0.611051
  12 S :   -0.320005
  13 O :   -0.366086
  14 C :   -0.042130
  15 C :   -0.305063
  16 O :   -0.375631
  17 C :   -0.008834
  18 C :   -0.309262
  19 H :    0.103381
  20 H :    0.117390
  21 H :    0.150347
  22 H :    0.100812
  23 H :    0.106687
  24 H :    0.106034
  25 H :    0.111122
  26 H :    0.119042
  27 H :    0.115222
  28 H :    0.128209
  29 H :    0.201650
  30 H :    0.191883
  31 H :    0.112181
  32 H :    0.124086
  33 H :    0.112333
  34 H :    0.142663
  35 H :    0.125560
  36 H :    0.112670
  37 H :    0.109815
  38 H :    0.113171
  39 H :    0.108910
  40 H :    0.125630
Sum of atomic charges:    0.0000000

LOEWDIN ATOMIC CHARGES
----------------------
   0 C :   -0.369415
   1 C :   -0.108747
   2 O :   -0.240546
   3 P :    0.574195
   4 S :   -0.313173
   5 O :   -0.245000
   6 C :   -0.120012
   7 C :   -0.369345
   8 S :    0.105047
   9 C :   -0.476577
  10 S :    0.073624
  11 P :    0.569625
  12 S :   -0.314331
  13 O :   -0.240978
  14 C :   -0.117309
  15 C :   -0.361131
  16 O :   -0.245118
  17 C :   -0.125322
  18 C :   -0.364392
  19 H :    0.125550
  20 H :    0.121912
  21 H :    0.126782
  22 H :    0.108573
  23 H :    0.118958
  24 H :    0.119214
  25 H :    0.110093
  26 H :    0.124962
  27 H :    0.132229
  28 H :    0.121701
  29 H :    0.123315
  30 H :    0.137691
  31 H :    0.122255
  32 H :    0.112867
  33 H :    0.131465
  34 H :    0.119663
  35 H :    0.131973
  36 H :    0.109178
  37 H :    0.113875
  38 H :    0.131306
  39 H :    0.120764
  40 H :    0.124579

  Mayer bond orders larger than 0.100000
B(  0-C ,  1-C ) :   1.1697 B(  0-C , 19-H ) :   0.9376 B(  0-C , 20-H ) :   0.9411
B(  0-C , 21-H ) :   0.9238 B(  1-C ,  2-O ) :   0.8953 B(  1-C , 22-H ) :   0.9139
B(  1-C , 23-H ) :   0.9329 B(  2-O ,  3-P ) :   1.1439 B(  3-P ,  4-S ) :   1.5909
B(  3-P ,  5-O ) :   1.1148 B(  3-P ,  8-S ) :   0.9564 B(  4-S ,  8-S ) :   0.1117
B(  5-O ,  6-C ) :   0.9081 B(  6-C ,  7-C ) :   1.1644 B(  6-C , 24-H ) :   0.9333
B(  6-C , 25-H ) :   0.9147 B(  7-C , 26-H ) :   0.9451 B(  7-C , 27-H ) :   0.9382
B(  7-C , 28-H ) :   0.9354 B(  8-S ,  9-C ) :   1.0159 B(  9-C , 10-S ) :   0.9664
B(  9-C , 29-H ) :   0.8596 B(  9-C , 30-H ) :   0.9040 B( 10-S , 11-P ) :   0.9773
B( 10-S , 12-S ) :   0.1067 B( 11-P , 12-S ) :   1.6272 B( 11-P , 13-O ) :   1.1229
B( 11-P , 16-O ) :   1.0679 B( 13-O , 14-C ) :   0.8985 B( 14-C , 15-C ) :   1.1710
B( 14-C , 31-H ) :   0.9329 B( 14-C , 32-H ) :   0.9101 B( 15-C , 33-H ) :   0.9383
B( 15-C , 34-H ) :   0.9291 B( 15-C , 35-H ) :   0.9444 B( 16-O , 17-C ) :   0.9018
B( 17-C , 18-C ) :   1.1615 B( 17-C , 36-H ) :   0.9110 B( 17-C , 37-H ) :   0.9261
B( 18-C , 38-H ) :   0.9409 B( 18-C , 39-H ) :   0.9477 B( 18-C , 40-H ) :   0.9372

Dispersion correction           -0.066131436
FINAL SINGLE POINT ENERGY     -2929.519387467522

DIPOLE MOMENT
-------------

Method             : SCF
Type of density    : Electron Density
Multiplicity       :   1
Irrep              :   0
Energy             : -2929.6392000185760480 Eh
Relativity type    :
Basis              : AO
                                X                 Y                 Z
Electronic contribution:      2.637611709     -11.665225664     -11.778333651
Nuclear contribution   :     -1.820947067      12.829251401      12.735366364
                        -----------------------------------------
Total Dipole Moment    :      0.816664642       1.164025737       0.957032713
                        -----------------------------------------
Magnitude (a.u.)       :      1.714003696
Magnitude (Debye)      :      4.356651165

Rotational constants in cm-1:             0.012115             0.005120             0.004870
Rotational constants in MHz :           363.200640           153.499052           146.002501

                             ****ORCA TERMINATED NORMALLY****
TOTAL RUN TIME: 0 days 0 hours 0 minutes 21 seconds 719 msec
