                         Program Version 6.0.0  -   RELEASE  -
|  1> ! pbe def2-sv(p) def2/J RI DEFGRID1 loosescf d4 GCP(DFT/SV(P)) printgap
|  2> %output
|  3>     printlevel normal
|  4> end
|  5> * xyz 0 1
|  6> C 4.9364645887 -1.3508019309 -1.4026687962
|  7> C 4.8603643201 -0.0348294068 -0.6566893722
|  8> O 3.74280261 0.0026079594 0.2472267485
|  9> P 2.2455270979 0.1228113406 -0.265474564
| 10> S 2.0180242705 1.2582638149 -1.8561806124
| 11> O 1.4762689277 0.4774370944 1.0753721685
| 12> C 1.8806572896 1.514842336 1.9970154181
| 13> C 1.9992864254 2.8694547249 1.3325878277
| 14> S 1.5867260806 -1.8666290794 -0.5243683332
| 15> C -0.0755628897 -1.5299352086 -1.1693388772
| 16> S -1.3512181197 -1.7616694485 0.1058534462
| 17> P -2.3200240894 0.137731898 0.0277730395
| 18> S -1.2352933935 1.7201610226 -0.341893965
| 19> O -3.1455640241 0.1766668537 1.3857620595
| 20> C -2.5797930043 0.6793707694 2.6095964526
| 21> C -1.5389898029 -0.2583966654 3.1877644395
| 22> O -3.4360978701 -0.0368412835 -1.0739756458
| 23> C -4.421764449 -1.099136908 -1.0790967506
| 24> C -5.6849070898 -0.6771811784 -0.357161583
| 25> H 4.9138715771 -2.1829325675 -0.7039081255
| 26> H 4.0897284119 -1.4410339669 -2.0814993242
| 27> H 5.8556308856 -1.3851106571 -1.9784873687
| 28> H 4.7662477223 0.8002971008 -1.3586016249
| 29> H 5.7262178213 0.1151250307 -0.0103870232
| 30> H 1.0893768716 1.5121925063 2.7486618175
| 31> H 2.8283297799 1.212398317 2.4478070942
| 32> H 1.0725541124 3.1155531303 0.8164143287
| 33> H 2.2059790186 3.6254867759 2.0832430886
| 34> H 2.8059741377 2.861699728 0.6003905257
| 35> H -0.2591921414 -2.2451162015 -1.9661903483
| 36> H -0.113621008 -0.5011868398 -1.5386945348
| 37> H -2.148091793 1.665273213 2.4085983732
| 38> H -3.4400634162 0.7803684225 3.2729678362
| 39> H -0.6587675051 -0.2871248413 2.5472737077
| 40> H -1.2484683843 0.0932559242 4.1727872682
| 41> H -1.9419104513 -1.2647460689 3.2692572699
| 42> H -4.6115317428 -1.2803081929 -2.1385980954
| 43> H -3.9820921009 -1.9898233196 -0.6211285389
| 44> H -6.4290938722 -1.4606351604 -0.4611324232
| 45> H -5.4816248244 -0.5127157195 0.6972067119
| 46> H -6.0701654932 0.2429429673 -0.7881848664
| 47> *
| 48>
| 49>                          ****END OF INPUT****

CARTESIAN COORDINATES (ANGSTROEM)
---------------------------------
  C      4.936465   -1.350802   -1.402669
  C      4.860364   -0.034829   -0.656689
  O      3.742803    0.002608    0.247227
  P      2.245527    0.122811   -0.265475
  S      2.018024    1.258264   -1.856181
  O      1.476269    0.477437    1.075372
  C      1.880657    1.514842    1.997015
  C      1.999286    2.869455    1.332588
  S      1.586726   -1.866629   -0.524368
  C     -0.075563   -1.529935   -1.169339
  S     -1.351218   -1.761669    0.105853
  P     -2.320024    0.137732    0.027773
  S     -1.235293    1.720161   -0.341894
  O     -3.145564    0.176667    1.385762
  C     -2.579793    0.679371    2.609596
  C     -1.538990   -0.258397    3.187764
  O     -3.436098   -0.036841   -1.073976
  C     -4.421764   -1.099137   -1.079097
  C     -5.684907   -0.677181   -0.357162
  H      4.913872   -2.182933   -0.703908
  H      4.089728   -1.441034   -2.081499
  H      5.855631   -1.385111   -1.978487
  H      4.766248    0.800297   -1.358602
  H      5.726218    0.115125   -0.010387
  H      1.089377    1.512193    2.748662
  H      2.828330    1.212398    2.447807
  H      1.072554    3.115553    0.816414
  H      2.205979    3.625487    2.083243
  H      2.805974    2.861700    0.600391
  H     -0.259192   -2.245116   -1.966190
  H     -0.113621   -0.501187   -1.538695
  H     -2.148092    1.665273    2.408598
  H     -3.440063    0.780368    3.272968
  H     -0.658768   -0.287125    2.547274
  H     -1.248468    0.093256    4.172787
  H     -1.941910   -1.264746    3.269257
  H     -4.611532   -1.280308   -2.138598
  H     -3.982092   -1.989823   -0.621129
  H     -6.429094   -1.460635   -0.461132
  H     -5.481625   -0.512716    0.697207
  H     -6.070165    0.242943   -0.788185

 Total Charge           Charge          ....    0
 Multiplicity           Mult            ....    1
 Number of Electrons    NEL             ....  202
 Basis Dimension        Dim             ....  334

ORBITAL ENERGIES
----------------

  NO   OCC          E(Eh)            E(eV)
   0   2.0000     -88.039749     -2395.6834
   1   2.0000     -88.038564     -2395.6511
   2   2.0000     -87.980306     -2394.0658
   3   2.0000     -87.979994     -2394.0573
   4   2.0000     -76.423904     -2079.6001
   5   2.0000     -76.422583     -2079.5642
   6   2.0000     -18.796215      -511.4710
   7   2.0000     -18.794589      -511.4268
   8   2.0000     -18.788540      -511.2622
   9   2.0000     -18.784995      -511.1657
  10   2.0000      -9.953764      -270.8557
  11   2.0000      -9.953670      -270.8531
  12   2.0000      -9.953654      -270.8527
  13   2.0000      -9.952512      -270.8216
  14   2.0000      -9.950942      -270.7789
  15   2.0000      -9.884649      -268.9750
  16   2.0000      -9.884209      -268.9630
  17   2.0000      -9.883436      -268.9420
  18   2.0000      -9.875775      -268.7335
  19   2.0000      -7.684633      -209.1095
  20   2.0000      -7.684173      -209.0970
  21   2.0000      -7.625392      -207.4975
  22   2.0000      -7.624888      -207.4837
  23   2.0000      -6.421254      -174.7312
  24   2.0000      -6.420285      -174.7048
  25   2.0000      -5.712468      -155.4441
  26   2.0000      -5.712075      -155.4335
  27   2.0000      -5.709064      -155.3515
  28   2.0000      -5.708773      -155.3436
  29   2.0000      -5.701745      -155.1524
  30   2.0000      -5.700920      -155.1299
  31   2.0000      -5.654403      -153.8641
  32   2.0000      -5.653840      -153.8488
  33   2.0000      -5.646061      -153.6371
  34   2.0000      -5.645619      -153.6251
  35   2.0000      -5.645350      -153.6178
  36   2.0000      -5.644961      -153.6072
  37   2.0000      -4.644249      -126.3764
  38   2.0000      -4.643222      -126.3485
  39   2.0000      -4.642838      -126.3380
  40   2.0000      -4.641960      -126.3142
  41   2.0000      -4.641502      -126.3017
  42   2.0000      -4.640458      -126.2733
  43   2.0000      -0.987137       -26.8614
  44   2.0000      -0.986639       -26.8478
  45   2.0000      -0.944772       -25.7086
  46   2.0000      -0.942557       -25.6483
  47   2.0000      -0.759295       -20.6615
  48   2.0000      -0.719366       -19.5749
  49   2.0000      -0.707768       -19.2594
  50   2.0000      -0.689833       -18.7713
  51   2.0000      -0.687003       -18.6943
  52   2.0000      -0.673171       -18.3179
  53   2.0000      -0.649560       -17.6754
  54   2.0000      -0.631318       -17.1790
  55   2.0000      -0.597041       -16.2463
  56   2.0000      -0.590318       -16.0634
  57   2.0000      -0.574950       -15.6452
  58   2.0000      -0.573767       -15.6130
  59   2.0000      -0.556578       -15.1453
  60   2.0000      -0.499073       -13.5805
  61   2.0000      -0.494095       -13.4450
  62   2.0000      -0.475196       -12.9307
  63   2.0000      -0.469151       -12.7662
  64   2.0000      -0.455025       -12.3818
  65   2.0000      -0.447796       -12.1852
  66   2.0000      -0.441740       -12.0203
  67   2.0000      -0.429769       -11.6946
  68   2.0000      -0.429314       -11.6822
  69   2.0000      -0.415552       -11.3078
  70   2.0000      -0.412990       -11.2380
  71   2.0000      -0.407134       -11.0787
  72   2.0000      -0.393561       -10.7093
  73   2.0000      -0.384219       -10.4551
  74   2.0000      -0.379030       -10.3139
  75   2.0000      -0.368300       -10.0219
  76   2.0000      -0.364454        -9.9173
  77   2.0000      -0.355565        -9.6754
  78   2.0000      -0.353018        -9.6061
  79   2.0000      -0.351146        -9.5552
  80   2.0000      -0.346572        -9.4307
  81   2.0000      -0.341726        -9.2988
  82   2.0000      -0.340956        -9.2779
  83   2.0000      -0.334548        -9.1035
  84   2.0000      -0.330243        -8.9864
  85   2.0000      -0.317186        -8.6311
  86   2.0000      -0.310099        -8.4382
  87   2.0000      -0.295677        -8.0458
  88   2.0000      -0.294301        -8.0083
  89   2.0000      -0.289728        -7.8839
  90   2.0000      -0.285975        -7.7818
  91   2.0000      -0.274831        -7.4785
  92   2.0000      -0.269831        -7.3425
  93   2.0000      -0.260501        -7.0886
  94   2.0000      -0.258008        -7.0208
  95   2.0000      -0.232902        -6.3376
  96   2.0000      -0.218619        -5.9489
  97   2.0000      -0.212878        -5.7927
  98   2.0000      -0.196453        -5.3458
  99   2.0000      -0.192030        -5.2254
 100   2.0000      -0.183720        -4.9993
 101   0.0000      -0.036826        -1.0021
 102   0.0000      -0.029234        -0.7955
 103   0.0000      -0.022119        -0.6019
 104   0.0000       0.013251         0.3606
 105   0.0000       0.024422         0.6646

MULLIKEN ATOMIC CHARGES
-----------------------
   0 C :   -0.318071
   1 C :   -0.006145
   2 O :   -0.379325
   3 P :    0.619935
   4 S :   -0.307757
   5 O :   -0.364881
   6 C :    0.002344
   7 C :   -0.323620
   8 S :   -0.084440
   9 C :   -0.350982
  10 S :   -0.104154
  11 P :    0.589149
  12 S :   -0.285931
  13 O :   -0.381787
  14 C :   -0.004420
  15 C :   -0.345885
  16 O :   -0.355209
  17 C :   -0.012661
  18 C :   -0.293098
  19 H :    0.117666
  20 H :    0.129874
  21 H :    0.114527
  22 H :    0.112209
  23 H :    0.103497
  24 H :    0.101841
  25 H :    0.106531
  26 H :    0.143230
  27 H :    0.105664
  28 H :    0.122619
  29 H :    0.184008
  30 H :    0.201778
  31 H :    0.108575
  32 H :    0.104116
  33 H :    0.164321
  34 H :    0.110893
  35 H :    0.116188
  36 H :    0.108509
  37 H :    0.099620
  38 H :    0.108303
  39 H :    0.122768
  40 H :    0.120198
Sum of atomic charges:    0.0000000

LOEWDIN ATOMIC CHARGES
----------------------
   0 C :   -0.369719
   1 C :   -0.121673
   2 O :   -0.242731
   3 P :    0.577701
   4 S :   -0.307264
   5 O :   -0.241787
   6 C :   -0.108665
   7 C :   -0.370737
   8 S :    0.082280
   9 C :   -0.476047
  10 S :    0.069029
  11 P :    0.561638
  12 S :   -0.282663
  13 O :   -0.246624
  14 C :   -0.117187
  15 C :   -0.375894
  16 O :   -0.239171
  17 C :   -0.117271
  18 C :   -0.360899
  19 H :    0.124775
  20 H :    0.122870
  21 H :    0.132120
  22 H :    0.110314
  23 H :    0.117500
  24 H :    0.115600
  25 H :    0.111777
  26 H :    0.129659
  27 H :    0.127272
  28 H :    0.119842
  29 H :    0.135966
  30 H :    0.127477
  31 H :    0.109215
  32 H :    0.117617
  33 H :    0.127154
  34 H :    0.128924
  35 H :    0.124796
  36 H :    0.120616
  37 H :    0.100847
  38 H :    0.128770
  39 H :    0.125665
  40 H :    0.128911

  Mayer bond orders larger than 0.100000
B(  0-C ,  1-C ) :   1.1674 B(  0-C , 19-H ) :   0.9455 B(  0-C , 20-H ) :   0.9336
B(  0-C , 21-H ) :   0.9383 B(  1-C ,  2-O ) :   0.9049 B(  1-C , 22-H ) :   0.9107
B(  1-C , 23-H ) :   0.9324 B(  2-O ,  3-P ) :   1.0894 B(  3-P ,  4-S ) :   1.6224
B(  3-P ,  5-O ) :   1.1176 B(  3-P ,  8-S ) :   0.9564 B(  4-S ,  8-S ) :   0.1159
B(  5-O ,  6-C ) :   0.9028 B(  6-C ,  7-C ) :   1.1684 B(  6-C , 24-H ) :   0.9276
B(  6-C , 25-H ) :   0.9328 B(  7-C , 26-H ) :   0.9368 B(  7-C , 27-H ) :   0.9348
B(  7-C , 28-H ) :   0.9346 B(  8-S ,  9-C ) :   1.0101 B(  9-C , 10-S ) :   0.9813
B(  9-C , 29-H ) :   0.9117 B(  9-C , 30-H ) :   0.8478 B( 10-S , 11-P ) :   0.9548
B( 10-S , 12-S ) :   0.1133 B( 11-P , 12-S ) :   1.6564 B( 11-P , 13-O ) :   1.0777
B( 11-P , 16-O ) :   1.1322 B( 13-O , 14-C ) :   0.9076 B( 14-C , 15-C ) :   1.1683
B( 14-C , 31-H ) :   0.9144 B( 14-C , 32-H ) :   0.9338 B( 15-C , 33-H ) :   0.9180
B( 15-C , 34-H ) :   0.9360 B( 15-C , 35-H ) :   0.9418 B( 16-O , 17-C ) :   0.9020
B( 17-C , 18-C ) :   1.1627 B( 17-C , 36-H ) :   0.9365 B( 17-C , 37-H ) :   0.9085
B( 18-C , 38-H ) :   0.9394 B( 18-C , 39-H ) :   0.9410 B( 18-C , 40-H ) :   0.9473

Dispersion correction           -0.066014581
FINAL SINGLE POINT ENERGY     -2929.513345516697

DIPOLE MOMENT
-------------

Method             : SCF
Type of density    : Electron Density
Multiplicity       :   1
Irrep              :   0
Energy             : -2929.6330503743574809 Eh
Relativity type    :
Basis              : AO
                                X                 Y                 Z
Electronic contribution:      0.902863266      -1.961442714      -9.914103105
Nuclear contribution   :     -0.950077209       1.177929192      11.024190230
                        -----------------------------------------
Total Dipole Moment    :     -0.047213944      -0.783513522       1.110087125
                        -----------------------------------------
Magnitude (a.u.)       :      1.359564644
Magnitude (Debye)      :      3.455738693

Rotational constants in cm-1:             0.013859             0.004869             0.004481
Rotational constants in MHz :           415.479334           145.970271           134.347531

                             ****ORCA TERMINATED NORMALLY****
TOTAL RUN TIME: 0 days 0 hours 0 minutes 20 seconds 997 msec
