                         Program Version 6.0.0  -   RELEASE  -
|  1> ! pbe def2-sv(p) def2/J RI DEFGRID1 loosescf d4 GCP(DFT/SV(P)) printgap
|  2> %output
|  3>     printlevel normal
|  4> end
|  5> * xyz 0 1
|  6> C 2.1833648761 2.3385869264 2.4541144139
|  7> C 2.6191969724 2.2119356704 1.0091996911
|  8> O 1.7762416692 1.2987891042 0.2705272897
|  9> P 1.7094048147 -0.2538293581 0.5572657111
| 10> S 0.5118703497 -0.9321388434 1.9617012161
| 11> O 3.2459424418 -0.5615922977 0.8547469836
| 12> C 3.6864549506 -1.8661787319 1.2709659835
| 13> C 5.0583636254 -1.7192300298 1.8982353945
| 14> S 1.4153175201 -1.0627245088 -1.3799752993
| 15> C -0.1067276783 -2.0190607915 -1.1382521366
| 16> S -1.534784803 -1.3979260229 -2.0838361966
| 17> P -2.2070770151 0.1325931638 -0.8081061163
| 18> S -3.7954882542 1.1222607068 -1.3774460022
| 19> O -0.9186452986 1.0470539164 -0.5195544388
| 20> C -0.730707775 2.2695237792 -1.254743209
| 21> C -0.2828843603 2.0104927754 -2.6788417198
| 22> O -2.3536944516 -0.7026140114 0.5301725149
| 23> C -3.1933653712 -0.2647020691 1.6183791692
| 24> C -2.6842536597 1.0109234649 2.2540976705
| 25> H 1.143220316 2.6515713692 2.510843292
| 26> H 2.2818978764 1.3784458611 2.9594064967
| 27> H 2.8060236475 3.0707943254 2.9585223098
| 28> H 3.6517557564 1.8658825537 0.9394495951
| 29> H 2.5081322391 3.1555933095 0.4722370718
| 30> H 2.9603873854 -2.2691769783 1.9856143233
| 31> H 3.718954385 -2.5121787086 0.3894945449
| 32> H 5.0056035343 -1.0758272186 2.7720248451
| 33> H 5.4186519884 -2.6978989061 2.1974690891
| 34> H 5.7496253225 -1.2858331041 1.1812909332
| 35> H -0.3518162526 -2.0350451559 -0.0733998499
| 36> H 0.0699764833 -3.0198391201 -1.5223695118
| 37> H -1.6760330033 2.8222913086 -1.2458328644
| 38> H 0.0245674994 2.8109507084 -0.6856807136
| 39> H 0.6358577211 1.4287395942 -2.691010678
| 40> H -1.0563839536 1.4605394985 -3.2153647082
| 41> H -0.1146234306 2.9589602307 -3.1786756221
| 42> H -4.2081696619 -0.1276413411 1.2321272781
| 43> H -3.1644354741 -1.1018335079 2.3170007499
| 44> H -3.2952916948 1.2510110206 3.1182467572
| 45> H -1.6507528298 0.8814592981 2.5669239597
| 46> H -2.7412159938 1.8302140053 1.5379462762
| 47> *
| 48>
| 49>                          ****END OF INPUT****

CARTESIAN COORDINATES (ANGSTROEM)
---------------------------------
  C      2.183365    2.338587    2.454114
  C      2.619197    2.211936    1.009200
  O      1.776242    1.298789    0.270527
  P      1.709405   -0.253829    0.557266
  S      0.511870   -0.932139    1.961701
  O      3.245942   -0.561592    0.854747
  C      3.686455   -1.866179    1.270966
  C      5.058364   -1.719230    1.898235
  S      1.415318   -1.062725   -1.379975
  C     -0.106728   -2.019061   -1.138252
  S     -1.534785   -1.397926   -2.083836
  P     -2.207077    0.132593   -0.808106
  S     -3.795488    1.122261   -1.377446
  O     -0.918645    1.047054   -0.519554
  C     -0.730708    2.269524   -1.254743
  C     -0.282884    2.010493   -2.678842
  O     -2.353694   -0.702614    0.530173
  C     -3.193365   -0.264702    1.618379
  C     -2.684254    1.010923    2.254098
  H      1.143220    2.651571    2.510843
  H      2.281898    1.378446    2.959406
  H      2.806024    3.070794    2.958522
  H      3.651756    1.865883    0.939450
  H      2.508132    3.155593    0.472237
  H      2.960387   -2.269177    1.985614
  H      3.718954   -2.512179    0.389495
  H      5.005604   -1.075827    2.772025
  H      5.418652   -2.697899    2.197469
  H      5.749625   -1.285833    1.181291
  H     -0.351816   -2.035045   -0.073400
  H      0.069976   -3.019839   -1.522370
  H     -1.676033    2.822291   -1.245833
  H      0.024567    2.810951   -0.685681
  H      0.635858    1.428740   -2.691011
  H     -1.056384    1.460539   -3.215365
  H     -0.114623    2.958960   -3.178676
  H     -4.208170   -0.127641    1.232127
  H     -3.164435   -1.101834    2.317001
  H     -3.295292    1.251011    3.118247
  H     -1.650753    0.881459    2.566924
  H     -2.741216    1.830214    1.537946

 Total Charge           Charge          ....    0
 Multiplicity           Mult            ....    1
 Number of Electrons    NEL             ....  202
 Basis Dimension        Dim             ....  334

ORBITAL ENERGIES
----------------

  NO   OCC          E(Eh)            E(eV)
   0   2.0000     -88.046906     -2395.8781
   1   2.0000     -88.037773     -2395.6296
   2   2.0000     -87.993406     -2394.4223
   3   2.0000     -87.982526     -2394.1262
   4   2.0000     -76.433334     -2079.8567
   5   2.0000     -76.419458     -2079.4792
   6   2.0000     -18.799105      -511.5497
   7   2.0000     -18.798976      -511.5461
   8   2.0000     -18.783067      -511.1132
   9   2.0000     -18.782730      -511.1041
  10   2.0000      -9.963053      -271.1084
  11   2.0000      -9.957091      -270.9462
  12   2.0000      -9.955466      -270.9020
  13   2.0000      -9.943637      -270.5801
  14   2.0000      -9.939491      -270.4673
  15   2.0000      -9.894229      -269.2356
  16   2.0000      -9.890783      -269.1419
  17   2.0000      -9.872311      -268.6392
  18   2.0000      -9.871469      -268.6163
  19   2.0000      -7.691886      -209.3069
  20   2.0000      -7.683413      -209.0763
  21   2.0000      -7.638115      -207.8437
  22   2.0000      -7.627760      -207.5619
  23   2.0000      -6.430504      -174.9829
  24   2.0000      -6.417365      -174.6254
  25   2.0000      -5.719763      -155.6427
  26   2.0000      -5.716304      -155.5485
  27   2.0000      -5.711663      -155.4222
  28   2.0000      -5.708939      -155.3481
  29   2.0000      -5.707650      -155.3130
  30   2.0000      -5.700181      -155.1098
  31   2.0000      -5.666843      -154.2026
  32   2.0000      -5.659047      -153.9905
  33   2.0000      -5.658110      -153.9650
  34   2.0000      -5.656663      -153.9256
  35   2.0000      -5.648448      -153.7021
  36   2.0000      -5.647836      -153.6854
  37   2.0000      -4.653371      -126.6247
  38   2.0000      -4.652064      -126.5891
  39   2.0000      -4.650920      -126.5580
  40   2.0000      -4.639641      -126.2510
  41   2.0000      -4.639285      -126.2414
  42   2.0000      -4.637929      -126.2045
  43   2.0000      -0.996070       -27.1045
  44   2.0000      -0.976478       -26.5713
  45   2.0000      -0.950701       -25.8699
  46   2.0000      -0.936714       -25.4893
  47   2.0000      -0.761639       -20.7252
  48   2.0000      -0.725193       -19.7335
  49   2.0000      -0.704594       -19.1730
  50   2.0000      -0.697058       -18.9679
  51   2.0000      -0.676432       -18.4066
  52   2.0000      -0.672836       -18.3088
  53   2.0000      -0.653370       -17.7791
  54   2.0000      -0.638965       -17.3871
  55   2.0000      -0.600397       -16.3376
  56   2.0000      -0.589104       -16.0303
  57   2.0000      -0.579155       -15.7596
  58   2.0000      -0.563838       -15.3428
  59   2.0000      -0.560177       -15.2432
  60   2.0000      -0.511675       -13.9234
  61   2.0000      -0.485291       -13.2054
  62   2.0000      -0.481274       -13.0961
  63   2.0000      -0.465625       -12.6703
  64   2.0000      -0.459090       -12.4925
  65   2.0000      -0.447385       -12.1740
  66   2.0000      -0.444003       -12.0819
  67   2.0000      -0.429634       -11.6909
  68   2.0000      -0.424292       -11.5456
  69   2.0000      -0.417673       -11.3655
  70   2.0000      -0.411213       -11.1897
  71   2.0000      -0.403567       -10.9816
  72   2.0000      -0.391077       -10.6417
  73   2.0000      -0.386292       -10.5116
  74   2.0000      -0.384071       -10.4511
  75   2.0000      -0.374222       -10.1831
  76   2.0000      -0.362559        -9.8657
  77   2.0000      -0.360922        -9.8212
  78   2.0000      -0.354642        -9.6503
  79   2.0000      -0.347859        -9.4657
  80   2.0000      -0.346620        -9.4320
  81   2.0000      -0.342688        -9.3250
  82   2.0000      -0.338036        -9.1984
  83   2.0000      -0.333143        -9.0653
  84   2.0000      -0.322132        -8.7657
  85   2.0000      -0.319552        -8.6955
  86   2.0000      -0.314460        -8.5569
  87   2.0000      -0.307269        -8.3612
  88   2.0000      -0.297485        -8.0950
  89   2.0000      -0.287792        -7.8312
  90   2.0000      -0.281573        -7.6620
  91   2.0000      -0.278324        -7.5736
  92   2.0000      -0.268020        -7.2932
  93   2.0000      -0.265787        -7.2324
  94   2.0000      -0.256839        -6.9889
  95   2.0000      -0.229946        -6.2571
  96   2.0000      -0.217277        -5.9124
  97   2.0000      -0.211936        -5.7671
  98   2.0000      -0.206075        -5.6076
  99   2.0000      -0.201299        -5.4776
 100   2.0000      -0.198346        -5.3973
 101   0.0000      -0.041281        -1.1233
 102   0.0000      -0.024187        -0.6582
 103   0.0000      -0.016487        -0.4486
 104   0.0000       0.000803         0.0219
 105   0.0000       0.007729         0.2103

MULLIKEN ATOMIC CHARGES
-----------------------
   0 C :   -0.317417
   1 C :   -0.006578
   2 O :   -0.372748
   3 P :    0.648561
   4 S :   -0.314835
   5 O :   -0.391329
   6 C :   -0.006253
   7 C :   -0.284238
   8 S :   -0.085956
   9 C :   -0.371241
  10 S :   -0.071927
  11 P :    0.619707
  12 S :   -0.325114
  13 O :   -0.383377
  14 C :   -0.010164
  15 C :   -0.314234
  16 O :   -0.372458
  17 C :    0.006836
  18 C :   -0.324940
  19 H :    0.128698
  20 H :    0.127789
  21 H :    0.112675
  22 H :    0.115217
  23 H :    0.110207
  24 H :    0.105004
  25 H :    0.098174
  26 H :    0.117034
  27 H :    0.114372
  28 H :    0.116862
  29 H :    0.216202
  30 H :    0.183244
  31 H :    0.111209
  32 H :    0.102256
  33 H :    0.125277
  34 H :    0.119370
  35 H :    0.103397
  36 H :    0.110417
  37 H :    0.102494
  38 H :    0.105781
  39 H :    0.134152
  40 H :    0.117874
Sum of atomic charges:   -0.0000000

LOEWDIN ATOMIC CHARGES
----------------------
   0 C :   -0.365513
   1 C :   -0.111418
   2 O :   -0.231513
   3 P :    0.577660
   4 S :   -0.286618
   5 O :   -0.253426
   6 C :   -0.123544
   7 C :   -0.350973
   8 S :    0.092827
   9 C :   -0.482961
  10 S :    0.088345
  11 P :    0.573737
  12 S :   -0.317752
  13 O :   -0.248017
  14 C :   -0.128804
  15 C :   -0.370158
  16 O :   -0.241123
  17 C :   -0.113113
  18 C :   -0.372319
  19 H :    0.130754
  20 H :    0.122786
  21 H :    0.130703
  22 H :    0.114730
  23 H :    0.118672
  24 H :    0.106050
  25 H :    0.108691
  26 H :    0.126551
  27 H :    0.132106
  28 H :    0.126505
  29 H :    0.127399
  30 H :    0.139055
  31 H :    0.105165
  32 H :    0.112363
  33 H :    0.117808
  34 H :    0.119582
  35 H :    0.126828
  36 H :    0.110579
  37 H :    0.118897
  38 H :    0.127695
  39 H :    0.122053
  40 H :    0.119709

  Mayer bond orders larger than 0.100000
B(  0-C ,  1-C ) :   1.1707 B(  0-C , 19-H ) :   0.9456 B(  0-C , 20-H ) :   0.9336
B(  0-C , 21-H ) :   0.9365 B(  1-C ,  2-O ) :   0.9002 B(  1-C , 22-H ) :   0.9250
B(  1-C , 23-H ) :   0.9289 B(  2-O ,  3-P ) :   1.1254 B(  3-P ,  4-S ) :   1.6174
B(  3-P ,  5-O ) :   1.0634 B(  3-P ,  8-S ) :   0.9619 B(  4-S ,  8-S ) :   0.1268
B(  5-O ,  6-C ) :   0.9086 B(  6-C ,  7-C ) :   1.1596 B(  6-C , 24-H ) :   0.9062
B(  6-C , 25-H ) :   0.9261 B(  7-C , 26-H ) :   0.9519 B(  7-C , 27-H ) :   0.9420
B(  7-C , 28-H ) :   0.9508 B(  8-S ,  9-C ) :   0.9984 B(  9-C , 10-S ) :   0.9859
B(  9-C , 29-H ) :   0.8446 B(  9-C , 30-H ) :   0.9110 B( 10-S , 11-P ) :   0.9806
B( 11-P , 12-S ) :   1.6282 B( 11-P , 13-O ) :   1.0674 B( 11-P , 16-O ) :   1.1191
B( 13-O , 14-C ) :   0.9032 B( 14-C , 15-C ) :   1.1721 B( 14-C , 31-H ) :   0.9090
B( 14-C , 32-H ) :   0.9197 B( 15-C , 33-H ) :   0.9363 B( 15-C , 34-H ) :   0.9363
B( 15-C , 35-H ) :   0.9389 B( 16-O , 17-C ) :   0.9002 B( 17-C , 18-C ) :   1.1650
B( 17-C , 36-H ) :   0.9210 B( 17-C , 37-H ) :   0.9338 B( 18-C , 38-H ) :   0.9373
B( 18-C , 39-H ) :   0.9328 B( 18-C , 40-H ) :   0.9344

Dispersion correction           -0.068224548
FINAL SINGLE POINT ENERGY     -2929.520189123822

DIPOLE MOMENT
-------------

Method             : SCF
Type of density    : Electron Density
Multiplicity       :   1
Irrep              :   0
Energy             : -2929.6409419590540892 Eh
Relativity type    :
Basis              : AO
                                X                 Y                 Z
Electronic contribution:    -15.165987018     -10.785674886     -14.920147822
Nuclear contribution   :     17.189685745      10.923861568      15.828779541
                        -----------------------------------------
Total Dipole Moment    :      2.023698727       0.138186682       0.908631719
                        -----------------------------------------
Magnitude (a.u.)       :      2.222625407
Magnitude (Debye)      :      5.649464814

Rotational constants in cm-1:             0.012387             0.005535             0.005278
Rotational constants in MHz :           371.354269           165.921323           158.216990

                             ****ORCA TERMINATED NORMALLY****
TOTAL RUN TIME: 0 days 0 hours 0 minutes 22 seconds 72 msec
