                         Program Version 6.0.0  -   RELEASE  -
|  1> ! wb97x-v def2-tzvp def2/J RIJCOSX DEFGRID2 scfconv7 GCP(DFT/TZ) printgap
|  2> %output
|  3>     printlevel normal
|  4> end
|  5> * xyz 0 1
|  6> C 2.110734936075134 -4.1533015828410065e-05 0.018622929808500107
|  7> N 0.6546114473642685 0.00013187572172640812 -0.045475190731281326
|  8> C -0.13897158713019586 1.1192195918800296 -0.01609881188864313
|  9> C -1.4581998023206855 0.7103835952947924 0.01576302744882846
| 10> C -1.4578853774168936 -0.7109444700553471 0.015330791830197687
| 11> C -0.13851393941193696 -1.1192794557337733 -0.016701561497110357
| 12> H 2.4591408246227617 -0.021483496485134455 1.0564725786629567
| 13> H 2.497688946650874 -0.8768760033768764 -0.5048685746946145
| 14> H 2.4947980584512006 0.8992990615992915 -0.4671515746498635
| 15> H 0.300663431157998 2.106465705987232 -0.02556584870679355
| 16> H -2.3210305889936915 1.3614269524040317 0.02607178988312055
| 17> H -2.3204662249850494 -1.3623358963436272 0.025424991803714266
| 18> H 0.3014899793328303 -2.1063748260093416 -0.02646790716555937
| 19> *
| 20>
| 21>                          ****END OF INPUT****

CARTESIAN COORDINATES (ANGSTROEM)
---------------------------------
  C      2.110735   -0.000042    0.018623
  N      0.654611    0.000132   -0.045475
  C     -0.138972    1.119220   -0.016099
  C     -1.458200    0.710384    0.015763
  C     -1.457885   -0.710944    0.015331
  C     -0.138514   -1.119279   -0.016702
  H      2.459141   -0.021483    1.056473
  H      2.497689   -0.876876   -0.504869
  H      2.494798    0.899299   -0.467152
  H      0.300663    2.106466   -0.025566
  H     -2.321031    1.361427    0.026072
  H     -2.320466   -1.362336    0.025425
  H      0.301490   -2.106375   -0.026468

 Total Charge           Charge          ....    0
 Multiplicity           Mult            ....    1
 Number of Electrons    NEL             ....   44
 Basis Dimension        Dim             ....  228

ORBITAL ENERGIES
----------------

  NO   OCC          E(Eh)            E(eV)
   0   2.0000     -16.573042      -450.9754
   1   2.0000     -12.092012      -329.0404
   2   2.0000     -12.059225      -328.1482
   3   2.0000     -12.058726      -328.1346
   4   2.0000     -12.025305      -327.2252
   5   2.0000     -12.023446      -327.1746
   6   2.0000      -1.561191       -42.4822
   7   2.0000      -1.330422       -36.2026
   8   2.0000      -1.251275       -34.0489
   9   2.0000      -1.210123       -32.9291
  10   2.0000      -1.073247       -29.2045
  11   2.0000      -1.032984       -28.1089
  12   2.0000      -0.993517       -27.0350
  13   2.0000      -0.911668       -24.8077
  14   2.0000      -0.895873       -24.3780
  15   2.0000      -0.893128       -24.3033
  16   2.0000      -0.854915       -23.2634
  17   2.0000      -0.836304       -22.7570
  18   2.0000      -0.834302       -22.7025
  19   2.0000      -0.811782       -22.0897
  20   2.0000      -0.652878       -17.7657
  21   2.0000      -0.597288       -16.2530
  22   0.0000      -0.219446        -5.9714
  23   0.0000      -0.137961        -3.7541
  24   0.0000      -0.115812        -3.1514
  25   0.0000      -0.033968        -0.9243
  26   0.0000      -0.019669        -0.5352

MULLIKEN ATOMIC CHARGES
-----------------------
   0 C :   -0.281024
   1 N :    0.033383
   2 C :   -0.142172
   3 C :   -0.181974
   4 C :   -0.182174
   5 C :   -0.141518
   6 H :    0.132849
   7 H :    0.131331
   8 H :    0.131055
   9 H :    0.134425
  10 H :    0.115814
  11 H :    0.115752
  12 H :    0.134252
Sum of atomic charges:    0.0000000

LOEWDIN ATOMIC CHARGES
----------------------
   0 C :   -0.260134
   1 N :    0.218102
   2 C :   -0.218409
   3 C :   -0.199528
   4 C :   -0.199328
   5 C :   -0.218370
   6 H :    0.115895
   7 H :    0.120465
   8 H :    0.120675
   9 H :    0.128735
  10 H :    0.131551
  11 H :    0.131555
  12 H :    0.128792

  Mayer bond orders larger than 0.100000
B(  0-C ,  1-N ) :   0.9280 B(  0-C ,  6-H ) :   0.9682 B(  0-C ,  7-H ) :   0.9765
B(  0-C ,  8-H ) :   0.9767 B(  1-N ,  2-C ) :   1.1991 B(  1-N ,  5-C ) :   1.1983
B(  2-C ,  3-C ) :   1.6050 B(  2-C ,  9-H ) :   0.9521 B(  3-C ,  4-C ) :   1.3617
B(  3-C , 10-H ) :   0.9737 B(  4-C ,  5-C ) :   1.6044 B(  4-C , 11-H ) :   0.9739
B(  5-C , 12-H ) :   0.9529

FINAL SINGLE POINT ENERGY      -249.489862750867

DIPOLE MOMENT
-------------

Method             : SCF
Type of density    : Electron Density
Multiplicity       :   1
Irrep              :   0
Energy             :  -249.4971047615667601 Eh
Relativity type    :
Basis              : AO
                                X                 Y                 Z
Electronic contribution:     -2.365906366      -0.000001034      -0.103465195
Nuclear contribution   :      3.237114616       0.000599650       0.106771817
                        -----------------------------------------
Total Dipole Moment    :      0.871208250       0.000598615       0.003306622
                        -----------------------------------------
Magnitude (a.u.)       :      0.871214731
Magnitude (Debye)      :      2.214451860

Rotational constants in cm-1:             0.289913             0.118391             0.085467
Rotational constants in MHz :          8691.371573          3549.278242          2562.233274

                             ****ORCA TERMINATED NORMALLY****
TOTAL RUN TIME: 0 days 0 hours 1 minutes 10 seconds 984 msec
