                         Program Version 6.0.0  -   RELEASE  -
|  1> ! wb97x-v def2-tzvp def2/J RIJCOSX DEFGRID2 scfconv7 GCP(DFT/TZ) printgap
|  2> %output
|  3>     printlevel normal
|  4> end
|  5> %cpcm
|  6>     smd true
|  7>     smdsolvent "water"
|  8> end
|  9> * xyz 0 1
| 10> C 2.110734936075134 -4.1533015828410065e-05 0.018622929808500107
| 11> N 0.6546114473642685 0.00013187572172640812 -0.045475190731281326
| 12> C -0.13897158713019586 1.1192195918800296 -0.01609881188864313
| 13> C -1.4581998023206855 0.7103835952947924 0.01576302744882846
| 14> C -1.4578853774168936 -0.7109444700553471 0.015330791830197687
| 15> C -0.13851393941193696 -1.1192794557337733 -0.016701561497110357
| 16> H 2.4591408246227617 -0.021483496485134455 1.0564725786629567
| 17> H 2.497688946650874 -0.8768760033768764 -0.5048685746946145
| 18> H 2.4947980584512006 0.8992990615992915 -0.4671515746498635
| 19> H 0.300663431157998 2.106465705987232 -0.02556584870679355
| 20> H -2.3210305889936915 1.3614269524040317 0.02607178988312055
| 21> H -2.3204662249850494 -1.3623358963436272 0.025424991803714266
| 22> H 0.3014899793328303 -2.1063748260093416 -0.02646790716555937
| 23> *
| 24>
| 25>                          ****END OF INPUT****

CARTESIAN COORDINATES (ANGSTROEM)
---------------------------------
  C      2.110735   -0.000042    0.018623
  N      0.654611    0.000132   -0.045475
  C     -0.138972    1.119220   -0.016099
  C     -1.458200    0.710384    0.015763
  C     -1.457885   -0.710944    0.015331
  C     -0.138514   -1.119279   -0.016702
  H      2.459141   -0.021483    1.056473
  H      2.497689   -0.876876   -0.504869
  H      2.494798    0.899299   -0.467152
  H      0.300663    2.106466   -0.025566
  H     -2.321031    1.361427    0.026072
  H     -2.320466   -1.362336    0.025425
  H      0.301490   -2.106375   -0.026468

 Total Charge           Charge          ....    0
 Multiplicity           Mult            ....    1
 Number of Electrons    NEL             ....   44
 Basis Dimension        Dim             ....  228

ORBITAL ENERGIES
----------------

  NO   OCC          E(Eh)            E(eV)
   0   2.0000     -16.572918      -450.9720
   1   2.0000     -12.072408      -328.5069
   2   2.0000     -12.060543      -328.1841
   3   2.0000     -12.060050      -328.1707
   4   2.0000     -12.029220      -327.3317
   5   2.0000     -12.027380      -327.2816
   6   2.0000      -1.561097       -42.4796
   7   2.0000      -1.330369       -36.2012
   8   2.0000      -1.253292       -34.1038
   9   2.0000      -1.203113       -32.7384
  10   2.0000      -1.075495       -29.2657
  11   2.0000      -1.029597       -28.0168
  12   2.0000      -0.988963       -26.9111
  13   2.0000      -0.904419       -24.6105
  14   2.0000      -0.895418       -24.3655
  15   2.0000      -0.890169       -24.2227
  16   2.0000      -0.851955       -23.1829
  17   2.0000      -0.839146       -22.8343
  18   2.0000      -0.821986       -22.3674
  19   2.0000      -0.802284       -21.8313
  20   2.0000      -0.658310       -17.9135
  21   2.0000      -0.602422       -16.3927
  22   0.0000      -0.223236        -6.0746
  23   0.0000      -0.145368        -3.9557
  24   0.0000      -0.105067        -2.8590
  25   0.0000      -0.030375        -0.8265
  26   0.0000      -0.014369        -0.3910

MULLIKEN ATOMIC CHARGES
-----------------------
   0 C :   -0.306147
   1 N :    0.027535
   2 C :   -0.181263
   3 C :   -0.260617
   4 C :   -0.261055
   5 C :   -0.180277
   6 H :    0.149174
   7 H :    0.157661
   8 H :    0.158006
   9 H :    0.185394
  10 H :    0.163291
  11 H :    0.163197
  12 H :    0.185101
Sum of atomic charges:    0.0000000

LOEWDIN ATOMIC CHARGES
----------------------
   0 C :   -0.253142
   1 N :    0.220868
   2 C :   -0.222969
   3 C :   -0.230867
   4 C :   -0.230664
   5 C :   -0.222906
   6 H :    0.122173
   7 H :    0.128475
   8 H :    0.128768
   9 H :    0.141731
  10 H :    0.138391
  11 H :    0.138399
  12 H :    0.141744

  Mayer bond orders larger than 0.100000
B(  0-C ,  1-N ) :   0.9091 B(  0-C ,  6-H ) :   0.9662 B(  0-C ,  7-H ) :   0.9690
B(  0-C ,  8-H ) :   0.9691 B(  1-N ,  2-C ) :   1.2100 B(  1-N ,  5-C ) :   1.2090
B(  2-C ,  3-C ) :   1.5748 B(  2-C ,  9-H ) :   0.9533 B(  3-C ,  4-C ) :   1.3266
B(  3-C , 10-H ) :   0.9709 B(  4-C ,  5-C ) :   1.5745 B(  4-C , 11-H ) :   0.9711
B(  5-C , 12-H ) :   0.9539

FINAL SINGLE POINT ENERGY      -249.494134364478

DIPOLE MOMENT
-------------

Method             : SCF
Type of density    : Electron Density
Multiplicity       :   1
Irrep              :   0
Energy             :  -249.5013763751782108 Eh
Relativity type    :
Basis              : AO
                                X                 Y                 Z
Electronic contribution:     -1.990619723       0.000300311      -0.104378311
Nuclear contribution   :      3.237114616       0.000599650       0.106771817
                        -----------------------------------------
Total Dipole Moment    :      1.246494893       0.000899961       0.002393506
                        -----------------------------------------
Magnitude (a.u.)       :      1.246497516
Magnitude (Debye)      :      3.168344892

Rotational constants in cm-1:             0.289913             0.118391             0.085467
Rotational constants in MHz :          8691.371573          3549.278242          2562.233274

                             ****ORCA TERMINATED NORMALLY****
TOTAL RUN TIME: 0 days 0 hours 1 minutes 11 seconds 391 msec
