                         Program Version 6.0.0  -   RELEASE  -
|  1> ! r2scan-3c def2/J RI DEFGRID2 scfconv6 printgap
|  2> %output
|  3>     printlevel normal
|  4> end
|  5> * xyz 0 1
|  6> C 5.1521066174 -1.5114204854 -1.5587541318
|  7> C 3.7037830519 -1.7099966991 -1.9617496797
|  8> O 2.8463502467 -1.7278573704 -0.8018226516
|  9> P 2.0937117084 -0.4300927542 -0.2712609645
| 10> S 3.2048309966 1.1585803003 0.0413851135
| 11> O 1.3545080609 -1.0249333622 0.9897467741
| 12> C 1.8548326692 -0.9277651044 2.3423544233
| 13> C 0.8100152696 -0.2718062162 3.2233560512
| 14> S 0.5227683835 -0.2175300782 -1.6677891097
| 15> C 0.0712373022 1.4832432678 -1.2321605408
| 16> S -0.5400175276 1.6236030737 0.4628460426
| 17> P -2.2602676072 0.4059046092 0.2080618306
| 18> S -3.1570859632 0.5571866219 -1.5343899066
| 19> O -3.1027374182 0.7232635492 1.5125419667
| 20> C -3.4180460292 2.0390838389 2.0045874905
| 21> C -4.1167844427 2.9001248163 0.9724056222
| 22> O -1.8220818194 -1.0679523904 0.5901784472
| 23> C -2.0676883064 -2.2266096778 -0.2348463371
| 24> C -0.9715716586 -3.2433131515 0.0081813721
| 25> H 5.283430531 -0.5383955986 -1.0905335994
| 26> H 5.4523298904 -2.2826121131 -0.8549885273
| 27> H 5.7796139664 -1.5662613599 -2.4424199797
| 28> H 3.5509428413 -2.6833704423 -2.4314372239
| 29> H 3.37335186 -0.92124662 -2.6435007682
| 30> H 2.0589320282 -1.9522127055 2.6592105031
| 31> H 2.7857961271 -0.3519120857 2.3398572794
| 32> H 1.1166304148 -0.3532835511 4.2611022828
| 33> H 0.7017241157 0.7786294691 2.963750178
| 34> H -0.149976331 -0.764712891 3.0892746479
| 35> H -0.7081291136 1.7837240562 -1.9324146709
| 36> H 0.9475666898 2.1270518277 -1.3027903971
| 37> H -4.0630706551 1.8420895318 2.8627532459
| 38> H -2.4905584997 2.5118466511 2.3397048932
| 39> H -4.9975316914 2.3912603108 0.5877680903
| 40> H -4.4142971248 3.8389085574 1.4283716612
| 41> H -3.4473471013 3.1073353758 0.138741608
| 42> H -3.0441663238 -2.6258024636 0.0503551604
| 43> H -2.1039243854 -1.9185241126 -1.2852884626
| 44> H -1.180831503 -4.1318473676 -0.5785813094
| 45> H -0.005138179 -2.8413159162 -0.2859811369
| 46> H -0.9347866711 -3.5052164746 1.0615605207
| 47> *
| 48>
| 49>                          ****END OF INPUT****

CARTESIAN COORDINATES (ANGSTROEM)
---------------------------------
  C      5.152107   -1.511420   -1.558754
  C      3.703783   -1.709997   -1.961750
  O      2.846350   -1.727857   -0.801823
  P      2.093712   -0.430093   -0.271261
  S      3.204831    1.158580    0.041385
  O      1.354508   -1.024933    0.989747
  C      1.854833   -0.927765    2.342354
  C      0.810015   -0.271806    3.223356
  S      0.522768   -0.217530   -1.667789
  C      0.071237    1.483243   -1.232161
  S     -0.540018    1.623603    0.462846
  P     -2.260268    0.405905    0.208062
  S     -3.157086    0.557187   -1.534390
  O     -3.102737    0.723264    1.512542
  C     -3.418046    2.039084    2.004587
  C     -4.116784    2.900125    0.972406
  O     -1.822082   -1.067952    0.590178
  C     -2.067688   -2.226610   -0.234846
  C     -0.971572   -3.243313    0.008181
  H      5.283431   -0.538396   -1.090534
  H      5.452330   -2.282612   -0.854989
  H      5.779614   -1.566261   -2.442420
  H      3.550943   -2.683370   -2.431437
  H      3.373352   -0.921247   -2.643501
  H      2.058932   -1.952213    2.659211
  H      2.785796   -0.351912    2.339857
  H      1.116630   -0.353284    4.261102
  H      0.701724    0.778629    2.963750
  H     -0.149976   -0.764713    3.089275
  H     -0.708129    1.783724   -1.932415
  H      0.947567    2.127052   -1.302790
  H     -4.063071    1.842090    2.862753
  H     -2.490558    2.511847    2.339705
  H     -4.997532    2.391260    0.587768
  H     -4.414297    3.838909    1.428372
  H     -3.447347    3.107335    0.138742
  H     -3.044166   -2.625802    0.050355
  H     -2.103924   -1.918524   -1.285288
  H     -1.180832   -4.131847   -0.578581
  H     -0.005138   -2.841316   -0.285981
  H     -0.934787   -3.505216    1.061561

 Total Charge           Charge          ....    0
 Multiplicity           Mult            ....    1
 Number of Electrons    NEL             ....  202
 Basis Dimension        Dim             ....  539

ORBITAL ENERGIES
----------------

  NO   OCC          E(Eh)            E(eV)
   0   2.0000     -88.579297     -2410.3652
   1   2.0000     -88.576434     -2410.2873
   2   2.0000     -88.523083     -2408.8355
   3   2.0000     -88.517805     -2408.6919
   4   2.0000     -76.916598     -2093.0070
   5   2.0000     -76.913588     -2092.9251
   6   2.0000     -18.993967      -516.8521
   7   2.0000     -18.991712      -516.7908
   8   2.0000     -18.989294      -516.7250
   9   2.0000     -18.984229      -516.5871
  10   2.0000     -10.107347      -275.0349
  11   2.0000     -10.103529      -274.9310
  12   2.0000     -10.102332      -274.8984
  13   2.0000     -10.097628      -274.7704
  14   2.0000     -10.090268      -274.5702
  15   2.0000     -10.027284      -272.8563
  16   2.0000     -10.027148      -272.8526
  17   2.0000     -10.025541      -272.8088
  18   2.0000     -10.022642      -272.7299
  19   2.0000      -7.873585      -214.2511
  20   2.0000      -7.870914      -214.1785
  21   2.0000      -7.817906      -212.7360
  22   2.0000      -7.812657      -212.5932
  23   2.0000      -6.594936      -179.4573
  24   2.0000      -6.591731      -179.3701
  25   2.0000      -5.820445      -158.3824
  26   2.0000      -5.817760      -158.3093
  27   2.0000      -5.817378      -158.2989
  28   2.0000      -5.814681      -158.2255
  29   2.0000      -5.810795      -158.1198
  30   2.0000      -5.808116      -158.0469
  31   2.0000      -5.765457      -156.8861
  32   2.0000      -5.760356      -156.7473
  33   2.0000      -5.758220      -156.6891
  34   2.0000      -5.757967      -156.6823
  35   2.0000      -5.752970      -156.5463
  36   2.0000      -5.752573      -156.5355
  37   2.0000      -4.740388      -128.9925
  38   2.0000      -4.739890      -128.9790
  39   2.0000      -4.738705      -128.9467
  40   2.0000      -4.737183      -128.9053
  41   2.0000      -4.736807      -128.8951
  42   2.0000      -4.735401      -128.8568
  43   2.0000      -1.050590       -28.5880
  44   2.0000      -1.047696       -28.5093
  45   2.0000      -1.010682       -27.5020
  46   2.0000      -1.005891       -27.3717
  47   2.0000      -0.805488       -21.9184
  48   2.0000      -0.759764       -20.6742
  49   2.0000      -0.750239       -20.4150
  50   2.0000      -0.730392       -19.8750
  51   2.0000      -0.727604       -19.7991
  52   2.0000      -0.710287       -19.3279
  53   2.0000      -0.685083       -18.6421
  54   2.0000      -0.670868       -18.2553
  55   2.0000      -0.629926       -17.1412
  56   2.0000      -0.623106       -16.9556
  57   2.0000      -0.607902       -16.5419
  58   2.0000      -0.599668       -16.3178
  59   2.0000      -0.589504       -16.0412
  60   2.0000      -0.532369       -14.4865
  61   2.0000      -0.523332       -14.2406
  62   2.0000      -0.498698       -13.5703
  63   2.0000      -0.489247       -13.3131
  64   2.0000      -0.477331       -12.9888
  65   2.0000      -0.460889       -12.5414
  66   2.0000      -0.455704       -12.4003
  67   2.0000      -0.447837       -12.1863
  68   2.0000      -0.442153       -12.0316
  69   2.0000      -0.435421       -11.8484
  70   2.0000      -0.426080       -11.5942
  71   2.0000      -0.418842       -11.3973
  72   2.0000      -0.410781       -11.1779
  73   2.0000      -0.401944       -10.9374
  74   2.0000      -0.399192       -10.8626
  75   2.0000      -0.391908       -10.6643
  76   2.0000      -0.379008       -10.3133
  77   2.0000      -0.368775       -10.0349
  78   2.0000      -0.364710        -9.9243
  79   2.0000      -0.363023        -9.8784
  80   2.0000      -0.361239        -9.8298
  81   2.0000      -0.358607        -9.7582
  82   2.0000      -0.354987        -9.6597
  83   2.0000      -0.350357        -9.5337
  84   2.0000      -0.344224        -9.3668
  85   2.0000      -0.337384        -9.1807
  86   2.0000      -0.321737        -8.7549
  87   2.0000      -0.314231        -8.5506
  88   2.0000      -0.311383        -8.4732
  89   2.0000      -0.306183        -8.3317
  90   2.0000      -0.298524        -8.1233
  91   2.0000      -0.293215        -7.9788
  92   2.0000      -0.286993        -7.8095
  93   2.0000      -0.281589        -7.6624
  94   2.0000      -0.268208        -7.2983
  95   2.0000      -0.246749        -6.7144
  96   2.0000      -0.232766        -6.3339
  97   2.0000      -0.226412        -6.1610
  98   2.0000      -0.220662        -6.0045
  99   2.0000      -0.212954        -5.7948
 100   2.0000      -0.211427        -5.7532
 101   0.0000      -0.050780        -1.3818
 102   0.0000      -0.026936        -0.7330
 103   0.0000      -0.004399        -0.1197
 104   0.0000      -0.002419        -0.0658
 105   0.0000       0.007822         0.2129

MULLIKEN ATOMIC CHARGES
-----------------------
   0 C :   -0.450589
   1 C :   -0.132786
   2 O :   -0.304949
   3 P :    0.694220
   4 S :   -0.486206
   5 O :   -0.239712
   6 C :   -0.125335
   7 C :   -0.479434
   8 S :   -0.142922
   9 C :   -0.233990
  10 S :   -0.146556
  11 P :    0.684561
  12 S :   -0.468505
  13 O :   -0.303249
  14 C :   -0.150815
  15 C :   -0.425591
  16 O :   -0.272237
  17 C :   -0.107134
  18 C :   -0.465027
  19 H :    0.180765
  20 H :    0.151364
  21 H :    0.145299
  22 H :    0.150559
  23 H :    0.152912
  24 H :    0.148797
  25 H :    0.165460
  26 H :    0.141995
  27 H :    0.166879
  28 H :    0.169801
  29 H :    0.211650
  30 H :    0.213514
  31 H :    0.150616
  32 H :    0.151166
  33 H :    0.164024
  34 H :    0.146682
  35 H :    0.168851
  36 H :    0.146703
  37 H :    0.171567
  38 H :    0.143264
  39 H :    0.168236
  40 H :    0.146153
Sum of atomic charges:   -0.0000000

LOEWDIN ATOMIC CHARGES
----------------------
   0 C :   -0.400553
   1 C :    0.021645
   2 O :   -0.662608
   3 P :    0.372854
   4 S :   -0.131072
   5 O :   -0.669289
   6 C :    0.028219
   7 C :   -0.398816
   8 S :    0.174426
   9 C :   -0.420638
  10 S :    0.157539
  11 P :    0.385127
  12 S :   -0.129765
  13 O :   -0.652595
  14 C :    0.022944
  15 C :   -0.406263
  16 O :   -0.657669
  17 C :    0.014277
  18 C :   -0.392324
  19 H :    0.168725
  20 H :    0.158406
  21 H :    0.158221
  22 H :    0.178561
  23 H :    0.175762
  24 H :    0.174123
  25 H :    0.181173
  26 H :    0.156577
  27 H :    0.162904
  28 H :    0.166591
  29 H :    0.191282
  30 H :    0.190741
  31 H :    0.181739
  32 H :    0.171514
  33 H :    0.165408
  34 H :    0.157951
  35 H :    0.166026
  36 H :    0.172027
  37 H :    0.182454
  38 H :    0.157704
  39 H :    0.168110
  40 H :    0.158559

  Mayer bond orders larger than 0.100000
B(  0-C ,  1-C ) :   0.9587 B(  0-C , 19-H ) :   0.9568 B(  0-C , 20-H ) :   0.9746
B(  0-C , 21-H ) :   0.9648 B(  1-C ,  2-O ) :   0.7773 B(  1-C , 22-H ) :   0.9634
B(  1-C , 23-H ) :   0.9620 B(  2-O ,  3-P ) :   1.0556 B(  3-P ,  4-S ) :   1.7530
B(  3-P ,  5-O ) :   1.1534 B(  3-P ,  8-S ) :   1.0858 B(  5-O ,  6-C ) :   0.7485
B(  6-C ,  7-C ) :   0.9504 B(  6-C , 24-H ) :   0.9560 B(  6-C , 25-H ) :   0.9574
B(  7-C , 26-H ) :   0.9642 B(  7-C , 27-H ) :   0.9671 B(  7-C , 28-H ) :   0.9683
B(  8-S ,  9-C ) :   0.8962 B(  9-C , 10-S ) :   0.9020 B(  9-C , 29-H ) :   0.9077
B(  9-C , 30-H ) :   0.9107 B( 10-S , 11-P ) :   1.0132 B( 11-P , 12-S ) :   1.7828
B( 11-P , 13-O ) :   1.1109 B( 11-P , 16-O ) :   1.1461 B( 13-O , 14-C ) :   0.8054
B( 14-C , 15-C ) :   0.9413 B( 14-C , 31-H ) :   0.9582 B( 14-C , 32-H ) :   0.9623
B( 15-C , 33-H ) :   0.9660 B( 15-C , 34-H ) :   0.9631 B( 15-C , 35-H ) :   0.9547
B( 16-O , 17-C ) :   0.7579 B( 17-C , 18-C ) :   0.9389 B( 17-C , 36-H ) :   0.9451
B( 17-C , 37-H ) :   0.9599 B( 18-C , 38-H ) :   0.9674 B( 18-C , 39-H ) :   0.9663
B( 18-C , 40-H ) :   0.9677

Dispersion correction           -0.022255789
FINAL SINGLE POINT ENERGY     -2932.461015687399

DIPOLE MOMENT
-------------

Method             : SCF
Type of density    : Electron Density
Multiplicity       :   1
Irrep              :   0
Energy             : -2932.4853061183644058 Eh
Relativity type    :
Basis              : AO
                                X                 Y                 Z
Electronic contribution:     -3.145969606       7.096024489      -7.900145952
Nuclear contribution   :      3.430723029      -7.672418760       8.550600845
                        -----------------------------------------
Total Dipole Moment    :      0.284753423      -0.576394271       0.650454893
                        -----------------------------------------
Magnitude (a.u.)       :      0.914552588
Magnitude (Debye)      :      2.324607939

Rotational constants in cm-1:             0.013219             0.005153             0.004960
Rotational constants in MHz :           396.300172           154.492276           148.699447

                             ****ORCA TERMINATED NORMALLY****
TOTAL RUN TIME: 0 days 0 hours 1 minutes 23 seconds 229 msec
