                         Program Version 6.0.0  -   RELEASE  -
|  1> ! r2scan-3c def2/J RI DEFGRID2 scfconv6 printgap
|  2> %output
|  3>     printlevel normal
|  4> end
|  5> %cpcm
|  6>     smd true
|  7>     smdsolvent "water"
|  8> end
|  9> * xyz 0 1
| 10> C 5.1521066174 -1.5114204854 -1.5587541318
| 11> C 3.7037830519 -1.7099966991 -1.9617496797
| 12> O 2.8463502467 -1.7278573704 -0.8018226516
| 13> P 2.0937117084 -0.4300927542 -0.2712609645
| 14> S 3.2048309966 1.1585803003 0.0413851135
| 15> O 1.3545080609 -1.0249333622 0.9897467741
| 16> C 1.8548326692 -0.9277651044 2.3423544233
| 17> C 0.8100152696 -0.2718062162 3.2233560512
| 18> S 0.5227683835 -0.2175300782 -1.6677891097
| 19> C 0.0712373022 1.4832432678 -1.2321605408
| 20> S -0.5400175276 1.6236030737 0.4628460426
| 21> P -2.2602676072 0.4059046092 0.2080618306
| 22> S -3.1570859632 0.5571866219 -1.5343899066
| 23> O -3.1027374182 0.7232635492 1.5125419667
| 24> C -3.4180460292 2.0390838389 2.0045874905
| 25> C -4.1167844427 2.9001248163 0.9724056222
| 26> O -1.8220818194 -1.0679523904 0.5901784472
| 27> C -2.0676883064 -2.2266096778 -0.2348463371
| 28> C -0.9715716586 -3.2433131515 0.0081813721
| 29> H 5.283430531 -0.5383955986 -1.0905335994
| 30> H 5.4523298904 -2.2826121131 -0.8549885273
| 31> H 5.7796139664 -1.5662613599 -2.4424199797
| 32> H 3.5509428413 -2.6833704423 -2.4314372239
| 33> H 3.37335186 -0.92124662 -2.6435007682
| 34> H 2.0589320282 -1.9522127055 2.6592105031
| 35> H 2.7857961271 -0.3519120857 2.3398572794
| 36> H 1.1166304148 -0.3532835511 4.2611022828
| 37> H 0.7017241157 0.7786294691 2.963750178
| 38> H -0.149976331 -0.764712891 3.0892746479
| 39> H -0.7081291136 1.7837240562 -1.9324146709
| 40> H 0.9475666898 2.1270518277 -1.3027903971
| 41> H -4.0630706551 1.8420895318 2.8627532459
| 42> H -2.4905584997 2.5118466511 2.3397048932
| 43> H -4.9975316914 2.3912603108 0.5877680903
| 44> H -4.4142971248 3.8389085574 1.4283716612
| 45> H -3.4473471013 3.1073353758 0.138741608
| 46> H -3.0441663238 -2.6258024636 0.0503551604
| 47> H -2.1039243854 -1.9185241126 -1.2852884626
| 48> H -1.180831503 -4.1318473676 -0.5785813094
| 49> H -0.005138179 -2.8413159162 -0.2859811369
| 50> H -0.9347866711 -3.5052164746 1.0615605207
| 51> *
| 52>
| 53>                          ****END OF INPUT****

CARTESIAN COORDINATES (ANGSTROEM)
---------------------------------
  C      5.152107   -1.511420   -1.558754
  C      3.703783   -1.709997   -1.961750
  O      2.846350   -1.727857   -0.801823
  P      2.093712   -0.430093   -0.271261
  S      3.204831    1.158580    0.041385
  O      1.354508   -1.024933    0.989747
  C      1.854833   -0.927765    2.342354
  C      0.810015   -0.271806    3.223356
  S      0.522768   -0.217530   -1.667789
  C      0.071237    1.483243   -1.232161
  S     -0.540018    1.623603    0.462846
  P     -2.260268    0.405905    0.208062
  S     -3.157086    0.557187   -1.534390
  O     -3.102737    0.723264    1.512542
  C     -3.418046    2.039084    2.004587
  C     -4.116784    2.900125    0.972406
  O     -1.822082   -1.067952    0.590178
  C     -2.067688   -2.226610   -0.234846
  C     -0.971572   -3.243313    0.008181
  H      5.283431   -0.538396   -1.090534
  H      5.452330   -2.282612   -0.854989
  H      5.779614   -1.566261   -2.442420
  H      3.550943   -2.683370   -2.431437
  H      3.373352   -0.921247   -2.643501
  H      2.058932   -1.952213    2.659211
  H      2.785796   -0.351912    2.339857
  H      1.116630   -0.353284    4.261102
  H      0.701724    0.778629    2.963750
  H     -0.149976   -0.764713    3.089275
  H     -0.708129    1.783724   -1.932415
  H      0.947567    2.127052   -1.302790
  H     -4.063071    1.842090    2.862753
  H     -2.490558    2.511847    2.339705
  H     -4.997532    2.391260    0.587768
  H     -4.414297    3.838909    1.428372
  H     -3.447347    3.107335    0.138742
  H     -3.044166   -2.625802    0.050355
  H     -2.103924   -1.918524   -1.285288
  H     -1.180832   -4.131847   -0.578581
  H     -0.005138   -2.841316   -0.285981
  H     -0.934787   -3.505216    1.061561

 Total Charge           Charge          ....    0
 Multiplicity           Mult            ....    1
 Number of Electrons    NEL             ....  202
 Basis Dimension        Dim             ....  539

ORBITAL ENERGIES
----------------

  NO   OCC          E(Eh)            E(eV)
   0   2.0000     -88.581717     -2410.4311
   1   2.0000     -88.579574     -2410.3728
   2   2.0000     -88.528720     -2408.9889
   3   2.0000     -88.526437     -2408.9268
   4   2.0000     -76.920490     -2093.1129
   5   2.0000     -76.920203     -2093.1051
   6   2.0000     -18.995610      -516.8968
   7   2.0000     -18.994938      -516.8785
   8   2.0000     -18.992041      -516.7997
   9   2.0000     -18.991472      -516.7842
  10   2.0000     -10.105842      -274.9940
  11   2.0000     -10.093186      -274.6496
  12   2.0000     -10.091345      -274.5995
  13   2.0000     -10.089682      -274.5542
  14   2.0000     -10.087674      -274.4996
  15   2.0000     -10.018565      -272.6190
  16   2.0000     -10.017159      -272.5808
  17   2.0000     -10.016950      -272.5751
  18   2.0000     -10.016731      -272.5691
  19   2.0000      -7.876035      -214.3178
  20   2.0000      -7.874004      -214.2625
  21   2.0000      -7.823810      -212.8967
  22   2.0000      -7.821585      -212.8361
  23   2.0000      -6.598841      -179.5636
  24   2.0000      -6.598430      -179.5524
  25   2.0000      -5.822883      -158.4487
  26   2.0000      -5.820866      -158.3938
  27   2.0000      -5.819817      -158.3653
  28   2.0000      -5.817768      -158.3095
  29   2.0000      -5.813270      -158.1871
  30   2.0000      -5.811203      -158.1309
  31   2.0000      -5.771312      -157.0454
  32   2.0000      -5.769216      -156.9884
  33   2.0000      -5.764119      -156.8496
  34   2.0000      -5.763876      -156.8430
  35   2.0000      -5.761926      -156.7900
  36   2.0000      -5.761482      -156.7779
  37   2.0000      -4.744258      -129.0978
  38   2.0000      -4.743855      -129.0869
  39   2.0000      -4.743801      -129.0854
  40   2.0000      -4.743517      -129.0777
  41   2.0000      -4.742667      -129.0545
  42   2.0000      -4.742134      -129.0400
  43   2.0000      -1.052957       -28.6524
  44   2.0000      -1.051902       -28.6237
  45   2.0000      -1.011765       -27.5315
  46   2.0000      -1.010636       -27.5008
  47   2.0000      -0.806852       -21.9556
  48   2.0000      -0.757699       -20.6180
  49   2.0000      -0.745901       -20.2970
  50   2.0000      -0.722373       -19.6568
  51   2.0000      -0.721687       -19.6381
  52   2.0000      -0.710422       -19.3316
  53   2.0000      -0.688863       -18.7449
  54   2.0000      -0.676083       -18.3972
  55   2.0000      -0.629759       -17.1366
  56   2.0000      -0.620115       -16.8742
  57   2.0000      -0.602565       -16.3966
  58   2.0000      -0.595202       -16.1963
  59   2.0000      -0.587485       -15.9863
  60   2.0000      -0.528737       -14.3877
  61   2.0000      -0.521740       -14.1973
  62   2.0000      -0.495433       -13.4814
  63   2.0000      -0.488432       -13.2909
  64   2.0000      -0.477323       -12.9886
  65   2.0000      -0.457037       -12.4366
  66   2.0000      -0.453314       -12.3353
  67   2.0000      -0.442296       -12.0355
  68   2.0000      -0.439829       -11.9683
  69   2.0000      -0.434560       -11.8250
  70   2.0000      -0.423938       -11.5359
  71   2.0000      -0.417435       -11.3590
  72   2.0000      -0.409500       -11.1431
  73   2.0000      -0.401009       -10.9120
  74   2.0000      -0.398221       -10.8362
  75   2.0000      -0.388236       -10.5644
  76   2.0000      -0.376592       -10.2476
  77   2.0000      -0.365022        -9.9328
  78   2.0000      -0.358490        -9.7550
  79   2.0000      -0.357008        -9.7147
  80   2.0000      -0.355645        -9.6776
  81   2.0000      -0.354327        -9.6417
  82   2.0000      -0.350816        -9.5462
  83   2.0000      -0.344961        -9.3869
  84   2.0000      -0.341329        -9.2880
  85   2.0000      -0.335895        -9.1402
  86   2.0000      -0.320513        -8.7216
  87   2.0000      -0.310262        -8.4427
  88   2.0000      -0.307800        -8.3757
  89   2.0000      -0.305606        -8.3160
  90   2.0000      -0.299889        -8.1604
  91   2.0000      -0.291954        -7.9445
  92   2.0000      -0.287822        -7.8320
  93   2.0000      -0.281622        -7.6633
  94   2.0000      -0.270448        -7.3593
  95   2.0000      -0.249558        -6.7908
  96   2.0000      -0.237676        -6.4675
  97   2.0000      -0.233490        -6.3536
  98   2.0000      -0.226416        -6.1611
  99   2.0000      -0.220625        -6.0035
 100   2.0000      -0.219031        -5.9601
 101   0.0000      -0.054549        -1.4844
 102   0.0000      -0.032182        -0.8757
 103   0.0000      -0.008400        -0.2286
 104   0.0000      -0.005802        -0.1579
 105   0.0000       0.007775         0.2116

MULLIKEN ATOMIC CHARGES
-----------------------
   0 C :   -0.490442
   1 C :   -0.126383
   2 O :   -0.331871
   3 P :    0.719891
   4 S :   -0.526413
   5 O :   -0.267325
   6 C :   -0.122794
   7 C :   -0.508530
   8 S :   -0.152796
   9 C :   -0.243289
  10 S :   -0.147764
  11 P :    0.715459
  12 S :   -0.513571
  13 O :   -0.336699
  14 C :   -0.151046
  15 C :   -0.466332
  16 O :   -0.304997
  17 C :   -0.101613
  18 C :   -0.512384
  19 H :    0.171055
  20 H :    0.166818
  21 H :    0.169831
  22 H :    0.176837
  23 H :    0.163721
  24 H :    0.174444
  25 H :    0.169521
  26 H :    0.167519
  27 H :    0.170122
  28 H :    0.169149
  29 H :    0.231559
  30 H :    0.235337
  31 H :    0.177343
  32 H :    0.171744
  33 H :    0.170009
  34 H :    0.173291
  35 H :    0.166058
  36 H :    0.170215
  37 H :    0.172425
  38 H :    0.169016
  39 H :    0.165943
  40 H :    0.166944
Sum of atomic charges:   -0.0000000

LOEWDIN ATOMIC CHARGES
----------------------
   0 C :   -0.405059
   1 C :    0.027064
   2 O :   -0.674400
   3 P :    0.377568
   4 S :   -0.157006
   5 O :   -0.685199
   6 C :    0.032808
   7 C :   -0.401074
   8 S :    0.170416
   9 C :   -0.414192
  10 S :    0.160549
  11 P :    0.388000
  12 S :   -0.159716
  13 O :   -0.668634
  14 C :    0.029401
  15 C :   -0.409829
  16 O :   -0.676239
  17 C :    0.016600
  18 C :   -0.396270
  19 H :    0.162639
  20 H :    0.162439
  21 H :    0.167435
  22 H :    0.189819
  23 H :    0.179895
  24 H :    0.184731
  25 H :    0.183097
  26 H :    0.166231
  27 H :    0.162026
  28 H :    0.164816
  29 H :    0.197518
  30 H :    0.197633
  31 H :    0.193140
  32 H :    0.179493
  33 H :    0.164347
  34 H :    0.168126
  35 H :    0.161907
  36 H :    0.180880
  37 H :    0.182790
  38 H :    0.167943
  39 H :    0.164910
  40 H :    0.163398

  Mayer bond orders larger than 0.100000
B(  0-C ,  1-C ) :   0.9473 B(  0-C , 19-H ) :   0.9613 B(  0-C , 20-H ) :   0.9722
B(  0-C , 21-H ) :   0.9595 B(  1-C ,  2-O ) :   0.7649 B(  1-C , 22-H ) :   0.9533
B(  1-C , 23-H ) :   0.9553 B(  2-O ,  3-P ) :   1.0607 B(  3-P ,  4-S ) :   1.7228
B(  3-P ,  5-O ) :   1.1590 B(  3-P ,  8-S ) :   1.0944 B(  5-O ,  6-C ) :   0.7404
B(  6-C ,  7-C ) :   0.9407 B(  6-C , 24-H ) :   0.9461 B(  6-C , 25-H ) :   0.9548
B(  7-C , 26-H ) :   0.9594 B(  7-C , 27-H ) :   0.9658 B(  7-C , 28-H ) :   0.9683
B(  8-S ,  9-C ) :   0.8868 B(  9-C , 10-S ) :   0.8896 B(  9-C , 29-H ) :   0.9024
B(  9-C , 30-H ) :   0.9045 B( 10-S , 11-P ) :   1.0322 B( 11-P , 12-S ) :   1.7490
B( 11-P , 13-O ) :   1.1164 B( 11-P , 16-O ) :   1.1416 B( 13-O , 14-C ) :   0.7961
B( 14-C , 15-C ) :   0.9222 B( 14-C , 31-H ) :   0.9484 B( 14-C , 32-H ) :   0.9566
B( 15-C , 33-H ) :   0.9670 B( 15-C , 34-H ) :   0.9568 B( 15-C , 35-H ) :   0.9570
B( 16-O , 17-C ) :   0.7512 B( 17-C , 18-C ) :   0.9286 B( 17-C , 36-H ) :   0.9364
B( 17-C , 37-H ) :   0.9569 B( 18-C , 38-H ) :   0.9604 B( 18-C , 39-H ) :   0.9666
B( 18-C , 40-H ) :   0.9657

Dispersion correction           -0.022255789
FINAL SINGLE POINT ENERGY     -2932.468874408937

DIPOLE MOMENT
-------------

Method             : SCF
Type of density    : Electron Density
Multiplicity       :   1
Irrep              :   0
Energy             : -2932.4931648399024198 Eh
Relativity type    :
Basis              : AO
                                X                 Y                 Z
Electronic contribution:     -3.019810720       7.006086163      -7.775578973
Nuclear contribution   :      3.430723029      -7.672418760       8.550600845
                        -----------------------------------------
Total Dipole Moment    :      0.410912309      -0.666332597       0.775021872
                        -----------------------------------------
Magnitude (a.u.)       :      1.101592918
Magnitude (Debye)      :      2.800026676

Rotational constants in cm-1:             0.013219             0.005153             0.004960
Rotational constants in MHz :           396.300172           154.492276           148.699447

                             ****ORCA TERMINATED NORMALLY****
TOTAL RUN TIME: 0 days 0 hours 1 minutes 54 seconds 381 msec
