                         Program Version 6.0.0  -   RELEASE  -
|  1> ! wb97x-v def2-tzvp def2/J RIJCOSX DEFGRID2 scfconv7 GCP(DFT/TZ) printgap
|  2> %output
|  3>     printlevel normal
|  4> end
|  5> * xyz 0 1
|  6> C -0.7627071050414415 0.00012945867679144786 -1.5058485706814155e-05
|  7> C 0.7626677795259084 -9.251777633525744e-05 -6.0179029420175024e-05
|  8> H -1.1597319912561097 0.39442151273922443 0.9411526714088073
|  9> H -1.1597670963245195 0.6182196714635311 -0.8119283934630931
| 10> H -1.1599746269118552 -1.0119839619414932 -0.12927010909494968
| 11> H 1.159942607501172 1.0120150537292387 0.12922246271975435
| 12> H 1.1596922073097076 -0.39436107766609324 -0.9412370945418904
| 13> H 1.159722327721916 -0.6182023988504257 0.8118404475967207
| 14> *
| 15>
| 16>                          ****END OF INPUT****

CARTESIAN COORDINATES (ANGSTROEM)
---------------------------------
  C     -0.762707    0.000129   -0.000015
  C      0.762668   -0.000093   -0.000060
  H     -1.159732    0.394422    0.941153
  H     -1.159767    0.618220   -0.811928
  H     -1.159975   -1.011984   -0.129270
  H      1.159943    1.012015    0.129222
  H      1.159692   -0.394361   -0.941237
  H      1.159722   -0.618202    0.811840

 Total Charge           Charge          ....    0
 Multiplicity           Mult            ....    1
 Number of Electrons    NEL             ....   18
 Basis Dimension        Dim             ....   98

ORBITAL ENERGIES
----------------

  NO   OCC          E(Eh)            E(eV)
   0   2.0000     -12.034109      -327.4648
   1   2.0000     -12.032942      -327.4330
   2   2.0000      -1.250058       -34.0158
   3   2.0000      -1.091623       -29.7046
   4   2.0000      -0.854594       -23.2547
   5   2.0000      -0.854578       -23.2543
   6   2.0000      -0.813755       -22.1434
   7   2.0000      -0.763400       -20.7732
   8   2.0000      -0.763377       -20.7725
   9   0.0000       0.003458         0.0941
  10   0.0000       0.005904         0.1607
  11   0.0000       0.041245         1.1223
  12   0.0000       0.041256         1.1226
  13   0.0000       0.076060         2.0697

MULLIKEN ATOMIC CHARGES
-----------------------
   0 C :   -0.308927
   1 C :   -0.308931
   2 H :    0.102988
   3 H :    0.103025
   4 H :    0.102917
   5 H :    0.102917
   6 H :    0.102989
   7 H :    0.103023
Sum of atomic charges:    0.0000000

LOEWDIN ATOMIC CHARGES
----------------------
   0 C :   -0.338097
   1 C :   -0.338097
   2 H :    0.112699
   3 H :    0.112702
   4 H :    0.112696
   5 H :    0.112696
   6 H :    0.112699
   7 H :    0.112702

  Mayer bond orders larger than 0.100000
B(  0-C ,  1-C ) :   0.9877 B(  0-C ,  2-H ) :   0.9804 B(  0-C ,  3-H ) :   0.9804
B(  0-C ,  4-H ) :   0.9803 B(  1-C ,  5-H ) :   0.9803 B(  1-C ,  6-H ) :   0.9804
B(  1-C ,  7-H ) :   0.9804

FINAL SINGLE POINT ENERGY       -79.823951498610

DIPOLE MOMENT
-------------

Method             : SCF
Type of density    : Electron Density
Multiplicity       :   1
Irrep              :   0
Energy             :   -79.8293828150100921 Eh
Relativity type    :
Basis              : AO
                                X                 Y                 Z
Electronic contribution:     -0.000000838       0.000001179      -0.000004037
Nuclear contribution   :      0.000001053      -0.000001516       0.000004270
                        -----------------------------------------
Total Dipole Moment    :      0.000000215      -0.000000338       0.000000233
                        -----------------------------------------
Magnitude (a.u.)       :      0.000000463
Magnitude (Debye)      :      0.000001178

Rotational constants in cm-1:             2.677032             0.667439             0.667427
Rotational constants in MHz :         80255.406897         20009.321305         20008.955122

                             ****ORCA TERMINATED NORMALLY****
TOTAL RUN TIME: 0 days 0 hours 0 minutes 12 seconds 766 msec
