                         Program Version 6.0.0  -   RELEASE  -
|  1> ! wb97x-v def2-tzvp def2/J RIJCOSX DEFGRID2 scfconv7 GCP(DFT/TZ) printgap
|  2> %output
|  3>     printlevel normal
|  4> end
|  5> %cpcm
|  6>     smd true
|  7>     smdsolvent "water"
|  8> end
|  9> * xyz 0 1
| 10> C -0.7627071050414415 0.00012945867679144786 -1.5058485706814155e-05
| 11> C 0.7626677795259084 -9.251777633525744e-05 -6.0179029420175024e-05
| 12> H -1.1597319912561097 0.39442151273922443 0.9411526714088073
| 13> H -1.1597670963245195 0.6182196714635311 -0.8119283934630931
| 14> H -1.1599746269118552 -1.0119839619414932 -0.12927010909494968
| 15> H 1.159942607501172 1.0120150537292387 0.12922246271975435
| 16> H 1.1596922073097076 -0.39436107766609324 -0.9412370945418904
| 17> H 1.159722327721916 -0.6182023988504257 0.8118404475967207
| 18> *
| 19>
| 20>                          ****END OF INPUT****

CARTESIAN COORDINATES (ANGSTROEM)
---------------------------------
  C     -0.762707    0.000129   -0.000015
  C      0.762668   -0.000093   -0.000060
  H     -1.159732    0.394422    0.941153
  H     -1.159767    0.618220   -0.811928
  H     -1.159975   -1.011984   -0.129270
  H      1.159943    1.012015    0.129222
  H      1.159692   -0.394361   -0.941237
  H      1.159722   -0.618202    0.811840

 Total Charge           Charge          ....    0
 Multiplicity           Mult            ....    1
 Number of Electrons    NEL             ....   18
 Basis Dimension        Dim             ....   98

ORBITAL ENERGIES
----------------

  NO   OCC          E(Eh)            E(eV)
   0   2.0000     -12.027077      -327.2734
   1   2.0000     -12.025909      -327.2416
   2   2.0000      -1.243671       -33.8420
   3   2.0000      -1.085377       -29.5346
   4   2.0000      -0.848021       -23.0758
   5   2.0000      -0.848007       -23.0754
   6   2.0000      -0.807413       -21.9708
   7   2.0000      -0.756702       -20.5909
   8   2.0000      -0.756680       -20.5903
   9   0.0000       0.011258         0.3063
  10   0.0000       0.011462         0.3119
  11   0.0000       0.049518         1.3475
  12   0.0000       0.049526         1.3477
  13   0.0000       0.084014         2.2861

MULLIKEN ATOMIC CHARGES
-----------------------
   0 C :   -0.351352
   1 C :   -0.351356
   2 H :    0.117113
   3 H :    0.117169
   4 H :    0.117072
   5 H :    0.117072
   6 H :    0.117114
   7 H :    0.117167
Sum of atomic charges:    0.0000000

LOEWDIN ATOMIC CHARGES
----------------------
   0 C :   -0.344829
   1 C :   -0.344829
   2 H :    0.114932
   3 H :    0.114952
   4 H :    0.114946
   5 H :    0.114945
   6 H :    0.114932
   7 H :    0.114951

  Mayer bond orders larger than 0.100000
B(  0-C ,  1-C ) :   0.9841 B(  0-C ,  2-H ) :   0.9776 B(  0-C ,  3-H ) :   0.9777
B(  0-C ,  4-H ) :   0.9776 B(  1-C ,  5-H ) :   0.9776 B(  1-C ,  6-H ) :   0.9776
B(  1-C ,  7-H ) :   0.9777

FINAL SINGLE POINT ENERGY       -79.821350372613

DIPOLE MOMENT
-------------

Method             : SCF
Type of density    : Electron Density
Multiplicity       :   1
Irrep              :   0
Energy             :   -79.8267816890132451 Eh
Relativity type    :
Basis              : AO
                                X                 Y                 Z
Electronic contribution:     -0.000000804       0.000000918      -0.000003972
Nuclear contribution   :      0.000001053      -0.000001516       0.000004270
                        -----------------------------------------
Total Dipole Moment    :      0.000000248      -0.000000598       0.000000297
                        -----------------------------------------
Magnitude (a.u.)       :      0.000000713
Magnitude (Debye)      :      0.000001811

Rotational constants in cm-1:             2.677032             0.667439             0.667427
Rotational constants in MHz :         80255.406897         20009.321305         20008.955122

                             ****ORCA TERMINATED NORMALLY****
TOTAL RUN TIME: 0 days 0 hours 0 minutes 13 seconds 442 msec
