                         Program Version 6.0.1  -  RELEASE   -
|  1> ! pbe def2-sv(p) def2/J RI DEFGRID1 loosescf d4 GCP(DFT/SV(P)) printgap
|  2> %output
|  3>     printlevel normal
|  4> end
|  5> * xyz 0 1
|  6> C 5.1338465599 -3.1845360831 -0.1880169093
|  7> C 4.3071059639 -2.0291332526 0.3403555112
|  8> O 3.0912164442 -1.9620955599 -0.4335166465
|  9> C 2.3358235148 -0.8975011574 -0.3131238536
| 10> O 2.6033339414 0.0566313671 0.393118894
| 11> C 1.0732209596 -1.0036753535 -1.1328562788
| 12> C 0.4265299791 0.3657674723 -1.323656444
| 13> H 0.8206110946 0.8817792839 -2.2004476538
| 14> C 0.584997683 1.265458158 -0.1104871856
| 15> O -0.0299862064 1.0678901377 0.9231374305
| 16> O 1.2986663963 2.3256847196 -0.3696895099
| 17> C 1.5349940643 3.2679030634 0.6970409748
| 18> C 1.9486910132 4.5879256535 0.0770293025
| 19> S -1.3693840495 0.2279941534 -1.5824518465
| 20> P -2.1053774174 -0.3120112095 0.3530047343
| 21> S -1.2193703049 -1.6895694858 1.4344646686
| 22> O -2.5955030117 0.9850142254 1.1199689042
| 23> C -3.5586481421 1.8916837847 0.5489401737
| 24> O -3.545831977 -0.8363016162 -0.1432570739
| 25> C -3.7035468661 -2.0901482806 -0.8113810659
| 26> H 4.5718631641 -4.1095459833 -0.1037041914
| 27> H 5.3843166006 -3.0189860284 -1.2314096652
| 28> H 6.0470180362 -3.2652366358 0.3919536186
| 29> H 4.8288867824 -1.0716532114 0.2465848427
| 30> H 4.0326801746 -2.1723187164 1.3899447121
| 31> H 0.4100456515 -1.6609879789 -0.5560609474
| 32> H 1.2758853975 -1.485499817 -2.0878640134
| 33> H 0.6195916342 3.3544414351 1.2910133763
| 34> H 2.3223804236 2.8461184906 1.3288843366
| 35> H 2.8416710453 4.4489378345 -0.5243631452
| 36> H 1.1536752942 4.9719066785 -0.5552778707
| 37> H 2.1551880759 5.3022550536 0.8668820714
| 38> H -4.5448098742 1.4311233499 0.5561659325
| 39> H -3.2769519773 2.149341289 -0.4727076109
| 40> H -3.5346755669 2.7696123534 1.1896866573
| 41> H -3.3589919477 -2.0061440064 -1.8415990784
| 42> H -4.767916478 -2.3081374147 -0.7788582908
| 43> H -3.1398154144 -2.8648877572 -0.2885890325
| 44> *
| 45>
| 46>                          ****END OF INPUT****

CARTESIAN COORDINATES (ANGSTROEM)
---------------------------------
  C      5.133847   -3.184536   -0.188017
  C      4.307106   -2.029133    0.340356
  O      3.091216   -1.962096   -0.433517
  C      2.335824   -0.897501   -0.313124
  O      2.603334    0.056631    0.393119
  C      1.073221   -1.003675   -1.132856
  C      0.426530    0.365767   -1.323656
  H      0.820611    0.881779   -2.200448
  C      0.584998    1.265458   -0.110487
  O     -0.029986    1.067890    0.923137
  O      1.298666    2.325685   -0.369690
  C      1.534994    3.267903    0.697041
  C      1.948691    4.587926    0.077029
  S     -1.369384    0.227994   -1.582452
  P     -2.105377   -0.312011    0.353005
  S     -1.219370   -1.689569    1.434465
  O     -2.595503    0.985014    1.119969
  C     -3.558648    1.891684    0.548940
  O     -3.545832   -0.836302   -0.143257
  C     -3.703547   -2.090148   -0.811381
  H      4.571863   -4.109546   -0.103704
  H      5.384317   -3.018986   -1.231410
  H      6.047018   -3.265237    0.391954
  H      4.828887   -1.071653    0.246585
  H      4.032680   -2.172319    1.389945
  H      0.410046   -1.660988   -0.556061
  H      1.275885   -1.485500   -2.087864
  H      0.619592    3.354441    1.291013
  H      2.322380    2.846118    1.328884
  H      2.841671    4.448938   -0.524363
  H      1.153675    4.971907   -0.555278
  H      2.155188    5.302255    0.866882
  H     -4.544810    1.431123    0.556166
  H     -3.276952    2.149341   -0.472708
  H     -3.534676    2.769612    1.189687
  H     -3.358992   -2.006144   -1.841599
  H     -4.767916   -2.308137   -0.778858
  H     -3.139815   -2.864888   -0.288589

 Total Charge           Charge          ....    0
 Multiplicity           Mult            ....    1
 Number of Electrons    NEL             ....  174
 Basis Dimension        Dim             ....  316

ORBITAL ENERGIES
----------------

  NO   OCC          E(Eh)            E(eV)
   0   2.0000     -88.036663     -2395.5994
   1   2.0000     -87.967370     -2393.7138
   2   2.0000     -76.417737     -2079.4323
   3   2.0000     -18.807887      -511.7886
   4   2.0000     -18.803013      -511.6560
   5   2.0000     -18.777906      -510.9728
   6   2.0000     -18.777214      -510.9540
   7   2.0000     -18.748179      -510.1639
   8   2.0000     -18.732422      -509.7351
   9   2.0000     -10.015445      -272.5341
  10   2.0000     -10.013690      -272.4864
  11   2.0000      -9.952670      -270.8259
  12   2.0000      -9.945654      -270.6350
  13   2.0000      -9.944120      -270.5933
  14   2.0000      -9.939651      -270.4717
  15   2.0000      -9.932729      -270.2833
  16   2.0000      -9.906587      -269.5720
  17   2.0000      -9.892627      -269.1921
  18   2.0000      -9.888165      -269.0706
  19   2.0000      -7.681251      -209.0175
  20   2.0000      -7.612613      -207.1497
  21   2.0000      -6.413144      -174.5105
  22   2.0000      -5.709167      -155.3543
  23   2.0000      -5.705538      -155.2556
  24   2.0000      -5.698473      -155.0633
  25   2.0000      -5.641961      -153.5256
  26   2.0000      -5.633483      -153.2949
  27   2.0000      -5.632023      -153.2551
  28   2.0000      -4.636247      -126.1587
  29   2.0000      -4.635194      -126.1300
  30   2.0000      -4.633307      -126.0787
  31   2.0000      -1.018997       -27.7283
  32   2.0000      -1.011667       -27.5289
  33   2.0000      -0.973299       -26.4848
  34   2.0000      -0.927142       -25.2288
  35   2.0000      -0.923549       -25.1310
  36   2.0000      -0.913610       -24.8606
  37   2.0000      -0.761430       -20.7196
  38   2.0000      -0.717966       -19.5368
  39   2.0000      -0.706064       -19.2130
  40   2.0000      -0.685374       -18.6500
  41   2.0000      -0.658248       -17.9118
  42   2.0000      -0.625809       -17.0291
  43   2.0000      -0.617547       -16.8043
  44   2.0000      -0.606358       -16.4998
  45   2.0000      -0.590379       -16.0650
  46   2.0000      -0.553985       -15.0747
  47   2.0000      -0.515041       -14.0150
  48   2.0000      -0.510353       -13.8874
  49   2.0000      -0.499343       -13.5878
  50   2.0000      -0.479769       -13.0552
  51   2.0000      -0.463948       -12.6247
  52   2.0000      -0.454910       -12.3787
  53   2.0000      -0.445955       -12.1351
  54   2.0000      -0.442472       -12.0403
  55   2.0000      -0.433801       -11.8043
  56   2.0000      -0.420506       -11.4426
  57   2.0000      -0.419392       -11.4122
  58   2.0000      -0.410993       -11.1837
  59   2.0000      -0.404983       -11.0201
  60   2.0000      -0.398481       -10.8432
  61   2.0000      -0.395790       -10.7700
  62   2.0000      -0.388179       -10.5629
  63   2.0000      -0.374996       -10.2042
  64   2.0000      -0.371226       -10.1016
  65   2.0000      -0.363885        -9.9018
  66   2.0000      -0.358330        -9.7507
  67   2.0000      -0.355536        -9.6746
  68   2.0000      -0.350557        -9.5391
  69   2.0000      -0.340619        -9.2687
  70   2.0000      -0.334532        -9.1031
  71   2.0000      -0.321436        -8.7467
  72   2.0000      -0.315217        -8.5775
  73   2.0000      -0.310743        -8.4557
  74   2.0000      -0.305677        -8.3179
  75   2.0000      -0.298802        -8.1308
  76   2.0000      -0.286673        -7.8008
  77   2.0000      -0.282731        -7.6935
  78   2.0000      -0.270434        -7.3589
  79   2.0000      -0.260997        -7.1021
  80   2.0000      -0.252807        -6.8792
  81   2.0000      -0.245045        -6.6680
  82   2.0000      -0.232293        -6.3210
  83   2.0000      -0.231814        -6.3080
  84   2.0000      -0.221272        -6.0211
  85   2.0000      -0.187580        -5.1043
  86   2.0000      -0.175635        -4.7793
  87   0.0000      -0.044454        -1.2096
  88   0.0000      -0.027196        -0.7400
  89   0.0000      -0.012539        -0.3412
  90   0.0000       0.017330         0.4716
  91   0.0000       0.033402         0.9089

MULLIKEN ATOMIC CHARGES
-----------------------
   0 C :   -0.274492
   1 C :   -0.031719
   2 O :   -0.226152
   3 C :    0.134827
   4 O :   -0.210912
   5 C :   -0.064379
   6 C :   -0.287892
   7 H :    0.127430
   8 C :    0.201780
   9 O :   -0.196851
  10 O :   -0.218749
  11 C :   -0.025313
  12 C :   -0.276658
  13 S :   -0.102700
  14 P :    0.625093
  15 S :   -0.309939
  16 O :   -0.357898
  17 C :   -0.099275
  18 O :   -0.402839
  19 C :   -0.098810
  20 H :    0.120041
  21 H :    0.114838
  22 H :    0.113590
  23 H :    0.109459
  24 H :    0.115208
  25 H :    0.140331
  26 H :    0.114462
  27 H :    0.113388
  28 H :    0.115196
  29 H :    0.115130
  30 H :    0.112659
  31 H :    0.112112
  32 H :    0.122998
  33 H :    0.109637
  34 H :    0.125605
  35 H :    0.109024
  36 H :    0.118437
  37 H :    0.113332
Sum of atomic charges:   -0.0000000

LOEWDIN ATOMIC CHARGES
----------------------
   0 C :   -0.350320
   1 C :   -0.105182
   2 O :   -0.054191
   3 C :    0.046025
   4 O :   -0.152094
   5 C :   -0.264949
   6 C :   -0.258556
   7 H :    0.139218
   8 C :    0.009359
   9 O :   -0.161682
  10 O :   -0.043486
  11 C :   -0.104287
  12 C :   -0.350911
  13 S :    0.095447
  14 P :    0.590737
  15 S :   -0.309724
  16 O :   -0.234881
  17 C :   -0.209421
  18 O :   -0.270016
  19 C :   -0.221451
  20 H :    0.129216
  21 H :    0.126627
  22 H :    0.131815
  23 H :    0.117754
  24 H :    0.121687
  25 H :    0.141577
  26 H :    0.141037
  27 H :    0.119757
  28 H :    0.123177
  29 H :    0.126690
  30 H :    0.125344
  31 H :    0.131020
  32 H :    0.115818
  33 H :    0.105236
  34 H :    0.122610
  35 H :    0.104883
  36 H :    0.119026
  37 H :    0.107091

  Mayer bond orders larger than 0.100000
B(  0-C ,  1-C ) :   1.1550 B(  0-C , 20-H ) :   0.9482 B(  0-C , 21-H ) :   0.9513
B(  0-C , 22-H ) :   0.9436 B(  1-C ,  2-O ) :   0.8996 B(  1-C , 23-H ) :   0.9270
B(  1-C , 24-H ) :   0.9344 B(  2-O ,  3-C ) :   1.2526 B(  3-C ,  4-O ) :   1.9538
B(  3-C ,  5-C ) :   1.0242 B(  4-O ,  8-C ) :   0.1335 B(  5-C ,  6-C ) :   1.0098
B(  5-C , 25-H ) :   0.8296 B(  5-C , 26-H ) :   0.9010 B(  6-C ,  7-H ) :   0.8811
B(  6-C ,  8-C ) :   0.9037 B(  6-C , 13-S ) :   1.0162 B(  8-C ,  9-O ) :   1.9432
B(  8-C , 10-O ) :   1.2564 B(  9-O , 14-P ) :   0.1316 B( 10-O , 11-C ) :   0.9037
B( 11-C , 12-C ) :   1.1545 B( 11-C , 27-H ) :   0.9211 B( 11-C , 28-H ) :   0.9307
B( 12-C , 29-H ) :   0.9487 B( 12-C , 30-H ) :   0.9521 B( 12-C , 31-H ) :   0.9441
B( 13-S , 14-P ) :   0.9335 B( 13-S , 15-S ) :   0.1142 B( 14-P , 15-S ) :   1.5988
B( 14-P , 16-O ) :   1.1111 B( 14-P , 18-O ) :   1.0258 B( 15-S , 25-H ) :   0.1140
B( 16-O , 17-C ) :   0.9269 B( 17-C , 32-H ) :   0.9489 B( 17-C , 33-H ) :   0.9378
B( 17-C , 34-H ) :   0.9584 B( 18-O , 19-C ) :   0.9411 B( 19-C , 35-H ) :   0.9480
B( 19-C , 36-H ) :   0.9589 B( 19-C , 37-H ) :   0.9289

Dispersion correction           -0.050660789
FINAL SINGLE POINT ENERGY     -1979.007119623283

DIPOLE MOMENT
-------------

Method             : SCF
Type of density    : Electron Density
Multiplicity       :   1
Irrep              :   0
Energy             : -1979.1391704122770534 Eh
Relativity type    :
Basis              : AO
                                X                 Y                 Z
Electronic contribution:    -14.185350043      -3.726567673       2.244215088
Nuclear contribution   :     14.953184740       4.278261482      -3.459864014
                        -----------------------------------------
Total Dipole Moment    :      0.767834697       0.551693809      -1.215648926
                        -----------------------------------------
Magnitude (a.u.)       :      1.540044965
Magnitude (Debye)      :      3.914483211

Rotational constants in cm-1:             0.012009             0.007056             0.005184
Rotational constants in MHz :           360.033866           211.528325           155.407043

                             ****ORCA TERMINATED NORMALLY****
TOTAL RUN TIME: 0 days 0 hours 0 minutes 42 seconds 360 msec
