                         Program Version 6.0.0  -   RELEASE  -
|  1> ! pbe def2-sv(p) def2/J RI DEFGRID1 loosescf d4 GCP(DFT/SV(P)) printgap
|  2> %output
|  3>     printlevel normal
|  4> end
|  5> * xyz 0 1
|  6> C 0.9008425927 -0.6147906629 3.584731411
|  7> C 2.1248502913 -0.5175410882 2.6967892892
|  8> O 1.7500359062 0.1633290238 1.4778420468
|  9> P 2.4187792234 -0.1618988505 0.0777240044
| 10> S 2.8656911194 -2.0474654794 -0.2468582558
| 11> O 3.670644569 0.818880328 0.1019150672
| 12> C 4.7723330143 0.6863038405 -0.8134715172
| 13> C 4.3682591417 1.0040371866 -2.2385777674
| 14> S 1.0193447115 0.74760596 -1.2039342456
| 15> C -0.0594454943 -0.7037951055 -1.3801211417
| 16> S -0.9269035523 -1.1421147267 0.1461771914
| 17> P -2.5583386427 0.232248869 0.0066550755
| 18> S -2.9051535738 0.9462079998 -1.7918610637
| 19> O -2.3629880192 1.2497058863 1.2039258886
| 20> C -1.2195834047 2.094115912 1.4139363749
| 21> C -1.1551232514 3.2377192411 0.4203867295
| 22> O -3.780549372 -0.5202177605 0.6680032491
| 23> C -4.7092090438 -1.2916202286 -0.1130728657
| 24> C -4.0918514033 -2.5791866976 -0.6221657063
| 25> H 1.1680400199 -1.1309721837 4.5010602756
| 26> H 0.5324419849 0.378233315 3.8256654266
| 27> H 0.1147356843 -1.1697694701 3.0781385724
| 28> H 2.5075655332 -1.5109315961 2.4385869466
| 29> H 2.9194350053 0.0646811074 3.1684614265
| 30> H 5.5129493778 1.3925399349 -0.4361129539
| 31> H 5.1592586212 -0.3352239726 -0.7414401537
| 32> H 3.8858722083 1.9771074888 -2.2872180887
| 33> H 5.2502721887 1.0058618574 -2.8709359188
| 34> H 3.6731900353 0.2497147101 -2.6055654668
| 35> H 0.5436040216 -1.567484892 -1.6571568011
| 36> H -0.7869012958 -0.4521487576 -2.1534101573
| 37> H -1.3609650355 2.4647337214 2.4313152597
| 38> H -0.3085934025 1.4888524443 1.3719738288
| 39> H -0.3374569034 3.8985739968 0.6898672753
| 40> H -0.983014922 2.8620152167 -0.5867390623
| 41> H -2.0884544399 3.7948456687 0.4296044418
| 42> H -5.5325940278 -1.4855201013 0.5756153093
| 43> H -5.0609599843 -0.6765488016 -0.9479629833
| 44> H -4.8605024304 -3.1857369434 -1.090242731
| 45> H -3.3207259302 -2.357976362 -1.3587865622
| 46> H -3.6444117865 -3.1334085297 0.1990252445
| 47> *
| 48>
| 49>                          ****END OF INPUT****

CARTESIAN COORDINATES (ANGSTROEM)
---------------------------------
  C      0.900843   -0.614791    3.584731
  C      2.124850   -0.517541    2.696789
  O      1.750036    0.163329    1.477842
  P      2.418779   -0.161899    0.077724
  S      2.865691   -2.047465   -0.246858
  O      3.670645    0.818880    0.101915
  C      4.772333    0.686304   -0.813472
  C      4.368259    1.004037   -2.238578
  S      1.019345    0.747606   -1.203934
  C     -0.059445   -0.703795   -1.380121
  S     -0.926904   -1.142115    0.146177
  P     -2.558339    0.232249    0.006655
  S     -2.905154    0.946208   -1.791861
  O     -2.362988    1.249706    1.203926
  C     -1.219583    2.094116    1.413936
  C     -1.155123    3.237719    0.420387
  O     -3.780549   -0.520218    0.668003
  C     -4.709209   -1.291620   -0.113073
  C     -4.091851   -2.579187   -0.622166
  H      1.168040   -1.130972    4.501060
  H      0.532442    0.378233    3.825665
  H      0.114736   -1.169769    3.078139
  H      2.507566   -1.510932    2.438587
  H      2.919435    0.064681    3.168461
  H      5.512949    1.392540   -0.436113
  H      5.159259   -0.335224   -0.741440
  H      3.885872    1.977107   -2.287218
  H      5.250272    1.005862   -2.870936
  H      3.673190    0.249715   -2.605565
  H      0.543604   -1.567485   -1.657157
  H     -0.786901   -0.452149   -2.153410
  H     -1.360965    2.464734    2.431315
  H     -0.308593    1.488852    1.371974
  H     -0.337457    3.898574    0.689867
  H     -0.983015    2.862015   -0.586739
  H     -2.088454    3.794846    0.429604
  H     -5.532594   -1.485520    0.575615
  H     -5.060960   -0.676549   -0.947963
  H     -4.860502   -3.185737   -1.090243
  H     -3.320726   -2.357976   -1.358787
  H     -3.644412   -3.133409    0.199025

 Total Charge           Charge          ....    0
 Multiplicity           Mult            ....    1
 Number of Electrons    NEL             ....  202
 Basis Dimension        Dim             ....  334

ORBITAL ENERGIES
----------------

  NO   OCC          E(Eh)            E(eV)
   0   2.0000     -88.048985     -2395.9347
   1   2.0000     -88.044703     -2395.8182
   2   2.0000     -87.994322     -2394.4472
   3   2.0000     -87.991374     -2394.3670
   4   2.0000     -76.431435     -2079.8051
   5   2.0000     -76.427770     -2079.7054
   6   2.0000     -18.798117      -511.5228
   7   2.0000     -18.795462      -511.4505
   8   2.0000     -18.790511      -511.3158
   9   2.0000     -18.787749      -511.2406
  10   2.0000      -9.956283      -270.9242
  11   2.0000      -9.955456      -270.9017
  12   2.0000      -9.954319      -270.8708
  13   2.0000      -9.950791      -270.7748
  14   2.0000      -9.946696      -270.6634
  15   2.0000      -9.887540      -269.0536
  16   2.0000      -9.887386      -269.0494
  17   2.0000      -9.882691      -268.9217
  18   2.0000      -9.874636      -268.7025
  19   2.0000      -7.693935      -209.3626
  20   2.0000      -7.689277      -209.2359
  21   2.0000      -7.639232      -207.8741
  22   2.0000      -7.636224      -207.7922
  23   2.0000      -6.429200      -174.9474
  24   2.0000      -6.424987      -174.8328
  25   2.0000      -5.721722      -155.6960
  26   2.0000      -5.718538      -155.6093
  27   2.0000      -5.717119      -155.5707
  28   2.0000      -5.713769      -155.4796
  29   2.0000      -5.710881      -155.4010
  30   2.0000      -5.706367      -155.2782
  31   2.0000      -5.667966      -154.2332
  32   2.0000      -5.664980      -154.1520
  33   2.0000      -5.659903      -154.0138
  34   2.0000      -5.659556      -154.0043
  35   2.0000      -5.656835      -153.9303
  36   2.0000      -5.656581      -153.9234
  37   2.0000      -4.651643      -126.5776
  38   2.0000      -4.650920      -126.5580
  39   2.0000      -4.649758      -126.5263
  40   2.0000      -4.647244      -126.4579
  41   2.0000      -4.647045      -126.4525
  42   2.0000      -4.645468      -126.4096
  43   2.0000      -0.991436       -26.9783
  44   2.0000      -0.988170       -26.8895
  45   2.0000      -0.949972       -25.8500
  46   2.0000      -0.942880       -25.6571
  47   2.0000      -0.767382       -20.8815
  48   2.0000      -0.724025       -19.7017
  49   2.0000      -0.711247       -19.3540
  50   2.0000      -0.690321       -18.7846
  51   2.0000      -0.681282       -18.5386
  52   2.0000      -0.676989       -18.4218
  53   2.0000      -0.653771       -17.7900
  54   2.0000      -0.642452       -17.4820
  55   2.0000      -0.604634       -16.4529
  56   2.0000      -0.595971       -16.2172
  57   2.0000      -0.576218       -15.6797
  58   2.0000      -0.566297       -15.4097
  59   2.0000      -0.559822       -15.2335
  60   2.0000      -0.508340       -13.8326
  61   2.0000      -0.493382       -13.4256
  62   2.0000      -0.477537       -12.9944
  63   2.0000      -0.468063       -12.7366
  64   2.0000      -0.459292       -12.4980
  65   2.0000      -0.445669       -12.1273
  66   2.0000      -0.440509       -11.9869
  67   2.0000      -0.433615       -11.7993
  68   2.0000      -0.425754       -11.5853
  69   2.0000      -0.418533       -11.3888
  70   2.0000      -0.412391       -11.2217
  71   2.0000      -0.405811       -11.0427
  72   2.0000      -0.396493       -10.7891
  73   2.0000      -0.389682       -10.6038
  74   2.0000      -0.382804       -10.4166
  75   2.0000      -0.377115       -10.2618
  76   2.0000      -0.368472       -10.0266
  77   2.0000      -0.358769        -9.7626
  78   2.0000      -0.357305        -9.7228
  79   2.0000      -0.353141        -9.6095
  80   2.0000      -0.344742        -9.3809
  81   2.0000      -0.343473        -9.3464
  82   2.0000      -0.341320        -9.2878
  83   2.0000      -0.337887        -9.1944
  84   2.0000      -0.332848        -9.0573
  85   2.0000      -0.320373        -8.7178
  86   2.0000      -0.312745        -8.5102
  87   2.0000      -0.300352        -8.1730
  88   2.0000      -0.297574        -8.0974
  89   2.0000      -0.291548        -7.9334
  90   2.0000      -0.286056        -7.7840
  91   2.0000      -0.278392        -7.5754
  92   2.0000      -0.268876        -7.3165
  93   2.0000      -0.268114        -7.2958
  94   2.0000      -0.258781        -7.0418
  95   2.0000      -0.239317        -6.5122
  96   2.0000      -0.220169        -5.9911
  97   2.0000      -0.217288        -5.9127
  98   2.0000      -0.209682        -5.7057
  99   2.0000      -0.207901        -5.6573
 100   2.0000      -0.204502        -5.5648
 101   0.0000      -0.049400        -1.3442
 102   0.0000      -0.031247        -0.8503
 103   0.0000      -0.008678        -0.2361
 104   0.0000      -0.004345        -0.1182
 105   0.0000       0.008853         0.2409

MULLIKEN ATOMIC CHARGES
-----------------------
   0 C :   -0.292160
   1 C :   -0.009318
   2 O :   -0.359292
   3 P :    0.614483
   4 S :   -0.333729
   5 O :   -0.373502
   6 C :   -0.004154
   7 C :   -0.317973
   8 S :   -0.077432
   9 C :   -0.362140
  10 S :   -0.092531
  11 P :    0.603944
  12 S :   -0.331351
  13 O :   -0.351748
  14 C :   -0.053451
  15 C :   -0.300580
  16 O :   -0.356787
  17 C :   -0.004881
  18 C :   -0.309837
  19 H :    0.112092
  20 H :    0.117779
  21 H :    0.129533
  22 H :    0.108697
  23 H :    0.103776
  24 H :    0.106713
  25 H :    0.112769
  26 H :    0.119584
  27 H :    0.115392
  28 H :    0.127423
  29 H :    0.194204
  30 H :    0.193980
  31 H :    0.103385
  32 H :    0.145664
  33 H :    0.104435
  34 H :    0.130670
  35 H :    0.114287
  36 H :    0.106977
  37 H :    0.114268
  38 H :    0.112141
  39 H :    0.120796
  40 H :    0.117874
Sum of atomic charges:   -0.0000000

LOEWDIN ATOMIC CHARGES
----------------------
   0 C :   -0.353080
   1 C :   -0.116320
   2 O :   -0.240178
   3 P :    0.570305
   4 S :   -0.320024
   5 O :   -0.246177
   6 C :   -0.118912
   7 C :   -0.369188
   8 S :    0.107356
   9 C :   -0.487480
  10 S :    0.087876
  11 P :    0.571845
  12 S :   -0.309124
  13 O :   -0.231087
  14 C :   -0.126063
  15 C :   -0.367052
  16 O :   -0.233476
  17 C :   -0.119275
  18 C :   -0.367584
  19 H :    0.130569
  20 H :    0.125096
  21 H :    0.126584
  22 H :    0.108059
  23 H :    0.113879
  24 H :    0.119467
  25 H :    0.111288
  26 H :    0.125222
  27 H :    0.132258
  28 H :    0.121379
  29 H :    0.130544
  30 H :    0.126879
  31 H :    0.117522
  32 H :    0.105523
  33 H :    0.127967
  34 H :    0.114674
  35 H :    0.125617
  36 H :    0.119722
  37 H :    0.110488
  38 H :    0.130350
  39 H :    0.119427
  40 H :    0.125120

  Mayer bond orders larger than 0.100000
B(  0-C ,  1-C ) :   1.1641 B(  0-C , 19-H ) :   0.9409 B(  0-C , 20-H ) :   0.9481
B(  0-C , 21-H ) :   0.9456 B(  1-C ,  2-O ) :   0.8976 B(  1-C , 22-H ) :   0.9061
B(  1-C , 23-H ) :   0.9327 B(  2-O ,  3-P ) :   1.1201 B(  3-P ,  4-S ) :   1.6020
B(  3-P ,  5-O ) :   1.1159 B(  3-P ,  8-S ) :   0.9687 B(  4-S ,  8-S ) :   0.1079
B(  5-O ,  6-C ) :   0.9072 B(  6-C ,  7-C ) :   1.1643 B(  6-C , 24-H ) :   0.9337
B(  6-C , 25-H ) :   0.9163 B(  7-C , 26-H ) :   0.9449 B(  7-C , 27-H ) :   0.9378
B(  7-C , 28-H ) :   0.9355 B(  8-S ,  9-C ) :   0.9977 B(  9-C , 10-S ) :   1.0138
B(  9-C , 29-H ) :   0.8762 B(  9-C , 30-H ) :   0.8626 B( 10-S , 11-P ) :   0.9311
B( 10-S , 12-S ) :   0.1202 B( 11-P , 12-S ) :   1.5953 B( 11-P , 13-O ) :   1.1410
B( 11-P , 16-O ) :   1.1334 B( 13-O , 14-C ) :   0.9112 B( 14-C , 15-C ) :   1.1622
B( 14-C , 31-H ) :   0.9336 B( 14-C , 32-H ) :   0.8938 B( 15-C , 33-H ) :   0.9389
B( 15-C , 34-H ) :   0.9300 B( 15-C , 35-H ) :   0.9448 B( 16-O , 17-C ) :   0.9119
B( 17-C , 18-C ) :   1.1632 B( 17-C , 36-H ) :   0.9339 B( 17-C , 37-H ) :   0.9144
B( 18-C , 38-H ) :   0.9386 B( 18-C , 39-H ) :   0.9386 B( 18-C , 40-H ) :   0.9450

Dispersion correction           -0.065907951
FINAL SINGLE POINT ENERGY     -2929.527558239255

DIPOLE MOMENT
-------------

Method             : SCF
Type of density    : Electron Density
Multiplicity       :   1
Irrep              :   0
Energy             : -2929.6463400428788191 Eh
Relativity type    :
Basis              : AO
                                X                 Y                 Z
Electronic contribution:     -2.281198042      -2.292082060      -5.001084933
Nuclear contribution   :      2.910822255       2.418241251       5.669758764
                        -----------------------------------------
Total Dipole Moment    :      0.629624213       0.126159191       0.668673831
                        -----------------------------------------
Magnitude (a.u.)       :      0.927074691
Magnitude (Debye)      :      2.356436596

Rotational constants in cm-1:             0.012496             0.004807             0.004696
Rotational constants in MHz :           374.623038           144.115065           140.773661

                             ****ORCA TERMINATED NORMALLY****
TOTAL RUN TIME: 0 days 0 hours 0 minutes 21 seconds 455 msec
