                         Program Version 6.0.0  -   RELEASE  -
|  1> ! wb97x-v def2-tzvp def2/J RIJCOSX DEFGRID2 scfconv7 GCP(DFT/TZ) printgap
|  2> %output
|  3>     printlevel normal
|  4> end
|  5> * xyz 0 1
|  6> C 6.094224130094187 0.8606869570176119 -0.46852453647625064
|  7> C 4.749256309756948 0.6539876250754464 -1.1127609849088829
|  8> O 3.767286105462521 0.499995092233658 -0.027095821994361627
|  9> P 2.1849087567759202 0.531806573389609 -0.3146083374024865
| 10> S 1.4582193891220063 1.9674905866879453 -1.4017486882331534
| 11> O 1.5865289102877234 0.5662277633582988 1.1688039248191737
| 12> C 1.9984243924238096 -0.39159376870682644 2.2101364360456874
| 13> C 0.9948190641895285 -0.287809908682573 3.3283166296713675
| 14> S 1.9304165771018438 -1.4294809606251189 -1.1051562421466963
| 15> C 0.1758208242963325 -1.3884540814870496 -1.6249104385545976
| 16> S -1.0100421305097342 -1.7974162608407303 -0.2654667299315989
| 17> P -2.2835132059542245 -0.10892543348307197 -0.2553561711101553
| 18> S -2.7098033026587305 0.6680267343008652 -1.9887629528828779
| 19> O -1.5749756513974964 0.845001175772116 0.823192861594724
| 20> C -2.0482353151100985 2.226447609541356 1.0190970026115551
| 21> C -1.2365941229321746 2.8137424735729994 2.1438700984293138
| 22> O -3.5167806561149906 -0.6722103673076558 0.6169214674773023
| 23> C -4.5949420757240125 -1.448051007810278 -0.013795504272934805
| 24> C -5.621967275793298 -1.7258714552762178 1.0517293645205008
| 25> H 6.099060125034234 1.7675238301292775 0.1426093024910948
| 26> H 6.365958282545946 0.00507217757978438 0.1559020198642349
| 27> H 6.848437646737303 0.9684757289800895 -1.254003648013932
| 28> H 4.72696824291455 -0.2532152074935202 -1.724725808205214
| 29> H 4.453282959472501 1.5118907983356233 -1.7241904408461342
| 30> H 2.0168404068220327 -1.395851544235877 1.774634653485675
| 31> H 3.0058363129144565 -0.11726101224924569 2.535142907125926
| 32> H 1.2828272375812055 -0.9806257486119327 4.125093003582203
| 33> H 0.973350924467138 0.7240537500050849 3.74259004253413
| 34> H -0.007263205421639975 -0.5555116378051455 2.981144251823067
| 35> H 0.07609853062744208 -2.1562200165871244 -2.395530097932624
| 36> H -0.07369997400904223 -0.4124067148325309 -2.055393093974029
| 37> H -1.9022391742605407 2.770367458973272 0.08123559531397602
| 38> H -3.1157889537795294 2.196199646778148 1.2600366705631907
| 39> H -1.5661213212977703 3.843366588537727 2.3146136739904435
| 40> H -1.3793033742020877 2.247135263528586 3.0682851956718875
| 41> H -0.17255678886593084 2.828868206393334 1.8914533376522322
| 42> H -5.007699045856427 -0.8535622016941028 -0.8339376899756888
| 43> H -4.164897808559704 -2.371154438267915 -0.416328874488224
| 44> H -6.442495666187138 -2.299602534516306 0.6101903954045867
| 45> H -5.192857101469089 -2.310864307164056 1.8699132886474334
| 46> H -6.029457454287496 -0.7934916208517185 1.4526352753192013
| 47> *
| 48>
| 49>                          ****END OF INPUT****

CARTESIAN COORDINATES (ANGSTROEM)
---------------------------------
  C      6.094224    0.860687   -0.468525
  C      4.749256    0.653988   -1.112761
  O      3.767286    0.499995   -0.027096
  P      2.184909    0.531807   -0.314608
  S      1.458219    1.967491   -1.401749
  O      1.586529    0.566228    1.168804
  C      1.998424   -0.391594    2.210136
  C      0.994819   -0.287810    3.328317
  S      1.930417   -1.429481   -1.105156
  C      0.175821   -1.388454   -1.624910
  S     -1.010042   -1.797416   -0.265467
  P     -2.283513   -0.108925   -0.255356
  S     -2.709803    0.668027   -1.988763
  O     -1.574976    0.845001    0.823193
  C     -2.048235    2.226448    1.019097
  C     -1.236594    2.813742    2.143870
  O     -3.516781   -0.672210    0.616921
  C     -4.594942   -1.448051   -0.013796
  C     -5.621967   -1.725871    1.051729
  H      6.099060    1.767524    0.142609
  H      6.365958    0.005072    0.155902
  H      6.848438    0.968476   -1.254004
  H      4.726968   -0.253215   -1.724726
  H      4.453283    1.511891   -1.724190
  H      2.016840   -1.395852    1.774635
  H      3.005836   -0.117261    2.535143
  H      1.282827   -0.980626    4.125093
  H      0.973351    0.724054    3.742590
  H     -0.007263   -0.555512    2.981144
  H      0.076099   -2.156220   -2.395530
  H     -0.073700   -0.412407   -2.055393
  H     -1.902239    2.770367    0.081236
  H     -3.115789    2.196200    1.260037
  H     -1.566121    3.843367    2.314614
  H     -1.379303    2.247135    3.068285
  H     -0.172557    2.828868    1.891453
  H     -5.007699   -0.853562   -0.833938
  H     -4.164898   -2.371154   -0.416329
  H     -6.442496   -2.299603    0.610190
  H     -5.192857   -2.310864    1.869913
  H     -6.029457   -0.793492    1.452635

 Total Charge           Charge          ....    0
 Multiplicity           Mult            ....    1
 Number of Electrons    NEL             ....  202
 Basis Dimension        Dim             ....  757

ORBITAL ENERGIES
----------------

  NO   OCC          E(Eh)            E(eV)
   0   2.0000     -94.144848     -2561.8116
   1   2.0000     -94.142375     -2561.7443
   2   2.0000     -94.078275     -2560.0000
   3   2.0000     -94.077870     -2559.9890
   4   2.0000     -82.117968     -2234.5435
   5   2.0000     -82.115681     -2234.4813
   6   2.0000     -21.713863      -590.8643
   7   2.0000     -21.709230      -590.7382
   8   2.0000     -21.707438      -590.6894
   9   2.0000     -21.700831      -590.5096
  10   2.0000     -12.124174      -329.9155
  11   2.0000     -12.118970      -329.7739
  12   2.0000     -12.114005      -329.6388
  13   2.0000     -12.113268      -329.6188
  14   2.0000     -12.105714      -329.4132
  15   2.0000     -12.052436      -327.9634
  16   2.0000     -12.049387      -327.8805
  17   2.0000     -12.044012      -327.7342
  18   2.0000     -12.037832      -327.5661
  19   2.0000      -9.656412      -262.7643
  20   2.0000      -9.653825      -262.6939
  21   2.0000      -9.591160      -260.9887
  22   2.0000      -9.590609      -260.9737
  23   2.0000      -8.231127      -223.9804
  24   2.0000      -8.228941      -223.9209
  25   2.0000      -7.633993      -207.7315
  26   2.0000      -7.633131      -207.7081
  27   2.0000      -7.632208      -207.6829
  28   2.0000      -7.631216      -207.6560
  29   2.0000      -7.630353      -207.6324
  30   2.0000      -7.629125      -207.5990
  31   2.0000      -7.568705      -205.9549
  32   2.0000      -7.568176      -205.9405
  33   2.0000      -7.567055      -205.9100
  34   2.0000      -7.566928      -205.9066
  35   2.0000      -7.566464      -205.8939
  36   2.0000      -7.566344      -205.8907
  37   2.0000      -6.395516      -174.0308
  38   2.0000      -6.395161      -174.0212
  39   2.0000      -6.394539      -174.0043
  40   2.0000      -6.393125      -173.9658
  41   2.0000      -6.392943      -173.9608
  42   2.0000      -6.392571      -173.9507
  43   2.0000      -1.722301       -46.8662
  44   2.0000      -1.716181       -46.6997
  45   2.0000      -1.697436       -46.1896
  46   2.0000      -1.691616       -46.0312
  47   2.0000      -1.328236       -36.1431
  48   2.0000      -1.314799       -35.7775
  49   2.0000      -1.303785       -35.4778
  50   2.0000      -1.292293       -35.1651
  51   2.0000      -1.284652       -34.9572
  52   2.0000      -1.250104       -34.0171
  53   2.0000      -1.224531       -33.3212
  54   2.0000      -1.203827       -32.7578
  55   2.0000      -1.165158       -31.7056
  56   2.0000      -1.163302       -31.6551
  57   2.0000      -1.147351       -31.2210
  58   2.0000      -1.141221       -31.0542
  59   2.0000      -1.118044       -30.4235
  60   2.0000      -1.082481       -29.4558
  61   2.0000      -1.074600       -29.2414
  62   2.0000      -1.055129       -28.7115
  63   2.0000      -1.050715       -28.5914
  64   2.0000      -0.994454       -27.0605
  65   2.0000      -0.987481       -26.8707
  66   2.0000      -0.984380       -26.7863
  67   2.0000      -0.979302       -26.6482
  68   2.0000      -0.972613       -26.4661
  69   2.0000      -0.962850       -26.2005
  70   2.0000      -0.960535       -26.1375
  71   2.0000      -0.959496       -26.1092
  72   2.0000      -0.915505       -24.9122
  73   2.0000      -0.896107       -24.3843
  74   2.0000      -0.877842       -23.8873
  75   2.0000      -0.873971       -23.7819
  76   2.0000      -0.871046       -23.7024
  77   2.0000      -0.866192       -23.5703
  78   2.0000      -0.861039       -23.4301
  79   2.0000      -0.847551       -23.0630
  80   2.0000      -0.845658       -23.0115
  81   2.0000      -0.843865       -22.9627
  82   2.0000      -0.839282       -22.8380
  83   2.0000      -0.827938       -22.5293
  84   2.0000      -0.825338       -22.4586
  85   2.0000      -0.824443       -22.4342
  86   2.0000      -0.820769       -22.3343
  87   2.0000      -0.819440       -22.2981
  88   2.0000      -0.813027       -22.1236
  89   2.0000      -0.791913       -21.5490
  90   2.0000      -0.787600       -21.4317
  91   2.0000      -0.784690       -21.3525
  92   2.0000      -0.776460       -21.1286
  93   2.0000      -0.765183       -20.8217
  94   2.0000      -0.756175       -20.5766
  95   2.0000      -0.689582       -18.7645
  96   2.0000      -0.676873       -18.4186
  97   2.0000      -0.644031       -17.5250
  98   2.0000      -0.640222       -17.4213
  99   2.0000      -0.635461       -17.2918
 100   2.0000      -0.632552       -17.2126
 101   0.0000      -0.315566        -8.5870
 102   0.0000      -0.314441        -8.5564
 103   0.0000      -0.272497        -7.4150
 104   0.0000      -0.241062        -6.5596
 105   0.0000      -0.233302        -6.3485

MULLIKEN ATOMIC CHARGES
-----------------------
   0 C :   -0.316938
   1 C :   -0.055260
   2 O :   -0.311763
   3 P :    0.606319
   4 S :   -0.395121
   5 O :   -0.269029
   6 C :   -0.061135
   7 C :   -0.316108
   8 S :   -0.156594
   9 C :   -0.158827
  10 S :   -0.146037
  11 P :    0.606908
  12 S :   -0.406556
  13 O :   -0.279251
  14 C :   -0.054456
  15 C :   -0.324187
  16 O :   -0.315235
  17 C :   -0.050891
  18 C :   -0.311427
  19 H :    0.122768
  20 H :    0.116392
  21 H :    0.114610
  22 H :    0.113759
  23 H :    0.128370
  24 H :    0.115321
  25 H :    0.116002
  26 H :    0.116144
  27 H :    0.115003
  28 H :    0.128888
  29 H :    0.157466
  30 H :    0.180812
  31 H :    0.135345
  32 H :    0.107860
  33 H :    0.116130
  34 H :    0.107837
  35 H :    0.137012
  36 H :    0.127070
  37 H :    0.110606
  38 H :    0.112887
  39 H :    0.117769
  40 H :    0.117537
Sum of atomic charges:   -0.0000000

LOEWDIN ATOMIC CHARGES
----------------------
   0 C :   -0.303744
   1 C :   -0.317568
   2 O :    0.026488
   3 P :   -0.040299
   4 S :   -0.100219
   5 O :    0.041240
   6 C :   -0.316885
   7 C :   -0.305388
   8 S :    0.333282
   9 C :   -0.689098
  10 S :    0.338239
  11 P :   -0.038424
  12 S :   -0.109578
  13 O :    0.031899
  14 C :   -0.314604
  15 C :   -0.305939
  16 O :    0.024362
  17 C :   -0.323034
  18 C :   -0.304491
  19 H :    0.123548
  20 H :    0.121251
  21 H :    0.126594
  22 H :    0.119095
  23 H :    0.123530
  24 H :    0.116268
  25 H :    0.121425
  26 H :    0.124486
  27 H :    0.121208
  28 H :    0.123905
  29 H :    0.116877
  30 H :    0.112521
  31 H :    0.124703
  32 H :    0.119573
  33 H :    0.124635
  34 H :    0.118565
  35 H :    0.125631
  36 H :    0.121309
  37 H :    0.119213
  38 H :    0.125692
  39 H :    0.121542
  40 H :    0.122189

  Mayer bond orders larger than 0.100000
B(  0-C ,  1-C ) :   1.0072 B(  0-C , 19-H ) :   0.9752 B(  0-C , 20-H ) :   0.9751
B(  0-C , 21-H ) :   0.9687 B(  1-C ,  2-O ) :   0.8878 B(  1-C , 22-H ) :   0.9659
B(  1-C , 23-H ) :   0.9613 B(  2-O ,  3-P ) :   1.1670 B(  3-P ,  4-S ) :   1.8801
B(  3-P ,  5-O ) :   1.2299 B(  3-P ,  8-S ) :   1.0492 B(  5-O ,  6-C ) :   0.8931
B(  6-C ,  7-C ) :   1.0137 B(  6-C , 24-H ) :   0.9586 B(  6-C , 25-H ) :   0.9670
B(  7-C , 26-H ) :   0.9675 B(  7-C , 27-H ) :   0.9753 B(  7-C , 28-H ) :   0.9717
B(  8-S ,  9-C ) :   1.0083 B(  9-C , 10-S ) :   0.9944 B(  9-C , 29-H ) :   0.9430
B(  9-C , 30-H ) :   0.9287 B( 10-S , 11-P ) :   1.0882 B( 11-P , 12-S ) :   1.8340
B( 11-P , 13-O ) :   1.2248 B( 11-P , 16-O ) :   1.1819 B( 13-O , 14-C ) :   0.8871
B( 14-C , 15-C ) :   1.0126 B( 14-C , 31-H ) :   0.9646 B( 14-C , 32-H ) :   0.9664
B( 15-C , 33-H ) :   0.9680 B( 15-C , 34-H ) :   0.9751 B( 15-C , 35-H ) :   0.9699
B( 16-O , 17-C ) :   0.8884 B( 17-C , 18-C ) :   1.0055 B( 17-C , 36-H ) :   0.9641
B( 17-C , 37-H ) :   0.9649 B( 18-C , 38-H ) :   0.9704 B( 18-C , 39-H ) :   0.9752
B( 18-C , 40-H ) :   0.9751

FINAL SINGLE POINT ENERGY     -2932.536304812166

DIPOLE MOMENT
-------------

Method             : SCF
Type of density    : Electron Density
Multiplicity       :   1
Irrep              :   0
Energy             : -2932.5660736113663916 Eh
Relativity type    :
Basis              : AO
                                X                 Y                 Z
Electronic contribution:     -0.474420357      -3.034845538     -17.651203643
Nuclear contribution   :      0.971125635       2.082361545      18.800962962
                        -----------------------------------------
Total Dipole Moment    :      0.496705278      -0.952483993       1.149759319
                        -----------------------------------------
Magnitude (a.u.)       :      1.573495593
Magnitude (Debye)      :      3.999507952

Rotational constants in cm-1:             0.012917             0.004501             0.004359
Rotational constants in MHz :           387.254517           134.936747           130.685107

                             ****ORCA TERMINATED NORMALLY****
TOTAL RUN TIME: 0 days 0 hours 15 minutes 26 seconds 281 msec
