                         Program Version 6.0.0  -   RELEASE  -
|  1> ! wb97x-v def2-tzvp def2/J RIJCOSX DEFGRID2 scfconv7 GCP(DFT/TZ) printgap
|  2> %output
|  3>     printlevel normal
|  4> end
|  5> %cpcm
|  6>     smd true
|  7>     smdsolvent "water"
|  8> end
|  9> * xyz 0 1
| 10> C 6.094224130094187 0.8606869570176119 -0.46852453647625064
| 11> C 4.749256309756948 0.6539876250754464 -1.1127609849088829
| 12> O 3.767286105462521 0.499995092233658 -0.027095821994361627
| 13> P 2.1849087567759202 0.531806573389609 -0.3146083374024865
| 14> S 1.4582193891220063 1.9674905866879453 -1.4017486882331534
| 15> O 1.5865289102877234 0.5662277633582988 1.1688039248191737
| 16> C 1.9984243924238096 -0.39159376870682644 2.2101364360456874
| 17> C 0.9948190641895285 -0.287809908682573 3.3283166296713675
| 18> S 1.9304165771018438 -1.4294809606251189 -1.1051562421466963
| 19> C 0.1758208242963325 -1.3884540814870496 -1.6249104385545976
| 20> S -1.0100421305097342 -1.7974162608407303 -0.2654667299315989
| 21> P -2.2835132059542245 -0.10892543348307197 -0.2553561711101553
| 22> S -2.7098033026587305 0.6680267343008652 -1.9887629528828779
| 23> O -1.5749756513974964 0.845001175772116 0.823192861594724
| 24> C -2.0482353151100985 2.226447609541356 1.0190970026115551
| 25> C -1.2365941229321746 2.8137424735729994 2.1438700984293138
| 26> O -3.5167806561149906 -0.6722103673076558 0.6169214674773023
| 27> C -4.5949420757240125 -1.448051007810278 -0.013795504272934805
| 28> C -5.621967275793298 -1.7258714552762178 1.0517293645205008
| 29> H 6.099060125034234 1.7675238301292775 0.1426093024910948
| 30> H 6.365958282545946 0.00507217757978438 0.1559020198642349
| 31> H 6.848437646737303 0.9684757289800895 -1.254003648013932
| 32> H 4.72696824291455 -0.2532152074935202 -1.724725808205214
| 33> H 4.453282959472501 1.5118907983356233 -1.7241904408461342
| 34> H 2.0168404068220327 -1.395851544235877 1.774634653485675
| 35> H 3.0058363129144565 -0.11726101224924569 2.535142907125926
| 36> H 1.2828272375812055 -0.9806257486119327 4.125093003582203
| 37> H 0.973350924467138 0.7240537500050849 3.74259004253413
| 38> H -0.007263205421639975 -0.5555116378051455 2.981144251823067
| 39> H 0.07609853062744208 -2.1562200165871244 -2.395530097932624
| 40> H -0.07369997400904223 -0.4124067148325309 -2.055393093974029
| 41> H -1.9022391742605407 2.770367458973272 0.08123559531397602
| 42> H -3.1157889537795294 2.196199646778148 1.2600366705631907
| 43> H -1.5661213212977703 3.843366588537727 2.3146136739904435
| 44> H -1.3793033742020877 2.247135263528586 3.0682851956718875
| 45> H -0.17255678886593084 2.828868206393334 1.8914533376522322
| 46> H -5.007699045856427 -0.8535622016941028 -0.8339376899756888
| 47> H -4.164897808559704 -2.371154438267915 -0.416328874488224
| 48> H -6.442495666187138 -2.299602534516306 0.6101903954045867
| 49> H -5.192857101469089 -2.310864307164056 1.8699132886474334
| 50> H -6.029457454287496 -0.7934916208517185 1.4526352753192013
| 51> *
| 52>
| 53>                          ****END OF INPUT****

CARTESIAN COORDINATES (ANGSTROEM)
---------------------------------
  C      6.094224    0.860687   -0.468525
  C      4.749256    0.653988   -1.112761
  O      3.767286    0.499995   -0.027096
  P      2.184909    0.531807   -0.314608
  S      1.458219    1.967491   -1.401749
  O      1.586529    0.566228    1.168804
  C      1.998424   -0.391594    2.210136
  C      0.994819   -0.287810    3.328317
  S      1.930417   -1.429481   -1.105156
  C      0.175821   -1.388454   -1.624910
  S     -1.010042   -1.797416   -0.265467
  P     -2.283513   -0.108925   -0.255356
  S     -2.709803    0.668027   -1.988763
  O     -1.574976    0.845001    0.823193
  C     -2.048235    2.226448    1.019097
  C     -1.236594    2.813742    2.143870
  O     -3.516781   -0.672210    0.616921
  C     -4.594942   -1.448051   -0.013796
  C     -5.621967   -1.725871    1.051729
  H      6.099060    1.767524    0.142609
  H      6.365958    0.005072    0.155902
  H      6.848438    0.968476   -1.254004
  H      4.726968   -0.253215   -1.724726
  H      4.453283    1.511891   -1.724190
  H      2.016840   -1.395852    1.774635
  H      3.005836   -0.117261    2.535143
  H      1.282827   -0.980626    4.125093
  H      0.973351    0.724054    3.742590
  H     -0.007263   -0.555512    2.981144
  H      0.076099   -2.156220   -2.395530
  H     -0.073700   -0.412407   -2.055393
  H     -1.902239    2.770367    0.081236
  H     -3.115789    2.196200    1.260037
  H     -1.566121    3.843367    2.314614
  H     -1.379303    2.247135    3.068285
  H     -0.172557    2.828868    1.891453
  H     -5.007699   -0.853562   -0.833938
  H     -4.164898   -2.371154   -0.416329
  H     -6.442496   -2.299603    0.610190
  H     -5.192857   -2.310864    1.869913
  H     -6.029457   -0.793492    1.452635

 Total Charge           Charge          ....    0
 Multiplicity           Mult            ....    1
 Number of Electrons    NEL             ....  202
 Basis Dimension        Dim             ....  757

ORBITAL ENERGIES
----------------

  NO   OCC          E(Eh)            E(eV)
   0   2.0000     -94.149536     -2561.9391
   1   2.0000     -94.148432     -2561.9091
   2   2.0000     -94.091530     -2560.3607
   3   2.0000     -94.091305     -2560.3546
   4   2.0000     -82.126628     -2234.7792
   5   2.0000     -82.125686     -2234.7535
   6   2.0000     -21.715762      -590.9159
   7   2.0000     -21.714377      -590.8782
   8   2.0000     -21.713792      -590.8623
   9   2.0000     -21.711360      -590.7961
  10   2.0000     -12.125044      -329.9392
  11   2.0000     -12.108149      -329.4795
  12   2.0000     -12.106532      -329.4355
  13   2.0000     -12.105875      -329.4176
  14   2.0000     -12.105382      -329.4042
  15   2.0000     -12.035889      -327.5132
  16   2.0000     -12.035303      -327.4973
  17   2.0000     -12.034856      -327.4851
  18   2.0000     -12.034423      -327.4733
  19   2.0000      -9.660969      -262.8883
  20   2.0000      -9.659830      -262.8573
  21   2.0000      -9.604653      -261.3559
  22   2.0000      -9.604480      -261.3512
  23   2.0000      -8.239858      -224.2179
  24   2.0000      -8.239015      -224.1950
  25   2.0000      -7.638579      -207.8563
  26   2.0000      -7.637836      -207.8361
  27   2.0000      -7.637341      -207.8226
  28   2.0000      -7.636838      -207.8089
  29   2.0000      -7.635991      -207.7859
  30   2.0000      -7.635011      -207.7592
  31   2.0000      -7.582226      -206.3229
  32   2.0000      -7.582046      -206.3180
  33   2.0000      -7.580758      -206.2829
  34   2.0000      -7.580540      -206.2770
  35   2.0000      -7.580343      -206.2716
  36   2.0000      -7.580263      -206.2694
  37   2.0000      -6.404227      -174.2679
  38   2.0000      -6.403896      -174.2589
  39   2.0000      -6.403344      -174.2438
  40   2.0000      -6.403185      -174.2395
  41   2.0000      -6.403026      -174.2352
  42   2.0000      -6.402671      -174.2255
  43   2.0000      -1.726704       -46.9860
  44   2.0000      -1.723637       -46.9026
  45   2.0000      -1.702331       -46.3228
  46   2.0000      -1.699879       -46.2560
  47   2.0000      -1.331330       -36.2273
  48   2.0000      -1.314205       -35.7613
  49   2.0000      -1.302028       -35.4300
  50   2.0000      -1.285020       -34.9672
  51   2.0000      -1.281644       -34.8753
  52   2.0000      -1.253304       -34.1041
  53   2.0000      -1.231435       -33.5090
  54   2.0000      -1.212728       -33.0000
  55   2.0000      -1.166337       -31.7377
  56   2.0000      -1.161485       -31.6056
  57   2.0000      -1.144971       -31.1562
  58   2.0000      -1.140238       -31.0275
  59   2.0000      -1.119521       -30.4637
  60   2.0000      -1.081431       -29.4272
  61   2.0000      -1.075210       -29.2580
  62   2.0000      -1.055546       -28.7229
  63   2.0000      -1.055336       -28.7171
  64   2.0000      -0.996651       -27.1202
  65   2.0000      -0.991314       -26.9750
  66   2.0000      -0.984699       -26.7950
  67   2.0000      -0.984327       -26.7849
  68   2.0000      -0.973416       -26.4880
  69   2.0000      -0.967732       -26.3333
  70   2.0000      -0.964357       -26.2415
  71   2.0000      -0.962260       -26.1844
  72   2.0000      -0.919083       -25.0095
  73   2.0000      -0.899802       -24.4849
  74   2.0000      -0.872547       -23.7432
  75   2.0000      -0.867381       -23.6026
  76   2.0000      -0.864786       -23.5320
  77   2.0000      -0.861734       -23.4490
  78   2.0000      -0.861174       -23.4337
  79   2.0000      -0.843261       -22.9463
  80   2.0000      -0.838841       -22.8260
  81   2.0000      -0.835700       -22.7406
  82   2.0000      -0.835380       -22.7318
  83   2.0000      -0.830899       -22.6099
  84   2.0000      -0.827367       -22.5138
  85   2.0000      -0.812069       -22.0975
  86   2.0000      -0.811093       -22.0710
  87   2.0000      -0.810307       -22.0496
  88   2.0000      -0.809586       -22.0300
  89   2.0000      -0.780721       -21.2445
  90   2.0000      -0.777634       -21.1605
  91   2.0000      -0.776530       -21.1305
  92   2.0000      -0.775138       -21.0926
  93   2.0000      -0.770704       -20.9719
  94   2.0000      -0.762241       -20.7416
  95   2.0000      -0.695019       -18.9124
  96   2.0000      -0.683198       -18.5908
  97   2.0000      -0.658764       -17.9259
  98   2.0000      -0.654711       -17.8156
  99   2.0000      -0.649337       -17.6694
 100   2.0000      -0.647031       -17.6066
 101   0.0000      -0.322609        -8.7786
 102   0.0000      -0.321847        -8.7579
 103   0.0000      -0.277836        -7.5603
 104   0.0000      -0.246644        -6.7115
 105   0.0000      -0.238367        -6.4863

MULLIKEN ATOMIC CHARGES
-----------------------
   0 C :   -0.365933
   1 C :   -0.044375
   2 O :   -0.330219
   3 P :    0.626031
   4 S :   -0.452302
   5 O :   -0.316381
   6 C :   -0.057430
   7 C :   -0.364643
   8 S :   -0.146854
   9 C :   -0.166107
  10 S :   -0.142238
  11 P :    0.645973
  12 S :   -0.462584
  13 O :   -0.323969
  14 C :   -0.062227
  15 C :   -0.364785
  16 O :   -0.343747
  17 C :   -0.041117
  18 C :   -0.364029
  19 H :    0.133519
  20 H :    0.134009
  21 H :    0.137939
  22 H :    0.136657
  23 H :    0.130819
  24 H :    0.133352
  25 H :    0.141207
  26 H :    0.145727
  27 H :    0.135334
  28 H :    0.125238
  29 H :    0.205708
  30 H :    0.168588
  31 H :    0.135570
  32 H :    0.141891
  33 H :    0.145237
  34 H :    0.133766
  35 H :    0.124551
  36 H :    0.132215
  37 H :    0.132655
  38 H :    0.137034
  39 H :    0.133037
  40 H :    0.132883
Sum of atomic charges:   -0.0000000

LOEWDIN ATOMIC CHARGES
----------------------
   0 C :   -0.305291
   1 C :   -0.312101
   2 O :    0.020798
   3 P :   -0.037933
   4 S :   -0.142118
   5 O :    0.020879
   6 C :   -0.310387
   7 C :   -0.308447
   8 S :    0.343855
   9 C :   -0.683415
  10 S :    0.341928
  11 P :   -0.032144
  12 S :   -0.144947
  13 O :    0.012871
  14 C :   -0.313709
  15 C :   -0.308575
  16 O :    0.014792
  17 C :   -0.317306
  18 C :   -0.306301
  19 H :    0.125023
  20 H :    0.124969
  21 H :    0.133779
  22 H :    0.126196
  23 H :    0.124608
  24 H :    0.121415
  25 H :    0.129695
  26 H :    0.133709
  27 H :    0.125040
  28 H :    0.120149
  29 H :    0.131327
  30 H :    0.109310
  31 H :    0.123501
  32 H :    0.129536
  33 H :    0.133432
  34 H :    0.124603
  35 H :    0.120053
  36 H :    0.123140
  37 H :    0.125689
  38 H :    0.133205
  39 H :    0.124399
  40 H :    0.124775

  Mayer bond orders larger than 0.100000
B(  0-C ,  1-C ) :   1.0140 B(  0-C , 19-H ) :   0.9723 B(  0-C , 20-H ) :   0.9719
B(  0-C , 21-H ) :   0.9642 B(  1-C ,  2-O ) :   0.8594 B(  1-C , 22-H ) :   0.9604
B(  1-C , 23-H ) :   0.9591 B(  2-O ,  3-P ) :   1.1868 B(  3-P ,  4-S ) :   1.8354
B(  3-P ,  5-O ) :   1.2223 B(  3-P ,  8-S ) :   1.0725 B(  5-O ,  6-C ) :   0.8584
B(  6-C ,  7-C ) :   1.0119 B(  6-C , 24-H ) :   0.9578 B(  6-C , 25-H ) :   0.9626
B(  7-C , 26-H ) :   0.9633 B(  7-C , 27-H ) :   0.9708 B(  7-C , 28-H ) :   0.9722
B(  8-S ,  9-C ) :   1.0036 B(  9-C , 10-S ) :   0.9867 B(  9-C , 29-H ) :   0.9292
B(  9-C , 30-H ) :   0.9310 B( 10-S , 11-P ) :   1.1093 B( 11-P , 12-S ) :   1.7868
B( 11-P , 13-O ) :   1.2110 B( 11-P , 16-O ) :   1.1924 B( 13-O , 14-C ) :   0.8599
B( 14-C , 15-C ) :   1.0123 B( 14-C , 31-H ) :   0.9639 B( 14-C , 32-H ) :   0.9611
B( 15-C , 33-H ) :   0.9636 B( 15-C , 34-H ) :   0.9711 B( 15-C , 35-H ) :   0.9714
B( 16-O , 17-C ) :   0.8602 B( 17-C , 18-C ) :   1.0122 B( 17-C , 36-H ) :   0.9624
B( 17-C , 37-H ) :   0.9595 B( 18-C , 38-H ) :   0.9656 B( 18-C , 39-H ) :   0.9725
B( 18-C , 40-H ) :   0.9719

FINAL SINGLE POINT ENERGY     -2932.549745369021

DIPOLE MOMENT
-------------

Method             : SCF
Type of density    : Electron Density
Multiplicity       :   1
Irrep              :   0
Energy             : -2932.5795141682210669 Eh
Relativity type    :
Basis              : AO
                                X                 Y                 Z
Electronic contribution:     -0.313146890      -3.647635179     -17.402917340
Nuclear contribution   :      0.971125635       2.082361545      18.800962962
                        -----------------------------------------
Total Dipole Moment    :      0.657978745      -1.565273634       1.398045622
                        -----------------------------------------
Magnitude (a.u.)       :      2.199442916
Magnitude (Debye)      :      5.590539605

Rotational constants in cm-1:             0.012917             0.004501             0.004359
Rotational constants in MHz :           387.254517           134.936747           130.685107

                             ****ORCA TERMINATED NORMALLY****
TOTAL RUN TIME: 0 days 0 hours 14 minutes 52 seconds 283 msec
