                         Program Version 6.0.0  -   RELEASE  -
|  1> ! r2scan-3c def2/J RI DEFGRID2 scfconv6 printgap
|  2> %output
|  3>     printlevel normal
|  4> end
|  5> * xyz 0 1
|  6> C 4.1170833568 -1.5595152107 -2.2231251845
|  7> C 4.4381272571 -1.5171799012 -0.7429528252
|  8> O 3.2515357663 -1.4990224684 0.0684706087
|  9> P 2.2615065276 -0.2579324536 0.1065279394
| 10> S 3.1224760053 1.5078518869 0.0708209551
| 11> O 1.3896273765 -0.5845798989 1.3901116382
| 12> C 1.7151491845 -0.0564409722 2.6928432747
| 13> C 2.9992530332 -0.648526262 3.2337948056
| 14> S 0.8387495326 -0.6670638649 -1.4009845723
| 15> C 0.1047505355 0.9922339863 -1.4280269172
| 16> S -0.8060113652 1.3963483616 0.0777595295
| 17> P -2.6585256528 0.4184609147 -0.3764039131
| 18> S -2.9188485558 0.02338327 -2.276301115
| 19> O -3.804698327 1.3718499689 0.1251519569
| 20> C -4.1830191938 1.6070032829 1.5037074952
| 21> C -3.074886176 2.252576952 2.3078686131
| 22> O -2.7785839439 -0.7744528431 0.6739790443
| 23> C -1.8657124776 -1.874413125 0.8174891743
| 24> C -1.954031192 -2.8563805869 -0.3331237354
| 25> H 3.4347172487 -2.3778474707 -2.4391288556
| 26> H 3.6498517671 -0.6247606829 -2.5309733619
| 27> H 5.034339416 -1.6954369848 -2.7871172152
| 28> H 5.0340058171 -0.6300012534 -0.5051059243
| 29> H 4.9636774256 -2.4164208337 -0.4189734598
| 30> H 1.7899226521 1.0327962875 2.6143462673
| 31> H 0.8549735009 -0.3247989117 3.3073910029
| 32> H 3.153991805 -0.3048405933 4.2517291031
| 33> H 2.9478178782 -1.7340208307 3.219831975
| 34> H 3.8409782664 -0.3280493632 2.6209744058
| 35> H -0.5762584314 1.0173312924 -2.2798743335
| 36> H 0.8970935442 1.7341438852 -1.5226665567
| 37> H -5.048456573 2.2651331343 1.4128063536
| 38> H -4.4841200305 0.6540060242 1.9421168158
| 39> H -2.7392454997 3.1676788255 1.8265195796
| 40> H -3.4461354819 2.4858888568 3.3009635244
| 41> H -2.2262326196 1.5763937405 2.3970237422
| 42> H -0.8481278877 -1.484930994 0.9193881638
| 43> H -2.1722471984 -2.3399674884 1.7565044717
| 44> H -2.9800199075 -3.1905030039 -0.464411628
| 45> H -1.6189003993 -2.392751318 -1.2590585849
| 46> H -1.3197477171 -3.711096961 -0.1211946381
| 47> *
| 48>
| 49>                          ****END OF INPUT****

CARTESIAN COORDINATES (ANGSTROEM)
---------------------------------
  C      4.117083   -1.559515   -2.223125
  C      4.438127   -1.517180   -0.742953
  O      3.251536   -1.499022    0.068471
  P      2.261507   -0.257932    0.106528
  S      3.122476    1.507852    0.070821
  O      1.389627   -0.584580    1.390112
  C      1.715149   -0.056441    2.692843
  C      2.999253   -0.648526    3.233795
  S      0.838750   -0.667064   -1.400985
  C      0.104751    0.992234   -1.428027
  S     -0.806011    1.396348    0.077760
  P     -2.658526    0.418461   -0.376404
  S     -2.918849    0.023383   -2.276301
  O     -3.804698    1.371850    0.125152
  C     -4.183019    1.607003    1.503707
  C     -3.074886    2.252577    2.307869
  O     -2.778584   -0.774453    0.673979
  C     -1.865712   -1.874413    0.817489
  C     -1.954031   -2.856381   -0.333124
  H      3.434717   -2.377847   -2.439129
  H      3.649852   -0.624761   -2.530973
  H      5.034339   -1.695437   -2.787117
  H      5.034006   -0.630001   -0.505106
  H      4.963677   -2.416421   -0.418973
  H      1.789923    1.032796    2.614346
  H      0.854974   -0.324799    3.307391
  H      3.153992   -0.304841    4.251729
  H      2.947818   -1.734021    3.219832
  H      3.840978   -0.328049    2.620974
  H     -0.576258    1.017331   -2.279874
  H      0.897094    1.734144   -1.522667
  H     -5.048457    2.265133    1.412806
  H     -4.484120    0.654006    1.942117
  H     -2.739245    3.167679    1.826520
  H     -3.446135    2.485889    3.300964
  H     -2.226233    1.576394    2.397024
  H     -0.848128   -1.484931    0.919388
  H     -2.172247   -2.339967    1.756504
  H     -2.980020   -3.190503   -0.464412
  H     -1.618900   -2.392751   -1.259059
  H     -1.319748   -3.711097   -0.121195

 Total Charge           Charge          ....    0
 Multiplicity           Mult            ....    1
 Number of Electrons    NEL             ....  202
 Basis Dimension        Dim             ....  539

ORBITAL ENERGIES
----------------

  NO   OCC          E(Eh)            E(eV)
   0   2.0000     -88.577250     -2410.3095
   1   2.0000     -88.573068     -2410.1957
   2   2.0000     -88.526820     -2408.9373
   3   2.0000     -88.516183     -2408.6478
   4   2.0000     -76.918396     -2093.0560
   5   2.0000     -76.913702     -2092.9282
   6   2.0000     -18.998420      -516.9733
   7   2.0000     -18.994640      -516.8704
   8   2.0000     -18.991103      -516.7742
   9   2.0000     -18.990464      -516.7568
  10   2.0000     -10.104872      -274.9676
  11   2.0000     -10.103230      -274.9229
  12   2.0000     -10.102543      -274.9042
  13   2.0000     -10.101326      -274.8711
  14   2.0000     -10.095222      -274.7049
  15   2.0000     -10.037790      -273.1421
  16   2.0000     -10.033510      -273.0257
  17   2.0000     -10.031839      -272.9802
  18   2.0000     -10.020072      -272.6600
  19   2.0000      -7.871601      -214.1972
  20   2.0000      -7.867240      -214.0785
  21   2.0000      -7.821487      -212.8335
  22   2.0000      -7.811071      -212.5500
  23   2.0000      -6.597049      -179.5148
  24   2.0000      -6.591670      -179.3685
  25   2.0000      -5.818396      -158.3266
  26   2.0000      -5.815525      -158.2485
  27   2.0000      -5.814225      -158.2131
  28   2.0000      -5.810970      -158.1245
  29   2.0000      -5.808731      -158.0636
  30   2.0000      -5.804399      -157.9457
  31   2.0000      -5.769061      -156.9841
  32   2.0000      -5.761787      -156.7862
  33   2.0000      -5.761563      -156.7801
  34   2.0000      -5.758849      -156.7062
  35   2.0000      -5.751189      -156.4978
  36   2.0000      -5.751091      -156.4951
  37   2.0000      -4.742434      -129.0482
  38   2.0000      -4.741945      -129.0349
  39   2.0000      -4.740889      -129.0062
  40   2.0000      -4.737511      -128.9142
  41   2.0000      -4.736657      -128.8910
  42   2.0000      -4.735124      -128.8493
  43   2.0000      -1.055466       -28.7207
  44   2.0000      -1.050286       -28.5797
  45   2.0000      -1.016792       -27.6683
  46   2.0000      -1.007693       -27.4207
  47   2.0000      -0.801087       -21.7987
  48   2.0000      -0.760977       -20.7072
  49   2.0000      -0.752757       -20.4835
  50   2.0000      -0.735980       -20.0270
  51   2.0000      -0.732811       -19.9408
  52   2.0000      -0.713663       -19.4198
  53   2.0000      -0.688389       -18.7320
  54   2.0000      -0.669606       -18.2209
  55   2.0000      -0.636726       -17.3262
  56   2.0000      -0.622800       -16.9473
  57   2.0000      -0.611748       -16.6465
  58   2.0000      -0.610359       -16.6087
  59   2.0000      -0.591381       -16.0923
  60   2.0000      -0.526383       -14.3236
  61   2.0000      -0.518420       -14.1069
  62   2.0000      -0.497888       -13.5482
  63   2.0000      -0.490785       -13.3549
  64   2.0000      -0.477745       -13.0001
  65   2.0000      -0.467188       -12.7128
  66   2.0000      -0.463009       -12.5991
  67   2.0000      -0.455751       -12.4016
  68   2.0000      -0.442916       -12.0524
  69   2.0000      -0.441278       -12.0078
  70   2.0000      -0.428621       -11.6634
  71   2.0000      -0.419864       -11.4251
  72   2.0000      -0.415872       -11.3165
  73   2.0000      -0.408747       -11.1226
  74   2.0000      -0.400832       -10.9072
  75   2.0000      -0.389794       -10.6068
  76   2.0000      -0.381917       -10.3925
  77   2.0000      -0.375006       -10.2044
  78   2.0000      -0.371860       -10.1188
  79   2.0000      -0.368228       -10.0200
  80   2.0000      -0.366994        -9.9864
  81   2.0000      -0.362888        -9.8747
  82   2.0000      -0.355938        -9.6856
  83   2.0000      -0.354425        -9.6444
  84   2.0000      -0.347738        -9.4624
  85   2.0000      -0.337294        -9.1782
  86   2.0000      -0.325253        -8.8506
  87   2.0000      -0.313729        -8.5370
  88   2.0000      -0.311108        -8.4657
  89   2.0000      -0.307534        -8.3684
  90   2.0000      -0.301342        -8.1999
  91   2.0000      -0.293781        -7.9942
  92   2.0000      -0.289674        -7.8824
  93   2.0000      -0.283335        -7.7099
  94   2.0000      -0.272091        -7.4040
  95   2.0000      -0.248422        -6.7599
  96   2.0000      -0.231289        -6.2937
  97   2.0000      -0.228812        -6.2263
  98   2.0000      -0.219586        -5.9752
  99   2.0000      -0.213955        -5.8220
 100   2.0000      -0.210755        -5.7349
 101   0.0000      -0.047253        -1.2858
 102   0.0000      -0.028076        -0.7640
 103   0.0000      -0.005035        -0.1370
 104   0.0000      -0.002800        -0.0762
 105   0.0000       0.012716         0.3460

MULLIKEN ATOMIC CHARGES
-----------------------
   0 C :   -0.451572
   1 C :   -0.150889
   2 O :   -0.304966
   3 P :    0.674320
   4 S :   -0.477681
   5 O :   -0.277076
   6 C :   -0.153151
   7 C :   -0.441902
   8 S :   -0.124119
   9 C :   -0.247216
  10 S :   -0.144356
  11 P :    0.658780
  12 S :   -0.445877
  13 O :   -0.277286
  14 C :   -0.117021
  15 C :   -0.478647
  16 O :   -0.273264
  17 C :   -0.181511
  18 C :   -0.417205
  19 H :    0.156877
  20 H :    0.177822
  21 H :    0.149208
  22 H :    0.171149
  23 H :    0.149016
  24 H :    0.175206
  25 H :    0.149143
  26 H :    0.147766
  27 H :    0.156285
  28 H :    0.168736
  29 H :    0.219657
  30 H :    0.220610
  31 H :    0.152051
  32 H :    0.162930
  33 H :    0.173797
  34 H :    0.152469
  35 H :    0.156971
  36 H :    0.179311
  37 H :    0.143916
  38 H :    0.150760
  39 H :    0.173919
  40 H :    0.143043
Sum of atomic charges:   -0.0000000

LOEWDIN ATOMIC CHARGES
----------------------
   0 C :   -0.405862
   1 C :    0.020652
   2 O :   -0.660890
   3 P :    0.376650
   4 S :   -0.129987
   5 O :   -0.695321
   6 C :    0.017392
   7 C :   -0.398849
   8 S :    0.165762
   9 C :   -0.427907
  10 S :    0.145403
  11 P :    0.394573
  12 S :   -0.102949
  13 O :   -0.647616
  14 C :    0.033321
  15 C :   -0.405100
  16 O :   -0.674400
  17 C :    0.019160
  18 C :   -0.409467
  19 H :    0.160902
  20 H :    0.166050
  21 H :    0.160043
  22 H :    0.179493
  23 H :    0.179965
  24 H :    0.181503
  25 H :    0.179045
  26 H :    0.159837
  27 H :    0.161054
  28 H :    0.165331
  29 H :    0.196760
  30 H :    0.191289
  31 H :    0.183436
  32 H :    0.177360
  33 H :    0.165649
  34 H :    0.160796
  35 H :    0.161242
  36 H :    0.191572
  37 H :    0.177456
  38 H :    0.160271
  39 H :    0.167406
  40 H :    0.158972

  Mayer bond orders larger than 0.100000
B(  0-C ,  1-C ) :   0.9230 B(  0-C , 19-H ) :   0.9685 B(  0-C , 20-H ) :   0.9617
B(  0-C , 21-H ) :   0.9581 B(  1-C ,  2-O ) :   0.8130 B(  1-C , 22-H ) :   0.9664
B(  1-C , 23-H ) :   0.9578 B(  2-O ,  3-P ) :   1.0685 B(  3-P ,  4-S ) :   1.7527
B(  3-P ,  5-O ) :   1.1337 B(  3-P ,  8-S ) :   1.0962 B(  5-O ,  6-C ) :   0.7957
B(  6-C ,  7-C ) :   0.9250 B(  6-C , 24-H ) :   0.9640 B(  6-C , 25-H ) :   0.9611
B(  7-C , 26-H ) :   0.9614 B(  7-C , 27-H ) :   0.9713 B(  7-C , 28-H ) :   0.9598
B(  8-S ,  9-C ) :   0.8969 B(  9-C , 10-S ) :   0.9098 B(  9-C , 29-H ) :   0.8969
B(  9-C , 30-H ) :   0.9127 B( 10-S , 11-P ) :   0.9877 B( 11-P , 12-S ) :   1.8176
B( 11-P , 13-O ) :   1.1725 B( 11-P , 16-O ) :   1.0426 B( 13-O , 14-C ) :   0.7979
B( 14-C , 15-C ) :   0.9164 B( 14-C , 31-H ) :   0.9533 B( 14-C , 32-H ) :   0.9758
B( 15-C , 33-H ) :   0.9666 B( 15-C , 34-H ) :   0.9580 B( 15-C , 35-H ) :   0.9638
B( 16-O , 17-C ) :   0.8016 B( 17-C , 18-C ) :   0.9354 B( 17-C , 36-H ) :   0.9481
B( 17-C , 37-H ) :   0.9661 B( 18-C , 38-H ) :   0.9686 B( 18-C , 39-H ) :   0.9497
B( 18-C , 40-H ) :   0.9648

Dispersion correction           -0.021756045
FINAL SINGLE POINT ENERGY     -2932.460762709994

DIPOLE MOMENT
-------------

Method             : SCF
Type of density    : Electron Density
Multiplicity       :   1
Irrep              :   0
Energy             : -2932.4857487804338234 Eh
Relativity type    :
Basis              : AO
                                X                 Y                 Z
Electronic contribution:     -7.294039829       8.497889654     -12.904127653
Nuclear contribution   :      7.957613359      -9.258020155      14.675480733
                        -----------------------------------------
Total Dipole Moment    :      0.663573530      -0.760130500       1.771353081
                        -----------------------------------------
Magnitude (a.u.)       :      2.038582827
Magnitude (Debye)      :      5.181665753

Rotational constants in cm-1:             0.012453             0.005024             0.004552
Rotational constants in MHz :           373.346191           150.630151           136.469861

                             ****ORCA TERMINATED NORMALLY****
TOTAL RUN TIME: 0 days 0 hours 1 minutes 20 seconds 892 msec
