                         Program Version 6.0.0  -   RELEASE  -
|  1> ! r2scan-3c def2/J RI DEFGRID2 scfconv6 printgap
|  2> %output
|  3>     printlevel normal
|  4> end
|  5> %cpcm
|  6>     smd true
|  7>     smdsolvent "water"
|  8> end
|  9> * xyz 0 1
| 10> C 4.1170833568 -1.5595152107 -2.2231251845
| 11> C 4.4381272571 -1.5171799012 -0.7429528252
| 12> O 3.2515357663 -1.4990224684 0.0684706087
| 13> P 2.2615065276 -0.2579324536 0.1065279394
| 14> S 3.1224760053 1.5078518869 0.0708209551
| 15> O 1.3896273765 -0.5845798989 1.3901116382
| 16> C 1.7151491845 -0.0564409722 2.6928432747
| 17> C 2.9992530332 -0.648526262 3.2337948056
| 18> S 0.8387495326 -0.6670638649 -1.4009845723
| 19> C 0.1047505355 0.9922339863 -1.4280269172
| 20> S -0.8060113652 1.3963483616 0.0777595295
| 21> P -2.6585256528 0.4184609147 -0.3764039131
| 22> S -2.9188485558 0.02338327 -2.276301115
| 23> O -3.804698327 1.3718499689 0.1251519569
| 24> C -4.1830191938 1.6070032829 1.5037074952
| 25> C -3.074886176 2.252576952 2.3078686131
| 26> O -2.7785839439 -0.7744528431 0.6739790443
| 27> C -1.8657124776 -1.874413125 0.8174891743
| 28> C -1.954031192 -2.8563805869 -0.3331237354
| 29> H 3.4347172487 -2.3778474707 -2.4391288556
| 30> H 3.6498517671 -0.6247606829 -2.5309733619
| 31> H 5.034339416 -1.6954369848 -2.7871172152
| 32> H 5.0340058171 -0.6300012534 -0.5051059243
| 33> H 4.9636774256 -2.4164208337 -0.4189734598
| 34> H 1.7899226521 1.0327962875 2.6143462673
| 35> H 0.8549735009 -0.3247989117 3.3073910029
| 36> H 3.153991805 -0.3048405933 4.2517291031
| 37> H 2.9478178782 -1.7340208307 3.219831975
| 38> H 3.8409782664 -0.3280493632 2.6209744058
| 39> H -0.5762584314 1.0173312924 -2.2798743335
| 40> H 0.8970935442 1.7341438852 -1.5226665567
| 41> H -5.048456573 2.2651331343 1.4128063536
| 42> H -4.4841200305 0.6540060242 1.9421168158
| 43> H -2.7392454997 3.1676788255 1.8265195796
| 44> H -3.4461354819 2.4858888568 3.3009635244
| 45> H -2.2262326196 1.5763937405 2.3970237422
| 46> H -0.8481278877 -1.484930994 0.9193881638
| 47> H -2.1722471984 -2.3399674884 1.7565044717
| 48> H -2.9800199075 -3.1905030039 -0.464411628
| 49> H -1.6189003993 -2.392751318 -1.2590585849
| 50> H -1.3197477171 -3.711096961 -0.1211946381
| 51> *
| 52>
| 53>                          ****END OF INPUT****

CARTESIAN COORDINATES (ANGSTROEM)
---------------------------------
  C      4.117083   -1.559515   -2.223125
  C      4.438127   -1.517180   -0.742953
  O      3.251536   -1.499022    0.068471
  P      2.261507   -0.257932    0.106528
  S      3.122476    1.507852    0.070821
  O      1.389627   -0.584580    1.390112
  C      1.715149   -0.056441    2.692843
  C      2.999253   -0.648526    3.233795
  S      0.838750   -0.667064   -1.400985
  C      0.104751    0.992234   -1.428027
  S     -0.806011    1.396348    0.077760
  P     -2.658526    0.418461   -0.376404
  S     -2.918849    0.023383   -2.276301
  O     -3.804698    1.371850    0.125152
  C     -4.183019    1.607003    1.503707
  C     -3.074886    2.252577    2.307869
  O     -2.778584   -0.774453    0.673979
  C     -1.865712   -1.874413    0.817489
  C     -1.954031   -2.856381   -0.333124
  H      3.434717   -2.377847   -2.439129
  H      3.649852   -0.624761   -2.530973
  H      5.034339   -1.695437   -2.787117
  H      5.034006   -0.630001   -0.505106
  H      4.963677   -2.416421   -0.418973
  H      1.789923    1.032796    2.614346
  H      0.854974   -0.324799    3.307391
  H      3.153992   -0.304841    4.251729
  H      2.947818   -1.734021    3.219832
  H      3.840978   -0.328049    2.620974
  H     -0.576258    1.017331   -2.279874
  H      0.897094    1.734144   -1.522667
  H     -5.048457    2.265133    1.412806
  H     -4.484120    0.654006    1.942117
  H     -2.739245    3.167679    1.826520
  H     -3.446135    2.485889    3.300964
  H     -2.226233    1.576394    2.397024
  H     -0.848128   -1.484931    0.919388
  H     -2.172247   -2.339967    1.756504
  H     -2.980020   -3.190503   -0.464412
  H     -1.618900   -2.392751   -1.259059
  H     -1.319748   -3.711097   -0.121195

 Total Charge           Charge          ....    0
 Multiplicity           Mult            ....    1
 Number of Electrons    NEL             ....  202
 Basis Dimension        Dim             ....  539

ORBITAL ENERGIES
----------------

  NO   OCC          E(Eh)            E(eV)
   0   2.0000     -88.579004     -2410.3572
   1   2.0000     -88.578098     -2410.3326
   2   2.0000     -88.530268     -2409.0311
   3   2.0000     -88.529034     -2408.9975
   4   2.0000     -76.921785     -2093.1482
   5   2.0000     -76.919658     -2093.0903
   6   2.0000     -18.997013      -516.9350
   7   2.0000     -18.995279      -516.8878
   8   2.0000     -18.994814      -516.8752
   9   2.0000     -18.992450      -516.8108
  10   2.0000     -10.102211      -274.8951
  11   2.0000     -10.092875      -274.6411
  12   2.0000     -10.090420      -274.5743
  13   2.0000     -10.089331      -274.5446
  14   2.0000     -10.088963      -274.5346
  15   2.0000     -10.022432      -272.7242
  16   2.0000     -10.018974      -272.6301
  17   2.0000     -10.018778      -272.6248
  18   2.0000     -10.015677      -272.5404
  19   2.0000      -7.873426      -214.2468
  20   2.0000      -7.872220      -214.2140
  21   2.0000      -7.825215      -212.9349
  22   2.0000      -7.824302      -212.9101
  23   2.0000      -6.599835      -179.5906
  24   2.0000      -6.598338      -179.5499
  25   2.0000      -5.820209      -158.3759
  26   2.0000      -5.819216      -158.3489
  27   2.0000      -5.817362      -158.2985
  28   2.0000      -5.815940      -158.2598
  29   2.0000      -5.810545      -158.1130
  30   2.0000      -5.809391      -158.0816
  31   2.0000      -5.772733      -157.0840
  32   2.0000      -5.771943      -157.0626
  33   2.0000      -5.765505      -156.8874
  34   2.0000      -5.765309      -156.8820
  35   2.0000      -5.764432      -156.8582
  36   2.0000      -5.764373      -156.8566
  37   2.0000      -4.745623      -129.1350
  38   2.0000      -4.744763      -129.1116
  39   2.0000      -4.743659      -129.0815
  40   2.0000      -4.743434      -129.0754
  41   2.0000      -4.743224      -129.0697
  42   2.0000      -4.742283      -129.0441
  43   2.0000      -1.054201       -28.6863
  44   2.0000      -1.053315       -28.6621
  45   2.0000      -1.013844       -27.5881
  46   2.0000      -1.010863       -27.5070
  47   2.0000      -0.803266       -21.8580
  48   2.0000      -0.757197       -20.6044
  49   2.0000      -0.745023       -20.2731
  50   2.0000      -0.726451       -19.7677
  51   2.0000      -0.723799       -19.6956
  52   2.0000      -0.711758       -19.3679
  53   2.0000      -0.690578       -18.7916
  54   2.0000      -0.674854       -18.3637
  55   2.0000      -0.632845       -17.2206
  56   2.0000      -0.621247       -16.9050
  57   2.0000      -0.607472       -16.5302
  58   2.0000      -0.599786       -16.3210
  59   2.0000      -0.589951       -16.0534
  60   2.0000      -0.521885       -14.2012
  61   2.0000      -0.512614       -13.9489
  62   2.0000      -0.491762       -13.3815
  63   2.0000      -0.486873       -13.2485
  64   2.0000      -0.475868       -12.9490
  65   2.0000      -0.462557       -12.5868
  66   2.0000      -0.455062       -12.3829
  67   2.0000      -0.451601       -12.2887
  68   2.0000      -0.437584       -11.9073
  69   2.0000      -0.435928       -11.8622
  70   2.0000      -0.423740       -11.5305
  71   2.0000      -0.418282       -11.3820
  72   2.0000      -0.407520       -11.0892
  73   2.0000      -0.404572       -11.0090
  74   2.0000      -0.397438       -10.8148
  75   2.0000      -0.387504       -10.5445
  76   2.0000      -0.380159       -10.3447
  77   2.0000      -0.366999        -9.9866
  78   2.0000      -0.365120        -9.9354
  79   2.0000      -0.362265        -9.8577
  80   2.0000      -0.356151        -9.6914
  81   2.0000      -0.354351        -9.6424
  82   2.0000      -0.349439        -9.5087
  83   2.0000      -0.347975        -9.4689
  84   2.0000      -0.344332        -9.3697
  85   2.0000      -0.333335        -9.0705
  86   2.0000      -0.320966        -8.7339
  87   2.0000      -0.308159        -8.3854
  88   2.0000      -0.305170        -8.3041
  89   2.0000      -0.303135        -8.2487
  90   2.0000      -0.297696        -8.1007
  91   2.0000      -0.290763        -7.9121
  92   2.0000      -0.287282        -7.8173
  93   2.0000      -0.280774        -7.6402
  94   2.0000      -0.275741        -7.5033
  95   2.0000      -0.250810        -6.8249
  96   2.0000      -0.237690        -6.4679
  97   2.0000      -0.234814        -6.3896
  98   2.0000      -0.225902        -6.1471
  99   2.0000      -0.224534        -6.1099
 100   2.0000      -0.221056        -6.0152
 101   0.0000      -0.052058        -1.4166
 102   0.0000      -0.033907        -0.9226
 103   0.0000      -0.009939        -0.2705
 104   0.0000      -0.005275        -0.1436
 105   0.0000       0.011878         0.3232

MULLIKEN ATOMIC CHARGES
-----------------------
   0 C :   -0.488466
   1 C :   -0.152131
   2 O :   -0.329042
   3 P :    0.715555
   4 S :   -0.525620
   5 O :   -0.299329
   6 C :   -0.147000
   7 C :   -0.483972
   8 S :   -0.131275
   9 C :   -0.257981
  10 S :   -0.148372
  11 P :    0.669699
  12 S :   -0.504761
  13 O :   -0.312327
  14 C :   -0.111798
  15 C :   -0.511917
  16 O :   -0.290504
  17 C :   -0.161735
  18 C :   -0.464972
  19 H :    0.169958
  20 H :    0.173119
  21 H :    0.173375
  22 H :    0.178423
  23 H :    0.175959
  24 H :    0.177107
  25 H :    0.178284
  26 H :    0.172236
  27 H :    0.170074
  28 H :    0.168487
  29 H :    0.230108
  30 H :    0.240467
  31 H :    0.175181
  32 H :    0.178537
  33 H :    0.180028
  34 H :    0.179015
  35 H :    0.164039
  36 H :    0.175687
  37 H :    0.175645
  38 H :    0.164535
  39 H :    0.165308
  40 H :    0.170376
Sum of atomic charges:    0.0000000

LOEWDIN ATOMIC CHARGES
----------------------
   0 C :   -0.409571
   1 C :    0.026311
   2 O :   -0.670866
   3 P :    0.382609
   4 S :   -0.158744
   5 O :   -0.702250
   6 C :    0.022845
   7 C :   -0.402445
   8 S :    0.161250
   9 C :   -0.424838
  10 S :    0.147074
  11 P :    0.394622
  12 S :   -0.149175
  13 O :   -0.670271
  14 C :    0.040193
  15 C :   -0.404805
  16 O :   -0.677594
  17 C :    0.026038
  18 C :   -0.414787
  19 H :    0.163797
  20 H :    0.161709
  21 H :    0.168715
  22 H :    0.181806
  23 H :    0.191372
  24 H :    0.182010
  25 H :    0.190895
  26 H :    0.168864
  27 H :    0.164388
  28 H :    0.162737
  29 H :    0.199287
  30 H :    0.196920
  31 H :    0.193176
  32 H :    0.184734
  33 H :    0.165556
  34 H :    0.171823
  35 H :    0.162362
  36 H :    0.191201
  37 H :    0.190906
  38 H :    0.162225
  39 H :    0.161226
  40 H :    0.168695

  Mayer bond orders larger than 0.100000
B(  0-C ,  1-C ) :   0.9087 B(  0-C , 19-H ) :   0.9657 B(  0-C , 20-H ) :   0.9633
B(  0-C , 21-H ) :   0.9530 B(  1-C ,  2-O ) :   0.8014 B(  1-C , 22-H ) :   0.9655
B(  1-C , 23-H ) :   0.9482 B(  2-O ,  3-P ) :   1.0777 B(  3-P ,  4-S ) :   1.7082
B(  3-P ,  5-O ) :   1.1459 B(  3-P ,  8-S ) :   1.1016 B(  5-O ,  6-C ) :   0.7840
B(  6-C ,  7-C ) :   0.9136 B(  6-C , 24-H ) :   0.9606 B(  6-C , 25-H ) :   0.9507
B(  7-C , 26-H ) :   0.9556 B(  7-C , 27-H ) :   0.9703 B(  7-C , 28-H ) :   0.9594
B(  8-S ,  9-C ) :   0.8935 B(  9-C , 10-S ) :   0.8981 B(  9-C , 29-H ) :   0.8959
B(  9-C , 30-H ) :   0.9068 B( 10-S , 11-P ) :   1.0071 B( 11-P , 12-S ) :   1.7912
B( 11-P , 13-O ) :   1.1784 B( 11-P , 16-O ) :   1.0525 B( 13-O , 14-C ) :   0.7858
B( 14-C , 15-C ) :   0.9052 B( 14-C , 31-H ) :   0.9450 B( 14-C , 32-H ) :   0.9658
B( 15-C , 33-H ) :   0.9667 B( 15-C , 34-H ) :   0.9505 B( 15-C , 35-H ) :   0.9586
B( 16-O , 17-C ) :   0.7932 B( 17-C , 18-C ) :   0.9167 B( 17-C , 36-H ) :   0.9479
B( 17-C , 37-H ) :   0.9563 B( 18-C , 38-H ) :   0.9694 B( 18-C , 39-H ) :   0.9533
B( 18-C , 40-H ) :   0.9597

Dispersion correction           -0.021756045
FINAL SINGLE POINT ENERGY     -2932.469491731271

DIPOLE MOMENT
-------------

Method             : SCF
Type of density    : Electron Density
Multiplicity       :   1
Irrep              :   0
Energy             : -2932.4944778017102180 Eh
Relativity type    :
Basis              : AO
                                X                 Y                 Z
Electronic contribution:     -7.012483186       8.217543182     -12.149303625
Nuclear contribution   :      7.957613359      -9.258020155      14.675480733
                        -----------------------------------------
Total Dipole Moment    :      0.945130173      -1.040476973       2.526177108
                        -----------------------------------------
Magnitude (a.u.)       :      2.890922717
Magnitude (Debye)      :      7.348141581

Rotational constants in cm-1:             0.012453             0.005024             0.004552
Rotational constants in MHz :           373.346191           150.630151           136.469861

                             ****ORCA TERMINATED NORMALLY****
TOTAL RUN TIME: 0 days 0 hours 1 minutes 56 seconds 323 msec
