                         Program Version 6.0.1  -  RELEASE   -
|  1> ! r2scan-3c def2/J RI DEFGRID2 scfconv6 printgap
|  2> %output
|  3>     printlevel normal
|  4> end
|  5> * xyz 0 1
|  6> C 4.2809849864 -3.8202991248 -1.0385115624
|  7> C 2.762164781 -3.7856961704 -0.9776916353
|  8> O 2.2989157815 -2.6062929738 -0.2908338398
|  9> C 2.1725347269 -1.4901708067 -0.9790758104
| 10> O 2.3733568001 -1.3837282899 -2.1684306807
| 11> C 1.7304707339 -0.3417481107 -0.0917632174
| 12> C 0.7460378492 0.5449736516 -0.8421853442
| 13> H 1.1628814615 0.7822718245 -1.8281811213
| 14> C 0.4195106808 1.8463592193 -0.1350858327
| 15> O -0.7053908302 2.3040638654 -0.1042790732
| 16> O 1.4775845918 2.3996878032 0.3909680077
| 17> C 1.3149243474 3.6515898641 1.0916568872
| 18> C 1.3254196886 4.8245421 0.1259351678
| 19> S -0.8182531481 -0.3147033986 -1.210378543
| 20> P -1.8715421631 -0.0048914608 0.6160853763
| 21> S -0.8515016962 0.2806582123 2.2625724708
| 22> O -3.0469399182 1.0283199966 0.4186455799
| 23> C -3.9130209945 1.0183183439 -0.7320521056
| 24> O -2.7322904809 -1.362543695 0.6594033458
| 25> C -2.1124330216 -2.6248168591 0.9175296422
| 26> H 4.600225192 -4.7520905997 -1.4934719968
| 27> H 4.650457345 -2.9909462531 -1.637247319
| 28> H 4.6973783106 -3.7487724072 -0.0374807423
| 29> H 2.3690079776 -4.6142734087 -0.3888667728
| 30> H 2.3338409354 -3.7923499185 -1.9840042303
| 31> H 2.6110155942 0.2531456331 0.162323601
| 32> H 1.3006635085 -0.7333296127 0.8313164997
| 33> H 0.3776441302 3.6115401824 1.6539709067
| 34> H 2.1639703174 3.684336834 1.773887227
| 35> H 1.2750386884 5.7497876473 0.6901285696
| 36> H 2.2364567878 4.8141895162 -0.4659989504
| 37> H 0.4667012982 4.7711047822 -0.5395066647
| 38> H -3.3322202668 1.2267703371 -1.6303863033
| 39> H -4.6320303599 1.8124181433 -0.5487772444
| 40> H -4.409463646 0.0532700187 -0.8176073882
| 41> H -1.4867822438 -2.5590912703 1.8093453373
| 42> H -1.5089976641 -2.9251561295 0.0606353971
| 43> H -2.9282288164 -3.3251974321 1.076250543
| 44> *
| 45>
| 46>                          ****END OF INPUT****

CARTESIAN COORDINATES (ANGSTROEM)
---------------------------------
  C      4.280985   -3.820299   -1.038512
  C      2.762165   -3.785696   -0.977692
  O      2.298916   -2.606293   -0.290834
  C      2.172535   -1.490171   -0.979076
  O      2.373357   -1.383728   -2.168431
  C      1.730471   -0.341748   -0.091763
  C      0.746038    0.544974   -0.842185
  H      1.162881    0.782272   -1.828181
  C      0.419511    1.846359   -0.135086
  O     -0.705391    2.304064   -0.104279
  O      1.477585    2.399688    0.390968
  C      1.314924    3.651590    1.091657
  C      1.325420    4.824542    0.125935
  S     -0.818253   -0.314703   -1.210379
  P     -1.871542   -0.004891    0.616085
  S     -0.851502    0.280658    2.262572
  O     -3.046940    1.028320    0.418646
  C     -3.913021    1.018318   -0.732052
  O     -2.732290   -1.362544    0.659403
  C     -2.112433   -2.624817    0.917530
  H      4.600225   -4.752091   -1.493472
  H      4.650457   -2.990946   -1.637247
  H      4.697378   -3.748772   -0.037481
  H      2.369008   -4.614273   -0.388867
  H      2.333841   -3.792350   -1.984004
  H      2.611016    0.253146    0.162324
  H      1.300664   -0.733330    0.831316
  H      0.377644    3.611540    1.653971
  H      2.163970    3.684337    1.773887
  H      1.275039    5.749788    0.690129
  H      2.236457    4.814190   -0.465999
  H      0.466701    4.771105   -0.539507
  H     -3.332220    1.226770   -1.630386
  H     -4.632030    1.812418   -0.548777
  H     -4.409464    0.053270   -0.817607
  H     -1.486782   -2.559091    1.809345
  H     -1.508998   -2.925156    0.060635
  H     -2.928229   -3.325197    1.076251

 Total Charge           Charge          ....    0
 Multiplicity           Mult            ....    1
 Number of Electrons    NEL             ....  174
 Basis Dimension        Dim             ....  510

ORBITAL ENERGIES
----------------

  NO   OCC          E(Eh)            E(eV)
   0   2.0000     -88.572062     -2410.1683
   1   2.0000     -88.511495     -2408.5202
   2   2.0000     -76.909021     -2092.8009
   3   2.0000     -19.012078      -517.3449
   4   2.0000     -19.005389      -517.1629
   5   2.0000     -18.983630      -516.5708
   6   2.0000     -18.982175      -516.5312
   7   2.0000     -18.937750      -515.3224
   8   2.0000     -18.936789      -515.2962
   9   2.0000     -10.168567      -276.7008
  10   2.0000     -10.161062      -276.4965
  11   2.0000     -10.097910      -274.7781
  12   2.0000     -10.097172      -274.7580
  13   2.0000     -10.097071      -274.7553
  14   2.0000     -10.089132      -274.5392
  15   2.0000     -10.084529      -274.4140
  16   2.0000     -10.052538      -273.5435
  17   2.0000     -10.033336      -273.0210
  18   2.0000     -10.032958      -273.0107
  19   2.0000      -7.866238      -214.0512
  20   2.0000      -7.806582      -212.4279
  21   2.0000      -6.586855      -179.2374
  22   2.0000      -5.813262      -158.1869
  23   2.0000      -5.810026      -158.0989
  24   2.0000      -5.803288      -157.9155
  25   2.0000      -5.754461      -156.5868
  26   2.0000      -5.746915      -156.3815
  27   2.0000      -5.746238      -156.3631
  28   2.0000      -4.732555      -128.7794
  29   2.0000      -4.732008      -128.7645
  30   2.0000      -4.730354      -128.7195
  31   2.0000      -1.090251       -29.6672
  32   2.0000      -1.081541       -29.4302
  33   2.0000      -1.041738       -28.3471
  34   2.0000      -0.999661       -27.2021
  35   2.0000      -0.990997       -26.9664
  36   2.0000      -0.986595       -26.8466
  37   2.0000      -0.809238       -22.0205
  38   2.0000      -0.755214       -20.5504
  39   2.0000      -0.748704       -20.3733
  40   2.0000      -0.726130       -19.7590
  41   2.0000      -0.694855       -18.9080
  42   2.0000      -0.667994       -18.1771
  43   2.0000      -0.662379       -18.0243
  44   2.0000      -0.650300       -17.6956
  45   2.0000      -0.631304       -17.1787
  46   2.0000      -0.598791       -16.2939
  47   2.0000      -0.538480       -14.6528
  48   2.0000      -0.530479       -14.4351
  49   2.0000      -0.524119       -14.2620
  50   2.0000      -0.505505       -13.7555
  51   2.0000      -0.486270       -13.2321
  52   2.0000      -0.475495       -12.9389
  53   2.0000      -0.467904       -12.7323
  54   2.0000      -0.458975       -12.4893
  55   2.0000      -0.449783       -12.2392
  56   2.0000      -0.446707       -12.1555
  57   2.0000      -0.442386       -12.0379
  58   2.0000      -0.436353       -11.8738
  59   2.0000      -0.425673       -11.5831
  60   2.0000      -0.421402       -11.4669
  61   2.0000      -0.414527       -11.2799
  62   2.0000      -0.411465       -11.1965
  63   2.0000      -0.404713       -11.0128
  64   2.0000      -0.402237       -10.9454
  65   2.0000      -0.384606       -10.4657
  66   2.0000      -0.375462       -10.2168
  67   2.0000      -0.367604       -10.0030
  68   2.0000      -0.365073        -9.9342
  69   2.0000      -0.353065        -9.6074
  70   2.0000      -0.352019        -9.5789
  71   2.0000      -0.344921        -9.3858
  72   2.0000      -0.338081        -9.1997
  73   2.0000      -0.322903        -8.7866
  74   2.0000      -0.317476        -8.6390
  75   2.0000      -0.314339        -8.5536
  76   2.0000      -0.311884        -8.4868
  77   2.0000      -0.305666        -8.3176
  78   2.0000      -0.286250        -7.7892
  79   2.0000      -0.280586        -7.6351
  80   2.0000      -0.278132        -7.5684
  81   2.0000      -0.269507        -7.3337
  82   2.0000      -0.254190        -6.9169
  83   2.0000      -0.246099        -6.6967
  84   2.0000      -0.233177        -6.3451
  85   2.0000      -0.210088        -5.7168
  86   2.0000      -0.207701        -5.6518
  87   0.0000      -0.042493        -1.1563
  88   0.0000      -0.029368        -0.7991
  89   0.0000      -0.013410        -0.3649
  90   0.0000       0.003995         0.1087
  91   0.0000       0.024225         0.6592

MULLIKEN ATOMIC CHARGES
-----------------------
   0 C :   -0.471992
   1 C :   -0.137703
   2 O :   -0.172511
   3 C :    0.405015
   4 O :   -0.437459
   5 C :   -0.433686
   6 C :    0.006984
   7 H :    0.216729
   8 C :    0.308801
   9 O :   -0.396970
  10 O :   -0.159707
  11 C :   -0.136337
  12 C :   -0.476122
  13 S :   -0.174715
  14 P :    0.783598
  15 S :   -0.461478
  16 O :   -0.300703
  17 C :   -0.299503
  18 O :   -0.358289
  19 C :   -0.302783
  20 H :    0.148821
  21 H :    0.173180
  22 H :    0.154216
  23 H :    0.150279
  24 H :    0.169433
  25 H :    0.198849
  26 H :    0.215033
  27 H :    0.182610
  28 H :    0.152399
  29 H :    0.151139
  30 H :    0.152264
  31 H :    0.177677
  32 H :    0.171711
  33 H :    0.155000
  34 H :    0.165323
  35 H :    0.175100
  36 H :    0.155843
  37 H :    0.149953
Sum of atomic charges:   -0.0000000

LOEWDIN ATOMIC CHARGES
----------------------
   0 C :   -0.388990
   1 C :    0.029544
   2 O :   -0.580400
   3 C :    0.351295
   4 O :   -0.442096
   5 C :   -0.209926
   6 C :   -0.192269
   7 H :    0.217094
   8 C :    0.342266
   9 O :   -0.459297
  10 O :   -0.577132
  11 C :    0.035419
  12 C :   -0.388703
  13 S :    0.215439
  14 P :    0.413464
  15 S :   -0.079596
  16 O :   -0.638685
  17 C :   -0.050326
  18 O :   -0.690881
  19 C :   -0.066254
  20 H :    0.160054
  21 H :    0.165301
  22 H :    0.158284
  23 H :    0.179114
  24 H :    0.188530
  25 H :    0.200724
  26 H :    0.200175
  27 H :    0.194780
  28 H :    0.180580
  29 H :    0.161256
  30 H :    0.157611
  31 H :    0.167131
  32 H :    0.174981
  33 H :    0.180786
  34 H :    0.171467
  35 H :    0.175737
  36 H :    0.167687
  37 H :    0.175836

  Mayer bond orders larger than 0.100000
B(  0-C ,  1-C ) :   0.9375 B(  0-C , 20-H ) :   0.9640 B(  0-C , 21-H ) :   0.9712
B(  0-C , 22-H ) :   0.9731 B(  1-C ,  2-O ) :   0.8094 B(  1-C , 23-H ) :   0.9611
B(  1-C , 24-H ) :   0.9683 B(  2-O ,  3-C ) :   1.0793 B(  3-C ,  4-O ) :   1.8209
B(  3-C ,  5-C ) :   0.9317 B(  5-C ,  6-C ) :   0.9222 B(  5-C , 25-H ) :   0.9333
B(  5-C , 26-H ) :   0.9453 B(  6-C ,  7-H ) :   0.8942 B(  6-C ,  8-C ) :   0.9449
B(  6-C , 13-S ) :   0.8367 B(  8-C ,  9-O ) :   1.7960 B(  8-C , 10-O ) :   1.1493
B( 10-O , 11-C ) :   0.7999 B( 11-C , 12-C ) :   0.9309 B( 11-C , 27-H ) :   0.9710
B( 11-C , 28-H ) :   0.9608 B( 12-C , 29-H ) :   0.9637 B( 12-C , 30-H ) :   0.9714
B( 12-C , 31-H ) :   0.9714 B( 13-S , 14-P ) :   0.9901 B( 14-P , 15-S ) :   1.7578
B( 14-P , 16-O ) :   1.1968 B( 14-P , 18-O ) :   1.0052 B( 16-O , 17-C ) :   0.7974
B( 17-C , 32-H ) :   0.9573 B( 17-C , 33-H ) :   0.9649 B( 17-C , 34-H ) :   0.9639
B( 18-O , 19-C ) :   0.8383 B( 19-C , 35-H ) :   0.9588 B( 19-C , 36-H ) :   0.9545
B( 19-C , 37-H ) :   0.9688

Dispersion correction           -0.017069262
FINAL SINGLE POINT ENERGY     -1981.451152458399

DIPOLE MOMENT
-------------

Method             : SCF
Type of density    : Electron Density
Multiplicity       :   1
Irrep              :   0
Energy             : -1981.4716503114832449 Eh
Relativity type    :
Basis              : AO
                                X                 Y                 Z
Electronic contribution:    -12.346683906       2.154667741       3.306518192
Nuclear contribution   :     12.924471178      -2.505547917      -3.705936735
                        -----------------------------------------
Total Dipole Moment    :      0.577787272      -0.350880176      -0.399418543
                        -----------------------------------------
Magnitude (a.u.)       :      0.785168901
Magnitude (Debye)      :      1.995740741

Rotational constants in cm-1:             0.011263             0.007398             0.005377
Rotational constants in MHz :           337.644905           221.773088           161.189668

                             ****ORCA TERMINATED NORMALLY****
TOTAL RUN TIME: 0 days 0 hours 1 minutes 16 seconds 340 msec
