                         Program Version 6.0.1  -  RELEASE   -
|  1> ! r2scan-3c def2/J RI DEFGRID2 scfconv6 printgap
|  2> %output
|  3>     printlevel normal
|  4> end
|  5> %cpcm
|  6>     smd true
|  7>     smdsolvent "water"
|  8> end
|  9> * xyz 0 1
| 10> C 4.2809849864 -3.8202991248 -1.0385115624
| 11> C 2.762164781 -3.7856961704 -0.9776916353
| 12> O 2.2989157815 -2.6062929738 -0.2908338398
| 13> C 2.1725347269 -1.4901708067 -0.9790758104
| 14> O 2.3733568001 -1.3837282899 -2.1684306807
| 15> C 1.7304707339 -0.3417481107 -0.0917632174
| 16> C 0.7460378492 0.5449736516 -0.8421853442
| 17> H 1.1628814615 0.7822718245 -1.8281811213
| 18> C 0.4195106808 1.8463592193 -0.1350858327
| 19> O -0.7053908302 2.3040638654 -0.1042790732
| 20> O 1.4775845918 2.3996878032 0.3909680077
| 21> C 1.3149243474 3.6515898641 1.0916568872
| 22> C 1.3254196886 4.8245421 0.1259351678
| 23> S -0.8182531481 -0.3147033986 -1.210378543
| 24> P -1.8715421631 -0.0048914608 0.6160853763
| 25> S -0.8515016962 0.2806582123 2.2625724708
| 26> O -3.0469399182 1.0283199966 0.4186455799
| 27> C -3.9130209945 1.0183183439 -0.7320521056
| 28> O -2.7322904809 -1.362543695 0.6594033458
| 29> C -2.1124330216 -2.6248168591 0.9175296422
| 30> H 4.600225192 -4.7520905997 -1.4934719968
| 31> H 4.650457345 -2.9909462531 -1.637247319
| 32> H 4.6973783106 -3.7487724072 -0.0374807423
| 33> H 2.3690079776 -4.6142734087 -0.3888667728
| 34> H 2.3338409354 -3.7923499185 -1.9840042303
| 35> H 2.6110155942 0.2531456331 0.162323601
| 36> H 1.3006635085 -0.7333296127 0.8313164997
| 37> H 0.3776441302 3.6115401824 1.6539709067
| 38> H 2.1639703174 3.684336834 1.773887227
| 39> H 1.2750386884 5.7497876473 0.6901285696
| 40> H 2.2364567878 4.8141895162 -0.4659989504
| 41> H 0.4667012982 4.7711047822 -0.5395066647
| 42> H -3.3322202668 1.2267703371 -1.6303863033
| 43> H -4.6320303599 1.8124181433 -0.5487772444
| 44> H -4.409463646 0.0532700187 -0.8176073882
| 45> H -1.4867822438 -2.5590912703 1.8093453373
| 46> H -1.5089976641 -2.9251561295 0.0606353971
| 47> H -2.9282288164 -3.3251974321 1.076250543
| 48> *
| 49>
| 50>                          ****END OF INPUT****

CARTESIAN COORDINATES (ANGSTROEM)
---------------------------------
  C      4.280985   -3.820299   -1.038512
  C      2.762165   -3.785696   -0.977692
  O      2.298916   -2.606293   -0.290834
  C      2.172535   -1.490171   -0.979076
  O      2.373357   -1.383728   -2.168431
  C      1.730471   -0.341748   -0.091763
  C      0.746038    0.544974   -0.842185
  H      1.162881    0.782272   -1.828181
  C      0.419511    1.846359   -0.135086
  O     -0.705391    2.304064   -0.104279
  O      1.477585    2.399688    0.390968
  C      1.314924    3.651590    1.091657
  C      1.325420    4.824542    0.125935
  S     -0.818253   -0.314703   -1.210379
  P     -1.871542   -0.004891    0.616085
  S     -0.851502    0.280658    2.262572
  O     -3.046940    1.028320    0.418646
  C     -3.913021    1.018318   -0.732052
  O     -2.732290   -1.362544    0.659403
  C     -2.112433   -2.624817    0.917530
  H      4.600225   -4.752091   -1.493472
  H      4.650457   -2.990946   -1.637247
  H      4.697378   -3.748772   -0.037481
  H      2.369008   -4.614273   -0.388867
  H      2.333841   -3.792350   -1.984004
  H      2.611016    0.253146    0.162324
  H      1.300664   -0.733330    0.831316
  H      0.377644    3.611540    1.653971
  H      2.163970    3.684337    1.773887
  H      1.275039    5.749788    0.690129
  H      2.236457    4.814190   -0.465999
  H      0.466701    4.771105   -0.539507
  H     -3.332220    1.226770   -1.630386
  H     -4.632030    1.812418   -0.548777
  H     -4.409464    0.053270   -0.817607
  H     -1.486782   -2.559091    1.809345
  H     -1.508998   -2.925156    0.060635
  H     -2.928229   -3.325197    1.076251

 Total Charge           Charge          ....    0
 Multiplicity           Mult            ....    1
 Number of Electrons    NEL             ....  174
 Basis Dimension        Dim             ....  510

ORBITAL ENERGIES
----------------

  NO   OCC          E(Eh)            E(eV)
   0   2.0000     -88.580062     -2410.3860
   1   2.0000     -88.527008     -2408.9424
   2   2.0000     -76.921299     -2093.1350
   3   2.0000     -19.015641      -517.4419
   4   2.0000     -19.009304      -517.2695
   5   2.0000     -18.996113      -516.9105
   6   2.0000     -18.990464      -516.7568
   7   2.0000     -18.950869      -515.6794
   8   2.0000     -18.949458      -515.6410
   9   2.0000     -10.178594      -276.9736
  10   2.0000     -10.170692      -276.7586
  11   2.0000     -10.099934      -274.8332
  12   2.0000     -10.089356      -274.5453
  13   2.0000     -10.086062      -274.4557
  14   2.0000     -10.084543      -274.4144
  15   2.0000     -10.079567      -274.2790
  16   2.0000     -10.053444      -273.5681
  17   2.0000     -10.020263      -272.6652
  18   2.0000     -10.019405      -272.6419
  19   2.0000      -7.874244      -214.2691
  20   2.0000      -7.822375      -212.8577
  21   2.0000      -6.599257      -179.5749
  22   2.0000      -5.821276      -158.4050
  23   2.0000      -5.818049      -158.3172
  24   2.0000      -5.811273      -158.1328
  25   2.0000      -5.770155      -157.0139
  26   2.0000      -5.762747      -156.8123
  27   2.0000      -5.762034      -156.7929
  28   2.0000      -4.744918      -129.1158
  29   2.0000      -4.744358      -129.1005
  30   2.0000      -4.742851      -129.0595
  31   2.0000      -1.095640       -29.8139
  32   2.0000      -1.086877       -29.5754
  33   2.0000      -1.052240       -28.6329
  34   2.0000      -1.008973       -27.4555
  35   2.0000      -1.002063       -27.2675
  36   2.0000      -0.997159       -27.1341
  37   2.0000      -0.813133       -22.1265
  38   2.0000      -0.749351       -20.3909
  39   2.0000      -0.745781       -20.2937
  40   2.0000      -0.728902       -19.8344
  41   2.0000      -0.696424       -18.9507
  42   2.0000      -0.667704       -18.1692
  43   2.0000      -0.662839       -18.0368
  44   2.0000      -0.656118       -17.8539
  45   2.0000      -0.625751       -17.0275
  46   2.0000      -0.597180       -16.2501
  47   2.0000      -0.540661       -14.7121
  48   2.0000      -0.527367       -14.3504
  49   2.0000      -0.523704       -14.2507
  50   2.0000      -0.508834       -13.8461
  51   2.0000      -0.490992       -13.3606
  52   2.0000      -0.477831       -13.0024
  53   2.0000      -0.473537       -12.8856
  54   2.0000      -0.463842       -12.6218
  55   2.0000      -0.458451       -12.4751
  56   2.0000      -0.450300       -12.2533
  57   2.0000      -0.447169       -12.1681
  58   2.0000      -0.437073       -11.8934
  59   2.0000      -0.426967       -11.6184
  60   2.0000      -0.422221       -11.4892
  61   2.0000      -0.411495       -11.1974
  62   2.0000      -0.409997       -11.1566
  63   2.0000      -0.407034       -11.0760
  64   2.0000      -0.399773       -10.8784
  65   2.0000      -0.380519       -10.3544
  66   2.0000      -0.370522       -10.0824
  67   2.0000      -0.368091       -10.0163
  68   2.0000      -0.361983        -9.8501
  69   2.0000      -0.352215        -9.5843
  70   2.0000      -0.350937        -9.5495
  71   2.0000      -0.341661        -9.2971
  72   2.0000      -0.337894        -9.1946
  73   2.0000      -0.326090        -8.8733
  74   2.0000      -0.318664        -8.6713
  75   2.0000      -0.312183        -8.4949
  76   2.0000      -0.310737        -8.4556
  77   2.0000      -0.308361        -8.3909
  78   2.0000      -0.292156        -7.9500
  79   2.0000      -0.286865        -7.8060
  80   2.0000      -0.284244        -7.7347
  81   2.0000      -0.276788        -7.5318
  82   2.0000      -0.266749        -7.2586
  83   2.0000      -0.258665        -7.0386
  84   2.0000      -0.243850        -6.6355
  85   2.0000      -0.225209        -6.1282
  86   2.0000      -0.224025        -6.0960
  87   0.0000      -0.051764        -1.4086
  88   0.0000      -0.039615        -1.0780
  89   0.0000      -0.021562        -0.5867
  90   0.0000      -0.002409        -0.0656
  91   0.0000       0.014498         0.3945

MULLIKEN ATOMIC CHARGES
-----------------------
   0 C :   -0.497480
   1 C :   -0.140604
   2 O :   -0.188386
   3 C :    0.428450
   4 O :   -0.500365
   5 C :   -0.434195
   6 C :    0.009811
   7 H :    0.247533
   8 C :    0.319145
   9 O :   -0.449213
  10 O :   -0.170351
  11 C :   -0.129801
  12 C :   -0.502469
  13 S :   -0.181881
  14 P :    0.788775
  15 S :   -0.499923
  16 O :   -0.350314
  17 C :   -0.304877
  18 O :   -0.389108
  19 C :   -0.309044
  20 H :    0.172031
  21 H :    0.170862
  22 H :    0.166895
  23 H :    0.177200
  24 H :    0.174806
  25 H :    0.231646
  26 H :    0.212362
  27 H :    0.176170
  28 H :    0.180391
  29 H :    0.174121
  30 H :    0.168053
  31 H :    0.173734
  32 H :    0.180370
  33 H :    0.182093
  34 H :    0.185331
  35 H :    0.177207
  36 H :    0.172474
  37 H :    0.178549
Sum of atomic charges:   -0.0000000

LOEWDIN ATOMIC CHARGES
----------------------
   0 C :   -0.391282
   1 C :    0.035633
   2 O :   -0.582958
   3 C :    0.360833
   4 O :   -0.486724
   5 C :   -0.205866
   6 C :   -0.188340
   7 H :    0.229022
   8 C :    0.350529
   9 O :   -0.501182
  10 O :   -0.573736
  11 C :    0.040274
  12 C :   -0.389898
  13 S :    0.217239
  14 P :    0.410142
  15 S :   -0.111029
  16 O :   -0.670115
  17 C :   -0.043629
  18 O :   -0.703836
  19 C :   -0.060285
  20 H :    0.168651
  21 H :    0.163080
  22 H :    0.162765
  23 H :    0.190850
  24 H :    0.190736
  25 H :    0.214016
  26 H :    0.199803
  27 H :    0.192417
  28 H :    0.192507
  29 H :    0.169751
  30 H :    0.163640
  31 H :    0.164374
  32 H :    0.179801
  33 H :    0.191982
  34 H :    0.181022
  35 H :    0.176849
  36 H :    0.174894
  37 H :    0.188069

  Mayer bond orders larger than 0.100000
B(  0-C ,  1-C ) :   0.9356 B(  0-C , 20-H ) :   0.9590 B(  0-C , 21-H ) :   0.9688
B(  0-C , 22-H ) :   0.9693 B(  1-C ,  2-O ) :   0.7917 B(  1-C , 23-H ) :   0.9515
B(  1-C , 24-H ) :   0.9630 B(  2-O ,  3-C ) :   1.0978 B(  3-C ,  4-O ) :   1.7773
B(  3-C ,  5-C ) :   0.9477 B(  5-C ,  6-C ) :   0.9166 B(  5-C , 25-H ) :   0.9177
B(  5-C , 26-H ) :   0.9434 B(  6-C ,  7-H ) :   0.8699 B(  6-C ,  8-C ) :   0.9674
B(  6-C , 13-S ) :   0.8162 B(  8-C ,  9-O ) :   1.7615 B(  8-C , 10-O ) :   1.1650
B( 10-O , 11-C ) :   0.7813 B( 11-C , 12-C ) :   0.9345 B( 11-C , 27-H ) :   0.9636
B( 11-C , 28-H ) :   0.9498 B( 12-C , 29-H ) :   0.9582 B( 12-C , 30-H ) :   0.9676
B( 12-C , 31-H ) :   0.9692 B( 13-S , 14-P ) :   1.0072 B( 14-P , 15-S ) :   1.7590
B( 14-P , 16-O ) :   1.1865 B( 14-P , 18-O ) :   1.0084 B( 16-O , 17-C ) :   0.7911
B( 17-C , 32-H ) :   0.9484 B( 17-C , 33-H ) :   0.9541 B( 17-C , 34-H ) :   0.9540
B( 18-O , 19-C ) :   0.8299 B( 19-C , 35-H ) :   0.9547 B( 19-C , 36-H ) :   0.9481
B( 19-C , 37-H ) :   0.9584

Dispersion correction           -0.017069262
FINAL SINGLE POINT ENERGY     -1981.464648266454

DIPOLE MOMENT
-------------

Method             : SCF
Type of density    : Electron Density
Multiplicity       :   1
Irrep              :   0
Energy             : -1981.4851461195387401 Eh
Relativity type    :
Basis              : AO
                                X                 Y                 Z
Electronic contribution:    -11.952359012       1.824015590       3.138020841
Nuclear contribution   :     12.924471178      -2.505547917      -3.705936735
                        -----------------------------------------
Total Dipole Moment    :      0.972112167      -0.681532327      -0.567915893
                        -----------------------------------------
Magnitude (a.u.)       :      1.316061108
Magnitude (Debye)      :      3.345161492

Rotational constants in cm-1:             0.011263             0.007398             0.005377
Rotational constants in MHz :           337.644905           221.773088           161.189668

                             ****ORCA TERMINATED NORMALLY****
TOTAL RUN TIME: 0 days 0 hours 1 minutes 44 seconds 223 msec
