                         Program Version 6.0.0  -   RELEASE  -
|  1> ! r2scan-3c def2/J RI DEFGRID2 scfconv6 printgap
|  2> %output
|  3>     printlevel normal
|  4> end
|  5> * xyz 0 1
|  6> C 1.15269984 -0.7802744437 -3.0403213774
|  7> C 1.7989496106 -1.3453157881 -1.7924199975
|  8> O 2.2697318632 -0.2357465088 -0.9888379968
|  9> P 2.4867094301 -0.329374142 0.5720250141
| 10> S 3.1870812662 1.3662966714 1.2481757205
| 11> O 3.4061577183 -1.6233933492 0.6680707734
| 12> C 3.6296107486 -2.4056207186 1.8579350107
| 13> C 4.0873473514 -1.5705446723 3.034753303
| 14> S 0.6540495618 -0.9962827658 1.4264493559
| 15> C -0.0926861675 0.6384597461 1.6225278743
| 16> S -0.2503240082 1.5658126618 0.0645181949
| 17> P -1.9903311237 0.6303634549 -0.7012296386
| 18> S -2.5363367243 1.2459497213 -2.4779417509
| 19> O -3.0564861687 0.7820115658 0.4794600548
| 20> C -3.7660271398 2.0161324092 0.696314816
| 21> C -5.1184935517 1.98555924 0.0110344744
| 22> O -1.6008254733 -0.89566373 -0.5729567859
| 23> C -2.2800645154 -1.9179620338 -1.3354945202
| 24> C -3.720311918 -2.074817444 -0.8986881297
| 25> H 0.2904316396 -0.1671137492 -2.7819167754
| 26> H 1.8622447661 -0.1576980203 -3.5777335173
| 27> H 0.8304845314 -1.5958769275 -3.6796932717
| 28> H 2.6627983598 -1.9666331583 -2.0355254874
| 29> H 1.0858951304 -1.929332059 -1.2017201402
| 30> H 2.7014162547 -2.9326533587 2.0952151641
| 31> H 4.396092758 -3.1200965251 1.5526777287
| 32> H 4.3168657469 -2.222462659 3.8714193186
| 33> H 4.9719301065 -0.9955342326 2.7714251278
| 34> H 3.3033430233 -0.8747140936 3.3297091857
| 35> H 0.5487068722 1.2489394199 2.2575039997
| 36> H -1.0736173895 0.4849152759 2.0651276775
| 37> H -3.8737839897 2.0931972939 1.7800747752
| 38> H -3.1607603571 2.8514356689 0.3293787056
| 39> H -5.6949377851 1.1336572085 0.3604766837
| 40> H -5.6554946543 2.9006316334 0.2389356212
| 41> H -4.9918097118 1.9099214859 -1.066808715
| 42> H -2.2234924331 -1.6536486054 -2.3959550329
| 43> H -1.6960948915 -2.8182501346 -1.1401218592
| 44> H -4.2774294844 -1.1707047897 -1.1402594695
| 45> H -4.1661675524 -2.9147666847 -1.4221331422
| 46> H -3.7716046156 -2.2459128525 0.1732923117
| 47> *
| 48>
| 49>                          ****END OF INPUT****

CARTESIAN COORDINATES (ANGSTROEM)
---------------------------------
  C      1.152700   -0.780274   -3.040321
  C      1.798950   -1.345316   -1.792420
  O      2.269732   -0.235747   -0.988838
  P      2.486709   -0.329374    0.572025
  S      3.187081    1.366297    1.248176
  O      3.406158   -1.623393    0.668071
  C      3.629611   -2.405621    1.857935
  C      4.087347   -1.570545    3.034753
  S      0.654050   -0.996283    1.426449
  C     -0.092686    0.638460    1.622528
  S     -0.250324    1.565813    0.064518
  P     -1.990331    0.630363   -0.701230
  S     -2.536337    1.245950   -2.477942
  O     -3.056486    0.782012    0.479460
  C     -3.766027    2.016132    0.696315
  C     -5.118494    1.985559    0.011034
  O     -1.600825   -0.895664   -0.572957
  C     -2.280065   -1.917962   -1.335495
  C     -3.720312   -2.074817   -0.898688
  H      0.290432   -0.167114   -2.781917
  H      1.862245   -0.157698   -3.577734
  H      0.830485   -1.595877   -3.679693
  H      2.662798   -1.966633   -2.035525
  H      1.085895   -1.929332   -1.201720
  H      2.701416   -2.932653    2.095215
  H      4.396093   -3.120097    1.552678
  H      4.316866   -2.222463    3.871419
  H      4.971930   -0.995534    2.771425
  H      3.303343   -0.874714    3.329709
  H      0.548707    1.248939    2.257504
  H     -1.073617    0.484915    2.065128
  H     -3.873784    2.093197    1.780075
  H     -3.160760    2.851436    0.329379
  H     -5.694938    1.133657    0.360477
  H     -5.655495    2.900632    0.238936
  H     -4.991810    1.909921   -1.066809
  H     -2.223492   -1.653649   -2.395955
  H     -1.696095   -2.818250   -1.140122
  H     -4.277429   -1.170705   -1.140259
  H     -4.166168   -2.914767   -1.422133
  H     -3.771605   -2.245913    0.173292

 Total Charge           Charge          ....    0
 Multiplicity           Mult            ....    1
 Number of Electrons    NEL             ....  202
 Basis Dimension        Dim             ....  539

ORBITAL ENERGIES
----------------

  NO   OCC          E(Eh)            E(eV)
   0   2.0000     -88.575592     -2410.2644
   1   2.0000     -88.575434     -2410.2601
   2   2.0000     -88.525205     -2408.8933
   3   2.0000     -88.515285     -2408.6233
   4   2.0000     -76.917344     -2093.0273
   5   2.0000     -76.912117     -2092.8851
   6   2.0000     -18.996452      -516.9197
   7   2.0000     -18.994958      -516.8791
   8   2.0000     -18.993544      -516.8406
   9   2.0000     -18.984573      -516.5965
  10   2.0000     -10.109767      -275.1007
  11   2.0000     -10.105551      -274.9860
  12   2.0000     -10.105430      -274.9827
  13   2.0000     -10.104167      -274.9484
  14   2.0000     -10.095365      -274.7088
  15   2.0000     -10.035011      -273.0665
  16   2.0000     -10.029761      -272.9237
  17   2.0000     -10.028189      -272.8809
  18   2.0000     -10.023456      -272.7521
  19   2.0000      -7.870222      -214.1596
  20   2.0000      -7.869135      -214.1300
  21   2.0000      -7.819839      -212.7886
  22   2.0000      -7.810051      -212.5223
  23   2.0000      -6.595732      -179.4790
  24   2.0000      -6.590302      -179.3312
  25   2.0000      -5.817003      -158.2887
  26   2.0000      -5.816491      -158.2748
  27   2.0000      -5.813929      -158.2051
  28   2.0000      -5.812639      -158.1700
  29   2.0000      -5.807521      -158.0307
  30   2.0000      -5.806212      -157.9951
  31   2.0000      -5.767476      -156.9410
  32   2.0000      -5.760199      -156.7430
  33   2.0000      -5.759803      -156.7322
  34   2.0000      -5.757904      -156.6805
  35   2.0000      -5.750308      -156.4738
  36   2.0000      -5.749887      -156.4624
  37   2.0000      -4.741157      -129.0134
  38   2.0000      -4.740853      -129.0052
  39   2.0000      -4.739363      -128.9646
  40   2.0000      -4.736096      -128.8757
  41   2.0000      -4.735564      -128.8612
  42   2.0000      -4.733518      -128.8056
  43   2.0000      -1.055115       -28.7111
  44   2.0000      -1.048770       -28.5385
  45   2.0000      -1.016037       -27.6478
  46   2.0000      -1.006109       -27.3776
  47   2.0000      -0.802440       -21.8355
  48   2.0000      -0.760591       -20.6967
  49   2.0000      -0.750961       -20.4347
  50   2.0000      -0.736168       -20.0321
  51   2.0000      -0.732107       -19.9216
  52   2.0000      -0.712229       -19.3807
  53   2.0000      -0.689712       -18.7680
  54   2.0000      -0.669800       -18.2262
  55   2.0000      -0.632828       -17.2201
  56   2.0000      -0.620226       -16.8772
  57   2.0000      -0.607694       -16.5362
  58   2.0000      -0.600601       -16.3432
  59   2.0000      -0.597558       -16.2604
  60   2.0000      -0.533004       -14.5038
  61   2.0000      -0.526350       -14.3227
  62   2.0000      -0.500424       -13.6172
  63   2.0000      -0.492236       -13.3944
  64   2.0000      -0.481582       -13.1045
  65   2.0000      -0.466047       -12.6818
  66   2.0000      -0.460995       -12.5443
  67   2.0000      -0.451141       -12.2762
  68   2.0000      -0.447513       -12.1774
  69   2.0000      -0.436239       -11.8707
  70   2.0000      -0.427658       -11.6372
  71   2.0000      -0.424964       -11.5638
  72   2.0000      -0.414944       -11.2912
  73   2.0000      -0.404823       -11.0158
  74   2.0000      -0.399136       -10.8610
  75   2.0000      -0.384125       -10.4526
  76   2.0000      -0.381326       -10.3764
  77   2.0000      -0.374847       -10.2001
  78   2.0000      -0.369245       -10.0477
  79   2.0000      -0.364232        -9.9112
  80   2.0000      -0.361359        -9.8331
  81   2.0000      -0.361104        -9.8261
  82   2.0000      -0.356129        -9.6908
  83   2.0000      -0.351282        -9.5589
  84   2.0000      -0.347461        -9.4549
  85   2.0000      -0.338400        -9.2083
  86   2.0000      -0.327593        -8.9142
  87   2.0000      -0.314086        -8.5467
  88   2.0000      -0.312340        -8.4992
  89   2.0000      -0.311890        -8.4870
  90   2.0000      -0.307770        -8.3748
  91   2.0000      -0.295905        -8.0520
  92   2.0000      -0.287511        -7.8236
  93   2.0000      -0.281194        -7.6517
  94   2.0000      -0.270664        -7.3651
  95   2.0000      -0.245066        -6.6686
  96   2.0000      -0.232942        -6.3387
  97   2.0000      -0.223780        -6.0894
  98   2.0000      -0.218877        -5.9559
  99   2.0000      -0.212890        -5.7930
 100   2.0000      -0.209933        -5.7126
 101   0.0000      -0.043881        -1.1941
 102   0.0000      -0.021987        -0.5983
 103   0.0000      -0.010641        -0.2895
 104   0.0000       0.001700         0.0463
 105   0.0000       0.007019         0.1910

MULLIKEN ATOMIC CHARGES
-----------------------
   0 C :   -0.462234
   1 C :   -0.113289
   2 O :   -0.263380
   3 P :    0.663039
   4 S :   -0.424807
   5 O :   -0.292058
   6 C :   -0.157759
   7 C :   -0.429812
   8 S :   -0.176111
   9 C :   -0.255524
  10 S :   -0.104002
  11 P :    0.641413
  12 S :   -0.455688
  13 O :   -0.300125
  14 C :   -0.125924
  15 C :   -0.461534
  16 O :   -0.254713
  17 C :   -0.158041
  18 C :   -0.446401
  19 H :    0.183321
  20 H :    0.156857
  21 H :    0.141110
  22 H :    0.152848
  23 H :    0.152937
  24 H :    0.149960
  25 H :    0.149969
  26 H :    0.145963
  27 H :    0.166729
  28 H :    0.168033
  29 H :    0.217396
  30 H :    0.198447
  31 H :    0.147284
  32 H :    0.158530
  33 H :    0.150526
  34 H :    0.146626
  35 H :    0.184120
  36 H :    0.176336
  37 H :    0.152699
  38 H :    0.170286
  39 H :    0.148622
  40 H :    0.158351
Sum of atomic charges:   -0.0000000

LOEWDIN ATOMIC CHARGES
----------------------
   0 C :   -0.389903
   1 C :    0.021540
   2 O :   -0.654809
   3 P :    0.373041
   4 S :   -0.094020
   5 O :   -0.662570
   6 C :    0.023230
   7 C :   -0.406756
   8 S :    0.142301
   9 C :   -0.414166
  10 S :    0.193774
  11 P :    0.363105
  12 S :   -0.111635
  13 O :   -0.686315
  14 C :    0.021246
  15 C :   -0.402091
  16 O :   -0.690528
  17 C :    0.020484
  18 C :   -0.397899
  19 H :    0.170406
  20 H :    0.163304
  21 H :    0.158048
  22 H :    0.172785
  23 H :    0.174328
  24 H :    0.170542
  25 H :    0.181291
  26 H :    0.157943
  27 H :    0.166330
  28 H :    0.166341
  29 H :    0.193000
  30 H :    0.188026
  31 H :    0.176927
  32 H :    0.178302
  33 H :    0.156973
  34 H :    0.159253
  35 H :    0.168934
  36 H :    0.181078
  37 H :    0.179640
  38 H :    0.166560
  39 H :    0.160186
  40 H :    0.161774

  Mayer bond orders larger than 0.100000
B(  0-C ,  1-C ) :   0.9406 B(  0-C , 19-H ) :   0.9618 B(  0-C , 20-H ) :   0.9671
B(  0-C , 21-H ) :   0.9678 B(  1-C ,  2-O ) :   0.7358 B(  1-C , 22-H ) :   0.9439
B(  1-C , 23-H ) :   0.9571 B(  2-O ,  3-P ) :   1.1634 B(  3-P ,  4-S ) :   1.8564
B(  3-P ,  5-O ) :   1.0355 B(  3-P ,  8-S ) :   0.9807 B(  5-O ,  6-C ) :   0.8050
B(  6-C ,  7-C ) :   0.9418 B(  6-C , 24-H ) :   0.9626 B(  6-C , 25-H ) :   0.9584
B(  7-C , 26-H ) :   0.9621 B(  7-C , 27-H ) :   0.9651 B(  7-C , 28-H ) :   0.9554
B(  8-S ,  9-C ) :   0.9204 B(  9-C , 10-S ) :   0.9110 B(  9-C , 29-H ) :   0.9136
B(  9-C , 30-H ) :   0.9174 B( 10-S , 11-P ) :   1.0930 B( 11-P , 12-S ) :   1.7979
B( 11-P , 13-O ) :   1.0143 B( 11-P , 16-O ) :   1.1324 B( 13-O , 14-C ) :   0.7852
B( 14-C , 15-C ) :   0.9486 B( 14-C , 31-H ) :   0.9623 B( 14-C , 32-H ) :   0.9647
B( 15-C , 33-H ) :   0.9747 B( 15-C , 34-H ) :   0.9629 B( 15-C , 35-H ) :   0.9588
B( 16-O , 17-C ) :   0.7837 B( 17-C , 18-C ) :   0.9270 B( 17-C , 36-H ) :   0.9588
B( 17-C , 37-H ) :   0.9591 B( 18-C , 38-H ) :   0.9595 B( 18-C , 39-H ) :   0.9606
B( 18-C , 40-H ) :   0.9724

Dispersion correction           -0.021936977
FINAL SINGLE POINT ENERGY     -2932.460023691940

DIPOLE MOMENT
-------------

Method             : SCF
Type of density    : Electron Density
Multiplicity       :   1
Irrep              :   0
Energy             : -2932.4843913300596796 Eh
Relativity type    :
Basis              : AO
                                X                 Y                 Z
Electronic contribution:     12.128949029      11.758634120       0.375063283
Nuclear contribution   :    -13.232148982     -13.658538836       0.461414464
                        -----------------------------------------
Total Dipole Moment    :     -1.103199953      -1.899904715       0.836477747
                        -----------------------------------------
Magnitude (a.u.)       :      2.350826043
Magnitude (Debye)      :      5.975324934

Rotational constants in cm-1:             0.013763             0.004723             0.004483
Rotational constants in MHz :           412.594599           141.577728           134.388983

                             ****ORCA TERMINATED NORMALLY****
TOTAL RUN TIME: 0 days 0 hours 1 minutes 20 seconds 801 msec
