                         Program Version 6.0.0  -   RELEASE  -
|  1> ! r2scan-3c def2/J RI DEFGRID2 scfconv6 printgap
|  2> %output
|  3>     printlevel normal
|  4> end
|  5> %cpcm
|  6>     smd true
|  7>     smdsolvent "water"
|  8> end
|  9> * xyz 0 1
| 10> C 1.15269984 -0.7802744437 -3.0403213774
| 11> C 1.7989496106 -1.3453157881 -1.7924199975
| 12> O 2.2697318632 -0.2357465088 -0.9888379968
| 13> P 2.4867094301 -0.329374142 0.5720250141
| 14> S 3.1870812662 1.3662966714 1.2481757205
| 15> O 3.4061577183 -1.6233933492 0.6680707734
| 16> C 3.6296107486 -2.4056207186 1.8579350107
| 17> C 4.0873473514 -1.5705446723 3.034753303
| 18> S 0.6540495618 -0.9962827658 1.4264493559
| 19> C -0.0926861675 0.6384597461 1.6225278743
| 20> S -0.2503240082 1.5658126618 0.0645181949
| 21> P -1.9903311237 0.6303634549 -0.7012296386
| 22> S -2.5363367243 1.2459497213 -2.4779417509
| 23> O -3.0564861687 0.7820115658 0.4794600548
| 24> C -3.7660271398 2.0161324092 0.696314816
| 25> C -5.1184935517 1.98555924 0.0110344744
| 26> O -1.6008254733 -0.89566373 -0.5729567859
| 27> C -2.2800645154 -1.9179620338 -1.3354945202
| 28> C -3.720311918 -2.074817444 -0.8986881297
| 29> H 0.2904316396 -0.1671137492 -2.7819167754
| 30> H 1.8622447661 -0.1576980203 -3.5777335173
| 31> H 0.8304845314 -1.5958769275 -3.6796932717
| 32> H 2.6627983598 -1.9666331583 -2.0355254874
| 33> H 1.0858951304 -1.929332059 -1.2017201402
| 34> H 2.7014162547 -2.9326533587 2.0952151641
| 35> H 4.396092758 -3.1200965251 1.5526777287
| 36> H 4.3168657469 -2.222462659 3.8714193186
| 37> H 4.9719301065 -0.9955342326 2.7714251278
| 38> H 3.3033430233 -0.8747140936 3.3297091857
| 39> H 0.5487068722 1.2489394199 2.2575039997
| 40> H -1.0736173895 0.4849152759 2.0651276775
| 41> H -3.8737839897 2.0931972939 1.7800747752
| 42> H -3.1607603571 2.8514356689 0.3293787056
| 43> H -5.6949377851 1.1336572085 0.3604766837
| 44> H -5.6554946543 2.9006316334 0.2389356212
| 45> H -4.9918097118 1.9099214859 -1.066808715
| 46> H -2.2234924331 -1.6536486054 -2.3959550329
| 47> H -1.6960948915 -2.8182501346 -1.1401218592
| 48> H -4.2774294844 -1.1707047897 -1.1402594695
| 49> H -4.1661675524 -2.9147666847 -1.4221331422
| 50> H -3.7716046156 -2.2459128525 0.1732923117
| 51> *
| 52>
| 53>                          ****END OF INPUT****

CARTESIAN COORDINATES (ANGSTROEM)
---------------------------------
  C      1.152700   -0.780274   -3.040321
  C      1.798950   -1.345316   -1.792420
  O      2.269732   -0.235747   -0.988838
  P      2.486709   -0.329374    0.572025
  S      3.187081    1.366297    1.248176
  O      3.406158   -1.623393    0.668071
  C      3.629611   -2.405621    1.857935
  C      4.087347   -1.570545    3.034753
  S      0.654050   -0.996283    1.426449
  C     -0.092686    0.638460    1.622528
  S     -0.250324    1.565813    0.064518
  P     -1.990331    0.630363   -0.701230
  S     -2.536337    1.245950   -2.477942
  O     -3.056486    0.782012    0.479460
  C     -3.766027    2.016132    0.696315
  C     -5.118494    1.985559    0.011034
  O     -1.600825   -0.895664   -0.572957
  C     -2.280065   -1.917962   -1.335495
  C     -3.720312   -2.074817   -0.898688
  H      0.290432   -0.167114   -2.781917
  H      1.862245   -0.157698   -3.577734
  H      0.830485   -1.595877   -3.679693
  H      2.662798   -1.966633   -2.035525
  H      1.085895   -1.929332   -1.201720
  H      2.701416   -2.932653    2.095215
  H      4.396093   -3.120097    1.552678
  H      4.316866   -2.222463    3.871419
  H      4.971930   -0.995534    2.771425
  H      3.303343   -0.874714    3.329709
  H      0.548707    1.248939    2.257504
  H     -1.073617    0.484915    2.065128
  H     -3.873784    2.093197    1.780075
  H     -3.160760    2.851436    0.329379
  H     -5.694938    1.133657    0.360477
  H     -5.655495    2.900632    0.238936
  H     -4.991810    1.909921   -1.066809
  H     -2.223492   -1.653649   -2.395955
  H     -1.696095   -2.818250   -1.140122
  H     -4.277429   -1.170705   -1.140259
  H     -4.166168   -2.914767   -1.422133
  H     -3.771605   -2.245913    0.173292

 Total Charge           Charge          ....    0
 Multiplicity           Mult            ....    1
 Number of Electrons    NEL             ....  202
 Basis Dimension        Dim             ....  539

ORBITAL ENERGIES
----------------

  NO   OCC          E(Eh)            E(eV)
   0   2.0000     -88.578449     -2410.3421
   1   2.0000     -88.577210     -2410.3084
   2   2.0000     -88.530019     -2409.0243
   3   2.0000     -88.527113     -2408.9452
   4   2.0000     -76.919364     -2093.0823
   5   2.0000     -76.919302     -2093.0806
   6   2.0000     -18.995410      -516.8914
   7   2.0000     -18.993118      -516.8290
   8   2.0000     -18.992315      -516.8072
   9   2.0000     -18.991594      -516.7876
  10   2.0000     -10.105976      -274.9976
  11   2.0000     -10.093118      -274.6477
  12   2.0000     -10.090679      -274.5813
  13   2.0000     -10.090396      -274.5736
  14   2.0000     -10.089966      -274.5619
  15   2.0000     -10.019059      -272.6324
  16   2.0000     -10.018784      -272.6250
  17   2.0000     -10.018646      -272.6212
  18   2.0000     -10.016402      -272.5602
  19   2.0000      -7.872400      -214.2189
  20   2.0000      -7.871670      -214.1990
  21   2.0000      -7.825017      -212.9295
  22   2.0000      -7.822294      -212.8554
  23   2.0000      -6.597660      -179.5315
  24   2.0000      -6.597625      -179.5305
  25   2.0000      -5.819674      -158.3614
  26   2.0000      -5.818498      -158.3294
  27   2.0000      -5.815862      -158.2576
  28   2.0000      -5.815413      -158.2454
  29   2.0000      -5.809589      -158.0870
  30   2.0000      -5.808914      -158.0686
  31   2.0000      -5.772568      -157.0796
  32   2.0000      -5.770003      -157.0098
  33   2.0000      -5.765383      -156.8840
  34   2.0000      -5.764994      -156.8735
  35   2.0000      -5.762543      -156.8068
  36   2.0000      -5.762202      -156.7975
  37   2.0000      -4.743373      -129.0737
  38   2.0000      -4.742998      -129.0635
  39   2.0000      -4.742818      -129.0586
  40   2.0000      -4.742758      -129.0570
  41   2.0000      -4.741452      -129.0215
  42   2.0000      -4.740985      -129.0088
  43   2.0000      -1.052675       -28.6448
  44   2.0000      -1.051611       -28.6158
  45   2.0000      -1.011823       -27.5331
  46   2.0000      -1.009891       -27.4805
  47   2.0000      -0.802104       -21.8264
  48   2.0000      -0.756171       -20.5765
  49   2.0000      -0.744845       -20.2683
  50   2.0000      -0.725321       -19.7370
  51   2.0000      -0.723084       -19.6761
  52   2.0000      -0.710045       -19.3213
  53   2.0000      -0.692918       -18.8553
  54   2.0000      -0.675133       -18.3713
  55   2.0000      -0.625577       -17.0228
  56   2.0000      -0.617704       -16.8086
  57   2.0000      -0.600476       -16.3398
  58   2.0000      -0.597108       -16.2481
  59   2.0000      -0.592696       -16.1281
  60   2.0000      -0.528560       -14.3829
  61   2.0000      -0.520555       -14.1650
  62   2.0000      -0.491830       -13.3834
  63   2.0000      -0.489138       -13.3101
  64   2.0000      -0.477739       -12.9999
  65   2.0000      -0.460224       -12.5233
  66   2.0000      -0.452326       -12.3084
  67   2.0000      -0.445458       -12.1215
  68   2.0000      -0.441357       -12.0099
  69   2.0000      -0.433422       -11.7940
  70   2.0000      -0.423977       -11.5370
  71   2.0000      -0.416586       -11.3359
  72   2.0000      -0.408978       -11.1289
  73   2.0000      -0.399389       -10.8679
  74   2.0000      -0.395629       -10.7656
  75   2.0000      -0.382456       -10.4072
  76   2.0000      -0.372775       -10.1437
  77   2.0000      -0.371022       -10.0960
  78   2.0000      -0.360608        -9.8126
  79   2.0000      -0.358923        -9.7668
  80   2.0000      -0.354878        -9.6567
  81   2.0000      -0.353158        -9.6099
  82   2.0000      -0.347604        -9.4588
  83   2.0000      -0.347213        -9.4481
  84   2.0000      -0.341827        -9.3016
  85   2.0000      -0.336038        -9.1441
  86   2.0000      -0.323111        -8.7923
  87   2.0000      -0.311185        -8.4678
  88   2.0000      -0.308164        -8.3856
  89   2.0000      -0.304920        -8.2973
  90   2.0000      -0.303740        -8.2652
  91   2.0000      -0.289898        -7.8885
  92   2.0000      -0.286471        -7.7953
  93   2.0000      -0.279158        -7.5963
  94   2.0000      -0.271761        -7.3950
  95   2.0000      -0.248039        -6.7495
  96   2.0000      -0.237916        -6.4740
  97   2.0000      -0.230425        -6.2702
  98   2.0000      -0.226151        -6.1539
  99   2.0000      -0.221536        -6.0283
 100   2.0000      -0.221104        -6.0166
 101   0.0000      -0.047083        -1.2812
 102   0.0000      -0.026043        -0.7087
 103   0.0000      -0.014576        -0.3966
 104   0.0000      -0.001849        -0.0503
 105   0.0000       0.006989         0.1902

MULLIKEN ATOMIC CHARGES
-----------------------
   0 C :   -0.506511
   1 C :   -0.105653
   2 O :   -0.296220
   3 P :    0.675018
   4 S :   -0.491167
   5 O :   -0.316054
   6 C :   -0.157862
   7 C :   -0.467626
   8 S :   -0.163956
   9 C :   -0.256750
  10 S :   -0.155188
  11 P :    0.687960
  12 S :   -0.517008
  13 O :   -0.313487
  14 C :   -0.126261
  15 C :   -0.493032
  16 O :   -0.274651
  17 C :   -0.150955
  18 C :   -0.486574
  19 H :    0.170884
  20 H :    0.167987
  21 H :    0.172648
  22 H :    0.174295
  23 H :    0.173555
  24 H :    0.172397
  25 H :    0.177071
  26 H :    0.173626
  27 H :    0.170443
  28 H :    0.164923
  29 H :    0.234617
  30 H :    0.238223
  31 H :    0.176116
  32 H :    0.164910
  33 H :    0.166395
  34 H :    0.168959
  35 H :    0.172690
  36 H :    0.179999
  37 H :    0.181599
  38 H :    0.169117
  39 H :    0.173258
  40 H :    0.172266
Sum of atomic charges:   -0.0000000

LOEWDIN ATOMIC CHARGES
----------------------
   0 C :   -0.395902
   1 C :    0.028573
   2 O :   -0.680817
   3 P :    0.375119
   4 S :   -0.144483
   5 O :   -0.672126
   6 C :    0.030650
   7 C :   -0.410145
   8 S :    0.158423
   9 C :   -0.403439
  10 S :    0.164806
  11 P :    0.371180
  12 S :   -0.151008
  13 O :   -0.688866
  14 C :    0.026455
  15 C :   -0.405949
  16 O :   -0.694218
  17 C :    0.027616
  18 C :   -0.401519
  19 H :    0.163800
  20 H :    0.164240
  21 H :    0.170438
  22 H :    0.182557
  23 H :    0.182693
  24 H :    0.179378
  25 H :    0.192891
  26 H :    0.168554
  27 H :    0.164236
  28 H :    0.161993
  29 H :    0.198935
  30 H :    0.202834
  31 H :    0.189062
  32 H :    0.180233
  33 H :    0.162008
  34 H :    0.167114
  35 H :    0.162760
  36 H :    0.182636
  37 H :    0.191445
  38 H :    0.163567
  39 H :    0.169265
  40 H :    0.165013

  Mayer bond orders larger than 0.100000
B(  0-C ,  1-C ) :   0.9295 B(  0-C , 19-H ) :   0.9662 B(  0-C , 20-H ) :   0.9666
B(  0-C , 21-H ) :   0.9602 B(  1-C ,  2-O ) :   0.7288 B(  1-C , 22-H ) :   0.9354
B(  1-C , 23-H ) :   0.9482 B(  2-O ,  3-P ) :   1.1649 B(  3-P ,  4-S ) :   1.8212
B(  3-P ,  5-O ) :   1.0525 B(  3-P ,  8-S ) :   1.0052 B(  5-O ,  6-C ) :   0.7937
B(  6-C ,  7-C ) :   0.9207 B(  6-C , 24-H ) :   0.9576 B(  6-C , 25-H ) :   0.9489
B(  7-C , 26-H ) :   0.9559 B(  7-C , 27-H ) :   0.9664 B(  7-C , 28-H ) :   0.9582
B(  8-S ,  9-C ) :   0.9100 B(  9-C , 10-S ) :   0.9035 B(  9-C , 29-H ) :   0.9067
B(  9-C , 30-H ) :   0.9057 B( 10-S , 11-P ) :   1.0919 B( 11-P , 12-S ) :   1.7482
B( 11-P , 13-O ) :   1.0306 B( 11-P , 16-O ) :   1.1500 B( 13-O , 14-C ) :   0.7703
B( 14-C , 15-C ) :   0.9402 B( 14-C , 31-H ) :   0.9531 B( 14-C , 32-H ) :   0.9605
B( 15-C , 33-H ) :   0.9710 B( 15-C , 34-H ) :   0.9589 B( 15-C , 35-H ) :   0.9626
B( 16-O , 17-C ) :   0.7724 B( 17-C , 18-C ) :   0.9109 B( 17-C , 36-H ) :   0.9559
B( 17-C , 37-H ) :   0.9498 B( 18-C , 38-H ) :   0.9591 B( 18-C , 39-H ) :   0.9551
B( 18-C , 40-H ) :   0.9706

Dispersion correction           -0.021936977
FINAL SINGLE POINT ENERGY     -2932.472199092451

DIPOLE MOMENT
-------------

Method             : SCF
Type of density    : Electron Density
Multiplicity       :   1
Irrep              :   0
Energy             : -2932.4965667305709758 Eh
Relativity type    :
Basis              : AO
                                X                 Y                 Z
Electronic contribution:     11.654408470      10.780269002       0.918941067
Nuclear contribution   :    -13.232148982     -13.658538836       0.461414464
                        -----------------------------------------
Total Dipole Moment    :     -1.577740512      -2.878269833       1.380355531
                        -----------------------------------------
Magnitude (a.u.)       :      3.560770106
Magnitude (Debye)      :      9.050758334

Rotational constants in cm-1:             0.013763             0.004723             0.004483
Rotational constants in MHz :           412.594599           141.577728           134.388983

                             ****ORCA TERMINATED NORMALLY****
TOTAL RUN TIME: 0 days 0 hours 1 minutes 51 seconds 727 msec
