                         Program Version 6.0.0  -   RELEASE  -
|  1> ! pbe def2-sv(p) def2/J RI DEFGRID1 loosescf d4 GCP(DFT/SV(P)) printgap
|  2> %output
|  3>     printlevel normal
|  4> end
|  5> * xyz 0 1
|  6> C 4.3124452508 -2.4833533504 0.0890395577
|  7> C 4.7357331668 -1.0291938418 0.1339970878
|  8> O 3.6826131458 -0.172827282 0.6087136949
|  9> P 2.3585249267 0.0954840658 -0.2284893406
| 10> S 2.6161075851 0.2801201081 -2.1677622394
| 11> O 1.7558998607 1.3532433756 0.5246258769
| 12> C 1.9985582854 2.703918659 0.0870428923
| 13> C 3.4430105412 3.1086834992 0.2930257304
| 14> S 1.0063205641 -1.38488539 0.4260459005
| 15> C -0.1913821637 -1.1618691487 -0.9161048717
| 16> S -1.0315574775 0.4511536043 -0.8916912591
| 17> P -2.6720145893 -0.1134357659 0.3459172155
| 18> S -3.9887820671 1.2791753881 0.7405867159
| 19> O -1.9985448671 -0.8380753637 1.5870355406
| 20> C -1.8244978952 -0.1748846975 2.8515651182
| 21> C -0.832813064 0.96854317 2.7728023464
| 22> O -3.2390535663 -1.4305615068 -0.3423034695
| 23> C -4.3147454516 -1.3767999414 -1.296144763
| 24> C -3.8835891726 -0.762473859 -2.6134441549
| 25> H 5.1712336041 -3.1002335015 -0.1556095119
| 26> H 3.9089011117 -2.7894732755 1.0509387938
| 27> H 3.5474585261 -2.6252337377 -0.6732517882
| 28> H 5.0378571794 -0.6867356635 -0.8610252709
| 29> H 5.5464925605 -0.8666297677 0.8453738839
| 30> H 1.7171940071 2.7814283027 -0.9682534966
| 31> H 1.3172867846 3.3029716612 0.692752346
| 32> H 3.7348747116 2.9440552978 1.3269075816
| 33> H 4.0888282513 2.5164343749 -0.354426347
| 34> H 3.5621597653 4.1585925972 0.0446344479
| 35> H -0.9261446364 -1.9569618547 -0.8170380368
| 36> H 0.3336630595 -1.2140969699 -1.8696626662
| 37> H -2.7997732241 0.1922117108 3.1863755719
| 38> H -1.4746745114 -0.9669857029 3.514799415
| 39> H -0.7138085686 1.4088591798 3.7576210778
| 40> H 0.1339025438 0.6187645793 2.4183660431
| 41> H -1.2041230436 1.7312884144 2.0874645933
| 42> H -4.6119808575 -2.4197103009 -1.4150467988
| 43> H -5.1380798605 -0.803537337 -0.8584190064
| 44> H -3.0259681311 -1.291460591 -3.0216003364
| 45> H -4.7063652181 -0.8173122179 -3.3191262269
| 46> H -3.6150404079 0.2833822733 -2.466553181
| 47> *
| 48>
| 49>                          ****END OF INPUT****

CARTESIAN COORDINATES (ANGSTROEM)
---------------------------------
  C      4.312445   -2.483353    0.089040
  C      4.735733   -1.029194    0.133997
  O      3.682613   -0.172827    0.608714
  P      2.358525    0.095484   -0.228489
  S      2.616108    0.280120   -2.167762
  O      1.755900    1.353243    0.524626
  C      1.998558    2.703919    0.087043
  C      3.443011    3.108683    0.293026
  S      1.006321   -1.384885    0.426046
  C     -0.191382   -1.161869   -0.916105
  S     -1.031557    0.451154   -0.891691
  P     -2.672015   -0.113436    0.345917
  S     -3.988782    1.279175    0.740587
  O     -1.998545   -0.838075    1.587036
  C     -1.824498   -0.174885    2.851565
  C     -0.832813    0.968543    2.772802
  O     -3.239054   -1.430562   -0.342303
  C     -4.314745   -1.376800   -1.296145
  C     -3.883589   -0.762474   -2.613444
  H      5.171234   -3.100234   -0.155610
  H      3.908901   -2.789473    1.050939
  H      3.547459   -2.625234   -0.673252
  H      5.037857   -0.686736   -0.861025
  H      5.546493   -0.866630    0.845374
  H      1.717194    2.781428   -0.968253
  H      1.317287    3.302972    0.692752
  H      3.734875    2.944055    1.326908
  H      4.088828    2.516434   -0.354426
  H      3.562160    4.158593    0.044634
  H     -0.926145   -1.956962   -0.817038
  H      0.333663   -1.214097   -1.869663
  H     -2.799773    0.192212    3.186376
  H     -1.474675   -0.966986    3.514799
  H     -0.713809    1.408859    3.757621
  H      0.133903    0.618765    2.418366
  H     -1.204123    1.731288    2.087465
  H     -4.611981   -2.419710   -1.415047
  H     -5.138080   -0.803537   -0.858419
  H     -3.025968   -1.291461   -3.021600
  H     -4.706365   -0.817312   -3.319126
  H     -3.615040    0.283382   -2.466553

 Total Charge           Charge          ....    0
 Multiplicity           Mult            ....    1
 Number of Electrons    NEL             ....  202
 Basis Dimension        Dim             ....  334

ORBITAL ENERGIES
----------------

  NO   OCC          E(Eh)            E(eV)
   0   2.0000     -88.045940     -2395.8518
   1   2.0000     -88.041206     -2395.7230
   2   2.0000     -87.995571     -2394.4812
   3   2.0000     -87.989537     -2394.3170
   4   2.0000     -76.431224     -2079.7993
   5   2.0000     -76.426216     -2079.6631
   6   2.0000     -18.799364      -511.5567
   7   2.0000     -18.793364      -511.3934
   8   2.0000     -18.791802      -511.3509
   9   2.0000     -18.787488      -511.2335
  10   2.0000      -9.957447      -270.9559
  11   2.0000      -9.957180      -270.9487
  12   2.0000      -9.952691      -270.8265
  13   2.0000      -9.951957      -270.8065
  14   2.0000      -9.947665      -270.6897
  15   2.0000      -9.888380      -269.0765
  16   2.0000      -9.885209      -268.9902
  17   2.0000      -9.883845      -268.9531
  18   2.0000      -9.872961      -268.6569
  19   2.0000      -7.691110      -209.2857
  20   2.0000      -7.685946      -209.1452
  21   2.0000      -7.640393      -207.9057
  22   2.0000      -7.634667      -207.7499
  23   2.0000      -6.428847      -174.9378
  24   2.0000      -6.423672      -174.7970
  25   2.0000      -5.718866      -155.6183
  26   2.0000      -5.715774      -155.5341
  27   2.0000      -5.714068      -155.4877
  28   2.0000      -5.710393      -155.3877
  29   2.0000      -5.707978      -155.3220
  30   2.0000      -5.702799      -155.1811
  31   2.0000      -5.669148      -154.2654
  32   2.0000      -5.663612      -154.1147
  33   2.0000      -5.661054      -154.0451
  34   2.0000      -5.660734      -154.0364
  35   2.0000      -5.655160      -153.8847
  36   2.0000      -5.654949      -153.8790
  37   2.0000      -4.651221      -126.5662
  38   2.0000      -4.650571      -126.5485
  39   2.0000      -4.649502      -126.5194
  40   2.0000      -4.645946      -126.4226
  41   2.0000      -4.645883      -126.4209
  42   2.0000      -4.644003      -126.3698
  43   2.0000      -0.991626       -26.9835
  44   2.0000      -0.987208       -26.8633
  45   2.0000      -0.950632       -25.8680
  46   2.0000      -0.943953       -25.6863
  47   2.0000      -0.765257       -20.8237
  48   2.0000      -0.722100       -19.6493
  49   2.0000      -0.708696       -19.2846
  50   2.0000      -0.690216       -18.7817
  51   2.0000      -0.680664       -18.5218
  52   2.0000      -0.676386       -18.4054
  53   2.0000      -0.657925       -17.9031
  54   2.0000      -0.641732       -17.4624
  55   2.0000      -0.605698       -16.4819
  56   2.0000      -0.595942       -16.2164
  57   2.0000      -0.575656       -15.6644
  58   2.0000      -0.568003       -15.4561
  59   2.0000      -0.561562       -15.2809
  60   2.0000      -0.496764       -13.5176
  61   2.0000      -0.493179       -13.4201
  62   2.0000      -0.477705       -12.9990
  63   2.0000      -0.464027       -12.6268
  64   2.0000      -0.461263       -12.5516
  65   2.0000      -0.444286       -12.0896
  66   2.0000      -0.443756       -12.0752
  67   2.0000      -0.441592       -12.0163
  68   2.0000      -0.422715       -11.5027
  69   2.0000      -0.420340       -11.4380
  70   2.0000      -0.410175       -11.1614
  71   2.0000      -0.396593       -10.7918
  72   2.0000      -0.396080       -10.7779
  73   2.0000      -0.392516       -10.6809
  74   2.0000      -0.387780       -10.5520
  75   2.0000      -0.379304       -10.3214
  76   2.0000      -0.369258       -10.0480
  77   2.0000      -0.359951        -9.7948
  78   2.0000      -0.353276        -9.6131
  79   2.0000      -0.351189        -9.5563
  80   2.0000      -0.347308        -9.4507
  81   2.0000      -0.345392        -9.3986
  82   2.0000      -0.342167        -9.3108
  83   2.0000      -0.334277        -9.0961
  84   2.0000      -0.331641        -9.0244
  85   2.0000      -0.320266        -8.7149
  86   2.0000      -0.316499        -8.6124
  87   2.0000      -0.301222        -8.1967
  88   2.0000      -0.299045        -8.1374
  89   2.0000      -0.287718        -7.8292
  90   2.0000      -0.284988        -7.7549
  91   2.0000      -0.278016        -7.5652
  92   2.0000      -0.270076        -7.3491
  93   2.0000      -0.266416        -7.2496
  94   2.0000      -0.257248        -7.0001
  95   2.0000      -0.231818        -6.3081
  96   2.0000      -0.218583        -5.9479
  97   2.0000      -0.214969        -5.8496
  98   2.0000      -0.209821        -5.7095
  99   2.0000      -0.207624        -5.6497
 100   2.0000      -0.206041        -5.6067
 101   0.0000      -0.043580        -1.1859
 102   0.0000      -0.028123        -0.7653
 103   0.0000      -0.013052        -0.3552
 104   0.0000       0.003896         0.1060
 105   0.0000       0.008142         0.2216

MULLIKEN ATOMIC CHARGES
-----------------------
   0 C :   -0.316212
   1 C :   -0.005490
   2 O :   -0.370694
   3 P :    0.609899
   4 S :   -0.333750
   5 O :   -0.354160
   6 C :   -0.002829
   7 C :   -0.307802
   8 S :   -0.064752
   9 C :   -0.371141
  10 S :   -0.061697
  11 P :    0.577589
  12 S :   -0.316196
  13 O :   -0.368724
  14 C :    0.005948
  15 C :   -0.334818
  16 O :   -0.368875
  17 C :   -0.004189
  18 C :   -0.311969
  19 H :    0.115097
  20 H :    0.119372
  21 H :    0.126658
  22 H :    0.112081
  23 H :    0.107817
  24 H :    0.114007
  25 H :    0.110654
  26 H :    0.117144
  27 H :    0.121080
  28 H :    0.113757
  29 H :    0.193350
  30 H :    0.194603
  31 H :    0.108962
  32 H :    0.103609
  33 H :    0.104657
  34 H :    0.140581
  35 H :    0.120582
  36 H :    0.106376
  37 H :    0.113766
  38 H :    0.113646
  39 H :    0.113009
  40 H :    0.129058
Sum of atomic charges:   -0.0000000

LOEWDIN ATOMIC CHARGES
----------------------
   0 C :   -0.369363
   1 C :   -0.118741
   2 O :   -0.242607
   3 P :    0.572818
   4 S :   -0.321076
   5 O :   -0.231900
   6 C :   -0.116465
   7 C :   -0.364702
   8 S :    0.105405
   9 C :   -0.483924
  10 S :    0.088587
  11 P :    0.572918
  12 S :   -0.316169
  13 O :   -0.242245
  14 C :   -0.115403
  15 C :   -0.375880
  16 O :   -0.242917
  17 C :   -0.118792
  18 C :   -0.367749
  19 H :    0.132114
  20 H :    0.125105
  21 H :    0.121132
  22 H :    0.111066
  23 H :    0.119929
  24 H :    0.111540
  25 H :    0.121035
  26 H :    0.126586
  27 H :    0.121624
  28 H :    0.131193
  29 H :    0.134530
  30 H :    0.130441
  31 H :    0.109677
  32 H :    0.118898
  33 H :    0.127696
  34 H :    0.120209
  35 H :    0.118602
  36 H :    0.118814
  37 H :    0.111356
  38 H :    0.123271
  39 H :    0.130926
  40 H :    0.122460

  Mayer bond orders larger than 0.100000
B(  0-C ,  1-C ) :   1.1662 B(  0-C , 19-H ) :   0.9377 B(  0-C , 20-H ) :   0.9446
B(  0-C , 21-H ) :   0.9356 B(  1-C ,  2-O ) :   0.9071 B(  1-C , 22-H ) :   0.9166
B(  1-C , 23-H ) :   0.9337 B(  2-O ,  3-P ) :   1.1123 B(  3-P ,  4-S ) :   1.5850
B(  3-P ,  5-O ) :   1.1266 B(  3-P ,  8-S ) :   0.9673 B(  4-S ,  8-S ) :   0.1096
B(  5-O ,  6-C ) :   0.9025 B(  6-C ,  7-C ) :   1.1629 B(  6-C , 24-H ) :   0.9179
B(  6-C , 25-H ) :   0.9332 B(  7-C , 26-H ) :   0.9460 B(  7-C , 27-H ) :   0.9368
B(  7-C , 28-H ) :   0.9393 B(  8-S ,  9-C ) :   0.9983 B(  9-C , 10-S ) :   0.9833
B(  9-C , 29-H ) :   0.8865 B(  9-C , 30-H ) :   0.8786 B( 10-S , 11-P ) :   0.9749
B( 11-P , 12-S ) :   1.6306 B( 11-P , 13-O ) :   1.1090 B( 11-P , 16-O ) :   1.0855
B( 13-O , 14-C ) :   0.9026 B( 14-C , 15-C ) :   1.1625 B( 14-C , 31-H ) :   0.9204
B( 14-C , 32-H ) :   0.9337 B( 15-C , 33-H ) :   0.9371 B( 15-C , 34-H ) :   0.9282
B( 15-C , 35-H ) :   0.9340 B( 16-O , 17-C ) :   0.9092 B( 17-C , 18-C ) :   1.1629
B( 17-C , 36-H ) :   0.9348 B( 17-C , 37-H ) :   0.9151 B( 18-C , 38-H ) :   0.9469
B( 18-C , 39-H ) :   0.9382 B( 18-C , 40-H ) :   0.9357

Dispersion correction           -0.066053091
FINAL SINGLE POINT ENERGY     -2929.524895550392

DIPOLE MOMENT
-------------

Method             : SCF
Type of density    : Electron Density
Multiplicity       :   1
Irrep              :   0
Energy             : -2929.6449188549713654 Eh
Relativity type    :
Basis              : AO
                                X                 Y                 Z
Electronic contribution:     -8.724058265      -0.941927646      -1.714482907
Nuclear contribution   :      9.596336184       0.356724766       1.997675168
                        -----------------------------------------
Total Dipole Moment    :      0.872277919      -0.585202880       0.283192261
                        -----------------------------------------
Magnitude (a.u.)       :      1.087901206
Magnitude (Debye)      :      2.765225110

Rotational constants in cm-1:             0.013119             0.004625             0.004398
Rotational constants in MHz :           393.287575           138.647816           131.837555

                             ****ORCA TERMINATED NORMALLY****
TOTAL RUN TIME: 0 days 0 hours 0 minutes 21 seconds 243 msec
