                         Program Version 6.0.0  -   RELEASE  -
|  1> ! pbe def2-sv(p) def2/J RI DEFGRID1 loosescf d4 GCP(DFT/SV(P)) printgap
|  2> %output
|  3>     printlevel normal
|  4> end
|  5> * xyz 0 1
|  6> C 2.9782744945 -1.8589504067 0.3019327527
|  7> C 1.6877493459 -1.1566268456 0.1091449304
|  8> C 1.5150426148 0.182969539 0.0039211739
|  9> C 0.2088005335 0.781026069 -0.194672877
| 10> O 0.0721714581 1.9550088494 -0.5086707578
| 11> N -0.8731315969 -0.080931801 0.0013517315
| 12> C -0.7111476 -1.442391492 -0.1754824211
| 13> O -1.6016126699 -2.2222717843 -0.4598346098
| 14> N 0.5652698299 -1.9203894182 -0.0121830915
| 15> C -2.2490899435 0.4892540116 0.166954436
| 16> C -3.1469315532 -0.4877903595 0.9339292956
| 17> C -2.180273291 1.7633823001 1.017494009
| 18> C -2.8227614151 0.7813036862 -1.2182652055
| 19> Cl 2.8369888407 1.3011780974 0.0248560406
| 20> H 2.9189877173 -2.5072828555 1.1728001981
| 21> H 3.7765216528 -1.1380397176 0.439060925
| 22> H 3.1992331116 -2.4753729148 -0.5667356888
| 23> H 0.6574276079 -2.9292370288 -0.0813618326
| 24> H -2.6642511667 -0.8017161179 1.8564357463
| 25> H -4.0727684031 0.0212452956 1.1830294855
| 26> H -3.3867529469 -1.3682483737 0.3488202604
| 27> H -1.6840875669 2.5760379232 0.4981277451
| 28> H -1.6487557043 1.5682550513 1.9464200812
| 29> H -3.1917323571 2.0779101146 1.2544144578
| 30> H -3.8186612131 1.2022110049 -1.123518018
| 31> H -2.1877556586 1.4929503373 -1.7413556941
| 32> H -2.8805688374 -0.1380068255 -1.796786007
| 33> *
| 34>
| 35>                          ****END OF INPUT****

CARTESIAN COORDINATES (ANGSTROEM)
---------------------------------
  C      2.978274   -1.858950    0.301933
  C      1.687749   -1.156627    0.109145
  C      1.515043    0.182970    0.003921
  C      0.208801    0.781026   -0.194673
  O      0.072171    1.955009   -0.508671
  N     -0.873132   -0.080932    0.001352
  C     -0.711148   -1.442391   -0.175482
  O     -1.601613   -2.222272   -0.459835
  N      0.565270   -1.920389   -0.012183
  C     -2.249090    0.489254    0.166954
  C     -3.146932   -0.487790    0.933929
  C     -2.180273    1.763382    1.017494
  C     -2.822761    0.781304   -1.218265
  Cl     2.836989    1.301178    0.024856
  H      2.918988   -2.507283    1.172800
  H      3.776522   -1.138040    0.439061
  H      3.199233   -2.475373   -0.566736
  H      0.657428   -2.929237   -0.081362
  H     -2.664251   -0.801716    1.856436
  H     -4.072768    0.021245    1.183029
  H     -3.386753   -1.368248    0.348820
  H     -1.684088    2.576038    0.498128
  H     -1.648756    1.568255    1.946420
  H     -3.191732    2.077910    1.254414
  H     -3.818661    1.202211   -1.123518
  H     -2.187756    1.492950   -1.741356
  H     -2.880569   -0.138007   -1.796786

 Total Charge           Charge          ....    0
 Multiplicity           Mult            ....    1
 Number of Electrons    NEL             ....  114
 Basis Dimension        Dim             ....  226

ORBITAL ENERGIES
----------------

  NO   OCC          E(Eh)            E(eV)
   0   2.0000    -100.645528     -2738.7040
   1   2.0000     -18.734012      -509.7784
   2   2.0000     -18.730331      -509.6782
   3   2.0000     -14.062558      -382.6617
   4   2.0000     -14.053682      -382.4201
   5   2.0000     -10.033454      -273.0242
   6   2.0000     -10.002984      -272.1950
   7   2.0000      -9.977454      -271.5003
   8   2.0000      -9.953185      -270.8399
   9   2.0000      -9.951144      -270.7844
  10   2.0000      -9.920239      -269.9434
  11   2.0000      -9.872913      -268.6556
  12   2.0000      -9.872181      -268.6357
  13   2.0000      -9.870499      -268.5899
  14   2.0000      -9.180793      -249.8221
  15   2.0000      -7.012560      -190.8214
  16   2.0000      -7.000517      -190.4937
  17   2.0000      -7.000114      -190.4828
  18   2.0000      -0.986030       -26.8312
  19   2.0000      -0.945987       -25.7416
  20   2.0000      -0.895864       -24.3777
  21   2.0000      -0.858522       -23.3616
  22   2.0000      -0.801185       -21.8014
  23   2.0000      -0.736376       -20.0378
  24   2.0000      -0.718925       -19.5630
  25   2.0000      -0.665040       -18.0967
  26   2.0000      -0.621001       -16.8983
  27   2.0000      -0.618523       -16.8309
  28   2.0000      -0.600397       -16.3376
  29   2.0000      -0.589331       -16.0365
  30   2.0000      -0.538690       -14.6585
  31   2.0000      -0.524061       -14.2604
  32   2.0000      -0.490534       -13.3481
  33   2.0000      -0.451767       -12.2932
  34   2.0000      -0.431030       -11.7289
  35   2.0000      -0.414947       -11.2913
  36   2.0000      -0.411915       -11.2088
  37   2.0000      -0.399980       -10.8840
  38   2.0000      -0.393276       -10.7016
  39   2.0000      -0.389137       -10.5890
  40   2.0000      -0.383006       -10.4221
  41   2.0000      -0.377212       -10.2644
  42   2.0000      -0.375982       -10.2310
  43   2.0000      -0.357224        -9.7206
  44   2.0000      -0.349277        -9.5043
  45   2.0000      -0.341189        -9.2842
  46   2.0000      -0.335470        -9.1286
  47   2.0000      -0.319216        -8.6863
  48   2.0000      -0.315611        -8.5882
  49   2.0000      -0.297783        -8.1031
  50   2.0000      -0.291550        -7.9335
  51   2.0000      -0.288353        -7.8465
  52   2.0000      -0.272090        -7.4039
  53   2.0000      -0.242988        -6.6121
  54   2.0000      -0.230204        -6.2642
  55   2.0000      -0.211811        -5.7637
  56   2.0000      -0.203896        -5.5483
  57   0.0000      -0.075213        -2.0467
  58   0.0000      -0.022478        -0.6117
  59   0.0000       0.002041         0.0555
  60   0.0000       0.022675         0.6170
  61   0.0000       0.044362         1.2071

MULLIKEN ATOMIC CHARGES
-----------------------
   0 C :   -0.201384
   1 C :    0.015979
   2 C :   -0.122361
   3 C :    0.179155
   4 O :   -0.173519
   5 N :   -0.232317
   6 C :    0.177195
   7 O :   -0.203456
   8 N :   -0.203867
   9 C :   -0.175104
  10 C :   -0.216593
  11 C :   -0.222362
  12 C :   -0.199939
  13 Cl:   -0.044069
  14 H :    0.127199
  15 H :    0.124037
  16 H :    0.130832
  17 H :    0.244866
  18 H :    0.093346
  19 H :    0.097569
  20 H :    0.138859
  21 H :    0.143376
  22 H :    0.095136
  23 H :    0.097793
  24 H :    0.095730
  25 H :    0.120405
  26 H :    0.113496
Sum of atomic charges:   -0.0000000

LOEWDIN ATOMIC CHARGES
----------------------
   0 C :   -0.332941
   1 C :   -0.017385
   2 C :   -0.219577
   3 C :    0.023230
   4 O :   -0.163181
   5 N :   -0.005641
   6 C :    0.043879
   7 O :   -0.188760
   8 N :   -0.091190
   9 C :   -0.019370
  10 C :   -0.331776
  11 C :   -0.332473
  12 C :   -0.324722
  13 Cl:    0.160449
  14 H :    0.141955
  15 H :    0.138616
  16 H :    0.143525
  17 H :    0.253331
  18 H :    0.118757
  19 H :    0.121852
  20 H :    0.131237
  21 H :    0.133099
  22 H :    0.119800
  23 H :    0.122074
  24 H :    0.122860
  25 H :    0.127540
  26 H :    0.124813

  Mayer bond orders larger than 0.100000
B(  0-C ,  1-C ) :   1.1645 B(  0-C , 14-H ) :   0.9200 B(  0-C , 15-H ) :   0.9102
B(  0-C , 16-H ) :   0.9187 B(  1-C ,  2-C ) :   1.6240 B(  1-C ,  8-N ) :   1.1687
B(  2-C ,  3-C ) :   1.0205 B(  2-C , 13-Cl) :   1.0582 B(  3-C ,  4-O ) :   2.0863
B(  3-C ,  5-N ) :   1.0299 B(  5-N ,  6-C ) :   1.0781 B(  5-N ,  9-C ) :   0.8753
B(  6-C ,  7-O ) :   2.0312 B(  6-C ,  8-N ) :   1.0951 B(  8-N , 17-H ) :   0.8395
B(  9-C , 10-C ) :   1.1004 B(  9-C , 11-C ) :   1.0975 B(  9-C , 12-C ) :   1.0797
B( 10-C , 18-H ) :   0.9385 B( 10-C , 19-H ) :   0.9370 B( 10-C , 20-H ) :   0.9197
B( 11-C , 21-H ) :   0.9173 B( 11-C , 22-H ) :   0.9390 B( 11-C , 23-H ) :   0.9384
B( 12-C , 24-H ) :   0.9462 B( 12-C , 25-H ) :   0.9348 B( 12-C , 26-H ) :   0.9381

Dispersion correction           -0.034499192
FINAL SINGLE POINT ENERGY     -1069.340327917562

DIPOLE MOMENT
-------------

Method             : SCF
Type of density    : Electron Density
Multiplicity       :   1
Irrep              :   0
Energy             : -1069.4284494353373702 Eh
Relativity type    :
Basis              : AO
                                X                 Y                 Z
Electronic contribution:     18.560362142       2.796348209      -2.640654524
Nuclear contribution   :    -17.888943864      -4.031111842       3.132028312
                        -----------------------------------------
Total Dipole Moment    :      0.671418279      -1.234763633       0.491373788
                        -----------------------------------------
Magnitude (a.u.)       :      1.488923078
Magnitude (Debye)      :      3.784541703

Rotational constants in cm-1:             0.033334             0.016322             0.012068
Rotational constants in MHz :           999.319797           489.333236           361.802714

                             ****ORCA TERMINATED NORMALLY****
TOTAL RUN TIME: 0 days 0 hours 0 minutes 17 seconds 10 msec
