                         Program Version 6.0.0  -   RELEASE  -
|  1> ! pbe def2-sv(p) def2/J RI DEFGRID1 loosescf d4 GCP(DFT/SV(P)) printgap
|  2> %output
|  3>     printlevel normal
|  4> end
|  5> * xyz 0 1
|  6> C 1.2308477987 -1.4884805694 -2.2221228156
|  7> C 2.5422993536 -0.740628613 -2.1043094348
|  8> O 2.5662530985 0.1550779612 -0.96786255
|  9> P 2.6307488065 -0.2507606994 0.5558150446
| 10> S 3.364896313 1.2073687156 1.6368658547
| 11> O 3.466928687 -1.5993890358 0.5167552231
| 12> C 4.1428813669 -2.1287652142 1.6738632774
| 13> C 3.1786289011 -2.5535223491 2.7615837822
| 14> S 0.6735760507 -0.8582152723 1.1491896213
| 15> C 0.0130801473 0.8068041507 1.357641522
| 16> S -0.2423804914 1.6555394111 -0.2349162319
| 17> P -2.1517683013 0.8697806835 -0.6914027765
| 18> S -2.5998466354 0.9391908502 -2.5970196454
| 19> O -2.987172552 1.7348389555 0.347120548
| 20> C -4.3360472092 1.4108110895 0.7509652736
| 21> C -5.3444888517 1.7116076786 -0.3389728031
| 22> O -2.2311275609 -0.5775909063 -0.0354589922
| 23> C -2.2282677183 -1.8138901871 -0.7734210878
| 24> C -3.5583057746 -2.5141472809 -0.5753200972
| 25> H 1.1104517688 -2.1781287289 -1.3896982709
| 26> H 0.3983219146 -0.785966438 -2.2309088679
| 27> H 1.2245635616 -2.0483102277 -3.1520402231
| 28> H 2.6958169925 -0.0695681608 -2.9510169452
| 29> H 3.3819699352 -1.4323871181 -2.0165291295
| 30> H 4.7039287487 -2.9763905317 1.2776328352
| 31> H 4.8326986957 -1.3662244872 2.0475803702
| 32> H 3.7290907539 -3.0622281332 3.546463469
| 33> H 2.6878697041 -1.6793055025 3.1861095223
| 34> H 2.4215150694 -3.2214516036 2.3591036424
| 35> H 0.7351274561 1.4070352692 1.9127631384
| 36> H -0.9314176756 0.7267432731 1.8877327901
| 37> H -4.3704789547 0.357184036 1.0380496259
| 38> H -4.4993386015 2.0402568265 1.6275981512
| 39> H -6.3452572132 1.5167796759 0.0335841986
| 40> H -5.2704407634 2.7526329042 -0.6433240048
| 41> H -5.1600521682 1.0864813444 -1.2108367784
| 42> H -2.0590325317 -1.5984018509 -1.8328495244
| 43> H -1.4010214375 -2.4006288226 -0.370493919
| 44> H -3.7465174639 -2.6705408487 0.4830709376
| 45> H -4.362668014 -1.9158702085 -0.9975317284
| 46> H -3.531107965 -3.4743725987 -1.0795899414
| 47> *
| 48>
| 49>                          ****END OF INPUT****

CARTESIAN COORDINATES (ANGSTROEM)
---------------------------------
  C      1.230848   -1.488481   -2.222123
  C      2.542299   -0.740629   -2.104309
  O      2.566253    0.155078   -0.967863
  P      2.630749   -0.250761    0.555815
  S      3.364896    1.207369    1.636866
  O      3.466929   -1.599389    0.516755
  C      4.142881   -2.128765    1.673863
  C      3.178629   -2.553522    2.761584
  S      0.673576   -0.858215    1.149190
  C      0.013080    0.806804    1.357642
  S     -0.242380    1.655539   -0.234916
  P     -2.151768    0.869781   -0.691403
  S     -2.599847    0.939191   -2.597020
  O     -2.987173    1.734839    0.347121
  C     -4.336047    1.410811    0.750965
  C     -5.344489    1.711608   -0.338973
  O     -2.231128   -0.577591   -0.035459
  C     -2.228268   -1.813890   -0.773421
  C     -3.558306   -2.514147   -0.575320
  H      1.110452   -2.178129   -1.389698
  H      0.398322   -0.785966   -2.230909
  H      1.224564   -2.048310   -3.152040
  H      2.695817   -0.069568   -2.951017
  H      3.381970   -1.432387   -2.016529
  H      4.703929   -2.976391    1.277633
  H      4.832699   -1.366224    2.047580
  H      3.729091   -3.062228    3.546463
  H      2.687870   -1.679306    3.186110
  H      2.421515   -3.221452    2.359104
  H      0.735127    1.407035    1.912763
  H     -0.931418    0.726743    1.887733
  H     -4.370479    0.357184    1.038050
  H     -4.499339    2.040257    1.627598
  H     -6.345257    1.516780    0.033584
  H     -5.270441    2.752633   -0.643324
  H     -5.160052    1.086481   -1.210837
  H     -2.059033   -1.598402   -1.832850
  H     -1.401021   -2.400629   -0.370494
  H     -3.746517   -2.670541    0.483071
  H     -4.362668   -1.915870   -0.997532
  H     -3.531108   -3.474373   -1.079590

 Total Charge           Charge          ....    0
 Multiplicity           Mult            ....    1
 Number of Electrons    NEL             ....  202
 Basis Dimension        Dim             ....  334

ORBITAL ENERGIES
----------------

  NO   OCC          E(Eh)            E(eV)
   0   2.0000     -88.043213     -2395.7776
   1   2.0000     -88.037460     -2395.6211
   2   2.0000     -87.988578     -2394.2909
   3   2.0000     -87.985497     -2394.2071
   4   2.0000     -76.428969     -2079.7380
   5   2.0000     -76.428065     -2079.7134
   6   2.0000     -18.801696      -511.6202
   7   2.0000     -18.799812      -511.5689
   8   2.0000     -18.793077      -511.3856
   9   2.0000     -18.789361      -511.2845
  10   2.0000      -9.959618      -271.0150
  11   2.0000      -9.957705      -270.9629
  12   2.0000      -9.955000      -270.8893
  13   2.0000      -9.954391      -270.8728
  14   2.0000      -9.954230      -270.8684
  15   2.0000      -9.892205      -269.1806
  16   2.0000      -9.889163      -269.0978
  17   2.0000      -9.884531      -268.9718
  18   2.0000      -9.884300      -268.9655
  19   2.0000      -7.688017      -209.2016
  20   2.0000      -7.682734      -209.0578
  21   2.0000      -7.633665      -207.7226
  22   2.0000      -7.630777      -207.6440
  23   2.0000      -6.426259      -174.8674
  24   2.0000      -6.425602      -174.8495
  25   2.0000      -5.715698      -155.5320
  26   2.0000      -5.712709      -155.4507
  27   2.0000      -5.710905      -155.4016
  28   2.0000      -5.707218      -155.3013
  29   2.0000      -5.705027      -155.2417
  30   2.0000      -5.699382      -155.0881
  31   2.0000      -5.662577      -154.0866
  32   2.0000      -5.659717      -154.0087
  33   2.0000      -5.654149      -153.8572
  34   2.0000      -5.653984      -153.8527
  35   2.0000      -5.651548      -153.7864
  36   2.0000      -5.650735      -153.7643
  37   2.0000      -4.649434      -126.5175
  38   2.0000      -4.648514      -126.4925
  39   2.0000      -4.647728      -126.4711
  40   2.0000      -4.647220      -126.4573
  41   2.0000      -4.646474      -126.4370
  42   2.0000      -4.645905      -126.4215
  43   2.0000      -0.991587       -26.9824
  44   2.0000      -0.991018       -26.9670
  45   2.0000      -0.947387       -25.7797
  46   2.0000      -0.946606       -25.7585
  47   2.0000      -0.763929       -20.7876
  48   2.0000      -0.725641       -19.7457
  49   2.0000      -0.712142       -19.3784
  50   2.0000      -0.693670       -18.8757
  51   2.0000      -0.692501       -18.8439
  52   2.0000      -0.675344       -18.3770
  53   2.0000      -0.656059       -17.8523
  54   2.0000      -0.635902       -17.3038
  55   2.0000      -0.599926       -16.3248
  56   2.0000      -0.593948       -16.1621
  57   2.0000      -0.581160       -15.8142
  58   2.0000      -0.578558       -15.7434
  59   2.0000      -0.559665       -15.2293
  60   2.0000      -0.507077       -13.7983
  61   2.0000      -0.498971       -13.5777
  62   2.0000      -0.479371       -13.0444
  63   2.0000      -0.473136       -12.8747
  64   2.0000      -0.465626       -12.6703
  65   2.0000      -0.450200       -12.2506
  66   2.0000      -0.443149       -12.0587
  67   2.0000      -0.439552       -11.9608
  68   2.0000      -0.428574       -11.6621
  69   2.0000      -0.420118       -11.4320
  70   2.0000      -0.415366       -11.3027
  71   2.0000      -0.399894       -10.8817
  72   2.0000      -0.395960       -10.7746
  73   2.0000      -0.391514       -10.6536
  74   2.0000      -0.380839       -10.3632
  75   2.0000      -0.373377       -10.1601
  76   2.0000      -0.369351       -10.0505
  77   2.0000      -0.361095        -9.8259
  78   2.0000      -0.356906        -9.7119
  79   2.0000      -0.350967        -9.5503
  80   2.0000      -0.349868        -9.5204
  81   2.0000      -0.349294        -9.5048
  82   2.0000      -0.343700        -9.3525
  83   2.0000      -0.341316        -9.2877
  84   2.0000      -0.336985        -9.1698
  85   2.0000      -0.328455        -8.9377
  86   2.0000      -0.315694        -8.5905
  87   2.0000      -0.300227        -8.1696
  88   2.0000      -0.297209        -8.0875
  89   2.0000      -0.295935        -8.0528
  90   2.0000      -0.293100        -7.9757
  91   2.0000      -0.280450        -7.6314
  92   2.0000      -0.274729        -7.4758
  93   2.0000      -0.266560        -7.2535
  94   2.0000      -0.257413        -7.0046
  95   2.0000      -0.234966        -6.3937
  96   2.0000      -0.218402        -5.9430
  97   2.0000      -0.209786        -5.7086
  98   2.0000      -0.206692        -5.6244
  99   2.0000      -0.200439        -5.4542
 100   2.0000      -0.195903        -5.3308
 101   0.0000      -0.042860        -1.1663
 102   0.0000      -0.021290        -0.5793
 103   0.0000      -0.014832        -0.4036
 104   0.0000      -0.000489        -0.0133
 105   0.0000       0.012283         0.3342

MULLIKEN ATOMIC CHARGES
-----------------------
   0 C :   -0.344140
   1 C :    0.011267
   2 O :   -0.352545
   3 P :    0.618966
   4 S :   -0.316876
   5 O :   -0.387292
   6 C :   -0.000036
   7 C :   -0.320355
   8 S :   -0.102419
   9 C :   -0.362739
  10 S :   -0.044119
  11 P :    0.613685
  12 S :   -0.319039
  13 O :   -0.370593
  14 C :   -0.014464
  15 C :   -0.311337
  16 O :   -0.391146
  17 C :   -0.029926
  18 C :   -0.286693
  19 H :    0.118323
  20 H :    0.141575
  21 H :    0.110798
  22 H :    0.113961
  23 H :    0.106740
  24 H :    0.106065
  25 H :    0.116104
  26 H :    0.116108
  27 H :    0.132161
  28 H :    0.115445
  29 H :    0.195679
  30 H :    0.181929
  31 H :    0.104841
  32 H :    0.109158
  33 H :    0.108599
  34 H :    0.123350
  35 H :    0.131143
  36 H :    0.119366
  37 H :    0.112931
  38 H :    0.115127
  39 H :    0.117163
  40 H :    0.113234
Sum of atomic charges:   -0.0000000

LOEWDIN ATOMIC CHARGES
----------------------
   0 C :   -0.372786
   1 C :   -0.105878
   2 O :   -0.233359
   3 P :    0.574160
   4 S :   -0.313412
   5 O :   -0.247136
   6 C :   -0.114565
   7 C :   -0.371809
   8 S :    0.082798
   9 C :   -0.482656
  10 S :    0.102918
  11 P :    0.562852
  12 S :   -0.316536
  13 O :   -0.246613
  14 C :   -0.114916
  15 C :   -0.367008
  16 O :   -0.245905
  17 C :   -0.123821
  18 C :   -0.355544
  19 H :    0.113450
  20 H :    0.124221
  21 H :    0.130193
  22 H :    0.124963
  23 H :    0.112325
  24 H :    0.119108
  25 H :    0.115299
  26 H :    0.132853
  27 H :    0.123151
  28 H :    0.122421
  29 H :    0.129872
  30 H :    0.132232
  31 H :    0.108365
  32 H :    0.120708
  33 H :    0.128745
  34 H :    0.130951
  35 H :    0.120840
  36 H :    0.108575
  37 H :    0.110076
  38 H :    0.124210
  39 H :    0.124791
  40 H :    0.131866

  Mayer bond orders larger than 0.100000
B(  0-C ,  1-C ) :   1.1700 B(  0-C , 19-H ) :   0.9383 B(  0-C , 20-H ) :   0.9256
B(  0-C , 21-H ) :   0.9354 B(  1-C ,  2-O ) :   0.8985 B(  1-C , 22-H ) :   0.9333
B(  1-C , 23-H ) :   0.9264 B(  2-O ,  3-P ) :   1.1456 B(  3-P ,  4-S ) :   1.6354
B(  3-P ,  5-O ) :   1.0829 B(  3-P ,  8-S ) :   0.9366 B(  4-S ,  8-S ) :   0.1094
B(  5-O ,  6-C ) :   0.9013 B(  6-C ,  7-C ) :   1.1677 B(  6-C , 24-H ) :   0.9342
B(  6-C , 25-H ) :   0.9189 B(  7-C , 26-H ) :   0.9363 B(  7-C , 27-H ) :   0.9328
B(  7-C , 28-H ) :   0.9439 B(  8-S ,  9-C ) :   1.0022 B(  9-C , 10-S ) :   0.9851
B(  9-C , 29-H ) :   0.8660 B(  9-C , 30-H ) :   0.8970 B( 10-S , 11-P ) :   0.9963
B( 11-P , 12-S ) :   1.6402 B( 11-P , 13-O ) :   1.1026 B( 11-P , 16-O ) :   1.0638
B( 13-O , 14-C ) :   0.9098 B( 14-C , 15-C ) :   1.1676 B( 14-C , 31-H ) :   0.9229
B( 14-C , 32-H ) :   0.9353 B( 15-C , 33-H ) :   0.9376 B( 15-C , 34-H ) :   0.9458
B( 15-C , 35-H ) :   0.9321 B( 16-O , 17-C ) :   0.9040 B( 17-C , 18-C ) :   1.1637
B( 17-C , 36-H ) :   0.8998 B( 17-C , 37-H ) :   0.9212 B( 18-C , 38-H ) :   0.9477
B( 18-C , 39-H ) :   0.9441 B( 18-C , 40-H ) :   0.9407

Dispersion correction           -0.065104534
FINAL SINGLE POINT ENERGY     -2929.516931982479

DIPOLE MOMENT
-------------

Method             : SCF
Type of density    : Electron Density
Multiplicity       :   1
Irrep              :   0
Energy             : -2929.6376010403887449 Eh
Relativity type    :
Basis              : AO
                                X                 Y                 Z
Electronic contribution:     12.718102798      18.307146047      -0.933281670
Nuclear contribution   :    -13.356001781     -20.337289864       1.551000573
                        -----------------------------------------
Total Dipole Moment    :     -0.637898983      -2.030143818       0.617718903
                        -----------------------------------------
Magnitude (a.u.)       :      2.215846492
Magnitude (Debye)      :      5.632234181

Rotational constants in cm-1:             0.013870             0.004418             0.004324
Rotational constants in MHz :           415.807656           132.434859           129.617819

                             ****ORCA TERMINATED NORMALLY****
TOTAL RUN TIME: 0 days 0 hours 0 minutes 21 seconds 138 msec
