                         Program Version 6.0.0  -   RELEASE  -
|  1> ! r2scan-3c def2/J RI DEFGRID2 scfconv6 printgap
|  2> %output
|  3>     printlevel normal
|  4> end
|  5> * xyz 0 1
|  6> C 4.2477591337 -0.7669819435 -2.3888974288
|  7> C 4.4662045008 -1.2725817641 -0.9774539269
|  8> O 3.2267751819 -1.502019295 -0.2854359779
|  9> P 2.2599377057 -0.3167566344 0.1434795368
| 10> S 3.1545565314 1.3117531659 0.7779889214
| 11> O 1.3071875606 -1.0388192214 1.1843730349
| 12> C 1.5789435783 -1.0170493279 2.6030559118
| 13> C 2.8186942228 -1.813281809 2.9512286768
| 14> S 0.9282983589 -0.1089706329 -1.4858886811
| 15> C 0.2508159024 1.4948235542 -0.9762577514
| 16> S -0.7899880764 1.3886704923 0.4948739182
| 17> P -2.3722693695 0.2859064734 -0.432848377
| 18> S -2.7065422134 0.6991571559 -2.3136173136
| 19> O -3.5606507514 0.4486353222 0.608896225
| 20> C -4.0293481449 1.6993419545 1.1486736953
| 21> C -4.3914461462 2.7041471485 0.0757286055
| 22> O -2.0190456455 -1.2429419562 -0.2839384622
| 23> C -1.8300220089 -1.9027307948 0.9898099501
| 24> C -3.0626695897 -2.7036768354 1.3552257689
| 25> H 3.5731561462 -1.4278494264 -2.9278421472
| 26> H 3.8119845033 0.2312363238 -2.3646617515
| 27> H 5.2002052647 -0.7223546726 -2.9072597239
| 28> H 5.0562531133 -0.5533390338 -0.4001784783
| 29> H 4.955430657 -2.2474722842 -0.9697216055
| 30> H 1.6855718596 0.0261567918 2.9171087506
| 31> H 0.6826441792 -1.4493797376 3.0494627379
| 32> H 2.7431720217 -2.8214053328 2.5522806645
| 33> H 3.6991766033 -1.332104791 2.5270855551
| 34> H 2.9269569152 -1.8568137685 4.030415149
| 35> H -0.3450121673 1.8574264681 -1.8142695728
| 36> H 1.0662230358 2.1771352817 -0.7358898379
| 37> H -4.9029968047 1.4129235481 1.7369136115
| 38> H -3.2521444717 2.09915295 1.8060544945
| 39> H -5.1083478559 2.2749214873 -0.6202393564
| 40> H -4.8218759027 3.5863452456 0.5385480123
| 41> H -3.503187688 2.9941899667 -0.4836939038
| 42> H -0.9593549171 -2.5455695051 0.843591457
| 43> H -1.6055755174 -1.148890594 1.7499593326
| 44> H -2.8822045906 -3.2342519338 2.284827843
| 45> H -3.9162846759 -2.041825312 1.4763595731
| 46> H -3.2850946882 -3.4197734023 0.5690552512
| 47> *
| 48>
| 49>                          ****END OF INPUT****

CARTESIAN COORDINATES (ANGSTROEM)
---------------------------------
  C      4.247759   -0.766982   -2.388897
  C      4.466205   -1.272582   -0.977454
  O      3.226775   -1.502019   -0.285436
  P      2.259938   -0.316757    0.143480
  S      3.154557    1.311753    0.777989
  O      1.307188   -1.038819    1.184373
  C      1.578944   -1.017049    2.603056
  C      2.818694   -1.813282    2.951229
  S      0.928298   -0.108971   -1.485889
  C      0.250816    1.494824   -0.976258
  S     -0.789988    1.388670    0.494874
  P     -2.372269    0.285906   -0.432848
  S     -2.706542    0.699157   -2.313617
  O     -3.560651    0.448635    0.608896
  C     -4.029348    1.699342    1.148674
  C     -4.391446    2.704147    0.075729
  O     -2.019046   -1.242942   -0.283938
  C     -1.830022   -1.902731    0.989810
  C     -3.062670   -2.703677    1.355226
  H      3.573156   -1.427849   -2.927842
  H      3.811985    0.231236   -2.364662
  H      5.200205   -0.722355   -2.907260
  H      5.056253   -0.553339   -0.400178
  H      4.955431   -2.247472   -0.969722
  H      1.685572    0.026157    2.917109
  H      0.682644   -1.449380    3.049463
  H      2.743172   -2.821405    2.552281
  H      3.699177   -1.332105    2.527086
  H      2.926957   -1.856814    4.030415
  H     -0.345012    1.857426   -1.814270
  H      1.066223    2.177135   -0.735890
  H     -4.902997    1.412924    1.736914
  H     -3.252144    2.099153    1.806054
  H     -5.108348    2.274921   -0.620239
  H     -4.821876    3.586345    0.538548
  H     -3.503188    2.994190   -0.483694
  H     -0.959355   -2.545570    0.843591
  H     -1.605576   -1.148891    1.749959
  H     -2.882205   -3.234252    2.284828
  H     -3.916285   -2.041825    1.476360
  H     -3.285095   -3.419773    0.569055

 Total Charge           Charge          ....    0
 Multiplicity           Mult            ....    1
 Number of Electrons    NEL             ....  202
 Basis Dimension        Dim             ....  539

ORBITAL ENERGIES
----------------

  NO   OCC          E(Eh)            E(eV)
   0   2.0000     -88.574140     -2410.2249
   1   2.0000     -88.573882     -2410.2179
   2   2.0000     -88.524019     -2408.8610
   3   2.0000     -88.515445     -2408.6277
   4   2.0000     -76.915263     -2092.9707
   5   2.0000     -76.912676     -2092.9003
   6   2.0000     -18.995959      -516.9063
   7   2.0000     -18.995597      -516.8965
   8   2.0000     -18.992111      -516.8016
   9   2.0000     -18.986529      -516.6497
  10   2.0000     -10.106275      -275.0057
  11   2.0000     -10.102511      -274.9033
  12   2.0000     -10.101501      -274.8758
  13   2.0000     -10.100730      -274.8548
  14   2.0000     -10.098376      -274.7908
  15   2.0000     -10.032471      -272.9974
  16   2.0000     -10.029928      -272.9282
  17   2.0000     -10.029237      -272.9094
  18   2.0000     -10.028188      -272.8809
  19   2.0000      -7.868453      -214.1115
  20   2.0000      -7.868018      -214.0997
  21   2.0000      -7.818820      -212.7609
  22   2.0000      -7.810312      -212.5294
  23   2.0000      -6.593952      -179.4305
  24   2.0000      -6.590927      -179.3482
  25   2.0000      -5.815193      -158.2395
  26   2.0000      -5.814924      -158.2321
  27   2.0000      -5.812237      -158.1590
  28   2.0000      -5.811968      -158.1517
  29   2.0000      -5.805792      -157.9836
  30   2.0000      -5.805040      -157.9632
  31   2.0000      -5.766353      -156.9104
  32   2.0000      -5.759118      -156.7136
  33   2.0000      -5.758912      -156.7080
  34   2.0000      -5.758139      -156.6869
  35   2.0000      -5.750548      -156.4804
  36   2.0000      -5.750169      -156.4701
  37   2.0000      -4.739356      -128.9644
  38   2.0000      -4.738806      -128.9495
  39   2.0000      -4.737812      -128.9224
  40   2.0000      -4.736782      -128.8944
  41   2.0000      -4.736113      -128.8762
  42   2.0000      -4.734130      -128.8222
  43   2.0000      -1.052588       -28.6424
  44   2.0000      -1.051348       -28.6086
  45   2.0000      -1.013942       -27.5908
  46   2.0000      -1.009235       -27.4627
  47   2.0000      -0.801412       -21.8075
  48   2.0000      -0.758827       -20.6487
  49   2.0000      -0.750581       -20.4244
  50   2.0000      -0.735467       -20.0131
  51   2.0000      -0.733917       -19.9709
  52   2.0000      -0.712004       -19.3746
  53   2.0000      -0.686608       -18.6836
  54   2.0000      -0.669652       -18.2222
  55   2.0000      -0.634624       -17.2690
  56   2.0000      -0.621263       -16.9054
  57   2.0000      -0.608453       -16.5568
  58   2.0000      -0.606488       -16.5034
  59   2.0000      -0.594300       -16.1717
  60   2.0000      -0.529269       -14.4021
  61   2.0000      -0.518269       -14.1028
  62   2.0000      -0.495142       -13.4735
  63   2.0000      -0.493474       -13.4281
  64   2.0000      -0.477893       -13.0041
  65   2.0000      -0.467011       -12.7080
  66   2.0000      -0.460437       -12.5291
  67   2.0000      -0.452978       -12.3261
  68   2.0000      -0.450007       -12.2453
  69   2.0000      -0.432897       -11.7797
  70   2.0000      -0.428650       -11.6642
  71   2.0000      -0.415573       -11.3083
  72   2.0000      -0.414844       -11.2885
  73   2.0000      -0.405388       -11.0312
  74   2.0000      -0.399558       -10.8725
  75   2.0000      -0.389023       -10.5858
  76   2.0000      -0.380338       -10.3495
  77   2.0000      -0.373277       -10.1574
  78   2.0000      -0.371648       -10.1131
  79   2.0000      -0.366081        -9.9616
  80   2.0000      -0.363484        -9.8909
  81   2.0000      -0.360478        -9.8091
  82   2.0000      -0.358947        -9.7674
  83   2.0000      -0.353214        -9.6114
  84   2.0000      -0.351752        -9.5717
  85   2.0000      -0.337493        -9.1837
  86   2.0000      -0.326157        -8.8752
  87   2.0000      -0.312857        -8.5133
  88   2.0000      -0.311939        -8.4883
  89   2.0000      -0.305113        -8.3025
  90   2.0000      -0.301043        -8.1918
  91   2.0000      -0.294553        -8.0152
  92   2.0000      -0.289992        -7.8911
  93   2.0000      -0.281195        -7.6517
  94   2.0000      -0.271646        -7.3919
  95   2.0000      -0.245651        -6.6845
  96   2.0000      -0.230584        -6.2745
  97   2.0000      -0.227275        -6.1845
  98   2.0000      -0.218343        -5.9414
  99   2.0000      -0.212075        -5.7709
 100   2.0000      -0.210560        -5.7296
 101   0.0000      -0.045366        -1.2345
 102   0.0000      -0.024422        -0.6646
 103   0.0000      -0.003139        -0.0854
 104   0.0000      -0.000133        -0.0036
 105   0.0000       0.014574         0.3966

MULLIKEN ATOMIC CHARGES
-----------------------
   0 C :   -0.452549
   1 C :   -0.149546
   2 O :   -0.307185
   3 P :    0.681744
   4 S :   -0.491206
   5 O :   -0.261452
   6 C :   -0.158457
   7 C :   -0.439126
   8 S :   -0.096030
   9 C :   -0.244663
  10 S :   -0.179600
  11 P :    0.652084
  12 S :   -0.429207
  13 O :   -0.294190
  14 C :   -0.162459
  15 C :   -0.426776
  16 O :   -0.252562
  17 C :   -0.107122
  18 C :   -0.485009
  19 H :    0.158114
  20 H :    0.177378
  21 H :    0.148228
  22 H :    0.170416
  23 H :    0.148678
  24 H :    0.176485
  25 H :    0.145472
  26 H :    0.156273
  27 H :    0.169370
  28 H :    0.147484
  29 H :    0.217668
  30 H :    0.214120
  31 H :    0.149071
  32 H :    0.152751
  33 H :    0.165265
  34 H :    0.146420
  35 H :    0.169918
  36 H :    0.170124
  37 H :    0.151459
  38 H :    0.143419
  39 H :    0.164876
  40 H :    0.160324
Sum of atomic charges:   -0.0000000

LOEWDIN ATOMIC CHARGES
----------------------
   0 C :   -0.406146
   1 C :    0.020013
   2 O :   -0.661069
   3 P :    0.378537
   4 S :   -0.136306
   5 O :   -0.681394
   6 C :    0.015284
   7 C :   -0.398951
   8 S :    0.188066
   9 C :   -0.425084
  10 S :    0.134639
  11 P :    0.382163
  12 S :   -0.098126
  13 O :   -0.670552
  14 C :    0.023078
  15 C :   -0.405855
  16 O :   -0.650285
  17 C :    0.019065
  18 C :   -0.392231
  19 H :    0.161379
  20 H :    0.165979
  21 H :    0.159631
  22 H :    0.179209
  23 H :    0.179738
  24 H :    0.181796
  25 H :    0.177154
  26 H :    0.161047
  27 H :    0.165707
  28 H :    0.159525
  29 H :    0.193230
  30 H :    0.190804
  31 H :    0.180675
  32 H :    0.171967
  33 H :    0.166044
  34 H :    0.158373
  35 H :    0.167123
  36 H :    0.186635
  37 H :    0.174019
  38 H :    0.157312
  39 H :    0.165019
  40 H :    0.162787

  Mayer bond orders larger than 0.100000
B(  0-C ,  1-C ) :   0.9246 B(  0-C , 19-H ) :   0.9682 B(  0-C , 20-H ) :   0.9617
B(  0-C , 21-H ) :   0.9585 B(  1-C ,  2-O ) :   0.8113 B(  1-C , 22-H ) :   0.9661
B(  1-C , 23-H ) :   0.9578 B(  2-O ,  3-P ) :   1.0684 B(  3-P ,  4-S ) :   1.7341
B(  3-P ,  5-O ) :   1.1293 B(  3-P ,  8-S ) :   1.1098 B(  5-O ,  6-C ) :   0.7847
B(  6-C ,  7-C ) :   0.9226 B(  6-C , 24-H ) :   0.9631 B(  6-C , 25-H ) :   0.9613
B(  7-C , 26-H ) :   0.9718 B(  7-C , 27-H ) :   0.9596 B(  7-C , 28-H ) :   0.9619
B(  8-S ,  9-C ) :   0.9169 B(  9-C , 10-S ) :   0.9121 B(  9-C , 29-H ) :   0.9048
B(  9-C , 30-H ) :   0.9071 B( 10-S , 11-P ) :   0.9905 B( 11-P , 12-S ) :   1.8602
B( 11-P , 13-O ) :   1.0337 B( 11-P , 16-O ) :   1.1388 B( 13-O , 14-C ) :   0.8059
B( 14-C , 15-C ) :   0.9429 B( 14-C , 31-H ) :   0.9587 B( 14-C , 32-H ) :   0.9609
B( 15-C , 33-H ) :   0.9654 B( 15-C , 34-H ) :   0.9616 B( 15-C , 35-H ) :   0.9544
B( 16-O , 17-C ) :   0.7375 B( 17-C , 18-C ) :   0.9337 B( 17-C , 36-H ) :   0.9543
B( 17-C , 37-H ) :   0.9695 B( 18-C , 38-H ) :   0.9668 B( 18-C , 39-H ) :   0.9713
B( 18-C , 40-H ) :   0.9733

Dispersion correction           -0.021658134
FINAL SINGLE POINT ENERGY     -2932.461652955693

DIPOLE MOMENT
-------------

Method             : SCF
Type of density    : Electron Density
Multiplicity       :   1
Irrep              :   0
Energy             : -2932.4864544812267013 Eh
Relativity type    :
Basis              : AO
                                X                 Y                 Z
Electronic contribution:     -0.632885472       7.136157755     -10.895456614
Nuclear contribution   :      0.835985544      -7.755248269      12.412742977
                        -----------------------------------------
Total Dipole Moment    :      0.203100072      -0.619090514       1.517286363
                        -----------------------------------------
Magnitude (a.u.)       :      1.651266366
Magnitude (Debye)      :      4.197185547

Rotational constants in cm-1:             0.012727             0.004917             0.004523
Rotational constants in MHz :           381.542901           147.408954           135.589135

                             ****ORCA TERMINATED NORMALLY****
TOTAL RUN TIME: 0 days 0 hours 1 minutes 19 seconds 459 msec
