                         Program Version 6.0.0  -   RELEASE  -
|  1> ! r2scan-3c def2/J RI DEFGRID2 scfconv6 printgap
|  2> %output
|  3>     printlevel normal
|  4> end
|  5> %cpcm
|  6>     smd true
|  7>     smdsolvent "water"
|  8> end
|  9> * xyz 0 1
| 10> C 4.2477591337 -0.7669819435 -2.3888974288
| 11> C 4.4662045008 -1.2725817641 -0.9774539269
| 12> O 3.2267751819 -1.502019295 -0.2854359779
| 13> P 2.2599377057 -0.3167566344 0.1434795368
| 14> S 3.1545565314 1.3117531659 0.7779889214
| 15> O 1.3071875606 -1.0388192214 1.1843730349
| 16> C 1.5789435783 -1.0170493279 2.6030559118
| 17> C 2.8186942228 -1.813281809 2.9512286768
| 18> S 0.9282983589 -0.1089706329 -1.4858886811
| 19> C 0.2508159024 1.4948235542 -0.9762577514
| 20> S -0.7899880764 1.3886704923 0.4948739182
| 21> P -2.3722693695 0.2859064734 -0.432848377
| 22> S -2.7065422134 0.6991571559 -2.3136173136
| 23> O -3.5606507514 0.4486353222 0.608896225
| 24> C -4.0293481449 1.6993419545 1.1486736953
| 25> C -4.3914461462 2.7041471485 0.0757286055
| 26> O -2.0190456455 -1.2429419562 -0.2839384622
| 27> C -1.8300220089 -1.9027307948 0.9898099501
| 28> C -3.0626695897 -2.7036768354 1.3552257689
| 29> H 3.5731561462 -1.4278494264 -2.9278421472
| 30> H 3.8119845033 0.2312363238 -2.3646617515
| 31> H 5.2002052647 -0.7223546726 -2.9072597239
| 32> H 5.0562531133 -0.5533390338 -0.4001784783
| 33> H 4.955430657 -2.2474722842 -0.9697216055
| 34> H 1.6855718596 0.0261567918 2.9171087506
| 35> H 0.6826441792 -1.4493797376 3.0494627379
| 36> H 2.7431720217 -2.8214053328 2.5522806645
| 37> H 3.6991766033 -1.332104791 2.5270855551
| 38> H 2.9269569152 -1.8568137685 4.030415149
| 39> H -0.3450121673 1.8574264681 -1.8142695728
| 40> H 1.0662230358 2.1771352817 -0.7358898379
| 41> H -4.9029968047 1.4129235481 1.7369136115
| 42> H -3.2521444717 2.09915295 1.8060544945
| 43> H -5.1083478559 2.2749214873 -0.6202393564
| 44> H -4.8218759027 3.5863452456 0.5385480123
| 45> H -3.503187688 2.9941899667 -0.4836939038
| 46> H -0.9593549171 -2.5455695051 0.843591457
| 47> H -1.6055755174 -1.148890594 1.7499593326
| 48> H -2.8822045906 -3.2342519338 2.284827843
| 49> H -3.9162846759 -2.041825312 1.4763595731
| 50> H -3.2850946882 -3.4197734023 0.5690552512
| 51> *
| 52>
| 53>                          ****END OF INPUT****

CARTESIAN COORDINATES (ANGSTROEM)
---------------------------------
  C      4.247759   -0.766982   -2.388897
  C      4.466205   -1.272582   -0.977454
  O      3.226775   -1.502019   -0.285436
  P      2.259938   -0.316757    0.143480
  S      3.154557    1.311753    0.777989
  O      1.307188   -1.038819    1.184373
  C      1.578944   -1.017049    2.603056
  C      2.818694   -1.813282    2.951229
  S      0.928298   -0.108971   -1.485889
  C      0.250816    1.494824   -0.976258
  S     -0.789988    1.388670    0.494874
  P     -2.372269    0.285906   -0.432848
  S     -2.706542    0.699157   -2.313617
  O     -3.560651    0.448635    0.608896
  C     -4.029348    1.699342    1.148674
  C     -4.391446    2.704147    0.075729
  O     -2.019046   -1.242942   -0.283938
  C     -1.830022   -1.902731    0.989810
  C     -3.062670   -2.703677    1.355226
  H      3.573156   -1.427849   -2.927842
  H      3.811985    0.231236   -2.364662
  H      5.200205   -0.722355   -2.907260
  H      5.056253   -0.553339   -0.400178
  H      4.955431   -2.247472   -0.969722
  H      1.685572    0.026157    2.917109
  H      0.682644   -1.449380    3.049463
  H      2.743172   -2.821405    2.552281
  H      3.699177   -1.332105    2.527086
  H      2.926957   -1.856814    4.030415
  H     -0.345012    1.857426   -1.814270
  H      1.066223    2.177135   -0.735890
  H     -4.902997    1.412924    1.736914
  H     -3.252144    2.099153    1.806054
  H     -5.108348    2.274921   -0.620239
  H     -4.821876    3.586345    0.538548
  H     -3.503188    2.994190   -0.483694
  H     -0.959355   -2.545570    0.843591
  H     -1.605576   -1.148891    1.749959
  H     -2.882205   -3.234252    2.284828
  H     -3.916285   -2.041825    1.476360
  H     -3.285095   -3.419773    0.569055

 Total Charge           Charge          ....    0
 Multiplicity           Mult            ....    1
 Number of Electrons    NEL             ....  202
 Basis Dimension        Dim             ....  539

ORBITAL ENERGIES
----------------

  NO   OCC          E(Eh)            E(eV)
   0   2.0000     -88.578667     -2410.3481
   1   2.0000     -88.577876     -2410.3265
   2   2.0000     -88.529142     -2409.0004
   3   2.0000     -88.527589     -2408.9582
   4   2.0000     -76.920154     -2093.1038
   5   2.0000     -76.918717     -2093.0647
   6   2.0000     -18.996770      -516.9284
   7   2.0000     -18.996451      -516.9197
   8   2.0000     -18.992611      -516.8152
   9   2.0000     -18.991826      -516.7939
  10   2.0000     -10.103487      -274.9299
  11   2.0000     -10.093518      -274.6586
  12   2.0000     -10.090349      -274.5723
  13   2.0000     -10.090101      -274.5656
  14   2.0000     -10.088906      -274.5331
  15   2.0000     -10.018754      -272.6242
  16   2.0000     -10.018742      -272.6238
  17   2.0000     -10.018623      -272.6206
  18   2.0000     -10.018142      -272.6075
  19   2.0000      -7.872938      -214.2335
  20   2.0000      -7.872136      -214.2117
  21   2.0000      -7.824209      -212.9075
  22   2.0000      -7.822853      -212.8706
  23   2.0000      -6.598443      -179.5528
  24   2.0000      -6.597430      -179.5252
  25   2.0000      -5.819793      -158.3646
  26   2.0000      -5.818907      -158.3405
  27   2.0000      -5.816866      -158.2850
  28   2.0000      -5.815954      -158.2602
  29   2.0000      -5.810032      -158.0990
  30   2.0000      -5.809420      -158.0824
  31   2.0000      -5.771704      -157.0560
  32   2.0000      -5.770543      -157.0245
  33   2.0000      -5.764495      -156.8599
  34   2.0000      -5.764301      -156.8546
  35   2.0000      -5.763099      -156.8219
  36   2.0000      -5.762760      -156.8127
  37   2.0000      -4.744215      -129.0967
  38   2.0000      -4.743599      -129.0799
  39   2.0000      -4.742761      -129.0571
  40   2.0000      -4.742284      -129.0441
  41   2.0000      -4.741801      -129.0310
  42   2.0000      -4.741392      -129.0198
  43   2.0000      -1.054159       -28.6851
  44   2.0000      -1.052474       -28.6393
  45   2.0000      -1.013045       -27.5664
  46   2.0000      -1.011848       -27.5338
  47   2.0000      -0.804330       -21.8869
  48   2.0000      -0.755531       -20.5590
  49   2.0000      -0.744221       -20.2513
  50   2.0000      -0.726722       -19.7751
  51   2.0000      -0.723627       -19.6909
  52   2.0000      -0.710746       -19.3404
  53   2.0000      -0.689737       -18.7687
  54   2.0000      -0.675397       -18.3785
  55   2.0000      -0.631367       -17.1804
  56   2.0000      -0.618927       -16.8419
  57   2.0000      -0.601672       -16.3723
  58   2.0000      -0.599152       -16.3038
  59   2.0000      -0.593704       -16.1555
  60   2.0000      -0.525530       -14.3004
  61   2.0000      -0.512803       -13.9541
  62   2.0000      -0.490366       -13.3435
  63   2.0000      -0.488693       -13.2980
  64   2.0000      -0.476588       -12.9686
  65   2.0000      -0.462358       -12.5814
  66   2.0000      -0.454506       -12.3677
  67   2.0000      -0.448393       -12.2014
  68   2.0000      -0.444345       -12.0912
  69   2.0000      -0.428779       -11.6677
  70   2.0000      -0.423526       -11.5247
  71   2.0000      -0.413349       -11.2478
  72   2.0000      -0.407658       -11.0929
  73   2.0000      -0.402704       -10.9581
  74   2.0000      -0.395936       -10.7740
  75   2.0000      -0.387663       -10.5489
  76   2.0000      -0.380164       -10.3448
  77   2.0000      -0.368466       -10.0265
  78   2.0000      -0.365699        -9.9512
  79   2.0000      -0.359293        -9.7769
  80   2.0000      -0.353768        -9.6265
  81   2.0000      -0.352214        -9.5842
  82   2.0000      -0.351199        -9.5566
  83   2.0000      -0.348053        -9.4710
  84   2.0000      -0.346151        -9.4192
  85   2.0000      -0.334238        -9.0951
  86   2.0000      -0.322793        -8.7837
  87   2.0000      -0.308102        -8.3839
  88   2.0000      -0.305360        -8.3093
  89   2.0000      -0.302235        -8.2242
  90   2.0000      -0.298005        -8.1091
  91   2.0000      -0.292519        -7.9598
  92   2.0000      -0.287264        -7.8169
  93   2.0000      -0.280161        -7.6236
  94   2.0000      -0.274002        -7.4560
  95   2.0000      -0.249955        -6.8016
  96   2.0000      -0.236868        -6.4455
  97   2.0000      -0.234309        -6.3759
  98   2.0000      -0.226018        -6.1503
  99   2.0000      -0.222437        -6.0528
 100   2.0000      -0.221048        -6.0150
 101   0.0000      -0.051087        -1.3901
 102   0.0000      -0.031343        -0.8529
 103   0.0000      -0.007201        -0.1959
 104   0.0000      -0.004570        -0.1243
 105   0.0000       0.014127         0.3844

MULLIKEN ATOMIC CHARGES
-----------------------
   0 C :   -0.488524
   1 C :   -0.150717
   2 O :   -0.331510
   3 P :    0.722303
   4 S :   -0.532701
   5 O :   -0.286795
   6 C :   -0.153564
   7 C :   -0.482669
   8 S :   -0.127557
   9 C :   -0.250093
  10 S :   -0.175159
  11 P :    0.670916
  12 S :   -0.492863
  13 O :   -0.312341
  14 C :   -0.161709
  15 C :   -0.465551
  16 O :   -0.287454
  17 C :   -0.093907
  18 C :   -0.531228
  19 H :    0.169761
  20 H :    0.172709
  21 H :    0.173073
  22 H :    0.177749
  23 H :    0.175877
  24 H :    0.177824
  25 H :    0.179774
  26 H :    0.170259
  27 H :    0.168887
  28 H :    0.172374
  29 H :    0.233012
  30 H :    0.234976
  31 H :    0.177778
  32 H :    0.172938
  33 H :    0.170416
  34 H :    0.173578
  35 H :    0.165044
  36 H :    0.180869
  37 H :    0.174755
  38 H :    0.171069
  39 H :    0.169854
  40 H :    0.168546
Sum of atomic charges:   -0.0000000

LOEWDIN ATOMIC CHARGES
----------------------
   0 C :   -0.409816
   1 C :    0.025715
   2 O :   -0.671966
   3 P :    0.384023
   4 S :   -0.160552
   5 O :   -0.690659
   6 C :    0.021437
   7 C :   -0.402609
   8 S :    0.168794
   9 C :   -0.420119
  10 S :    0.143320
  11 P :    0.385034
  12 S :   -0.145812
  13 O :   -0.674843
  14 C :    0.030881
  15 C :   -0.409720
  16 O :   -0.675736
  17 C :    0.025655
  18 C :   -0.394447
  19 H :    0.163710
  20 H :    0.161621
  21 H :    0.168602
  22 H :    0.181671
  23 H :    0.191211
  24 H :    0.182210
  25 H :    0.190999
  26 H :    0.164316
  27 H :    0.162846
  28 H :    0.168807
  29 H :    0.197650
  30 H :    0.197050
  31 H :    0.193027
  32 H :    0.179806
  33 H :    0.164455
  34 H :    0.168608
  35 H :    0.162001
  36 H :    0.191647
  37 H :    0.183463
  38 H :    0.168723
  39 H :    0.165115
  40 H :    0.163880

  Mayer bond orders larger than 0.100000
B(  0-C ,  1-C ) :   0.9101 B(  0-C , 19-H ) :   0.9658 B(  0-C , 20-H ) :   0.9634
B(  0-C , 21-H ) :   0.9532 B(  1-C ,  2-O ) :   0.7998 B(  1-C , 22-H ) :   0.9651
B(  1-C , 23-H ) :   0.9483 B(  2-O ,  3-P ) :   1.0773 B(  3-P ,  4-S ) :   1.6983
B(  3-P ,  5-O ) :   1.1410 B(  3-P ,  8-S ) :   1.1110 B(  5-O ,  6-C ) :   0.7723
B(  6-C ,  7-C ) :   0.9089 B(  6-C , 24-H ) :   0.9598 B(  6-C , 25-H ) :   0.9508
B(  7-C , 26-H ) :   0.9713 B(  7-C , 27-H ) :   0.9592 B(  7-C , 28-H ) :   0.9559
B(  8-S ,  9-C ) :   0.9030 B(  9-C , 10-S ) :   0.9004 B(  9-C , 29-H ) :   0.9007
B(  9-C , 30-H ) :   0.9033 B( 10-S , 11-P ) :   1.0034 B( 11-P , 12-S ) :   1.8252
B( 11-P , 13-O ) :   1.0548 B( 11-P , 16-O ) :   1.1454 B( 13-O , 14-C ) :   0.7941
B( 14-C , 15-C ) :   0.9206 B( 14-C , 31-H ) :   0.9489 B( 14-C , 32-H ) :   0.9572
B( 15-C , 33-H ) :   0.9666 B( 15-C , 34-H ) :   0.9557 B( 15-C , 35-H ) :   0.9579
B( 16-O , 17-C ) :   0.7255 B( 17-C , 18-C ) :   0.9301 B( 17-C , 36-H ) :   0.9457
B( 17-C , 37-H ) :   0.9554 B( 18-C , 38-H ) :   0.9594 B( 18-C , 39-H ) :   0.9702
B( 18-C , 40-H ) :   0.9723

Dispersion correction           -0.021658134
FINAL SINGLE POINT ENERGY     -2932.471892951939

DIPOLE MOMENT
-------------

Method             : SCF
Type of density    : Electron Density
Multiplicity       :   1
Irrep              :   0
Energy             : -2932.4966944774728290 Eh
Relativity type    :
Basis              : AO
                                X                 Y                 Z
Electronic contribution:     -0.500873072       7.090229619     -10.070606416
Nuclear contribution   :      0.835985544      -7.755248269      12.412742977
                        -----------------------------------------
Total Dipole Moment    :      0.335112472      -0.665018650       2.342136562
                        -----------------------------------------
Magnitude (a.u.)       :      2.457672445
Magnitude (Debye)      :      6.246906905

Rotational constants in cm-1:             0.012727             0.004917             0.004523
Rotational constants in MHz :           381.542901           147.408954           135.589135

                             ****ORCA TERMINATED NORMALLY****
TOTAL RUN TIME: 0 days 0 hours 1 minutes 50 seconds 121 msec
