                         Program Version 6.0.0  -   RELEASE  -
|  1> ! pbe def2-sv(p) def2/J RI DEFGRID1 loosescf d4 GCP(DFT/SV(P)) printgap
|  2> %output
|  3>     printlevel normal
|  4> end
|  5> * xyz 0 1
|  6> C 3.3290691532 0.0352530947 -2.621963288
|  7> C 1.9173690671 0.4141988231 -2.2314767432
|  8> O 1.3727075872 -0.4873948401 -1.2480219901
|  9> P 1.9601188098 -0.5976536006 0.2151037819
| 10> S 2.6487179864 1.0401088667 1.0527673574
| 11> O 3.009803081 -1.7768323405 0.0157988667
| 12> C 3.8401401317 -2.2562911868 1.0921427172
| 13> C 5.2076800243 -1.6022714474 1.0496995845
| 14> S 0.427838041 -1.5940843741 1.2606521318
| 15> C -0.3281442366 -0.2097576839 2.1797164663
| 16> S -2.0741346755 0.0148292471 1.7823311986
| 17> P -1.8301139789 0.7302392648 -0.2065812361
| 18> S -0.4964053026 2.1442945853 -0.4263602083
| 19> O -3.3148206343 1.1300212475 -0.5986426562
| 20> C -3.9548341048 2.2823323243 -0.0104473133
| 21> C -5.2084256026 2.5747473526 -0.8091902258
| 22> O -1.5416306045 -0.5144696553 -1.1221502229
| 23> C -2.371690668 -1.7050399523 -1.1541770457
| 24> C -3.3674361267 -1.6330399993 -2.2923201239
| 25> H 3.6633941005 0.6805975985 -3.4282671322
| 26> H 3.9924587961 0.1625939194 -1.7671442168
| 27> H 3.36329132 -1.0021484351 -2.9443917892
| 28> H 1.221032732 0.3336804411 -3.0676182261
| 29> H 1.8804443493 1.4315314526 -1.8270895899
| 30> H 3.3434887439 -2.0614236276 2.0470457461
| 31> H 3.9078191829 -3.3335496514 0.9302259327
| 32> H 5.8282519336 -2.0201652454 1.835610321
| 33> H 5.6778155111 -1.7801155649 0.0866156821
| 34> H 5.1149385425 -0.5294444864 1.2048439035
| 35> H 0.2288769984 0.7052283684 1.9572194252
| 36> H -0.2868017535 -0.4467247545 3.2396130196
| 37> H -4.1884044322 2.0474372711 1.0313310784
| 38> H -3.2523024646 3.1215179674 -0.0395004796
| 39> H -5.7066336097 3.4390675587 -0.3827367113
| 40> H -4.9520426653 2.7836893829 -1.8439734253
| 41> H -5.8788945412 1.7210434955 -0.7754689467
| 42> H -1.6615333154 -2.5234385701 -1.2887323905
| 43> H -2.8765164743 -1.8113999016 -0.1898346017
| 44> H -3.929530677 -2.56105826 -2.3280072773
| 45> H -4.0518682694 -0.8027349307 -2.1410217056
| 46> H -2.8474247551 -1.4914684604 -3.2357748641
| 47> *
| 48>
| 49>                          ****END OF INPUT****

CARTESIAN COORDINATES (ANGSTROEM)
---------------------------------
  C      3.329069    0.035253   -2.621963
  C      1.917369    0.414199   -2.231477
  O      1.372708   -0.487395   -1.248022
  P      1.960119   -0.597654    0.215104
  S      2.648718    1.040109    1.052767
  O      3.009803   -1.776832    0.015799
  C      3.840140   -2.256291    1.092143
  C      5.207680   -1.602271    1.049700
  S      0.427838   -1.594084    1.260652
  C     -0.328144   -0.209758    2.179716
  S     -2.074135    0.014829    1.782331
  P     -1.830114    0.730239   -0.206581
  S     -0.496405    2.144295   -0.426360
  O     -3.314821    1.130021   -0.598643
  C     -3.954834    2.282332   -0.010447
  C     -5.208426    2.574747   -0.809190
  O     -1.541631   -0.514470   -1.122150
  C     -2.371691   -1.705040   -1.154177
  C     -3.367436   -1.633040   -2.292320
  H      3.663394    0.680598   -3.428267
  H      3.992459    0.162594   -1.767144
  H      3.363291   -1.002148   -2.944392
  H      1.221033    0.333680   -3.067618
  H      1.880444    1.431531   -1.827090
  H      3.343489   -2.061424    2.047046
  H      3.907819   -3.333550    0.930226
  H      5.828252   -2.020165    1.835610
  H      5.677816   -1.780116    0.086616
  H      5.114939   -0.529444    1.204844
  H      0.228877    0.705228    1.957219
  H     -0.286802   -0.446725    3.239613
  H     -4.188404    2.047437    1.031331
  H     -3.252302    3.121518   -0.039500
  H     -5.706634    3.439068   -0.382737
  H     -4.952043    2.783689   -1.843973
  H     -5.878895    1.721043   -0.775469
  H     -1.661533   -2.523439   -1.288732
  H     -2.876516   -1.811400   -0.189835
  H     -3.929531   -2.561058   -2.328007
  H     -4.051868   -0.802735   -2.141022
  H     -2.847425   -1.491468   -3.235775

 Total Charge           Charge          ....    0
 Multiplicity           Mult            ....    1
 Number of Electrons    NEL             ....  202
 Basis Dimension        Dim             ....  334

ORBITAL ENERGIES
----------------

  NO   OCC          E(Eh)            E(eV)
   0   2.0000     -88.042642     -2395.7621
   1   2.0000     -88.040218     -2395.6961
   2   2.0000     -87.980723     -2394.0772
   3   2.0000     -87.979184     -2394.0353
   4   2.0000     -76.423180     -2079.5805
   5   2.0000     -76.420407     -2079.5050
   6   2.0000     -18.796283      -511.4729
   7   2.0000     -18.790365      -511.3118
   8   2.0000     -18.787762      -511.2410
   9   2.0000     -18.779335      -511.0117
  10   2.0000      -9.955367      -270.8993
  11   2.0000      -9.953359      -270.8447
  12   2.0000      -9.952467      -270.8204
  13   2.0000      -9.950440      -270.7652
  14   2.0000      -9.938139      -270.4305
  15   2.0000      -9.891195      -269.1531
  16   2.0000      -9.885398      -268.9954
  17   2.0000      -9.878253      -268.8009
  18   2.0000      -9.875006      -268.7126
  19   2.0000      -7.687914      -209.1988
  20   2.0000      -7.685430      -209.1312
  21   2.0000      -7.625666      -207.5049
  22   2.0000      -7.624216      -207.4655
  23   2.0000      -6.420887      -174.7212
  24   2.0000      -6.417931      -174.6408
  25   2.0000      -5.715641      -155.5305
  26   2.0000      -5.713253      -155.4655
  27   2.0000      -5.712256      -155.4384
  28   2.0000      -5.709890      -155.3740
  29   2.0000      -5.705191      -155.2461
  30   2.0000      -5.702443      -155.1714
  31   2.0000      -5.654509      -153.8670
  32   2.0000      -5.653198      -153.8313
  33   2.0000      -5.646435      -153.6473
  34   2.0000      -5.645751      -153.6287
  35   2.0000      -5.644712      -153.6004
  36   2.0000      -5.644391      -153.5917
  37   2.0000      -4.643759      -126.3631
  38   2.0000      -4.642772      -126.3362
  39   2.0000      -4.640893      -126.2851
  40   2.0000      -4.640244      -126.2675
  41   2.0000      -4.639601      -126.2500
  42   2.0000      -4.638733      -126.2264
  43   2.0000      -0.989046       -26.9133
  44   2.0000      -0.980059       -26.6688
  45   2.0000      -0.946168       -25.7465
  46   2.0000      -0.937204       -25.5026
  47   2.0000      -0.760986       -20.7075
  48   2.0000      -0.720002       -19.5923
  49   2.0000      -0.707048       -19.2398
  50   2.0000      -0.693042       -18.8586
  51   2.0000      -0.680409       -18.5149
  52   2.0000      -0.671110       -18.2618
  53   2.0000      -0.646920       -17.6036
  54   2.0000      -0.631601       -17.1867
  55   2.0000      -0.593272       -16.1437
  56   2.0000      -0.587050       -15.9744
  57   2.0000      -0.570876       -15.5343
  58   2.0000      -0.566261       -15.4087
  59   2.0000      -0.559116       -15.2143
  60   2.0000      -0.509112       -13.8536
  61   2.0000      -0.493895       -13.4396
  62   2.0000      -0.481075       -13.0907
  63   2.0000      -0.465953       -12.6792
  64   2.0000      -0.448065       -12.1925
  65   2.0000      -0.445116       -12.1122
  66   2.0000      -0.435380       -11.8473
  67   2.0000      -0.433708       -11.8018
  68   2.0000      -0.431842       -11.7510
  69   2.0000      -0.412629       -11.2282
  70   2.0000      -0.404185       -10.9984
  71   2.0000      -0.394820       -10.7436
  72   2.0000      -0.389021       -10.5858
  73   2.0000      -0.382839       -10.4176
  74   2.0000      -0.380758       -10.3609
  75   2.0000      -0.368530       -10.0282
  76   2.0000      -0.364316        -9.9135
  77   2.0000      -0.357651        -9.7322
  78   2.0000      -0.352947        -9.6042
  79   2.0000      -0.350780        -9.5452
  80   2.0000      -0.344800        -9.3825
  81   2.0000      -0.341938        -9.3046
  82   2.0000      -0.338831        -9.2201
  83   2.0000      -0.333027        -9.0621
  84   2.0000      -0.328396        -8.9361
  85   2.0000      -0.317410        -8.6372
  86   2.0000      -0.309570        -8.4238
  87   2.0000      -0.301477        -8.2036
  88   2.0000      -0.292992        -7.9727
  89   2.0000      -0.290757        -7.9119
  90   2.0000      -0.277508        -7.5514
  91   2.0000      -0.272227        -7.4077
  92   2.0000      -0.263818        -7.1788
  93   2.0000      -0.260669        -7.0932
  94   2.0000      -0.256881        -6.9901
  95   2.0000      -0.236781        -6.4431
  96   2.0000      -0.221308        -6.0221
  97   2.0000      -0.211883        -5.7656
  98   2.0000      -0.201522        -5.4837
  99   2.0000      -0.191173        -5.2021
 100   2.0000      -0.183202        -4.9852
 101   0.0000      -0.037435        -1.0187
 102   0.0000      -0.027999        -0.7619
 103   0.0000      -0.005983        -0.1628
 104   0.0000       0.016516         0.4494
 105   0.0000       0.023136         0.6296

MULLIKEN ATOMIC CHARGES
-----------------------
   0 C :   -0.306020
   1 C :   -0.002023
   2 O :   -0.351387
   3 P :    0.606008
   4 S :   -0.317674
   5 O :   -0.374778
   6 C :   -0.006008
   7 C :   -0.292546
   8 S :   -0.099407
   9 C :   -0.356634
  10 S :   -0.112431
  11 P :    0.593279
  12 S :   -0.299634
  13 O :   -0.383707
  14 C :   -0.013709
  15 C :   -0.282521
  16 O :   -0.340474
  17 C :   -0.009983
  18 C :   -0.289012
  19 H :    0.108743
  20 H :    0.123879
  21 H :    0.111786
  22 H :    0.101087
  23 H :    0.124298
  24 H :    0.097084
  25 H :    0.104482
  26 H :    0.106150
  27 H :    0.113656
  28 H :    0.128387
  29 H :    0.211926
  30 H :    0.181905
  31 H :    0.105502
  32 H :    0.108539
  33 H :    0.114320
  34 H :    0.122767
  35 H :    0.116026
  36 H :    0.110873
  37 H :    0.099785
  38 H :    0.108721
  39 H :    0.121009
  40 H :    0.117737
Sum of atomic charges:   -0.0000000

LOEWDIN ATOMIC CHARGES
----------------------
   0 C :   -0.366878
   1 C :   -0.117814
   2 O :   -0.228853
   3 P :    0.568848
   4 S :   -0.310193
   5 O :   -0.247561
   6 C :   -0.117294
   7 C :   -0.363461
   8 S :    0.075756
   9 C :   -0.479019
  10 S :    0.062142
  11 P :    0.560551
  12 S :   -0.291956
  13 O :   -0.250649
  14 C :   -0.120212
  15 C :   -0.350493
  16 O :   -0.223826
  17 C :   -0.116366
  18 C :   -0.359848
  19 H :    0.129064
  20 H :    0.121302
  21 H :    0.123708
  22 H :    0.118097
  23 H :    0.109629
  24 H :    0.105444
  25 H :    0.117276
  26 H :    0.127984
  27 H :    0.124669
  28 H :    0.124476
  29 H :    0.126758
  30 H :    0.136853
  31 H :    0.108769
  32 H :    0.111455
  33 H :    0.132072
  34 H :    0.129800
  35 H :    0.125631
  36 H :    0.120079
  37 H :    0.102264
  38 H :    0.129160
  39 H :    0.124924
  40 H :    0.127712

  Mayer bond orders larger than 0.100000
B(  0-C ,  1-C ) :   1.1580 B(  0-C , 19-H ) :   0.9386 B(  0-C , 20-H ) :   0.9341
B(  0-C , 21-H ) :   0.9447 B(  1-C ,  2-O ) :   0.9002 B(  1-C , 22-H ) :   0.9360
B(  1-C , 23-H ) :   0.9123 B(  2-O ,  3-P ) :   1.1550 B(  3-P ,  4-S ) :   1.5999
B(  3-P ,  5-O ) :   1.0957 B(  3-P ,  8-S ) :   0.9608 B(  4-S ,  8-S ) :   0.1180
B(  5-O ,  6-C ) :   0.9076 B(  6-C ,  7-C ) :   1.1680 B(  6-C , 24-H ) :   0.9126
B(  6-C , 25-H ) :   0.9360 B(  7-C , 26-H ) :   0.9399 B(  7-C , 27-H ) :   0.9459
B(  7-C , 28-H ) :   0.9310 B(  8-S ,  9-C ) :   0.9929 B(  9-C , 10-S ) :   1.0025
B(  9-C , 29-H ) :   0.8458 B(  9-C , 30-H ) :   0.9120 B( 10-S , 11-P ) :   0.9456
B( 10-S , 12-S ) :   0.1055 B( 11-P , 12-S ) :   1.6621 B( 11-P , 13-O ) :   1.0763
B( 11-P , 16-O ) :   1.1537 B( 13-O , 14-C ) :   0.9039 B( 14-C , 15-C ) :   1.1595
B( 14-C , 31-H ) :   0.9278 B( 14-C , 32-H ) :   0.9107 B( 15-C , 33-H ) :   0.9417
B( 15-C , 34-H ) :   0.9508 B( 15-C , 35-H ) :   0.9507 B( 16-O , 17-C ) :   0.8884
B( 17-C , 18-C ) :   1.1640 B( 17-C , 36-H ) :   0.9325 B( 17-C , 37-H ) :   0.9104
B( 18-C , 38-H ) :   0.9401 B( 18-C , 39-H ) :   0.9410 B( 18-C , 40-H ) :   0.9473

Dispersion correction           -0.066388466
FINAL SINGLE POINT ENERGY     -2929.521633930980

DIPOLE MOMENT
-------------

Method             : SCF
Type of density    : Electron Density
Multiplicity       :   1
Irrep              :   0
Energy             : -2929.6403927742958331 Eh
Relativity type    :
Basis              : AO
                                X                 Y                 Z
Electronic contribution:      0.558119596       2.901593689      12.082462213
Nuclear contribution   :     -1.460781251      -3.883197040     -12.285367982
                        -----------------------------------------
Total Dipole Moment    :     -0.902661655      -0.981603351      -0.202905769
                        -----------------------------------------
Magnitude (a.u.)       :      1.348893603
Magnitude (Debye)      :      3.428615063

Rotational constants in cm-1:             0.013949             0.004825             0.004731
Rotational constants in MHz :           418.189901           144.639881           141.834847

                             ****ORCA TERMINATED NORMALLY****
TOTAL RUN TIME: 0 days 0 hours 0 minutes 21 seconds 617 msec
