                         Program Version 6.0.0  -   RELEASE  -
|  1> ! pbe def2-sv(p) def2/J RI DEFGRID1 loosescf d4 GCP(DFT/SV(P)) printgap
|  2> %output
|  3>     printlevel normal
|  4> end
|  5> * xyz 0 1
|  6> C 1.6078295199 -2.3212441368 2.7047743041
|  7> C 0.852947933 -1.7372311797 1.5269694852
|  8> O 1.328280028 -0.4057527161 1.2643137865
|  9> P 2.1163119189 0.0399737022 -0.0448988717
| 10> S 2.8352102461 -1.4479102488 -1.1052174406
| 11> O 3.1011795822 1.14658674 0.5150951145
| 12> C 3.9772217508 0.936206606 1.6439471147
| 13> C 5.1585011774 0.0544644656 1.2910832469
| 14> S 0.8947483142 1.4136932799 -1.0942834741
| 15> C 0.1402553005 0.2161409591 -2.2269373446
| 16> S -0.8630528067 -1.0282001912 -1.3779482366
| 17> P -2.2540304506 0.3209328534 -0.5104285047
| 18> S -2.7688652507 1.8564105148 -1.6000805639
| 19> O -1.5247614943 0.6370297317 0.8797412632
| 20> C -1.5197978562 1.9470301395 1.4736932889
| 21> C -2.838361096 2.2351894638 2.161919305
| 22> O -3.5087489038 -0.5675923192 -0.1376066153
| 23> C -3.5131685633 -1.6269256395 0.851841864
| 24> C -3.176790831 -2.9677010725 0.2316050504
| 25> H 1.5101957637 -1.6764746378 3.5738005614
| 26> H 1.2000998747 -3.2997795553 2.9361330377
| 27> H 2.6614441625 -2.427303822 2.4561183887
| 28> H -0.2131817847 -1.6384493255 1.739887043
| 29> H 0.9910001527 -2.3516411304 0.63128474
| 30> H 4.29921294 1.9446908233 1.9093858196
| 31> H 3.3958138706 0.5058795181 2.4630868189
| 32> H 5.704090591 0.4759428594 0.4507003574
| 33> H 5.8205327754 -0.0200740902 2.1480948346
| 34> H 4.8197890033 -0.9422379399 1.013538695
| 35> H 0.9183701759 -0.3291604249 -2.7610026135
| 36> H -0.4881576177 0.7870792026 -2.9095174335
| 37> H -0.6851012275 1.9206388353 2.1762770388
| 38> H -1.3183185424 2.6872794437 0.6929254439
| 39> H -2.7980595303 3.2186787027 2.6191006231
| 40> H -3.6434179959 2.2192579933 1.4276504885
| 41> H -3.0413024733 1.4900037299 2.9265417723
| 42> H -2.8125384797 -1.3681966532 1.648871033
| 43> H -4.5337141084 -1.6159941049 1.2383595964
| 44> H -3.8545588191 -3.1771321962 -0.5911627281
| 45> H -2.157521213 -2.9725871711 -0.1498680969
| 46> H -3.2786864775 -3.7421248916 0.9854440046
| 47> *
| 48>
| 49>                          ****END OF INPUT****

CARTESIAN COORDINATES (ANGSTROEM)
---------------------------------
  C      1.607830   -2.321244    2.704774
  C      0.852948   -1.737231    1.526969
  O      1.328280   -0.405753    1.264314
  P      2.116312    0.039974   -0.044899
  S      2.835210   -1.447910   -1.105217
  O      3.101180    1.146587    0.515095
  C      3.977222    0.936207    1.643947
  C      5.158501    0.054464    1.291083
  S      0.894748    1.413693   -1.094283
  C      0.140255    0.216141   -2.226937
  S     -0.863053   -1.028200   -1.377948
  P     -2.254030    0.320933   -0.510429
  S     -2.768865    1.856411   -1.600081
  O     -1.524761    0.637030    0.879741
  C     -1.519798    1.947030    1.473693
  C     -2.838361    2.235189    2.161919
  O     -3.508749   -0.567592   -0.137607
  C     -3.513169   -1.626926    0.851842
  C     -3.176791   -2.967701    0.231605
  H      1.510196   -1.676475    3.573801
  H      1.200100   -3.299780    2.936133
  H      2.661444   -2.427304    2.456118
  H     -0.213182   -1.638449    1.739887
  H      0.991000   -2.351641    0.631285
  H      4.299213    1.944691    1.909386
  H      3.395814    0.505880    2.463087
  H      5.704091    0.475943    0.450700
  H      5.820533   -0.020074    2.148095
  H      4.819789   -0.942238    1.013539
  H      0.918370   -0.329160   -2.761003
  H     -0.488158    0.787079   -2.909517
  H     -0.685101    1.920639    2.176277
  H     -1.318319    2.687279    0.692925
  H     -2.798060    3.218679    2.619101
  H     -3.643418    2.219258    1.427650
  H     -3.041302    1.490004    2.926542
  H     -2.812538   -1.368197    1.648871
  H     -4.533714   -1.615994    1.238360
  H     -3.854559   -3.177132   -0.591163
  H     -2.157521   -2.972587   -0.149868
  H     -3.278686   -3.742125    0.985444

 Total Charge           Charge          ....    0
 Multiplicity           Mult            ....    1
 Number of Electrons    NEL             ....  202
 Basis Dimension        Dim             ....  334

ORBITAL ENERGIES
----------------

  NO   OCC          E(Eh)            E(eV)
   0   2.0000     -88.042372     -2395.7547
   1   2.0000     -88.039265     -2395.6702
   2   2.0000     -87.989413     -2394.3136
   3   2.0000     -87.986859     -2394.2441
   4   2.0000     -76.427888     -2079.7086
   5   2.0000     -76.427462     -2079.6970
   6   2.0000     -18.797487      -511.5056
   7   2.0000     -18.794920      -511.4358
   8   2.0000     -18.794425      -511.4223
   9   2.0000     -18.790686      -511.3206
  10   2.0000      -9.964048      -271.1355
  11   2.0000      -9.959506      -271.0119
  12   2.0000      -9.951727      -270.8003
  13   2.0000      -9.951619      -270.7973
  14   2.0000      -9.948664      -270.7169
  15   2.0000      -9.894975      -269.2560
  16   2.0000      -9.890897      -269.1450
  17   2.0000      -9.886167      -269.0163
  18   2.0000      -9.884617      -268.9741
  19   2.0000      -7.686957      -209.1727
  20   2.0000      -7.684182      -209.0972
  21   2.0000      -7.634318      -207.7403
  22   2.0000      -7.632144      -207.6812
  23   2.0000      -6.425315      -174.8417
  24   2.0000      -6.424993      -174.8330
  25   2.0000      -5.714790      -155.5073
  26   2.0000      -5.712160      -155.4358
  27   2.0000      -5.711589      -155.4202
  28   2.0000      -5.708801      -155.3444
  29   2.0000      -5.703903      -155.2111
  30   2.0000      -5.700942      -155.1305
  31   2.0000      -5.663103      -154.1009
  32   2.0000      -5.661204      -154.0492
  33   2.0000      -5.655157      -153.8847
  34   2.0000      -5.654399      -153.8640
  35   2.0000      -5.652643      -153.8162
  36   2.0000      -5.652223      -153.8048
  37   2.0000      -4.648141      -126.4823
  38   2.0000      -4.647961      -126.4775
  39   2.0000      -4.646808      -126.4461
  40   2.0000      -4.646340      -126.4334
  41   2.0000      -4.645817      -126.4191
  42   2.0000      -4.645523      -126.4111
  43   2.0000      -0.989461       -26.9246
  44   2.0000      -0.987204       -26.8632
  45   2.0000      -0.946468       -25.7547
  46   2.0000      -0.944939       -25.7131
  47   2.0000      -0.764819       -20.8118
  48   2.0000      -0.725676       -19.7467
  49   2.0000      -0.713481       -19.4148
  50   2.0000      -0.692875       -18.8541
  51   2.0000      -0.691975       -18.8296
  52   2.0000      -0.673259       -18.3203
  53   2.0000      -0.653421       -17.7805
  54   2.0000      -0.639515       -17.4021
  55   2.0000      -0.599246       -16.3063
  56   2.0000      -0.590962       -16.0809
  57   2.0000      -0.582574       -15.8526
  58   2.0000      -0.578971       -15.7546
  59   2.0000      -0.559931       -15.2365
  60   2.0000      -0.505489       -13.7551
  61   2.0000      -0.499326       -13.5873
  62   2.0000      -0.480604       -13.0779
  63   2.0000      -0.478443       -13.0191
  64   2.0000      -0.458100       -12.4655
  65   2.0000      -0.451649       -12.2900
  66   2.0000      -0.441693       -12.0191
  67   2.0000      -0.437589       -11.9074
  68   2.0000      -0.429839       -11.6965
  69   2.0000      -0.414638       -11.2829
  70   2.0000      -0.410887       -11.1808
  71   2.0000      -0.398318       -10.8388
  72   2.0000      -0.392613       -10.6835
  73   2.0000      -0.382356       -10.4044
  74   2.0000      -0.378027       -10.2866
  75   2.0000      -0.377690       -10.2775
  76   2.0000      -0.374199       -10.1825
  77   2.0000      -0.362881        -9.8745
  78   2.0000      -0.360401        -9.8070
  79   2.0000      -0.355981        -9.6867
  80   2.0000      -0.353315        -9.6142
  81   2.0000      -0.351144        -9.5551
  82   2.0000      -0.346102        -9.4179
  83   2.0000      -0.341593        -9.2952
  84   2.0000      -0.335777        -9.1369
  85   2.0000      -0.325406        -8.8548
  86   2.0000      -0.315766        -8.5924
  87   2.0000      -0.304169        -8.2769
  88   2.0000      -0.295861        -8.0508
  89   2.0000      -0.294088        -8.0025
  90   2.0000      -0.282911        -7.6984
  91   2.0000      -0.279808        -7.6140
  92   2.0000      -0.274168        -7.4605
  93   2.0000      -0.271819        -7.3966
  94   2.0000      -0.258371        -7.0306
  95   2.0000      -0.231913        -6.3107
  96   2.0000      -0.216187        -5.8827
  97   2.0000      -0.213905        -5.8206
  98   2.0000      -0.207390        -5.6434
  99   2.0000      -0.199818        -5.4373
 100   2.0000      -0.198258        -5.3949
 101   0.0000      -0.045507        -1.2383
 102   0.0000      -0.024174        -0.6578
 103   0.0000      -0.001470        -0.0400
 104   0.0000       0.002642         0.0719
 105   0.0000       0.006758         0.1839

MULLIKEN ATOMIC CHARGES
-----------------------
   0 C :   -0.286288
   1 C :   -0.030368
   2 O :   -0.376499
   3 P :    0.645947
   4 S :   -0.334436
   5 O :   -0.375525
   6 C :   -0.014388
   7 C :   -0.312892
   8 S :   -0.077898
   9 C :   -0.343732
  10 S :   -0.121622
  11 P :    0.632472
  12 S :   -0.310283
  13 O :   -0.387284
  14 C :   -0.005572
  15 C :   -0.304093
  16 O :   -0.364778
  17 C :   -0.036156
  18 C :   -0.311224
  19 H :    0.112959
  20 H :    0.109967
  21 H :    0.116804
  22 H :    0.106353
  23 H :    0.119089
  24 H :    0.110040
  25 H :    0.107960
  26 H :    0.123693
  27 H :    0.109162
  28 H :    0.133777
  29 H :    0.193586
  30 H :    0.192730
  31 H :    0.100155
  32 H :    0.117942
  33 H :    0.112381
  34 H :    0.126355
  35 H :    0.106797
  36 H :    0.121422
  37 H :    0.113275
  38 H :    0.127942
  39 H :    0.139475
  40 H :    0.112754
Sum of atomic charges:    0.0000000

LOEWDIN ATOMIC CHARGES
----------------------
   0 C :   -0.356591
   1 C :   -0.129406
   2 O :   -0.238889
   3 P :    0.570003
   4 S :   -0.316247
   5 O :   -0.245304
   6 C :   -0.112284
   7 C :   -0.366147
   8 S :    0.100965
   9 C :   -0.481142
  10 S :    0.085021
  11 P :    0.572254
  12 S :   -0.304913
  13 O :   -0.249255
  14 C :   -0.123204
  15 C :   -0.364368
  16 O :   -0.241772
  17 C :   -0.115609
  18 C :   -0.363549
  19 H :    0.122695
  20 H :    0.130260
  21 H :    0.124176
  22 H :    0.107418
  23 H :    0.104123
  24 H :    0.121560
  25 H :    0.109853
  26 H :    0.131101
  27 H :    0.129063
  28 H :    0.121627
  29 H :    0.131162
  30 H :    0.132800
  31 H :    0.115280
  32 H :    0.108598
  33 H :    0.130902
  34 H :    0.124849
  35 H :    0.119970
  36 H :    0.108732
  37 H :    0.123444
  38 H :    0.133142
  39 H :    0.117942
  40 H :    0.131742

  Mayer bond orders larger than 0.100000
B(  0-C ,  1-C ) :   1.1592 B(  0-C , 19-H ) :   0.9471 B(  0-C , 20-H ) :   0.9410
B(  0-C , 21-H ) :   0.9435 B(  1-C ,  2-O ) :   0.9050 B(  1-C , 22-H ) :   0.9209
B(  1-C , 23-H ) :   0.8977 B(  2-O ,  3-P ) :   1.0877 B(  3-P ,  4-S ) :   1.6095
B(  3-P ,  5-O ) :   1.1247 B(  3-P ,  8-S ) :   0.9506 B(  4-S ,  8-S ) :   0.1087
B(  5-O ,  6-C ) :   0.9112 B(  6-C ,  7-C ) :   1.1646 B(  6-C , 24-H ) :   0.9354
B(  6-C , 25-H ) :   0.9232 B(  7-C , 26-H ) :   0.9455 B(  7-C , 27-H ) :   0.9377
B(  7-C , 28-H ) :   0.9329 B(  8-S ,  9-C ) :   1.0088 B(  9-C , 10-S ) :   0.9967
B(  9-C , 29-H ) :   0.8814 B(  9-C , 30-H ) :   0.8857 B( 10-S , 11-P ) :   0.9470
B( 10-S , 12-S ) :   0.1019 B( 11-P , 12-S ) :   1.6357 B( 11-P , 13-O ) :   1.0634
B( 11-P , 16-O ) :   1.1297 B( 13-O , 14-C ) :   0.8983 B( 14-C , 15-C ) :   1.1614
B( 14-C , 31-H ) :   0.9324 B( 14-C , 32-H ) :   0.9098 B( 15-C , 33-H ) :   0.9410
B( 15-C , 34-H ) :   0.9367 B( 15-C , 35-H ) :   0.9474 B( 16-O , 17-C ) :   0.9048
B( 17-C , 18-C ) :   1.1698 B( 17-C , 36-H ) :   0.9110 B( 17-C , 37-H ) :   0.9325
B( 18-C , 38-H ) :   0.9454 B( 18-C , 39-H ) :   0.9290 B( 18-C , 40-H ) :   0.9377

Dispersion correction           -0.067479681
FINAL SINGLE POINT ENERGY     -2929.522531866698

DIPOLE MOMENT
-------------

Method             : SCF
Type of density    : Electron Density
Multiplicity       :   1
Irrep              :   0
Energy             : -2929.6411844748095064 Eh
Relativity type    :
Basis              : AO
                                X                 Y                 Z
Electronic contribution:     -2.345221411       9.353927510     -23.495694931
Nuclear contribution   :      2.452936504     -10.007606231      25.662841146
                        -----------------------------------------
Total Dipole Moment    :      0.107715093      -0.653678721       2.167146215
                        -----------------------------------------
Magnitude (a.u.)       :      2.266146758
Magnitude (Debye)      :      5.760087298

Rotational constants in cm-1:             0.011898             0.005440             0.005175
Rotational constants in MHz :           356.697259           163.086952           155.147192

                             ****ORCA TERMINATED NORMALLY****
TOTAL RUN TIME: 0 days 0 hours 0 minutes 22 seconds 117 msec
