                         Program Version 6.0.0  -   RELEASE  -
|  1> ! r2scan-3c def2/J RI DEFGRID2 scfconv6 printgap
|  2> %output
|  3>     printlevel normal
|  4> end
|  5> * xyz 0 1
|  6> C 4.5025357003 -1.3567349674 -1.9301579533
|  7> C 3.4807778309 -2.3164842515 -1.3567711159
|  8> O 2.8482855568 -1.8161153073 -0.1633233538
|  9> P 2.1510994635 -0.4009844418 -0.0067860907
| 10> S 3.2948523892 1.176683796 0.2306146542
| 11> O 1.1943499812 -0.7243566905 1.2157191505
| 12> C 1.3691342475 -0.1503102797 2.5226248833
| 13> C 2.4564982008 -0.8785331945 3.2843609248
| 14> S 0.8027860844 -0.3515942064 -1.6483786766
| 15> C 0.4031942886 1.4093488668 -1.5354301004
| 16> S -0.3627502116 1.8573504227 0.050625886
| 17> P -2.0558661291 0.6123951957 -0.1297212516
| 18> S -2.818679633 0.3427672652 -1.916822646
| 19> O -2.9361686654 1.420306352 0.9079452422
| 20> C -4.3077535994 1.0350316229 1.1600354613
| 21> C -5.0002594474 2.1991508691 1.8375071271
| 22> O -1.7509390526 -0.7367529828 0.6625760654
| 23> C -1.6371000275 -2.0427780413 0.0716358386
| 24> C -2.7692957429 -2.9194728095 0.5692531824
| 25> H 5.2355946309 -1.0852546291 -1.1741967467
| 26> H 5.0075023881 -1.8267765004 -2.7679377203
| 27> H 4.0121452156 -0.4480766694 -2.2767872311
| 28> H 3.9475941388 -3.2464671226 -1.027253491
| 29> H 2.6987168671 -2.5325519797 -2.0900465588
| 30> H 1.6114073997 0.9124920782 2.4149197368
| 31> H 0.3917257922 -0.2554258252 2.9965182345
| 32> H 2.5410600188 -0.4619366458 4.282936132
| 33> H 2.225959493 -1.9383112847 3.3491461663
| 34> H 3.4064202324 -0.7567957981 2.7649468707
| 35> H -0.2838211404 1.6238065279 -2.3531194916
| 36> H 1.315453366 2.0002151581 -1.613289291
| 37> H -4.7810450737 0.7883676769 0.2030850155
| 38> H -4.3006370112 0.1467343624 1.7970157344
| 39> H -4.9883623944 3.0692521288 1.1872553592
| 40> H -6.0279119441 1.9261029767 2.0541594474
| 41> H -4.4882335948 2.4468922265 2.7627150368
| 42> H -1.6688665313 -1.948143312 -1.0189106945
| 43> H -0.6613940755 -2.428434525 0.3758703338
| 44> H -2.6404579236 -3.922206341 0.1751508034
| 45> H -2.7668496406 -2.9561732765 1.6550130839
| 46> H -3.7233624055 -2.5234542217 0.2278770409
| 47> *
| 48>
| 49>                          ****END OF INPUT****

CARTESIAN COORDINATES (ANGSTROEM)
---------------------------------
  C      4.502536   -1.356735   -1.930158
  C      3.480778   -2.316484   -1.356771
  O      2.848286   -1.816115   -0.163323
  P      2.151099   -0.400984   -0.006786
  S      3.294852    1.176684    0.230615
  O      1.194350   -0.724357    1.215719
  C      1.369134   -0.150310    2.522625
  C      2.456498   -0.878533    3.284361
  S      0.802786   -0.351594   -1.648379
  C      0.403194    1.409349   -1.535430
  S     -0.362750    1.857350    0.050626
  P     -2.055866    0.612395   -0.129721
  S     -2.818680    0.342767   -1.916823
  O     -2.936169    1.420306    0.907945
  C     -4.307754    1.035032    1.160035
  C     -5.000259    2.199151    1.837507
  O     -1.750939   -0.736753    0.662576
  C     -1.637100   -2.042778    0.071636
  C     -2.769296   -2.919473    0.569253
  H      5.235595   -1.085255   -1.174197
  H      5.007502   -1.826777   -2.767938
  H      4.012145   -0.448077   -2.276787
  H      3.947594   -3.246467   -1.027253
  H      2.698717   -2.532552   -2.090047
  H      1.611407    0.912492    2.414920
  H      0.391726   -0.255426    2.996518
  H      2.541060   -0.461937    4.282936
  H      2.225959   -1.938311    3.349146
  H      3.406420   -0.756796    2.764947
  H     -0.283821    1.623807   -2.353119
  H      1.315453    2.000215   -1.613289
  H     -4.781045    0.788368    0.203085
  H     -4.300637    0.146734    1.797016
  H     -4.988362    3.069252    1.187255
  H     -6.027912    1.926103    2.054159
  H     -4.488234    2.446892    2.762715
  H     -1.668867   -1.948143   -1.018911
  H     -0.661394   -2.428435    0.375870
  H     -2.640458   -3.922206    0.175151
  H     -2.766850   -2.956173    1.655013
  H     -3.723362   -2.523454    0.227877

 Total Charge           Charge          ....    0
 Multiplicity           Mult            ....    1
 Number of Electrons    NEL             ....  202
 Basis Dimension        Dim             ....  539

ORBITAL ENERGIES
----------------

  NO   OCC          E(Eh)            E(eV)
   0   2.0000     -88.577973     -2410.3292
   1   2.0000     -88.573879     -2410.2178
   2   2.0000     -88.520782     -2408.7729
   3   2.0000     -88.520001     -2408.7517
   4   2.0000     -76.915676     -2092.9819
   5   2.0000     -76.912130     -2092.8854
   6   2.0000     -18.994909      -516.8778
   7   2.0000     -18.990080      -516.7463
   8   2.0000     -18.987004      -516.6626
   9   2.0000     -18.986280      -516.6429
  10   2.0000     -10.106905      -275.0229
  11   2.0000     -10.106502      -275.0119
  12   2.0000     -10.099961      -274.8339
  13   2.0000     -10.091970      -274.6165
  14   2.0000     -10.090464      -274.5755
  15   2.0000     -10.033073      -273.0138
  16   2.0000     -10.029693      -272.9218
  17   2.0000     -10.028759      -272.8964
  18   2.0000     -10.025180      -272.7990
  19   2.0000      -7.872392      -214.2187
  20   2.0000      -7.868075      -214.1012
  21   2.0000      -7.815599      -212.6733
  22   2.0000      -7.814824      -212.6522
  23   2.0000      -6.593924      -179.4298
  24   2.0000      -6.590610      -179.3396
  25   2.0000      -5.819175      -158.3478
  26   2.0000      -5.816187      -158.2665
  27   2.0000      -5.815076      -158.2363
  28   2.0000      -5.812050      -158.1539
  29   2.0000      -5.809656      -158.0888
  30   2.0000      -5.804963      -157.9611
  31   2.0000      -5.763301      -156.8274
  32   2.0000      -5.762428      -156.8036
  33   2.0000      -5.755918      -156.6265
  34   2.0000      -5.755517      -156.6156
  35   2.0000      -5.755326      -156.6104
  36   2.0000      -5.754633      -156.5915
  37   2.0000      -4.739393      -128.9654
  38   2.0000      -4.738994      -128.9546
  39   2.0000      -4.737573      -128.9159
  40   2.0000      -4.736051      -128.8745
  41   2.0000      -4.735416      -128.8572
  42   2.0000      -4.734511      -128.8326
  43   2.0000      -1.050860       -28.5954
  44   2.0000      -1.046792       -28.4846
  45   2.0000      -1.010334       -27.4926
  46   2.0000      -1.006296       -27.3827
  47   2.0000      -0.803797       -21.8724
  48   2.0000      -0.760386       -20.6912
  49   2.0000      -0.750359       -20.4183
  50   2.0000      -0.731416       -19.9028
  51   2.0000      -0.729963       -19.8633
  52   2.0000      -0.708909       -19.2904
  53   2.0000      -0.685870       -18.6635
  54   2.0000      -0.670529       -18.2460
  55   2.0000      -0.630673       -17.1615
  56   2.0000      -0.622926       -16.9507
  57   2.0000      -0.606841       -16.5130
  58   2.0000      -0.603586       -16.4244
  59   2.0000      -0.590906       -16.0794
  60   2.0000      -0.530868       -14.4457
  61   2.0000      -0.518404       -14.1065
  62   2.0000      -0.499353       -13.5881
  63   2.0000      -0.489515       -13.3204
  64   2.0000      -0.475724       -12.9451
  65   2.0000      -0.459918       -12.5150
  66   2.0000      -0.455976       -12.4077
  67   2.0000      -0.455699       -12.4002
  68   2.0000      -0.444598       -12.0981
  69   2.0000      -0.437667       -11.9095
  70   2.0000      -0.422500       -11.4968
  71   2.0000      -0.410821       -11.1790
  72   2.0000      -0.405818       -11.0429
  73   2.0000      -0.402424       -10.9505
  74   2.0000      -0.398821       -10.8525
  75   2.0000      -0.394319       -10.7300
  76   2.0000      -0.378926       -10.3111
  77   2.0000      -0.372565       -10.1380
  78   2.0000      -0.369760       -10.0617
  79   2.0000      -0.364832        -9.9276
  80   2.0000      -0.361992        -9.8503
  81   2.0000      -0.360915        -9.8210
  82   2.0000      -0.357732        -9.7344
  83   2.0000      -0.352891        -9.6027
  84   2.0000      -0.346752        -9.4356
  85   2.0000      -0.335612        -9.1325
  86   2.0000      -0.323911        -8.8141
  87   2.0000      -0.313913        -8.5420
  88   2.0000      -0.311373        -8.4729
  89   2.0000      -0.303215        -8.2509
  90   2.0000      -0.299145        -8.1401
  91   2.0000      -0.292203        -7.9512
  92   2.0000      -0.289706        -7.8833
  93   2.0000      -0.281670        -7.6646
  94   2.0000      -0.269241        -7.3264
  95   2.0000      -0.246375        -6.7042
  96   2.0000      -0.229339        -6.2406
  97   2.0000      -0.227844        -6.1999
  98   2.0000      -0.219863        -5.9828
  99   2.0000      -0.213154        -5.8002
 100   2.0000      -0.210185        -5.7194
 101   0.0000      -0.050649        -1.3782
 102   0.0000      -0.029005        -0.7893
 103   0.0000      -0.003578        -0.0974
 104   0.0000       0.006935         0.1887
 105   0.0000       0.010670         0.2904

MULLIKEN ATOMIC CHARGES
-----------------------
   0 C :   -0.425111
   1 C :   -0.154939
   2 O :   -0.289671
   3 P :    0.655667
   4 S :   -0.458008
   5 O :   -0.255828
   6 C :   -0.155873
   7 C :   -0.446567
   8 S :   -0.149094
   9 C :   -0.236797
  10 S :   -0.123327
  11 P :    0.715971
  12 S :   -0.489310
  13 O :   -0.307017
  14 C :   -0.156143
  15 C :   -0.446870
  16 O :   -0.262589
  17 C :   -0.109538
  18 C :   -0.494867
  19 H :    0.165338
  20 H :    0.147830
  21 H :    0.168933
  22 H :    0.150471
  23 H :    0.152894
  24 H :    0.177736
  25 H :    0.159653
  26 H :    0.146524
  27 H :    0.151265
  28 H :    0.167070
  29 H :    0.210258
  30 H :    0.207567
  31 H :    0.169433
  32 H :    0.151379
  33 H :    0.160276
  34 H :    0.145296
  35 H :    0.153658
  36 H :    0.177242
  37 H :    0.166878
  38 H :    0.146689
  39 H :    0.154547
  40 H :    0.158976
Sum of atomic charges:   -0.0000000

LOEWDIN ATOMIC CHARGES
----------------------
   0 C :   -0.406514
   1 C :    0.024003
   2 O :   -0.655676
   3 P :    0.385496
   4 S :   -0.121532
   5 O :   -0.676899
   6 C :    0.010716
   7 C :   -0.397713
   8 S :    0.155327
   9 C :   -0.416349
  10 S :    0.193424
  11 P :    0.380953
  12 S :   -0.133054
  13 O :   -0.673734
  14 C :    0.023844
  15 C :   -0.384639
  16 O :   -0.661742
  17 C :    0.002933
  18 C :   -0.394235
  19 H :    0.165620
  20 H :    0.158436
  21 H :    0.166091
  22 H :    0.181834
  23 H :    0.171976
  24 H :    0.182916
  25 H :    0.181391
  26 H :    0.159267
  27 H :    0.157904
  28 H :    0.164833
  29 H :    0.189646
  30 H :    0.190322
  31 H :    0.180389
  32 H :    0.170809
  33 H :    0.162759
  34 H :    0.159521
  35 H :    0.160199
  36 H :    0.183475
  37 H :    0.181032
  38 H :    0.159585
  39 H :    0.157594
  40 H :    0.159791

  Mayer bond orders larger than 0.100000
B(  0-C ,  1-C ) :   0.9398 B(  0-C , 19-H ) :   0.9660 B(  0-C , 20-H ) :   0.9619
B(  0-C , 21-H ) :   0.9539 B(  1-C ,  2-O ) :   0.8048 B(  1-C , 22-H ) :   0.9578
B(  1-C , 23-H ) :   0.9640 B(  2-O ,  3-P ) :   1.1021 B(  3-P ,  4-S ) :   1.7825
B(  3-P ,  5-O ) :   1.1199 B(  3-P ,  8-S ) :   1.0373 B(  5-O ,  6-C ) :   0.7729
B(  6-C ,  7-C ) :   0.9270 B(  6-C , 24-H ) :   0.9571 B(  6-C , 25-H ) :   0.9629
B(  7-C , 26-H ) :   0.9655 B(  7-C , 27-H ) :   0.9749 B(  7-C , 28-H ) :   0.9623
B(  8-S ,  9-C ) :   0.8957 B(  9-C , 10-S ) :   0.9002 B(  9-C , 29-H ) :   0.9108
B(  9-C , 30-H ) :   0.9102 B( 10-S , 11-P ) :   1.0713 B( 11-P , 12-S ) :   1.7429
B( 11-P , 13-O ) :   1.1951 B( 11-P , 16-O ) :   1.0563 B( 13-O , 14-C ) :   0.7633
B( 14-C , 15-C ) :   0.9655 B( 14-C , 31-H ) :   0.9469 B( 14-C , 32-H ) :   0.9438
B( 15-C , 33-H ) :   0.9709 B( 15-C , 34-H ) :   0.9640 B( 15-C , 35-H ) :   0.9725
B( 16-O , 17-C ) :   0.7280 B( 17-C , 18-C ) :   0.9334 B( 17-C , 36-H ) :   0.9478
B( 17-C , 37-H ) :   0.9564 B( 18-C , 38-H ) :   0.9660 B( 18-C , 39-H ) :   0.9807
B( 18-C , 40-H ) :   0.9726

Dispersion correction           -0.021744264
FINAL SINGLE POINT ENERGY     -2932.462594594602

DIPOLE MOMENT
-------------

Method             : SCF
Type of density    : Electron Density
Multiplicity       :   1
Irrep              :   0
Energy             : -2932.4873086166194298 Eh
Relativity type    :
Basis              : AO
                                X                 Y                 Z
Electronic contribution:      3.581795815      11.681697951     -10.779376393
Nuclear contribution   :     -3.815080078     -12.890618292      11.443639761
                        -----------------------------------------
Total Dipole Moment    :     -0.233284263      -1.208920341       0.664263368
                        -----------------------------------------
Magnitude (a.u.)       :      1.398983831
Magnitude (Debye)      :      3.555934305

Rotational constants in cm-1:             0.012711             0.004999             0.004858
Rotational constants in MHz :           381.074408           149.857275           145.638104

                             ****ORCA TERMINATED NORMALLY****
TOTAL RUN TIME: 0 days 0 hours 1 minutes 25 seconds 304 msec
