                         Program Version 6.0.0  -   RELEASE  -
|  1> ! r2scan-3c def2/J RI DEFGRID2 scfconv6 printgap
|  2> %output
|  3>     printlevel normal
|  4> end
|  5> %cpcm
|  6>     smd true
|  7>     smdsolvent "water"
|  8> end
|  9> * xyz 0 1
| 10> C 4.5025357003 -1.3567349674 -1.9301579533
| 11> C 3.4807778309 -2.3164842515 -1.3567711159
| 12> O 2.8482855568 -1.8161153073 -0.1633233538
| 13> P 2.1510994635 -0.4009844418 -0.0067860907
| 14> S 3.2948523892 1.176683796 0.2306146542
| 15> O 1.1943499812 -0.7243566905 1.2157191505
| 16> C 1.3691342475 -0.1503102797 2.5226248833
| 17> C 2.4564982008 -0.8785331945 3.2843609248
| 18> S 0.8027860844 -0.3515942064 -1.6483786766
| 19> C 0.4031942886 1.4093488668 -1.5354301004
| 20> S -0.3627502116 1.8573504227 0.050625886
| 21> P -2.0558661291 0.6123951957 -0.1297212516
| 22> S -2.818679633 0.3427672652 -1.916822646
| 23> O -2.9361686654 1.420306352 0.9079452422
| 24> C -4.3077535994 1.0350316229 1.1600354613
| 25> C -5.0002594474 2.1991508691 1.8375071271
| 26> O -1.7509390526 -0.7367529828 0.6625760654
| 27> C -1.6371000275 -2.0427780413 0.0716358386
| 28> C -2.7692957429 -2.9194728095 0.5692531824
| 29> H 5.2355946309 -1.0852546291 -1.1741967467
| 30> H 5.0075023881 -1.8267765004 -2.7679377203
| 31> H 4.0121452156 -0.4480766694 -2.2767872311
| 32> H 3.9475941388 -3.2464671226 -1.027253491
| 33> H 2.6987168671 -2.5325519797 -2.0900465588
| 34> H 1.6114073997 0.9124920782 2.4149197368
| 35> H 0.3917257922 -0.2554258252 2.9965182345
| 36> H 2.5410600188 -0.4619366458 4.282936132
| 37> H 2.225959493 -1.9383112847 3.3491461663
| 38> H 3.4064202324 -0.7567957981 2.7649468707
| 39> H -0.2838211404 1.6238065279 -2.3531194916
| 40> H 1.315453366 2.0002151581 -1.613289291
| 41> H -4.7810450737 0.7883676769 0.2030850155
| 42> H -4.3006370112 0.1467343624 1.7970157344
| 43> H -4.9883623944 3.0692521288 1.1872553592
| 44> H -6.0279119441 1.9261029767 2.0541594474
| 45> H -4.4882335948 2.4468922265 2.7627150368
| 46> H -1.6688665313 -1.948143312 -1.0189106945
| 47> H -0.6613940755 -2.428434525 0.3758703338
| 48> H -2.6404579236 -3.922206341 0.1751508034
| 49> H -2.7668496406 -2.9561732765 1.6550130839
| 50> H -3.7233624055 -2.5234542217 0.2278770409
| 51> *
| 52>
| 53>                          ****END OF INPUT****

CARTESIAN COORDINATES (ANGSTROEM)
---------------------------------
  C      4.502536   -1.356735   -1.930158
  C      3.480778   -2.316484   -1.356771
  O      2.848286   -1.816115   -0.163323
  P      2.151099   -0.400984   -0.006786
  S      3.294852    1.176684    0.230615
  O      1.194350   -0.724357    1.215719
  C      1.369134   -0.150310    2.522625
  C      2.456498   -0.878533    3.284361
  S      0.802786   -0.351594   -1.648379
  C      0.403194    1.409349   -1.535430
  S     -0.362750    1.857350    0.050626
  P     -2.055866    0.612395   -0.129721
  S     -2.818680    0.342767   -1.916823
  O     -2.936169    1.420306    0.907945
  C     -4.307754    1.035032    1.160035
  C     -5.000259    2.199151    1.837507
  O     -1.750939   -0.736753    0.662576
  C     -1.637100   -2.042778    0.071636
  C     -2.769296   -2.919473    0.569253
  H      5.235595   -1.085255   -1.174197
  H      5.007502   -1.826777   -2.767938
  H      4.012145   -0.448077   -2.276787
  H      3.947594   -3.246467   -1.027253
  H      2.698717   -2.532552   -2.090047
  H      1.611407    0.912492    2.414920
  H      0.391726   -0.255426    2.996518
  H      2.541060   -0.461937    4.282936
  H      2.225959   -1.938311    3.349146
  H      3.406420   -0.756796    2.764947
  H     -0.283821    1.623807   -2.353119
  H      1.315453    2.000215   -1.613289
  H     -4.781045    0.788368    0.203085
  H     -4.300637    0.146734    1.797016
  H     -4.988362    3.069252    1.187255
  H     -6.027912    1.926103    2.054159
  H     -4.488234    2.446892    2.762715
  H     -1.668867   -1.948143   -1.018911
  H     -0.661394   -2.428435    0.375870
  H     -2.640458   -3.922206    0.175151
  H     -2.766850   -2.956173    1.655013
  H     -3.723362   -2.523454    0.227877

 Total Charge           Charge          ....    0
 Multiplicity           Mult            ....    1
 Number of Electrons    NEL             ....  202
 Basis Dimension        Dim             ....  539

ORBITAL ENERGIES
----------------

  NO   OCC          E(Eh)            E(eV)
   0   2.0000     -88.580512     -2410.3983
   1   2.0000     -88.580105     -2410.3872
   2   2.0000     -88.528799     -2408.9911
   3   2.0000     -88.527315     -2408.9507
   4   2.0000     -76.920047     -2093.1009
   5   2.0000     -76.919044     -2093.0736
   6   2.0000     -18.995865      -516.9038
   7   2.0000     -18.994201      -516.8585
   8   2.0000     -18.991980      -516.7981
   9   2.0000     -18.990106      -516.7471
  10   2.0000     -10.106593      -275.0144
  11   2.0000     -10.093540      -274.6592
  12   2.0000     -10.090432      -274.5746
  13   2.0000     -10.087206      -274.4868
  14   2.0000     -10.085812      -274.4489
  15   2.0000     -10.019742      -272.6510
  16   2.0000     -10.018879      -272.6276
  17   2.0000     -10.017423      -272.5879
  18   2.0000     -10.017259      -272.5835
  19   2.0000      -7.874908      -214.2871
  20   2.0000      -7.874380      -214.2728
  21   2.0000      -7.823895      -212.8990
  22   2.0000      -7.822420      -212.8589
  23   2.0000      -6.598346      -179.5501
  24   2.0000      -6.597547      -179.5284
  25   2.0000      -5.821700      -158.4165
  26   2.0000      -5.821320      -158.4062
  27   2.0000      -5.818722      -158.3355
  28   2.0000      -5.818295      -158.3238
  29   2.0000      -5.812149      -158.1566
  30   2.0000      -5.811394      -158.1361
  31   2.0000      -5.771445      -157.0490
  32   2.0000      -5.770059      -157.0113
  33   2.0000      -5.764312      -156.8549
  34   2.0000      -5.763794      -156.8408
  35   2.0000      -5.762743      -156.8122
  36   2.0000      -5.762340      -156.8013
  37   2.0000      -4.743775      -129.0847
  38   2.0000      -4.743429      -129.0753
  39   2.0000      -4.742957      -129.0624
  40   2.0000      -4.742350      -129.0459
  41   2.0000      -4.742051      -129.0378
  42   2.0000      -4.741511      -129.0231
  43   2.0000      -1.052881       -28.6504
  44   2.0000      -1.050808       -28.5939
  45   2.0000      -1.012118       -27.5411
  46   2.0000      -1.009899       -27.4807
  47   2.0000      -0.806399       -21.9432
  48   2.0000      -0.757869       -20.6227
  49   2.0000      -0.744546       -20.2601
  50   2.0000      -0.723382       -19.6842
  51   2.0000      -0.722588       -19.6626
  52   2.0000      -0.708705       -19.2849
  53   2.0000      -0.689390       -18.7593
  54   2.0000      -0.677018       -18.4226
  55   2.0000      -0.629714       -17.1354
  56   2.0000      -0.619469       -16.8566
  57   2.0000      -0.601940       -16.3796
  58   2.0000      -0.597793       -16.2668
  59   2.0000      -0.587714       -15.9925
  60   2.0000      -0.528794       -14.3892
  61   2.0000      -0.514842       -14.0096
  62   2.0000      -0.498286       -13.5591
  63   2.0000      -0.486082       -13.2270
  64   2.0000      -0.474757       -12.9188
  65   2.0000      -0.458229       -12.4690
  66   2.0000      -0.451960       -12.2984
  67   2.0000      -0.450618       -12.2619
  68   2.0000      -0.441443       -12.0123
  69   2.0000      -0.434167       -11.8143
  70   2.0000      -0.421415       -11.4673
  71   2.0000      -0.412129       -11.2146
  72   2.0000      -0.403325       -10.9750
  73   2.0000      -0.399486       -10.8706
  74   2.0000      -0.394581       -10.7371
  75   2.0000      -0.393132       -10.6977
  76   2.0000      -0.377450       -10.2709
  77   2.0000      -0.367372        -9.9967
  78   2.0000      -0.363437        -9.8896
  79   2.0000      -0.356101        -9.6900
  80   2.0000      -0.354294        -9.6408
  81   2.0000      -0.352787        -9.5998
  82   2.0000      -0.351748        -9.5716
  83   2.0000      -0.345105        -9.3908
  84   2.0000      -0.343633        -9.3507
  85   2.0000      -0.332578        -9.0499
  86   2.0000      -0.321031        -8.7357
  87   2.0000      -0.311989        -8.4897
  88   2.0000      -0.308928        -8.4064
  89   2.0000      -0.302886        -8.2419
  90   2.0000      -0.296950        -8.0804
  91   2.0000      -0.292663        -7.9638
  92   2.0000      -0.288342        -7.8462
  93   2.0000      -0.282749        -7.6940
  94   2.0000      -0.271247        -7.3810
  95   2.0000      -0.249810        -6.7977
  96   2.0000      -0.237088        -6.4515
  97   2.0000      -0.234563        -6.3828
  98   2.0000      -0.228093        -6.2067
  99   2.0000      -0.220820        -6.0088
 100   2.0000      -0.217822        -5.9272
 101   0.0000      -0.056182        -1.5288
 102   0.0000      -0.035210        -0.9581
 103   0.0000      -0.007576        -0.2062
 104   0.0000       0.002921         0.0795
 105   0.0000       0.009227         0.2511

MULLIKEN ATOMIC CHARGES
-----------------------
   0 C :   -0.465156
   1 C :   -0.155977
   2 O :   -0.322139
   3 P :    0.696546
   4 S :   -0.505380
   5 O :   -0.284491
   6 C :   -0.143311
   7 C :   -0.489962
   8 S :   -0.149257
   9 C :   -0.247965
  10 S :   -0.148656
  11 P :    0.733441
  12 S :   -0.527787
  13 O :   -0.339408
  14 C :   -0.141450
  15 C :   -0.489496
  16 O :   -0.291085
  17 C :   -0.092943
  18 C :   -0.527421
  19 H :    0.170947
  20 H :    0.173796
  21 H :    0.166222
  22 H :    0.177218
  23 H :    0.173681
  24 H :    0.176850
  25 H :    0.179915
  26 H :    0.170944
  27 H :    0.167899
  28 H :    0.165475
  29 H :    0.233224
  30 H :    0.230186
  31 H :    0.172415
  32 H :    0.174571
  33 H :    0.166656
  34 H :    0.169814
  35 H :    0.166210
  36 H :    0.174830
  37 H :    0.177725
  38 H :    0.169363
  39 H :    0.168726
  40 H :    0.165226
Sum of atomic charges:   -0.0000000

LOEWDIN ATOMIC CHARGES
----------------------
   0 C :   -0.410075
   1 C :    0.030649
   2 O :   -0.668399
   3 P :    0.391127
   4 S :   -0.151247
   5 O :   -0.690096
   6 C :    0.013979
   7 C :   -0.401401
   8 S :    0.159643
   9 C :   -0.409903
  10 S :    0.177525
  11 P :    0.381647
  12 S :   -0.159369
  13 O :   -0.690742
  14 C :    0.030209
  15 C :   -0.389123
  16 O :   -0.673496
  17 C :    0.008106
  18 C :   -0.396287
  19 H :    0.164481
  20 H :    0.168268
  21 H :    0.161924
  22 H :    0.193260
  23 H :    0.179943
  24 H :    0.182500
  25 H :    0.189348
  26 H :    0.168167
  27 H :    0.162887
  28 H :    0.161998
  29 H :    0.196719
  30 H :    0.197495
  31 H :    0.182494
  32 H :    0.180990
  33 H :    0.162994
  34 H :    0.169300
  35 H :    0.163372
  36 H :    0.183320
  37 H :    0.185604
  38 H :    0.167831
  39 H :    0.162901
  40 H :    0.161459

  Mayer bond orders larger than 0.100000
B(  0-C ,  1-C ) :   0.9204 B(  0-C , 19-H ) :   0.9669 B(  0-C , 20-H ) :   0.9559
B(  0-C , 21-H ) :   0.9564 B(  1-C ,  2-O ) :   0.7950 B(  1-C , 22-H ) :   0.9479
B(  1-C , 23-H ) :   0.9589 B(  2-O ,  3-P ) :   1.1103 B(  3-P ,  4-S ) :   1.7401
B(  3-P ,  5-O ) :   1.1240 B(  3-P ,  8-S ) :   1.0501 B(  5-O ,  6-C ) :   0.7610
B(  6-C ,  7-C ) :   0.9207 B(  6-C , 24-H ) :   0.9534 B(  6-C , 25-H ) :   0.9536
B(  7-C , 26-H ) :   0.9596 B(  7-C , 27-H ) :   0.9724 B(  7-C , 28-H ) :   0.9632
B(  8-S ,  9-C ) :   0.8873 B(  9-C , 10-S ) :   0.8882 B(  9-C , 29-H ) :   0.9048
B(  9-C , 30-H ) :   0.9034 B( 10-S , 11-P ) :   1.0830 B( 11-P , 12-S ) :   1.7220
B( 11-P , 13-O ) :   1.1985 B( 11-P , 16-O ) :   1.0590 B( 13-O , 14-C ) :   0.7570
B( 14-C , 15-C ) :   0.9551 B( 14-C , 31-H ) :   0.9435 B( 14-C , 32-H ) :   0.9344
B( 15-C , 33-H ) :   0.9697 B( 15-C , 34-H ) :   0.9580 B( 15-C , 35-H ) :   0.9695
B( 16-O , 17-C ) :   0.7187 B( 17-C , 18-C ) :   0.9357 B( 17-C , 36-H ) :   0.9455
B( 17-C , 37-H ) :   0.9482 B( 18-C , 38-H ) :   0.9607 B( 18-C , 39-H ) :   0.9755
B( 18-C , 40-H ) :   0.9690

Dispersion correction           -0.021744264
FINAL SINGLE POINT ENERGY     -2932.470563699741

DIPOLE MOMENT
-------------

Method             : SCF
Type of density    : Electron Density
Multiplicity       :   1
Irrep              :   0
Energy             : -2932.4952777217586117 Eh
Relativity type    :
Basis              : AO
                                X                 Y                 Z
Electronic contribution:      3.476636896      11.144045574     -10.728930328
Nuclear contribution   :     -3.815080078     -12.890618292      11.443639761
                        -----------------------------------------
Total Dipole Moment    :     -0.338443182      -1.746572719       0.714709432
                        -----------------------------------------
Magnitude (a.u.)       :      1.917255753
Magnitude (Debye)      :      4.873276838

Rotational constants in cm-1:             0.012711             0.004999             0.004858
Rotational constants in MHz :           381.074408           149.857275           145.638104

                             ****ORCA TERMINATED NORMALLY****
TOTAL RUN TIME: 0 days 0 hours 1 minutes 57 seconds 880 msec
