                         Program Version 6.0.0  -   RELEASE  -
|  1> ! pbe def2-sv(p) def2/J RI DEFGRID1 loosescf d4 GCP(DFT/SV(P)) printgap
|  2> %output
|  3>     printlevel normal
|  4> end
|  5> * xyz 0 1
|  6> C 4.2867165119 -0.561963754 -2.1324690922
|  7> C 4.4796453467 -0.6288269964 -0.6309605171
|  8> O 3.2255691563 -0.6344443544 0.0710772219
|  9> P 2.3013869738 0.6669566428 0.1327787175
| 10> S 3.2975236428 2.3492387616 0.265190722
| 11> O 1.3351501708 0.3442472104 1.3461894264
| 12> C 1.8190348773 0.2813188331 2.7082987137
| 13> C 2.1113412901 -1.1515722128 3.1043913234
| 14> S 0.9053910019 0.4890631363 -1.4400670786
| 15> C 0.4362966092 -1.2557990647 -1.207298162
| 16> S -0.7189755401 -1.5366547156 0.1562105412
| 17> P -2.2352615809 -0.2007623472 -0.5072260848
| 18> S -2.4957821303 -0.1113247725 -2.442307526
| 19> O -1.9166461846 1.2071456231 0.1268695947
| 20> C -1.7749693048 1.4251450704 1.5511140738
| 21> C -3.0652834846 1.9499627688 2.1449535915
| 22> O -3.4933408385 -0.6826677629 0.3353990087
| 23> C -4.1627011004 -1.9226270187 0.0196017327
| 24> C -5.5061345681 -1.9173518891 0.7199445337
| 25> H 3.6716379533 -1.3877843485 -2.480736718
| 26> H 3.8005495098 0.3761942363 -2.4007528618
| 27> H 5.2545674527 -0.6062636834 -2.6214336494
| 28> H 5.06543536 0.2280953403 -0.2837204382
| 29> H 4.9609601871 -1.5588347369 -0.3256565379
| 30> H 2.7059792696 0.9169546179 2.7971030387
| 31> H 1.0104464713 0.7022003347 3.3090938494
| 32> H 1.2310465484 -1.7665610949 2.9359634056
| 33> H 2.9330159624 -1.5486867122 2.5147021904
| 34> H 2.3784188366 -1.182013878 4.1559741406
| 35> H 1.3189603391 -1.854575704 -0.9980690893
| 36> H -0.0395449601 -1.5485009947 -2.1424548019
| 37> H -1.4717633509 0.4861218122 2.0231778443
| 38> H -0.9672142994 2.1561557413 1.6356161181
| 39> H -2.9097916966 2.1674608779 3.1970706805
| 40> H -3.3672255033 2.8586426482 1.6312619444
| 41> H -3.8538392939 1.2096088734 2.0412498942
| 42> H -4.27530807 -1.9880244807 -1.0673557315
| 43> H -3.533175776 -2.7465122989 0.3658824341
| 44> H -6.0251517911 -2.8440182294 0.4985137628
| 45> H -5.3672343244 -1.831318653 1.7937142612
| 46> H -6.1053591633 -1.0803949862 0.3723833952
| 47> *
| 48>
| 49>                          ****END OF INPUT****

CARTESIAN COORDINATES (ANGSTROEM)
---------------------------------
  C      4.286717   -0.561964   -2.132469
  C      4.479645   -0.628827   -0.630961
  O      3.225569   -0.634444    0.071077
  P      2.301387    0.666957    0.132779
  S      3.297524    2.349239    0.265191
  O      1.335150    0.344247    1.346189
  C      1.819035    0.281319    2.708299
  C      2.111341   -1.151572    3.104391
  S      0.905391    0.489063   -1.440067
  C      0.436297   -1.255799   -1.207298
  S     -0.718976   -1.536655    0.156211
  P     -2.235262   -0.200762   -0.507226
  S     -2.495782   -0.111325   -2.442308
  O     -1.916646    1.207146    0.126870
  C     -1.774969    1.425145    1.551114
  C     -3.065283    1.949963    2.144954
  O     -3.493341   -0.682668    0.335399
  C     -4.162701   -1.922627    0.019602
  C     -5.506135   -1.917352    0.719945
  H      3.671638   -1.387784   -2.480737
  H      3.800550    0.376194   -2.400753
  H      5.254567   -0.606264   -2.621434
  H      5.065435    0.228095   -0.283720
  H      4.960960   -1.558835   -0.325657
  H      2.705979    0.916955    2.797103
  H      1.010446    0.702200    3.309094
  H      1.231047   -1.766561    2.935963
  H      2.933016   -1.548687    2.514702
  H      2.378419   -1.182014    4.155974
  H      1.318960   -1.854576   -0.998069
  H     -0.039545   -1.548501   -2.142455
  H     -1.471763    0.486122    2.023178
  H     -0.967214    2.156156    1.635616
  H     -2.909792    2.167461    3.197071
  H     -3.367226    2.858643    1.631262
  H     -3.853839    1.209609    2.041250
  H     -4.275308   -1.988024   -1.067356
  H     -3.533176   -2.746512    0.365882
  H     -6.025152   -2.844018    0.498514
  H     -5.367234   -1.831319    1.793714
  H     -6.105359   -1.080395    0.372383

 Total Charge           Charge          ....    0
 Multiplicity           Mult            ....    1
 Number of Electrons    NEL             ....  202
 Basis Dimension        Dim             ....  334

ORBITAL ENERGIES
----------------

  NO   OCC          E(Eh)            E(eV)
   0   2.0000     -88.043573     -2395.7874
   1   2.0000     -88.041249     -2395.7242
   2   2.0000     -87.986538     -2394.2354
   3   2.0000     -87.984371     -2394.1764
   4   2.0000     -76.426314     -2079.6657
   5   2.0000     -76.426269     -2079.6645
   6   2.0000     -18.798282      -511.5272
   7   2.0000     -18.797796      -511.5140
   8   2.0000     -18.792232      -511.3626
   9   2.0000     -18.790552      -511.3169
  10   2.0000      -9.958341      -270.9802
  11   2.0000      -9.956866      -270.9401
  12   2.0000      -9.956438      -270.9284
  13   2.0000      -9.955272      -270.8967
  14   2.0000      -9.952834      -270.8304
  15   2.0000      -9.892280      -269.1826
  16   2.0000      -9.888611      -269.0828
  17   2.0000      -9.887099      -269.0417
  18   2.0000      -9.884643      -268.9748
  19   2.0000      -7.688324      -209.2099
  20   2.0000      -7.686436      -209.1586
  21   2.0000      -7.631752      -207.6705
  22   2.0000      -7.629706      -207.6149
  23   2.0000      -6.424310      -174.8144
  24   2.0000      -6.423707      -174.7980
  25   2.0000      -5.716604      -155.5567
  26   2.0000      -5.714228      -155.4921
  27   2.0000      -5.712669      -155.4496
  28   2.0000      -5.710963      -155.4032
  29   2.0000      -5.705085      -155.2433
  30   2.0000      -5.703436      -155.1984
  31   2.0000      -5.660699      -154.0355
  32   2.0000      -5.658740      -153.9821
  33   2.0000      -5.652509      -153.8126
  34   2.0000      -5.651747      -153.7919
  35   2.0000      -5.650216      -153.7502
  36   2.0000      -5.649829      -153.7397
  37   2.0000      -4.646942      -126.4497
  38   2.0000      -4.646595      -126.4403
  39   2.0000      -4.646256      -126.4311
  40   2.0000      -4.645534      -126.4114
  41   2.0000      -4.644471      -126.3825
  42   2.0000      -4.643839      -126.3653
  43   2.0000      -0.990579       -26.9550
  44   2.0000      -0.989744       -26.9323
  45   2.0000      -0.949118       -25.8268
  46   2.0000      -0.946269       -25.7493
  47   2.0000      -0.764759       -20.8101
  48   2.0000      -0.723467       -19.6865
  49   2.0000      -0.711875       -19.3711
  50   2.0000      -0.693438       -18.8694
  51   2.0000      -0.691736       -18.8231
  52   2.0000      -0.675354       -18.3773
  53   2.0000      -0.651201       -17.7201
  54   2.0000      -0.637926       -17.3589
  55   2.0000      -0.599268       -16.3069
  56   2.0000      -0.589139       -16.0313
  57   2.0000      -0.578103       -15.7310
  58   2.0000      -0.570488       -15.5238
  59   2.0000      -0.566258       -15.4087
  60   2.0000      -0.510505       -13.8916
  61   2.0000      -0.501254       -13.6398
  62   2.0000      -0.481810       -13.1107
  63   2.0000      -0.477454       -12.9922
  64   2.0000      -0.464531       -12.6405
  65   2.0000      -0.446677       -12.1547
  66   2.0000      -0.445885       -12.1332
  67   2.0000      -0.437454       -11.9037
  68   2.0000      -0.430901       -11.7254
  69   2.0000      -0.417979       -11.3738
  70   2.0000      -0.408389       -11.1128
  71   2.0000      -0.398428       -10.8418
  72   2.0000      -0.391454       -10.6520
  73   2.0000      -0.388997       -10.5851
  74   2.0000      -0.383529       -10.4364
  75   2.0000      -0.373331       -10.1588
  76   2.0000      -0.370939       -10.0938
  77   2.0000      -0.360758        -9.8167
  78   2.0000      -0.359787        -9.7903
  79   2.0000      -0.354371        -9.6429
  80   2.0000      -0.350637        -9.5413
  81   2.0000      -0.348195        -9.4749
  82   2.0000      -0.345435        -9.3998
  83   2.0000      -0.343952        -9.3594
  84   2.0000      -0.331927        -9.0322
  85   2.0000      -0.322721        -8.7817
  86   2.0000      -0.318013        -8.6536
  87   2.0000      -0.303130        -8.2486
  88   2.0000      -0.297485        -8.0950
  89   2.0000      -0.293641        -7.9904
  90   2.0000      -0.291597        -7.9348
  91   2.0000      -0.281078        -7.6485
  92   2.0000      -0.273144        -7.4326
  93   2.0000      -0.266616        -7.2550
  94   2.0000      -0.259651        -7.0655
  95   2.0000      -0.232402        -6.3240
  96   2.0000      -0.218350        -5.9416
  97   2.0000      -0.208552        -5.6750
  98   2.0000      -0.204287        -5.5589
  99   2.0000      -0.201456        -5.4819
 100   2.0000      -0.198030        -5.3887
 101   0.0000      -0.042373        -1.1530
 102   0.0000      -0.023389        -0.6364
 103   0.0000      -0.008917        -0.2427
 104   0.0000       0.000818         0.0222
 105   0.0000       0.006951         0.1891

MULLIKEN ATOMIC CHARGES
-----------------------
   0 C :   -0.315910
   1 C :   -0.007843
   2 O :   -0.387839
   3 P :    0.601304
   4 S :   -0.318050
   5 O :   -0.368089
   6 C :   -0.006121
   7 C :   -0.295984
   8 S :   -0.041496
   9 C :   -0.362948
  10 S :   -0.097019
  11 P :    0.599166
  12 S :   -0.311806
  13 O :   -0.345921
  14 C :   -0.023366
  15 C :   -0.285912
  16 O :   -0.384340
  17 C :   -0.012358
  18 C :   -0.282572
  19 H :    0.114232
  20 H :    0.132895
  21 H :    0.115294
  22 H :    0.114325
  23 H :    0.103251
  24 H :    0.103207
  25 H :    0.103749
  26 H :    0.117824
  27 H :    0.119146
  28 H :    0.109844
  29 H :    0.182208
  30 H :    0.195772
  31 H :    0.104012
  32 H :    0.119508
  33 H :    0.106365
  34 H :    0.121440
  35 H :    0.120070
  36 H :    0.107579
  37 H :    0.102831
  38 H :    0.114063
  39 H :    0.115549
  40 H :    0.123939
Sum of atomic charges:    0.0000000

LOEWDIN ATOMIC CHARGES
----------------------
   0 C :   -0.366937
   1 C :   -0.123737
   2 O :   -0.249917
   3 P :    0.560720
   4 S :   -0.323018
   5 O :   -0.243162
   6 C :   -0.114821
   7 C :   -0.361080
   8 S :    0.116074
   9 C :   -0.479854
  10 S :    0.067576
  11 P :    0.565836
  12 S :   -0.312248
  13 O :   -0.227212
  14 C :   -0.114752
  15 C :   -0.359833
  16 O :   -0.250310
  17 C :   -0.120875
  18 C :   -0.350593
  19 H :    0.122673
  20 H :    0.124186
  21 H :    0.132445
  22 H :    0.110915
  23 H :    0.116814
  24 H :    0.109093
  25 H :    0.115347
  26 H :    0.124647
  27 H :    0.124935
  28 H :    0.129007
  29 H :    0.129669
  30 H :    0.134337
  31 H :    0.102431
  32 H :    0.122819
  33 H :    0.128013
  34 H :    0.129780
  35 H :    0.124643
  36 H :    0.110725
  37 H :    0.108028
  38 H :    0.131982
  39 H :    0.125459
  40 H :    0.130195

  Mayer bond orders larger than 0.100000
B(  0-C ,  1-C ) :   1.1630 B(  0-C , 19-H ) :   0.9468 B(  0-C , 20-H ) :   0.9333
B(  0-C , 21-H ) :   0.9386 B(  1-C ,  2-O ) :   0.9066 B(  1-C , 22-H ) :   0.9113
B(  1-C , 23-H ) :   0.9331 B(  2-O ,  3-P ) :   1.0457 B(  3-P ,  4-S ) :   1.6575
B(  3-P ,  5-O ) :   1.1095 B(  3-P ,  8-S ) :   0.9784 B(  5-O ,  6-C ) :   0.8980
B(  6-C ,  7-C ) :   1.1680 B(  6-C , 24-H ) :   0.9084 B(  6-C , 25-H ) :   0.9317
B(  7-C , 26-H ) :   0.9463 B(  7-C , 27-H ) :   0.9422 B(  7-C , 28-H ) :   0.9401
B(  8-S ,  9-C ) :   0.9917 B(  9-C , 10-S ) :   1.0027 B(  9-C , 29-H ) :   0.8907
B(  9-C , 30-H ) :   0.8862 B( 10-S , 11-P ) :   0.9597 B( 10-S , 12-S ) :   0.1100
B( 11-P , 12-S ) :   1.6464 B( 11-P , 13-O ) :   1.1444 B( 11-P , 16-O ) :   1.0769
B( 13-O , 14-C ) :   0.8921 B( 14-C , 15-C ) :   1.1576 B( 14-C , 31-H ) :   0.9114
B( 14-C , 32-H ) :   0.9317 B( 15-C , 33-H ) :   0.9404 B( 15-C , 34-H ) :   0.9459
B( 15-C , 35-H ) :   0.9409 B( 16-O , 17-C ) :   0.9040 B( 17-C , 18-C ) :   1.1596
B( 17-C , 36-H ) :   0.9104 B( 17-C , 37-H ) :   0.9273 B( 18-C , 38-H ) :   0.9417
B( 18-C , 39-H ) :   0.9507 B( 18-C , 40-H ) :   0.9505

Dispersion correction           -0.064834636
FINAL SINGLE POINT ENERGY     -2929.520537273394

DIPOLE MOMENT
-------------

Method             : SCF
Type of density    : Electron Density
Multiplicity       :   1
Irrep              :   0
Energy             : -2929.6416010273997017 Eh
Relativity type    :
Basis              : AO
                                X                 Y                 Z
Electronic contribution:      3.490590933       8.978546982     -14.854875031
Nuclear contribution   :     -3.463227100     -10.619244336      16.366037309
                        -----------------------------------------
Total Dipole Moment    :      0.027363833      -1.640697354       1.511162278
                        -----------------------------------------
Magnitude (a.u.)       :      2.230750550
Magnitude (Debye)      :      5.670117286

Rotational constants in cm-1:             0.012990             0.004817             0.004429
Rotational constants in MHz :           389.442599           144.412865           132.792522

                             ****ORCA TERMINATED NORMALLY****
TOTAL RUN TIME: 0 days 0 hours 0 minutes 21 seconds 190 msec
