                         Program Version 6.0.0  -   RELEASE  -
|  1> ! r2scan-3c def2/J RI DEFGRID2 scfconv6 printgap
|  2> %output
|  3>     printlevel normal
|  4> end
|  5> * xyz 0 1
|  6> C 5.8545276825 -0.9395636764 -0.8580335141
|  7> C 4.5323459372 -0.2184913801 -1.0256795929
|  8> O 3.6049130646 -0.7645498211 -0.0671329389
|  9> P 2.3063022925 0.0408080652 0.3674421723
| 10> S 2.6425777945 1.884789748 0.9221509186
| 11> O 1.7204664821 -0.8303779267 1.5412298998
| 12> C 1.1803351892 -2.1708062257 1.4385749789
| 13> C 2.2195465019 -3.2013858409 1.0525943528
| 14> S 0.9946566343 -0.216584906 -1.3035627459
| 15> C 0.1365143302 1.3722418283 -1.1782452513
| 16> S -0.9306858656 1.49923056 0.276591648
| 17> P -2.4425422778 0.1203679546 -0.3672176447
| 18> S -2.5469912024 -0.2418514658 -2.2831251169
| 19> O -3.7742323431 0.6773841798 0.3037851744
| 20> C -4.63208864 1.6224285953 -0.3604331598
| 21> C -3.9681956841 2.9709995367 -0.547832365
| 22> O -2.1823978481 -1.1847944475 0.4835522004
| 23> C -2.2740193162 -1.2167477109 1.9335951357
| 24> C -2.4797314347 -2.6589964265 2.3484210778
| 25> H 6.2388001745 -0.782879638 0.1458715483
| 26> H 5.7222327836 -2.0048136759 -1.0229485817
| 27> H 6.5659015616 -0.5498193612 -1.578630928
| 28> H 4.1166238733 -0.3704456786 -2.0255658511
| 29> H 4.6363157172 0.8557756462 -0.8391753671
| 30> H 0.7941310888 -2.3550166347 2.4428525604
| 31> H 0.3594287973 -2.1593273347 0.7148509496
| 32> H 2.5343628566 -3.0592732523 0.0221008573
| 33> H 3.0872649881 -3.1186331254 1.7015108959
| 34> H 1.7867400184 -4.1919801658 1.1560804789
| 35> H -0.4617790638 1.4628996405 -2.0842217368
| 36> H 0.8673702471 2.1753032072 -1.0896721807
| 37> H -4.9252948545 1.2005066978 -1.3265526086
| 38> H -5.5009015545 1.689075913 0.2959423766
| 39> H -3.1502704296 2.8876048381 -1.2620445792
| 40> H -4.6966096385 3.6783544344 -0.9309743848
| 41> H -3.5730202248 3.3354130221 0.3972667839
| 42> H -1.3456749364 -0.8015670975 2.3360227656
| 43> H -3.11142139 -0.5908011354 2.2455472199
| 44> H -3.4153760323 -3.031839729 1.9416246128
| 45> H -1.6683219481 -3.2788720371 1.9784183486
| 46> H -2.5120440421 -2.7146395972 3.4317679613
| 47> *
| 48>
| 49>                          ****END OF INPUT****

CARTESIAN COORDINATES (ANGSTROEM)
---------------------------------
  C      5.854528   -0.939564   -0.858034
  C      4.532346   -0.218491   -1.025680
  O      3.604913   -0.764550   -0.067133
  P      2.306302    0.040808    0.367442
  S      2.642578    1.884790    0.922151
  O      1.720466   -0.830378    1.541230
  C      1.180335   -2.170806    1.438575
  C      2.219547   -3.201386    1.052594
  S      0.994657   -0.216585   -1.303563
  C      0.136514    1.372242   -1.178245
  S     -0.930686    1.499231    0.276592
  P     -2.442542    0.120368   -0.367218
  S     -2.546991   -0.241851   -2.283125
  O     -3.774232    0.677384    0.303785
  C     -4.632089    1.622429   -0.360433
  C     -3.968196    2.971000   -0.547832
  O     -2.182398   -1.184794    0.483552
  C     -2.274019   -1.216748    1.933595
  C     -2.479731   -2.658996    2.348421
  H      6.238800   -0.782880    0.145872
  H      5.722233   -2.004814   -1.022949
  H      6.565902   -0.549819   -1.578631
  H      4.116624   -0.370446   -2.025566
  H      4.636316    0.855776   -0.839175
  H      0.794131   -2.355017    2.442853
  H      0.359429   -2.159327    0.714851
  H      2.534363   -3.059273    0.022101
  H      3.087265   -3.118633    1.701511
  H      1.786740   -4.191980    1.156080
  H     -0.461779    1.462900   -2.084222
  H      0.867370    2.175303   -1.089672
  H     -4.925295    1.200507   -1.326553
  H     -5.500902    1.689076    0.295942
  H     -3.150270    2.887605   -1.262045
  H     -4.696610    3.678354   -0.930974
  H     -3.573020    3.335413    0.397267
  H     -1.345675   -0.801567    2.336023
  H     -3.111421   -0.590801    2.245547
  H     -3.415376   -3.031840    1.941625
  H     -1.668322   -3.278872    1.978418
  H     -2.512044   -2.714640    3.431768

 Total Charge           Charge          ....    0
 Multiplicity           Mult            ....    1
 Number of Electrons    NEL             ....  202
 Basis Dimension        Dim             ....  539

ORBITAL ENERGIES
----------------

  NO   OCC          E(Eh)            E(eV)
   0   2.0000     -88.573209     -2410.1996
   1   2.0000     -88.572163     -2410.1711
   2   2.0000     -88.522833     -2408.8288
   3   2.0000     -88.516886     -2408.6669
   4   2.0000     -76.914644     -2092.9539
   5   2.0000     -76.912393     -2092.8926
   6   2.0000     -18.994839      -516.8758
   7   2.0000     -18.992701      -516.8177
   8   2.0000     -18.992555      -516.8137
   9   2.0000     -18.991790      -516.7929
  10   2.0000     -10.104909      -274.9685
  11   2.0000     -10.103935      -274.9420
  12   2.0000     -10.101771      -274.8832
  13   2.0000     -10.101219      -274.8682
  14   2.0000     -10.097770      -274.7743
  15   2.0000     -10.039636      -273.1924
  16   2.0000     -10.033437      -273.0237
  17   2.0000     -10.032997      -273.0117
  18   2.0000     -10.029405      -272.9140
  19   2.0000      -7.867169      -214.0766
  20   2.0000      -7.866130      -214.0483
  21   2.0000      -7.817669      -212.7296
  22   2.0000      -7.811807      -212.5701
  23   2.0000      -6.593136      -179.4083
  24   2.0000      -6.590836      -179.3458
  25   2.0000      -5.814000      -158.2070
  26   2.0000      -5.813006      -158.1799
  27   2.0000      -5.810926      -158.1233
  28   2.0000      -5.810019      -158.0987
  29   2.0000      -5.804511      -157.9488
  30   2.0000      -5.803284      -157.9154
  31   2.0000      -5.765392      -156.8843
  32   2.0000      -5.759526      -156.7247
  33   2.0000      -5.757795      -156.6776
  34   2.0000      -5.757734      -156.6759
  35   2.0000      -5.752007      -156.5201
  36   2.0000      -5.751784      -156.5140
  37   2.0000      -4.738978      -128.9541
  38   2.0000      -4.737881      -128.9243
  39   2.0000      -4.736744      -128.8933
  40   2.0000      -4.736511      -128.8870
  41   2.0000      -4.735893      -128.8702
  42   2.0000      -4.734293      -128.8267
  43   2.0000      -1.053089       -28.6560
  44   2.0000      -1.050402       -28.5829
  45   2.0000      -1.011508       -27.5245
  46   2.0000      -1.011188       -27.5158
  47   2.0000      -0.798205       -21.7203
  48   2.0000      -0.760897       -20.7051
  49   2.0000      -0.755246       -20.5513
  50   2.0000      -0.737608       -20.0713
  51   2.0000      -0.736445       -20.0397
  52   2.0000      -0.708996       -19.2928
  53   2.0000      -0.684883       -18.6366
  54   2.0000      -0.669659       -18.2223
  55   2.0000      -0.627584       -17.0774
  56   2.0000      -0.624257       -16.9869
  57   2.0000      -0.610298       -16.6071
  58   2.0000      -0.602937       -16.4068
  59   2.0000      -0.593577       -16.1521
  60   2.0000      -0.535272       -14.5655
  61   2.0000      -0.525972       -14.3124
  62   2.0000      -0.498849       -13.5744
  63   2.0000      -0.496871       -13.5205
  64   2.0000      -0.479635       -13.0515
  65   2.0000      -0.466589       -12.6965
  66   2.0000      -0.461033       -12.5454
  67   2.0000      -0.453358       -12.3365
  68   2.0000      -0.449340       -12.2272
  69   2.0000      -0.437326       -11.9002
  70   2.0000      -0.426086       -11.5944
  71   2.0000      -0.415436       -11.3046
  72   2.0000      -0.412278       -11.2187
  73   2.0000      -0.396122       -10.7790
  74   2.0000      -0.394826       -10.7438
  75   2.0000      -0.388176       -10.5628
  76   2.0000      -0.380438       -10.3523
  77   2.0000      -0.377491       -10.2720
  78   2.0000      -0.377231       -10.2650
  79   2.0000      -0.369847       -10.0640
  80   2.0000      -0.365467        -9.9449
  81   2.0000      -0.363524        -9.8920
  82   2.0000      -0.360162        -9.8005
  83   2.0000      -0.354356        -9.6425
  84   2.0000      -0.351158        -9.5555
  85   2.0000      -0.335744        -9.1361
  86   2.0000      -0.326511        -8.8848
  87   2.0000      -0.322134        -8.7657
  88   2.0000      -0.314032        -8.5452
  89   2.0000      -0.311752        -8.4832
  90   2.0000      -0.306869        -8.3503
  91   2.0000      -0.289376        -7.8743
  92   2.0000      -0.285054        -7.7567
  93   2.0000      -0.277833        -7.5602
  94   2.0000      -0.271821        -7.3966
  95   2.0000      -0.248074        -6.7504
  96   2.0000      -0.227442        -6.1890
  97   2.0000      -0.225693        -6.1414
  98   2.0000      -0.219374        -5.9695
  99   2.0000      -0.213478        -5.8090
 100   2.0000      -0.210876        -5.7382
 101   0.0000      -0.044754        -1.2178
 102   0.0000      -0.027443        -0.7468
 103   0.0000      -0.002086        -0.0568
 104   0.0000       0.003457         0.0941
 105   0.0000       0.012583         0.3424

MULLIKEN ATOMIC CHARGES
-----------------------
   0 C :   -0.440432
   1 C :   -0.155577
   2 O :   -0.256771
   3 P :    0.673936
   4 S :   -0.458682
   5 O :   -0.247013
   6 C :   -0.191017
   7 C :   -0.442304
   8 S :   -0.179002
   9 C :   -0.246153
  10 S :   -0.145760
  11 P :    0.661551
  12 S :   -0.443931
  13 O :   -0.297486
  14 C :   -0.167954
  15 C :   -0.430397
  16 O :   -0.266071
  17 C :   -0.137166
  18 C :   -0.455014
  19 H :    0.159434
  20 H :    0.149906
  21 H :    0.146876
  22 H :    0.153524
  23 H :    0.170563
  24 H :    0.152014
  25 H :    0.194128
  26 H :    0.162288
  27 H :    0.162705
  28 H :    0.147601
  29 H :    0.212516
  30 H :    0.216178
  31 H :    0.173724
  32 H :    0.147739
  33 H :    0.169875
  34 H :    0.147160
  35 H :    0.156666
  36 H :    0.172496
  37 H :    0.167189
  38 H :    0.159075
  39 H :    0.152051
  40 H :    0.151534
Sum of atomic charges:    0.0000000

LOEWDIN ATOMIC CHARGES
----------------------
   0 C :   -0.385771
   1 C :    0.017239
   2 O :   -0.679348
   3 P :    0.384501
   4 S :   -0.104732
   5 O :   -0.648547
   6 C :    0.014468
   7 C :   -0.395839
   8 S :    0.132063
   9 C :   -0.432059
  10 S :    0.141019
  11 P :    0.387174
  12 S :   -0.096067
  13 O :   -0.682577
  14 C :    0.021887
  15 C :   -0.406809
  16 O :   -0.661333
  17 C :    0.018873
  18 C :   -0.386140
  19 H :    0.161899
  20 H :    0.158154
  21 H :    0.160137
  22 H :    0.172336
  23 H :    0.181469
  24 H :    0.181672
  25 H :    0.186585
  26 H :    0.165967
  27 H :    0.165041
  28 H :    0.159387
  29 H :    0.190042
  30 H :    0.191580
  31 H :    0.180257
  32 H :    0.179353
  33 H :    0.163864
  34 H :    0.159071
  35 H :    0.161872
  36 H :    0.178340
  37 H :    0.182126
  38 H :    0.162658
  39 H :    0.158956
  40 H :    0.161232

  Mayer bond orders larger than 0.100000
B(  0-C ,  1-C ) :   0.9585 B(  0-C , 19-H ) :   0.9720 B(  0-C , 20-H ) :   0.9713
B(  0-C , 21-H ) :   0.9645 B(  1-C ,  2-O ) :   0.7777 B(  1-C , 22-H ) :   0.9417
B(  1-C , 23-H ) :   0.9512 B(  2-O ,  3-P ) :   1.0573 B(  3-P ,  4-S ) :   1.8015
B(  3-P ,  5-O ) :   1.1960 B(  3-P ,  8-S ) :   0.9682 B(  5-O ,  6-C ) :   0.7787
B(  6-C ,  7-C ) :   0.9277 B(  6-C , 24-H ) :   0.9541 B(  6-C , 25-H ) :   0.9519
B(  7-C , 26-H ) :   0.9612 B(  7-C , 27-H ) :   0.9751 B(  7-C , 28-H ) :   0.9604
B(  8-S ,  9-C ) :   0.9097 B(  9-C , 10-S ) :   0.9063 B(  9-C , 29-H ) :   0.9090
B(  9-C , 30-H ) :   0.9075 B( 10-S , 11-P ) :   1.0044 B( 11-P , 12-S ) :   1.8177
B( 11-P , 13-O ) :   1.0432 B( 11-P , 16-O ) :   1.1634 B( 13-O , 14-C ) :   0.8181
B( 14-C , 15-C ) :   0.9219 B( 14-C , 31-H ) :   0.9673 B( 14-C , 32-H ) :   0.9616
B( 15-C , 33-H ) :   0.9655 B( 15-C , 34-H ) :   0.9572 B( 15-C , 35-H ) :   0.9659
B( 16-O , 17-C ) :   0.7153 B( 17-C , 18-C ) :   0.9395 B( 17-C , 36-H ) :   0.9408
B( 17-C , 37-H ) :   0.9456 B( 18-C , 38-H ) :   0.9689 B( 18-C , 39-H ) :   0.9734
B( 18-C , 40-H ) :   0.9693

Dispersion correction           -0.021242360
FINAL SINGLE POINT ENERGY     -2932.463061503574

DIPOLE MOMENT
-------------

Method             : SCF
Type of density    : Electron Density
Multiplicity       :   1
Irrep              :   0
Energy             : -2932.4880069755668046 Eh
Relativity type    :
Basis              : AO
                                X                 Y                 Z
Electronic contribution:     -2.617328089      10.533981026      -5.847748058
Nuclear contribution   :      2.311020443     -11.259876156       6.341325292
                        -----------------------------------------
Total Dipole Moment    :     -0.306307646      -0.725895130       0.493577234
                        -----------------------------------------
Magnitude (a.u.)       :      0.929713181
Magnitude (Debye)      :      2.363143105

Rotational constants in cm-1:             0.012755             0.004781             0.004264
Rotational constants in MHz :           382.394791           143.317404           127.827645

                             ****ORCA TERMINATED NORMALLY****
TOTAL RUN TIME: 0 days 0 hours 1 minutes 18 seconds 168 msec
