                         Program Version 6.0.0  -   RELEASE  -
|  1> ! r2scan-3c def2/J RI DEFGRID2 scfconv6 printgap
|  2> %output
|  3>     printlevel normal
|  4> end
|  5> %cpcm
|  6>     smd true
|  7>     smdsolvent "water"
|  8> end
|  9> * xyz 0 1
| 10> C 5.8545276825 -0.9395636764 -0.8580335141
| 11> C 4.5323459372 -0.2184913801 -1.0256795929
| 12> O 3.6049130646 -0.7645498211 -0.0671329389
| 13> P 2.3063022925 0.0408080652 0.3674421723
| 14> S 2.6425777945 1.884789748 0.9221509186
| 15> O 1.7204664821 -0.8303779267 1.5412298998
| 16> C 1.1803351892 -2.1708062257 1.4385749789
| 17> C 2.2195465019 -3.2013858409 1.0525943528
| 18> S 0.9946566343 -0.216584906 -1.3035627459
| 19> C 0.1365143302 1.3722418283 -1.1782452513
| 20> S -0.9306858656 1.49923056 0.276591648
| 21> P -2.4425422778 0.1203679546 -0.3672176447
| 22> S -2.5469912024 -0.2418514658 -2.2831251169
| 23> O -3.7742323431 0.6773841798 0.3037851744
| 24> C -4.63208864 1.6224285953 -0.3604331598
| 25> C -3.9681956841 2.9709995367 -0.547832365
| 26> O -2.1823978481 -1.1847944475 0.4835522004
| 27> C -2.2740193162 -1.2167477109 1.9335951357
| 28> C -2.4797314347 -2.6589964265 2.3484210778
| 29> H 6.2388001745 -0.782879638 0.1458715483
| 30> H 5.7222327836 -2.0048136759 -1.0229485817
| 31> H 6.5659015616 -0.5498193612 -1.578630928
| 32> H 4.1166238733 -0.3704456786 -2.0255658511
| 33> H 4.6363157172 0.8557756462 -0.8391753671
| 34> H 0.7941310888 -2.3550166347 2.4428525604
| 35> H 0.3594287973 -2.1593273347 0.7148509496
| 36> H 2.5343628566 -3.0592732523 0.0221008573
| 37> H 3.0872649881 -3.1186331254 1.7015108959
| 38> H 1.7867400184 -4.1919801658 1.1560804789
| 39> H -0.4617790638 1.4628996405 -2.0842217368
| 40> H 0.8673702471 2.1753032072 -1.0896721807
| 41> H -4.9252948545 1.2005066978 -1.3265526086
| 42> H -5.5009015545 1.689075913 0.2959423766
| 43> H -3.1502704296 2.8876048381 -1.2620445792
| 44> H -4.6966096385 3.6783544344 -0.9309743848
| 45> H -3.5730202248 3.3354130221 0.3972667839
| 46> H -1.3456749364 -0.8015670975 2.3360227656
| 47> H -3.11142139 -0.5908011354 2.2455472199
| 48> H -3.4153760323 -3.031839729 1.9416246128
| 49> H -1.6683219481 -3.2788720371 1.9784183486
| 50> H -2.5120440421 -2.7146395972 3.4317679613
| 51> *
| 52>
| 53>                          ****END OF INPUT****

CARTESIAN COORDINATES (ANGSTROEM)
---------------------------------
  C      5.854528   -0.939564   -0.858034
  C      4.532346   -0.218491   -1.025680
  O      3.604913   -0.764550   -0.067133
  P      2.306302    0.040808    0.367442
  S      2.642578    1.884790    0.922151
  O      1.720466   -0.830378    1.541230
  C      1.180335   -2.170806    1.438575
  C      2.219547   -3.201386    1.052594
  S      0.994657   -0.216585   -1.303563
  C      0.136514    1.372242   -1.178245
  S     -0.930686    1.499231    0.276592
  P     -2.442542    0.120368   -0.367218
  S     -2.546991   -0.241851   -2.283125
  O     -3.774232    0.677384    0.303785
  C     -4.632089    1.622429   -0.360433
  C     -3.968196    2.971000   -0.547832
  O     -2.182398   -1.184794    0.483552
  C     -2.274019   -1.216748    1.933595
  C     -2.479731   -2.658996    2.348421
  H      6.238800   -0.782880    0.145872
  H      5.722233   -2.004814   -1.022949
  H      6.565902   -0.549819   -1.578631
  H      4.116624   -0.370446   -2.025566
  H      4.636316    0.855776   -0.839175
  H      0.794131   -2.355017    2.442853
  H      0.359429   -2.159327    0.714851
  H      2.534363   -3.059273    0.022101
  H      3.087265   -3.118633    1.701511
  H      1.786740   -4.191980    1.156080
  H     -0.461779    1.462900   -2.084222
  H      0.867370    2.175303   -1.089672
  H     -4.925295    1.200507   -1.326553
  H     -5.500902    1.689076    0.295942
  H     -3.150270    2.887605   -1.262045
  H     -4.696610    3.678354   -0.930974
  H     -3.573020    3.335413    0.397267
  H     -1.345675   -0.801567    2.336023
  H     -3.111421   -0.590801    2.245547
  H     -3.415376   -3.031840    1.941625
  H     -1.668322   -3.278872    1.978418
  H     -2.512044   -2.714640    3.431768

 Total Charge           Charge          ....    0
 Multiplicity           Mult            ....    1
 Number of Electrons    NEL             ....  202
 Basis Dimension        Dim             ....  539

ORBITAL ENERGIES
----------------

  NO   OCC          E(Eh)            E(eV)
   0   2.0000     -88.578775     -2410.3510
   1   2.0000     -88.576714     -2410.2949
   2   2.0000     -88.532133     -2409.0818
   3   2.0000     -88.528973     -2408.9958
   4   2.0000     -76.920067     -2093.1014
   5   2.0000     -76.920008     -2093.0998
   6   2.0000     -18.997185      -516.9397
   7   2.0000     -18.995082      -516.8825
   8   2.0000     -18.994638      -516.8704
   9   2.0000     -18.994252      -516.8599
  10   2.0000     -10.103003      -274.9167
  11   2.0000     -10.092615      -274.6340
  12   2.0000     -10.091764      -274.6109
  13   2.0000     -10.090422      -274.5744
  14   2.0000     -10.089739      -274.5557
  15   2.0000     -10.020522      -272.6723
  16   2.0000     -10.019536      -272.6454
  17   2.0000     -10.019184      -272.6359
  18   2.0000     -10.018269      -272.6110
  19   2.0000      -7.872754      -214.2285
  20   2.0000      -7.870750      -214.1740
  21   2.0000      -7.827296      -212.9915
  22   2.0000      -7.824243      -212.9085
  23   2.0000      -6.598573      -179.5563
  24   2.0000      -6.598537      -179.5553
  25   2.0000      -5.819579      -158.3588
  26   2.0000      -5.817613      -158.3053
  27   2.0000      -5.816531      -158.2759
  28   2.0000      -5.814660      -158.2249
  29   2.0000      -5.810092      -158.1006
  30   2.0000      -5.807900      -158.0410
  31   2.0000      -5.774925      -157.1437
  32   2.0000      -5.771850      -157.0600
  33   2.0000      -5.767450      -156.9403
  34   2.0000      -5.767364      -156.9379
  35   2.0000      -5.764485      -156.8596
  36   2.0000      -5.764224      -156.8525
  37   2.0000      -4.744299      -129.0989
  38   2.0000      -4.744198      -129.0962
  39   2.0000      -4.743591      -129.0797
  40   2.0000      -4.743277      -129.0711
  41   2.0000      -4.742267      -129.0437
  42   2.0000      -4.742157      -129.0406
  43   2.0000      -1.053893       -28.6779
  44   2.0000      -1.053578       -28.6693
  45   2.0000      -1.013931       -27.5905
  46   2.0000      -1.011257       -27.5177
  47   2.0000      -0.801671       -21.8146
  48   2.0000      -0.756239       -20.5783
  49   2.0000      -0.747955       -20.3529
  50   2.0000      -0.727660       -19.8006
  51   2.0000      -0.725560       -19.7435
  52   2.0000      -0.708713       -19.2851
  53   2.0000      -0.688604       -18.7379
  54   2.0000      -0.676513       -18.4089
  55   2.0000      -0.626059       -17.0359
  56   2.0000      -0.619696       -16.8628
  57   2.0000      -0.599523       -16.3138
  58   2.0000      -0.596214       -16.2238
  59   2.0000      -0.591645       -16.0995
  60   2.0000      -0.531104       -14.4521
  61   2.0000      -0.522353       -14.2139
  62   2.0000      -0.494917       -13.4674
  63   2.0000      -0.491483       -13.3739
  64   2.0000      -0.479402       -13.0452
  65   2.0000      -0.461116       -12.5476
  66   2.0000      -0.456395       -12.4191
  67   2.0000      -0.445545       -12.1239
  68   2.0000      -0.440496       -11.9865
  69   2.0000      -0.434387       -11.8203
  70   2.0000      -0.423504       -11.5241
  71   2.0000      -0.410826       -11.1791
  72   2.0000      -0.407157       -11.0793
  73   2.0000      -0.393700       -10.7131
  74   2.0000      -0.390546       -10.6273
  75   2.0000      -0.389199       -10.5906
  76   2.0000      -0.378236       -10.2923
  77   2.0000      -0.371261       -10.1025
  78   2.0000      -0.361205        -9.8289
  79   2.0000      -0.360836        -9.8189
  80   2.0000      -0.359257        -9.7759
  81   2.0000      -0.352845        -9.6014
  82   2.0000      -0.350908        -9.5487
  83   2.0000      -0.347768        -9.4632
  84   2.0000      -0.342416        -9.3176
  85   2.0000      -0.332204        -9.0397
  86   2.0000      -0.321773        -8.7559
  87   2.0000      -0.315227        -8.5778
  88   2.0000      -0.312474        -8.5028
  89   2.0000      -0.306832        -8.3493
  90   2.0000      -0.302929        -8.2431
  91   2.0000      -0.288830        -7.8595
  92   2.0000      -0.281170        -7.6510
  93   2.0000      -0.277958        -7.5636
  94   2.0000      -0.274583        -7.4718
  95   2.0000      -0.253245        -6.8912
  96   2.0000      -0.238636        -6.4936
  97   2.0000      -0.236425        -6.4334
  98   2.0000      -0.227287        -6.1848
  99   2.0000      -0.225314        -6.1311
 100   2.0000      -0.220514        -6.0005
 101   0.0000      -0.051274        -1.3952
 102   0.0000      -0.035484        -0.9656
 103   0.0000      -0.006658        -0.1812
 104   0.0000      -0.002557        -0.0696
 105   0.0000       0.011466         0.3120

MULLIKEN ATOMIC CHARGES
-----------------------
   0 C :   -0.481521
   1 C :   -0.141852
   2 O :   -0.276144
   3 P :    0.688606
   4 S :   -0.510188
   5 O :   -0.287316
   6 C :   -0.156555
   7 C :   -0.492036
   8 S :   -0.192187
   9 C :   -0.243061
  10 S :   -0.164914
  11 P :    0.685898
  12 S :   -0.493558
  13 O :   -0.316740
  14 C :   -0.161304
  15 C :   -0.469459
  16 O :   -0.302314
  17 C :   -0.113877
  18 C :   -0.501463
  19 H :    0.166535
  20 H :    0.165445
  21 H :    0.169338
  22 H :    0.170671
  23 H :    0.171200
  24 H :    0.182362
  25 H :    0.186492
  26 H :    0.169280
  27 H :    0.173365
  28 H :    0.173867
  29 H :    0.233236
  30 H :    0.234138
  31 H :    0.178196
  32 H :    0.175511
  33 H :    0.170249
  34 H :    0.171660
  35 H :    0.167182
  36 H :    0.177827
  37 H :    0.182962
  38 H :    0.166734
  39 H :    0.170510
  40 H :    0.173226
Sum of atomic charges:    0.0000000

LOEWDIN ATOMIC CHARGES
----------------------
   0 C :   -0.389174
   1 C :    0.022574
   2 O :   -0.686759
   3 P :    0.386373
   4 S :   -0.145505
   5 O :   -0.668585
   6 C :    0.025174
   7 C :   -0.398892
   8 S :    0.128417
   9 C :   -0.425303
  10 S :    0.133411
  11 P :    0.390756
  12 S :   -0.132751
  13 O :   -0.686157
  14 C :    0.027451
  15 C :   -0.409991
  16 O :   -0.679902
  17 C :    0.027555
  18 C :   -0.389132
  19 H :    0.162944
  20 H :    0.162902
  21 H :    0.168865
  22 H :    0.179800
  23 H :    0.181698
  24 H :    0.195128
  25 H :    0.187214
  26 H :    0.166124
  27 H :    0.166422
  28 H :    0.169597
  29 H :    0.197056
  30 H :    0.197233
  31 H :    0.181416
  32 H :    0.191197
  33 H :    0.161073
  34 H :    0.167942
  35 H :    0.163877
  36 H :    0.183031
  37 H :    0.188459
  38 H :    0.163220
  39 H :    0.164427
  40 H :    0.170816

  Mayer bond orders larger than 0.100000
B(  0-C ,  1-C ) :   0.9551 B(  0-C , 19-H ) :   0.9700 B(  0-C , 20-H ) :   0.9680
B(  0-C , 21-H ) :   0.9586 B(  1-C ,  2-O ) :   0.7701 B(  1-C , 22-H ) :   0.9330
B(  1-C , 23-H ) :   0.9491 B(  2-O ,  3-P ) :   1.0681 B(  3-P ,  4-S ) :   1.7818
B(  3-P ,  5-O ) :   1.2029 B(  3-P ,  8-S ) :   0.9790 B(  5-O ,  6-C ) :   0.7713
B(  6-C ,  7-C ) :   0.9125 B(  6-C , 24-H ) :   0.9441 B(  6-C , 25-H ) :   0.9473
B(  7-C , 26-H ) :   0.9584 B(  7-C , 27-H ) :   0.9754 B(  7-C , 28-H ) :   0.9543
B(  8-S ,  9-C ) :   0.8958 B(  9-C , 10-S ) :   0.8937 B(  9-C , 29-H ) :   0.9041
B(  9-C , 30-H ) :   0.9034 B( 10-S , 11-P ) :   1.0056 B( 11-P , 12-S ) :   1.7963
B( 11-P , 13-O ) :   1.0557 B( 11-P , 16-O ) :   1.1722 B( 13-O , 14-C ) :   0.8070
B( 14-C , 15-C ) :   0.9100 B( 14-C , 31-H ) :   0.9658 B( 14-C , 32-H ) :   0.9509
B( 15-C , 33-H ) :   0.9659 B( 15-C , 34-H ) :   0.9520 B( 15-C , 35-H ) :   0.9643
B( 16-O , 17-C ) :   0.7131 B( 17-C , 18-C ) :   0.9301 B( 17-C , 36-H ) :   0.9326
B( 17-C , 37-H ) :   0.9393 B( 18-C , 38-H ) :   0.9693 B( 18-C , 39-H ) :   0.9695
B( 18-C , 40-H ) :   0.9613

Dispersion correction           -0.021242360
FINAL SINGLE POINT ENERGY     -2932.474666704497

DIPOLE MOMENT
-------------

Method             : SCF
Type of density    : Electron Density
Multiplicity       :   1
Irrep              :   0
Energy             : -2932.4996121764893360 Eh
Relativity type    :
Basis              : AO
                                X                 Y                 Z
Electronic contribution:     -2.788906853      10.383015106      -5.755024644
Nuclear contribution   :      2.311020443     -11.259876156       6.341325292
                        -----------------------------------------
Total Dipole Moment    :     -0.477886410      -0.876861050       0.586300648
                        -----------------------------------------
Magnitude (a.u.)       :      1.158019504
Magnitude (Debye)      :      2.943451658

Rotational constants in cm-1:             0.012755             0.004781             0.004264
Rotational constants in MHz :           382.394791           143.317404           127.827645

                             ****ORCA TERMINATED NORMALLY****
TOTAL RUN TIME: 0 days 0 hours 1 minutes 55 seconds 189 msec
