                         Program Version 6.0.1  -  RELEASE   -
|  1> ! pbe def2-sv(p) def2/J RI DEFGRID1 loosescf d4 GCP(DFT/SV(P)) printgap
|  2> %output
|  3>     printlevel normal
|  4> end
|  5> * xyz 0 1
|  6> C 1.9048738245 -4.3093985735 0.2017090632
|  7> C 1.2335839486 -3.4316785958 -0.8416645544
|  8> O 1.2912368723 -2.0509145495 -0.4403905887
|  9> C 2.1946243116 -1.2603210187 -0.9892364216
| 10> O 3.0023995042 -1.6012284331 -1.8214992807
| 11> C 2.0700405241 0.1489341694 -0.4423810105
| 12> C 0.9561955175 0.9294983554 -1.161898787
| 13> H 1.3150324711 1.3107734275 -2.1192251221
| 14> C 0.5021232952 2.0674670303 -0.2647022221
| 15> O -0.5809419846 2.0531731115 0.2881844704
| 16> O 1.4075958844 2.9902127761 -0.1351178345
| 17> C 1.1322247493 4.1144073349 0.7338629155
| 18> C 0.3670205246 5.1959278573 -0.0095629911
| 19> S -0.529186073 -0.0481300377 -1.5640391917
| 20> P -1.3085226127 -0.385704323 0.3723248502
| 21> S -0.3230928768 -0.3351695216 2.0782949167
| 22> O -2.7677422704 0.26658248 0.4497141595
| 23> C -3.1369966744 1.4071686395 1.2232099965
| 24> O -1.7413463415 -1.8796487461 -0.0209104895
| 25> C -2.3977293857 -2.7260918864 0.9266715164
| 26> H 1.4613909375 -4.1303417732 1.1778269544
| 27> H 1.7732372436 -5.3519549757 -0.0677895588
| 28> H 2.9678610418 -4.0860283777 0.2518228245
| 29> H 0.168843218 -3.6549341598 -0.9281384042
| 30> H 1.7200816289 -3.5284874081 -1.8162268008
| 31> H 3.0137276279 0.6751364007 -0.5815022442
| 32> H 1.8370466829 0.0701196574 0.6219590813
| 33> H 0.5681460779 3.7552867653 1.5985438936
| 34> H 2.1191959174 4.4610170743 1.0388682244
| 35> H -0.6082940884 4.8257137067 -0.316614054
| 36> H 0.2281813246 6.0486596359 0.6465612754
| 37> H 0.9206138311 5.5083097542 -0.8904630538
| 38> H -4.1677596396 1.2406383522 1.528380298
| 39> H -3.0532086925 2.3034933403 0.6127430553
| 40> H -2.4880667714 1.4952244424 2.0958303635
| 41> H -2.4041994163 -3.7191223094 0.4844560699
| 42> H -3.4163330954 -2.3789656025 1.0988247955
| 43> H -1.8459066684 -2.7313492519 1.8690732172
| 44> *
| 45>
| 46>                          ****END OF INPUT****

CARTESIAN COORDINATES (ANGSTROEM)
---------------------------------
  C      1.904874   -4.309399    0.201709
  C      1.233584   -3.431679   -0.841665
  O      1.291237   -2.050915   -0.440391
  C      2.194624   -1.260321   -0.989236
  O      3.002400   -1.601228   -1.821499
  C      2.070041    0.148934   -0.442381
  C      0.956196    0.929498   -1.161899
  H      1.315032    1.310773   -2.119225
  C      0.502123    2.067467   -0.264702
  O     -0.580942    2.053173    0.288184
  O      1.407596    2.990213   -0.135118
  C      1.132225    4.114407    0.733863
  C      0.367021    5.195928   -0.009563
  S     -0.529186   -0.048130   -1.564039
  P     -1.308523   -0.385704    0.372325
  S     -0.323093   -0.335170    2.078295
  O     -2.767742    0.266582    0.449714
  C     -3.136997    1.407169    1.223210
  O     -1.741346   -1.879649   -0.020910
  C     -2.397729   -2.726092    0.926672
  H      1.461391   -4.130342    1.177827
  H      1.773237   -5.351955   -0.067790
  H      2.967861   -4.086028    0.251823
  H      0.168843   -3.654934   -0.928138
  H      1.720082   -3.528487   -1.816227
  H      3.013728    0.675136   -0.581502
  H      1.837047    0.070120    0.621959
  H      0.568146    3.755287    1.598544
  H      2.119196    4.461017    1.038868
  H     -0.608294    4.825714   -0.316614
  H      0.228181    6.048660    0.646561
  H      0.920614    5.508310   -0.890463
  H     -4.167760    1.240638    1.528380
  H     -3.053209    2.303493    0.612743
  H     -2.488067    1.495224    2.095830
  H     -2.404199   -3.719122    0.484456
  H     -3.416333   -2.378966    1.098825
  H     -1.845907   -2.731349    1.869073

 Total Charge           Charge          ....    0
 Multiplicity           Mult            ....    1
 Number of Electrons    NEL             ....  174
 Basis Dimension        Dim             ....  316

ORBITAL ENERGIES
----------------

  NO   OCC          E(Eh)            E(eV)
   0   2.0000     -88.033997     -2395.5269
   1   2.0000     -87.973085     -2393.8693
   2   2.0000     -76.420243     -2079.5005
   3   2.0000     -18.828932      -512.3613
   4   2.0000     -18.792532      -511.3708
   5   2.0000     -18.780910      -511.0545
   6   2.0000     -18.776370      -510.9310
   7   2.0000     -18.766776      -510.6699
   8   2.0000     -18.729356      -509.6517
   9   2.0000     -10.033356      -273.0215
  10   2.0000     -10.003419      -272.2069
  11   2.0000      -9.965186      -271.1665
  12   2.0000      -9.955668      -270.9075
  13   2.0000      -9.935667      -270.3632
  14   2.0000      -9.934239      -270.3244
  15   2.0000      -9.932250      -270.2703
  16   2.0000      -9.904675      -269.5199
  17   2.0000      -9.901251      -269.4267
  18   2.0000      -9.879560      -268.8365
  19   2.0000      -7.679213      -208.9620
  20   2.0000      -7.618304      -207.3046
  21   2.0000      -6.415890      -174.5852
  22   2.0000      -5.707553      -155.3104
  23   2.0000      -5.704132      -155.2173
  24   2.0000      -5.695190      -154.9740
  25   2.0000      -5.647424      -153.6742
  26   2.0000      -5.639130      -153.4485
  27   2.0000      -5.637974      -153.4171
  28   2.0000      -4.638527      -126.2207
  29   2.0000      -4.637908      -126.2039
  30   2.0000      -4.636482      -126.1651
  31   2.0000      -1.039427       -28.2843
  32   2.0000      -1.000823       -27.2338
  33   2.0000      -0.971856       -26.4456
  34   2.0000      -0.944931       -25.7129
  35   2.0000      -0.927419       -25.2364
  36   2.0000      -0.907659       -24.6987
  37   2.0000      -0.768518       -20.9124
  38   2.0000      -0.721701       -19.6385
  39   2.0000      -0.702003       -19.1025
  40   2.0000      -0.687107       -18.6971
  41   2.0000      -0.649574       -17.6758
  42   2.0000      -0.631371       -17.1805
  43   2.0000      -0.620933       -16.8965
  44   2.0000      -0.620265       -16.8783
  45   2.0000      -0.591732       -16.1019
  46   2.0000      -0.563622       -15.3369
  47   2.0000      -0.517422       -14.0798
  48   2.0000      -0.505547       -13.7566
  49   2.0000      -0.491896       -13.3852
  50   2.0000      -0.488327       -13.2880
  51   2.0000      -0.467648       -12.7253
  52   2.0000      -0.455131       -12.3848
  53   2.0000      -0.452037       -12.3006
  54   2.0000      -0.441627       -12.0173
  55   2.0000      -0.434261       -11.8168
  56   2.0000      -0.419577       -11.4173
  57   2.0000      -0.415057       -11.2943
  58   2.0000      -0.410967       -11.1830
  59   2.0000      -0.402931       -10.9643
  60   2.0000      -0.400947       -10.9103
  61   2.0000      -0.397193       -10.8082
  62   2.0000      -0.388782       -10.5793
  63   2.0000      -0.383549       -10.4369
  64   2.0000      -0.378222       -10.2919
  65   2.0000      -0.370088       -10.0706
  66   2.0000      -0.361137        -9.8270
  67   2.0000      -0.357448        -9.7267
  68   2.0000      -0.347372        -9.4525
  69   2.0000      -0.345544        -9.4027
  70   2.0000      -0.335990        -9.1427
  71   2.0000      -0.325478        -8.8567
  72   2.0000      -0.322271        -8.7695
  73   2.0000      -0.314694        -8.5633
  74   2.0000      -0.304719        -8.2918
  75   2.0000      -0.295555        -8.0425
  76   2.0000      -0.287570        -7.8252
  77   2.0000      -0.286105        -7.7853
  78   2.0000      -0.277481        -7.5506
  79   2.0000      -0.262018        -7.1299
  80   2.0000      -0.260545        -7.0898
  81   2.0000      -0.251272        -6.8374
  82   2.0000      -0.247737        -6.7413
  83   2.0000      -0.215650        -5.8681
  84   2.0000      -0.207037        -5.6338
  85   2.0000      -0.192444        -5.2367
  86   2.0000      -0.186730        -5.0812
  87   0.0000      -0.047941        -1.3045
  88   0.0000      -0.043476        -1.1830
  89   0.0000      -0.014294        -0.3889
  90   0.0000       0.008007         0.2179
  91   0.0000       0.031575         0.8592

MULLIKEN ATOMIC CHARGES
-----------------------
   0 C :   -0.298294
   1 C :   -0.017298
   2 O :   -0.220372
   3 C :    0.114861
   4 O :   -0.196597
   5 C :   -0.068874
   6 C :   -0.331667
   7 H :    0.149037
   8 C :    0.231943
   9 O :   -0.194780
  10 O :   -0.215996
  11 C :   -0.012146
  12 C :   -0.311426
  13 S :   -0.057520
  14 P :    0.660729
  15 S :   -0.355060
  16 O :   -0.390208
  17 C :   -0.086029
  18 O :   -0.389452
  19 C :   -0.100690
  20 H :    0.119700
  21 H :    0.108010
  22 H :    0.115919
  23 H :    0.108855
  24 H :    0.107768
  25 H :    0.110344
  26 H :    0.129234
  27 H :    0.121679
  28 H :    0.112719
  29 H :    0.130685
  30 H :    0.121209
  31 H :    0.120624
  32 H :    0.112955
  33 H :    0.113076
  34 H :    0.113200
  35 H :    0.118360
  36 H :    0.110388
  37 H :    0.115114
Sum of atomic charges:   -0.0000000

LOEWDIN ATOMIC CHARGES
----------------------
   0 C :   -0.353575
   1 C :   -0.113145
   2 O :   -0.052072
   3 C :    0.021744
   4 O :   -0.165310
   5 C :   -0.256581
   6 C :   -0.258248
   7 H :    0.149269
   8 C :    0.027684
   9 O :   -0.155471
  10 O :   -0.033904
  11 C :   -0.105008
  12 C :   -0.355380
  13 S :    0.130700
  14 P :    0.597735
  15 S :   -0.333370
  16 O :   -0.254199
  17 C :   -0.212774
  18 O :   -0.262844
  19 C :   -0.218148
  20 H :    0.126819
  21 H :    0.127774
  22 H :    0.126928
  23 H :    0.117325
  24 H :    0.118624
  25 H :    0.140967
  26 H :    0.133781
  27 H :    0.126344
  28 H :    0.123486
  29 H :    0.131166
  30 H :    0.135142
  31 H :    0.128239
  32 H :    0.114135
  33 H :    0.110904
  34 H :    0.106999
  35 H :    0.116410
  36 H :    0.110122
  37 H :    0.107731

  Mayer bond orders larger than 0.100000
B(  0-C ,  1-C ) :   1.1772 B(  0-C , 20-H ) :   0.9482 B(  0-C , 21-H ) :   0.9455
B(  0-C , 22-H ) :   0.9489 B(  1-C ,  2-O ) :   0.9081 B(  1-C , 23-H ) :   0.9258
B(  1-C , 24-H ) :   0.9087 B(  2-O ,  3-C ) :   1.2103 B(  3-C ,  4-O ) :   2.0731
B(  3-C ,  5-C ) :   1.0156 B(  5-C ,  6-C ) :   1.0305 B(  5-C , 25-H ) :   0.8875
B(  5-C , 26-H ) :   0.8634 B(  6-C ,  7-H ) :   0.8713 B(  6-C ,  8-C ) :   0.9080
B(  6-C , 13-S ) :   1.0651 B(  8-C ,  9-O ) :   1.9216 B(  8-C , 10-O ) :   1.2854
B(  9-O , 14-P ) :   0.1140 B( 10-O , 11-C ) :   0.8947 B( 11-C , 12-C ) :   1.1748
B( 11-C , 27-H ) :   0.9153 B( 11-C , 28-H ) :   0.9357 B( 12-C , 29-H ) :   0.9457
B( 12-C , 30-H ) :   0.9428 B( 12-C , 31-H ) :   0.9472 B( 13-S , 14-P ) :   0.9212
B( 13-S , 15-S ) :   0.1125 B( 14-P , 15-S ) :   1.5497 B( 14-P , 16-O ) :   1.0956
B( 14-P , 18-O ) :   1.0713 B( 16-O , 17-C ) :   0.9331 B( 17-C , 32-H ) :   0.9549
B( 17-C , 33-H ) :   0.9530 B( 17-C , 34-H ) :   0.9324 B( 18-O , 19-C ) :   0.9403
B( 19-C , 35-H ) :   0.9576 B( 19-C , 36-H ) :   0.9511 B( 19-C , 37-H ) :   0.9326

Dispersion correction           -0.054262464
FINAL SINGLE POINT ENERGY     -1979.008768268802

DIPOLE MOMENT
-------------

Method             : SCF
Type of density    : Electron Density
Multiplicity       :   1
Irrep              :   0
Energy             : -1979.1382772471624776 Eh
Relativity type    :
Basis              : AO
                                X                 Y                 Z
Electronic contribution:     -1.734188266      -1.197568757      -5.192641044
Nuclear contribution   :      1.305711531       2.334973218       5.542662328
                        -----------------------------------------
Total Dipole Moment    :     -0.428476735       1.137404462       0.350021284
                        -----------------------------------------
Magnitude (a.u.)       :      1.264830471
Magnitude (Debye)      :      3.214943562

Rotational constants in cm-1:             0.013031             0.008403             0.006088
Rotational constants in MHz :           390.655202           251.920918           182.498765

                             ****ORCA TERMINATED NORMALLY****
TOTAL RUN TIME: 0 days 0 hours 0 minutes 38 seconds 72 msec
