                         Program Version 6.0.0  -   RELEASE  -
|  1> ! pbe def2-sv(p) def2/J RI DEFGRID1 loosescf d4 GCP(DFT/SV(P)) printgap
|  2> %output
|  3>     printlevel normal
|  4> end
|  5> * xyz 0 1
|  6> C -2.2762896674 -0.3325347955 -0.2635643407
|  7> C -1.2360777931 0.038381397 0.4614933086
|  8> C -0.0864014096 0.8072909983 -0.0828605083
|  9> Cl 1.4096626658 -0.2183270105 -0.0320902242
| 10> H -3.0935334476 -0.8861642131 0.1633064168
| 11> H -2.3524866434 -0.088654476 -1.3097010721
| 12> H -1.1653491873 -0.224158416 1.5075927525
| 13> H -0.2314058967 1.0808931462 -1.1256705277
| 14> H 0.1431551472 1.6828323651 0.5220334151
| 15> *
| 16>
| 17>                          ****END OF INPUT****

CARTESIAN COORDINATES (ANGSTROEM)
---------------------------------
  C     -2.276290   -0.332535   -0.263564
  C     -1.236078    0.038381    0.461493
  C     -0.086401    0.807291   -0.082861
  Cl     1.409663   -0.218327   -0.032090
  H     -3.093533   -0.886164    0.163306
  H     -2.352487   -0.088654   -1.309701
  H     -1.165349   -0.224158    1.507593
  H     -0.231406    1.080893   -1.125671
  H      0.143155    1.682832    0.522033

 Total Charge           Charge          ....    0
 Multiplicity           Mult            ....    1
 Number of Electrons    NEL             ....   40
 Basis Dimension        Dim             ....   70

ORBITAL ENERGIES
----------------

  NO   OCC          E(Eh)            E(eV)
   0   2.0000    -100.617020     -2737.9283
   1   2.0000      -9.947090      -270.6741
   2   2.0000      -9.906793      -269.5775
   3   2.0000      -9.896632      -269.3010
   4   2.0000      -9.152765      -249.0594
   5   2.0000      -6.984560      -190.0595
   6   2.0000      -6.972467      -189.7305
   7   2.0000      -6.972139      -189.7216
   8   2.0000      -0.777019       -21.1438
   9   2.0000      -0.701674       -19.0935
  10   2.0000      -0.603408       -16.4196
  11   2.0000      -0.512617       -13.9490
  12   2.0000      -0.442724       -12.0471
  13   2.0000      -0.406535       -11.0624
  14   2.0000      -0.388059       -10.5596
  15   2.0000      -0.357080        -9.7166
  16   2.0000      -0.328271        -8.9327
  17   2.0000      -0.257914        -7.0182
  18   2.0000      -0.244944        -6.6653
  19   2.0000      -0.239758        -6.5242
  20   0.0000      -0.045801        -1.2463
  21   0.0000       0.022278         0.6062
  22   0.0000       0.059914         1.6303
  23   0.0000       0.063294         1.7223
  24   0.0000       0.083277         2.2661

MULLIKEN ATOMIC CHARGES
-----------------------
   0 C :   -0.189586
   1 C :   -0.098946
   2 C :   -0.135872
   3 Cl:   -0.159594
   4 H :    0.109924
   5 H :    0.102888
   6 H :    0.091025
   7 H :    0.135238
   8 H :    0.144924
Sum of atomic charges:    0.0000000

LOEWDIN ATOMIC CHARGES
----------------------
   0 C :   -0.233579
   1 C :   -0.159385
   2 C :   -0.261800
   3 Cl:    0.015981
   4 H :    0.127530
   5 H :    0.123756
   6 H :    0.126588
   7 H :    0.128335
   8 H :    0.132574

  Mayer bond orders larger than 0.100000
B(  0-C ,  1-C ) :   2.0458 B(  0-C ,  4-H ) :   0.9260 B(  0-C ,  5-H ) :   0.9207
B(  1-C ,  2-C ) :   1.0814 B(  1-C ,  6-H ) :   0.9322 B(  2-C ,  3-Cl) :   0.9954
B(  2-C ,  7-H ) :   0.9250 B(  2-C ,  8-H ) :   0.9181

Dispersion correction           -0.005931123
FINAL SINGLE POINT ENERGY      -576.874261918359

DIPOLE MOMENT
-------------

Method             : SCF
Type of density    : Electron Density
Multiplicity       :   1
Irrep              :   0
Energy             :  -576.9013739349031766 Eh
Relativity type    :
Basis              : AO
                                X                 Y                 Z
Electronic contribution:      7.584620644      -1.400876156       0.184641566
Nuclear contribution   :     -8.177430127       1.761040801      -0.184379442
                        -----------------------------------------
Total Dipole Moment    :     -0.592809483       0.360164645       0.000262124
                        -----------------------------------------
Magnitude (a.u.)       :      0.693643801
Magnitude (Debye)      :      1.763102427

Rotational constants in cm-1:             0.678205             0.095292             0.091847
Rotational constants in MHz :         20332.063835          2856.780352          2753.497204

                             ****ORCA TERMINATED NORMALLY****
TOTAL RUN TIME: 0 days 0 hours 0 minutes 4 seconds 396 msec
