                         Program Version 6.0.0  -   RELEASE  -
|  1> ! pbe def2-sv(p) def2/J RI DEFGRID1 loosescf d4 GCP(DFT/SV(P)) printgap
|  2> %output
|  3>     printlevel normal
|  4> end
|  5> * xyz 0 1
|  6> C 3.0745548962 -1.8472173939 -2.0312418421
|  7> C 1.6692404927 -1.2883841049 -2.0016100637
|  8> O 1.2543938327 -0.9828257377 -0.6555650961
|  9> P 1.9219313862 0.1857296948 0.1754843928
| 10> S 2.741552295 1.6808655016 -0.7844475906
| 11> O 2.9038051067 -0.6832860802 1.08985624
| 12> C 3.7763127607 -0.0688922879 2.0560521297
| 13> C 5.1633529317 0.1336900231 1.4779612289
| 14> S 0.3910132668 0.7118913991 1.5389163193
| 15> C -0.2742512056 -0.9454193729 1.8458105778
| 16> S -1.4789667002 -1.5308477415 0.5953028977
| 17> P -2.0587102268 0.2506156273 -0.4188528346
| 18> S -0.8644468744 1.1339998473 -1.7010002736
| 19> O -2.5644797386 1.2457448807 0.6900887789
| 20> C -3.5344227526 0.8994414616 1.715430916
| 21> C -3.1526801816 1.628146274 2.9877074619
| 22> O -3.4238931997 -0.2392593582 -1.0785854553
| 23> C -3.4958192902 -0.842285899 -2.3816905971
| 24> C -2.8256985194 -2.2002759066 -2.4176176111
| 25> H 3.326291135 -2.132760356 -3.0475990852
| 26> H 3.77636833 -1.0862683366 -1.6913659047
| 27> H 3.1470707012 -2.7133369002 -1.3788223039
| 28> H 0.9320434358 -2.0177782435 -2.3416408634
| 29> H 1.5882366376 -0.3780679221 -2.6047814733
| 30> H 3.3442873644 0.8847704397 2.3771604398
| 31> H 3.7951787407 -0.7635423959 2.8980265269
| 32> H 5.5651232398 -0.8141300587 1.1313846513
| 33> H 5.121629877 0.8267677359 0.6404351457
| 34> H 5.8141855961 0.5430288807 2.2437030134
| 35> H -0.777623237 -0.9014516377 2.8087683847
| 36> H 0.5397298492 -1.6679811835 1.8589001223
| 37> H -4.5119526609 1.2150838325 1.3471243072
| 38> H -3.5351554173 -0.1855580194 1.8518833931
| 39> H -3.850124199 1.361238294 3.7749948667
| 40> H -2.1426279304 1.3600387622 3.2884036917
| 41> H -3.1848658306 2.7015453589 2.8252697895
| 42> H -4.566728984 -0.9130945818 -2.5764877601
| 43> H -3.0292767698 -0.16248993 -3.1018901242
| 44> H -1.7544024959 -2.0835590318 -2.2571595728
| 45> H -3.2286582275 -2.843499675 -1.6394596774
| 46> H -2.9888778921 -2.6570366202 -3.3883369008
| 47> *
| 48>
| 49>                          ****END OF INPUT****

CARTESIAN COORDINATES (ANGSTROEM)
---------------------------------
  C      3.074555   -1.847217   -2.031242
  C      1.669240   -1.288384   -2.001610
  O      1.254394   -0.982826   -0.655565
  P      1.921931    0.185730    0.175484
  S      2.741552    1.680866   -0.784448
  O      2.903805   -0.683286    1.089856
  C      3.776313   -0.068892    2.056052
  C      5.163353    0.133690    1.477961
  S      0.391013    0.711891    1.538916
  C     -0.274251   -0.945419    1.845811
  S     -1.478967   -1.530848    0.595303
  P     -2.058710    0.250616   -0.418853
  S     -0.864447    1.134000   -1.701000
  O     -2.564480    1.245745    0.690089
  C     -3.534423    0.899441    1.715431
  C     -3.152680    1.628146    2.987707
  O     -3.423893   -0.239259   -1.078585
  C     -3.495819   -0.842286   -2.381691
  C     -2.825699   -2.200276   -2.417618
  H      3.326291   -2.132760   -3.047599
  H      3.776368   -1.086268   -1.691366
  H      3.147071   -2.713337   -1.378822
  H      0.932043   -2.017778   -2.341641
  H      1.588237   -0.378068   -2.604781
  H      3.344287    0.884770    2.377160
  H      3.795179   -0.763542    2.898027
  H      5.565123   -0.814130    1.131385
  H      5.121630    0.826768    0.640435
  H      5.814186    0.543029    2.243703
  H     -0.777623   -0.901452    2.808768
  H      0.539730   -1.667981    1.858900
  H     -4.511953    1.215084    1.347124
  H     -3.535155   -0.185558    1.851883
  H     -3.850124    1.361238    3.774995
  H     -2.142628    1.360039    3.288404
  H     -3.184866    2.701545    2.825270
  H     -4.566729   -0.913095   -2.576488
  H     -3.029277   -0.162490   -3.101890
  H     -1.754402   -2.083559   -2.257160
  H     -3.228658   -2.843500   -1.639460
  H     -2.988878   -2.657037   -3.388337

 Total Charge           Charge          ....    0
 Multiplicity           Mult            ....    1
 Number of Electrons    NEL             ....  202
 Basis Dimension        Dim             ....  334

ORBITAL ENERGIES
----------------

  NO   OCC          E(Eh)            E(eV)
   0   2.0000     -88.044838     -2395.8219
   1   2.0000     -88.039222     -2395.6690
   2   2.0000     -87.983465     -2394.1518
   3   2.0000     -87.975109     -2393.9244
   4   2.0000     -76.423497     -2079.5891
   5   2.0000     -76.422214     -2079.5542
   6   2.0000     -18.789506      -511.2885
   7   2.0000     -18.787168      -511.2248
   8   2.0000     -18.786719      -511.2126
   9   2.0000     -18.785770      -511.1868
  10   2.0000      -9.961980      -271.0792
  11   2.0000      -9.955917      -270.9143
  12   2.0000      -9.951670      -270.7987
  13   2.0000      -9.949935      -270.7515
  14   2.0000      -9.945330      -270.6262
  15   2.0000      -9.891651      -269.1655
  16   2.0000      -9.885254      -268.9914
  17   2.0000      -9.878712      -268.8134
  18   2.0000      -9.878366      -268.8040
  19   2.0000      -7.689419      -209.2397
  20   2.0000      -7.683857      -209.0884
  21   2.0000      -7.628556      -207.5836
  22   2.0000      -7.620018      -207.3512
  23   2.0000      -6.420778      -174.7183
  24   2.0000      -6.419098      -174.6725
  25   2.0000      -5.717690      -155.5863
  26   2.0000      -5.713705      -155.4778
  27   2.0000      -5.711953      -155.4301
  28   2.0000      -5.708237      -155.3290
  29   2.0000      -5.706182      -155.2731
  30   2.0000      -5.700822      -155.1272
  31   2.0000      -5.657652      -153.9525
  32   2.0000      -5.649327      -153.7260
  33   2.0000      -5.649234      -153.7235
  34   2.0000      -5.648415      -153.7012
  35   2.0000      -5.640421      -153.4837
  36   2.0000      -5.640098      -153.4749
  37   2.0000      -4.643117      -126.3456
  38   2.0000      -4.642776      -126.3364
  39   2.0000      -4.642250      -126.3220
  40   2.0000      -4.641306      -126.2964
  41   2.0000      -4.640965      -126.2871
  42   2.0000      -4.639046      -126.2349
  43   2.0000      -0.984041       -26.7771
  44   2.0000      -0.983050       -26.7502
  45   2.0000      -0.941385       -25.6164
  46   2.0000      -0.940384       -25.5892
  47   2.0000      -0.762335       -20.7442
  48   2.0000      -0.718449       -19.5500
  49   2.0000      -0.708209       -19.2713
  50   2.0000      -0.689036       -18.7496
  51   2.0000      -0.681652       -18.5487
  52   2.0000      -0.672086       -18.2884
  53   2.0000      -0.651612       -17.7313
  54   2.0000      -0.635291       -17.2871
  55   2.0000      -0.593018       -16.1368
  56   2.0000      -0.587584       -15.9890
  57   2.0000      -0.574239       -15.6258
  58   2.0000      -0.567982       -15.4556
  59   2.0000      -0.561376       -15.2758
  60   2.0000      -0.505438       -13.7537
  61   2.0000      -0.497723       -13.5437
  62   2.0000      -0.471862       -12.8400
  63   2.0000      -0.469873       -12.7859
  64   2.0000      -0.458547       -12.4777
  65   2.0000      -0.441519       -12.0143
  66   2.0000      -0.436584       -11.8800
  67   2.0000      -0.435080       -11.8391
  68   2.0000      -0.424901       -11.5621
  69   2.0000      -0.420400       -11.4397
  70   2.0000      -0.409266       -11.1367
  71   2.0000      -0.397633       -10.8201
  72   2.0000      -0.391803       -10.6615
  73   2.0000      -0.383159       -10.4263
  74   2.0000      -0.380336       -10.3495
  75   2.0000      -0.369678       -10.0594
  76   2.0000      -0.362239        -9.8570
  77   2.0000      -0.360781        -9.8174
  78   2.0000      -0.355237        -9.6665
  79   2.0000      -0.352366        -9.5884
  80   2.0000      -0.346132        -9.4187
  81   2.0000      -0.345039        -9.3890
  82   2.0000      -0.340803        -9.2737
  83   2.0000      -0.333077        -9.0635
  84   2.0000      -0.324721        -8.8361
  85   2.0000      -0.321894        -8.7592
  86   2.0000      -0.312805        -8.5119
  87   2.0000      -0.301812        -8.2127
  88   2.0000      -0.293335        -7.9821
  89   2.0000      -0.289034        -7.8650
  90   2.0000      -0.285807        -7.7772
  91   2.0000      -0.270178        -7.3519
  92   2.0000      -0.267681        -7.2840
  93   2.0000      -0.257485        -7.0065
  94   2.0000      -0.256143        -6.9700
  95   2.0000      -0.230488        -6.2719
  96   2.0000      -0.221853        -6.0369
  97   2.0000      -0.205970        -5.6047
  98   2.0000      -0.196105        -5.3363
  99   2.0000      -0.189964        -5.1692
 100   2.0000      -0.183045        -4.9809
 101   0.0000      -0.050669        -1.3788
 102   0.0000      -0.028746        -0.7822
 103   0.0000      -0.015081        -0.4104
 104   0.0000      -0.001769        -0.0481
 105   0.0000       0.020677         0.5627

MULLIKEN ATOMIC CHARGES
-----------------------
   0 C :   -0.300767
   1 C :   -0.018968
   2 O :   -0.370528
   3 P :    0.611730
   4 S :   -0.298601
   5 O :   -0.376264
   6 C :   -0.010170
   7 C :   -0.288610
   8 S :   -0.079135
   9 C :   -0.316698
  10 S :   -0.122094
  11 P :    0.596927
  12 S :   -0.295666
  13 O :   -0.357563
  14 C :   -0.015030
  15 C :   -0.286188
  16 O :   -0.383254
  17 C :    0.004242
  18 C :   -0.343536
  19 H :    0.109722
  20 H :    0.125533
  21 H :    0.110592
  22 H :    0.113948
  23 H :    0.122442
  24 H :    0.098263
  25 H :    0.100077
  26 H :    0.111206
  27 H :    0.128902
  28 H :    0.105985
  29 H :    0.178183
  30 H :    0.186162
  31 H :    0.111078
  32 H :    0.102536
  33 H :    0.111170
  34 H :    0.115229
  35 H :    0.126236
  36 H :    0.102997
  37 H :    0.110602
  38 H :    0.145642
  39 H :    0.119517
  40 H :    0.114150
Sum of atomic charges:   -0.0000000

LOEWDIN ATOMIC CHARGES
----------------------
   0 C :   -0.366841
   1 C :   -0.117605
   2 O :   -0.235290
   3 P :    0.573689
   4 S :   -0.300957
   5 O :   -0.254594
   6 C :   -0.119825
   7 C :   -0.363347
   8 S :    0.105221
   9 C :   -0.471336
  10 S :    0.062539
  11 P :    0.557617
  12 S :   -0.293931
  13 O :   -0.236338
  14 C :   -0.116544
  15 C :   -0.351490
  16 O :   -0.253845
  17 C :   -0.118451
  18 C :   -0.374046
  19 H :    0.129812
  20 H :    0.121948
  21 H :    0.123805
  22 H :    0.116468
  23 H :    0.112667
  24 H :    0.105380
  25 H :    0.114862
  26 H :    0.124131
  27 H :    0.124425
  28 H :    0.127805
  29 H :    0.130311
  30 H :    0.133785
  31 H :    0.119412
  32 H :    0.102011
  33 H :    0.129797
  34 H :    0.120696
  35 H :    0.132414
  36 H :    0.117879
  37 H :    0.110994
  38 H :    0.121480
  39 H :    0.123681
  40 H :    0.131612

  Mayer bond orders larger than 0.100000
B(  0-C ,  1-C ) :   1.1616 B(  0-C , 19-H ) :   0.9387 B(  0-C , 20-H ) :   0.9309
B(  0-C , 21-H ) :   0.9449 B(  1-C ,  2-O ) :   0.8950 B(  1-C , 22-H ) :   0.9273
B(  1-C , 23-H ) :   0.9155 B(  2-O ,  3-P ) :   1.1214 B(  3-P ,  4-S ) :   1.6450
B(  3-P ,  5-O ) :   1.0666 B(  3-P ,  8-S ) :   0.9498 B(  5-O ,  6-C ) :   0.9107
B(  6-C ,  7-C ) :   1.1685 B(  6-C , 24-H ) :   0.9124 B(  6-C , 25-H ) :   0.9359
B(  7-C , 26-H ) :   0.9465 B(  7-C , 27-H ) :   0.9306 B(  7-C , 28-H ) :   0.9400
B(  8-S ,  9-C ) :   1.0153 B(  9-C , 10-S ) :   0.9634 B(  9-C , 29-H ) :   0.9093
B(  9-C , 30-H ) :   0.9000 B( 10-S , 11-P ) :   0.9628 B( 10-S , 12-S ) :   0.1140
B( 11-P , 12-S ) :   1.6346 B( 11-P , 13-O ) :   1.1207 B( 11-P , 16-O ) :   1.0739
B( 13-O , 14-C ) :   0.8961 B( 14-C , 15-C ) :   1.1593 B( 14-C , 31-H ) :   0.9311
B( 14-C , 32-H ) :   0.9074 B( 15-C , 33-H ) :   0.9413 B( 15-C , 34-H ) :   0.9455
B( 15-C , 35-H ) :   0.9480 B( 16-O , 17-C ) :   0.9125 B( 17-C , 18-C ) :   1.1649
B( 17-C , 36-H ) :   0.9334 B( 17-C , 37-H ) :   0.9138 B( 18-C , 38-H ) :   0.9270
B( 18-C , 39-H ) :   0.9412 B( 18-C , 40-H ) :   0.9370

Dispersion correction           -0.068613581
FINAL SINGLE POINT ENERGY     -2929.509389125833

DIPOLE MOMENT
-------------

Method             : SCF
Type of density    : Electron Density
Multiplicity       :   1
Irrep              :   0
Energy             : -2929.6260683020182114 Eh
Relativity type    :
Basis              : AO
                                X                 Y                 Z
Electronic contribution:     -3.876443180      10.578765809      -1.986233082
Nuclear contribution   :      3.243144731     -12.117097676       3.060177800
                        -----------------------------------------
Total Dipole Moment    :     -0.633298449      -1.538331867       1.073944718
                        -----------------------------------------
Magnitude (a.u.)       :      1.980123510
Magnitude (Debye)      :      5.033073978

Rotational constants in cm-1:             0.012157             0.005795             0.004913
Rotational constants in MHz :           364.463201           173.723838           147.286075

                             ****ORCA TERMINATED NORMALLY****
TOTAL RUN TIME: 0 days 0 hours 0 minutes 21 seconds 482 msec
