                         Program Version 6.0.1  -  RELEASE   -
|  1> ! pbe def2-sv(p) def2/J RI DEFGRID1 loosescf d4 GCP(DFT/SV(P)) printgap
|  2> %output
|  3>     printlevel normal
|  4> end
|  5> * xyz 0 1
|  6> C 2.6104675544 -3.7490835497 -0.3121606332
|  7> C 2.8614953036 -3.0011093203 0.9874563547
|  8> O 2.8170085017 -1.5778101874 0.7664351771
|  9> C 1.6611591498 -0.9614884191 0.8542194949
| 10> O 0.616817452 -1.5056430844 1.1602582184
| 11> C 1.7815151634 0.5129537022 0.5347168354
| 12> C 0.5781077459 0.9584096356 -0.2820026536
| 13> H 0.4269019866 0.3007045756 -1.1491351974
| 14> C 0.6319612424 2.3936467743 -0.7825796701
| 15> O -0.1406241179 2.8189302077 -1.6127628012
| 16> O 1.5792738468 3.0935051636 -0.209823609
| 17> C 1.7142178647 4.4817377003 -0.5846539116
| 18> C 3.0637802536 4.9717822529 -0.0986772637
| 19> S -0.9763666363 0.8590245121 0.6884375246
| 20> P -1.7217187688 -1.0017732706 -0.0438681221
| 21> S -0.7924176988 -1.8576552553 -1.5378943613
| 22> O -2.0447104301 -1.9592818531 1.1623380926
| 23> C -2.7343932817 -1.5090852446 2.3444753829
| 24> O -3.2273210305 -0.578323352 -0.4413280847
| 25> C -3.4752622246 0.271227508 -1.5613906406
| 26> H 2.6812914357 -4.8168674688 -0.1341700842
| 27> H 1.6156766297 -3.5214431296 -0.6926559179
| 28> H 3.342868377 -3.4592406608 -1.0602659932
| 29> H 3.8652870372 -3.1885451578 1.3685856927
| 30> H 2.1091442014 -3.263413782 1.7364241477
| 31> H 2.7036252568 0.6793911467 -0.0211643477
| 32> H 1.8236739371 1.0753938455 1.4696526592
| 33> H 1.6143476399 4.5570783429 -1.6715070006
| 34> H 0.8921914192 5.0351735058 -0.1219247946
| 35> H 3.1746132431 6.0202990543 -0.3537915172
| 36> H 3.1358053047 4.8560046762 0.9781717329
| 37> H 3.8617292809 4.404623732 -0.5681558838
| 38> H -2.7600226792 -2.3751468094 3.0006442405
| 39> H -3.7408997066 -1.1841985799 2.0865620944
| 40> H -2.1805811113 -0.6919634403 2.8064469939
| 41> H -4.5560639696 0.3597650361 -1.6305014359
| 42> H -3.0686897884 -0.1776471842 -2.4692521157
| 43> H -3.0193054435 1.2507125459 -1.4050605328
| 44> *
| 45>
| 46>                          ****END OF INPUT****

CARTESIAN COORDINATES (ANGSTROEM)
---------------------------------
  C      2.610468   -3.749084   -0.312161
  C      2.861495   -3.001109    0.987456
  O      2.817009   -1.577810    0.766435
  C      1.661159   -0.961488    0.854219
  O      0.616817   -1.505643    1.160258
  C      1.781515    0.512954    0.534717
  C      0.578108    0.958410   -0.282003
  H      0.426902    0.300705   -1.149135
  C      0.631961    2.393647   -0.782580
  O     -0.140624    2.818930   -1.612763
  O      1.579274    3.093505   -0.209824
  C      1.714218    4.481738   -0.584654
  C      3.063780    4.971782   -0.098677
  S     -0.976367    0.859025    0.688438
  P     -1.721719   -1.001773   -0.043868
  S     -0.792418   -1.857655   -1.537894
  O     -2.044710   -1.959282    1.162338
  C     -2.734393   -1.509085    2.344475
  O     -3.227321   -0.578323   -0.441328
  C     -3.475262    0.271228   -1.561391
  H      2.681291   -4.816867   -0.134170
  H      1.615677   -3.521443   -0.692656
  H      3.342868   -3.459241   -1.060266
  H      3.865287   -3.188545    1.368586
  H      2.109144   -3.263414    1.736424
  H      2.703625    0.679391   -0.021164
  H      1.823674    1.075394    1.469653
  H      1.614348    4.557078   -1.671507
  H      0.892191    5.035174   -0.121925
  H      3.174613    6.020299   -0.353792
  H      3.135805    4.856005    0.978172
  H      3.861729    4.404624   -0.568156
  H     -2.760023   -2.375147    3.000644
  H     -3.740900   -1.184199    2.086562
  H     -2.180581   -0.691963    2.806447
  H     -4.556064    0.359765   -1.630501
  H     -3.068690   -0.177647   -2.469252
  H     -3.019305    1.250713   -1.405061

 Total Charge           Charge          ....    0
 Multiplicity           Mult            ....    1
 Number of Electrons    NEL             ....  174
 Basis Dimension        Dim             ....  316

ORBITAL ENERGIES
----------------

  NO   OCC          E(Eh)            E(eV)
   0   2.0000     -88.034844     -2395.5499
   1   2.0000     -87.977955     -2394.0019
   2   2.0000     -76.418539     -2079.4542
   3   2.0000     -18.814730      -511.9748
   4   2.0000     -18.806112      -511.7403
   5   2.0000     -18.785105      -511.1687
   6   2.0000     -18.776728      -510.9407
   7   2.0000     -18.740596      -509.9575
   8   2.0000     -18.738406      -509.8979
   9   2.0000     -10.016676      -272.5676
  10   2.0000     -10.011687      -272.4319
  11   2.0000      -9.956907      -270.9412
  12   2.0000      -9.945520      -270.6314
  13   2.0000      -9.944912      -270.6148
  14   2.0000      -9.941489      -270.5217
  15   2.0000      -9.928293      -270.1626
  16   2.0000      -9.909346      -269.6470
  17   2.0000      -9.896691      -269.3026
  18   2.0000      -9.878494      -268.8075
  19   2.0000      -7.679125      -208.9596
  20   2.0000      -7.623015      -207.4328
  21   2.0000      -6.415073      -174.5630
  22   2.0000      -5.707126      -155.2988
  23   2.0000      -5.704001      -155.2138
  24   2.0000      -5.695742      -154.9890
  25   2.0000      -5.652137      -153.8025
  26   2.0000      -5.643889      -153.5780
  27   2.0000      -5.642615      -153.5434
  28   2.0000      -4.637764      -126.2000
  29   2.0000      -4.636955      -126.1780
  30   2.0000      -4.635547      -126.1396
  31   2.0000      -1.021956       -27.8088
  32   2.0000      -1.013434       -27.5769
  33   2.0000      -0.976944       -26.5840
  34   2.0000      -0.930225       -25.3127
  35   2.0000      -0.920451       -25.0467
  36   2.0000      -0.916823       -24.9480
  37   2.0000      -0.761716       -20.7274
  38   2.0000      -0.714641       -19.4464
  39   2.0000      -0.709203       -19.2984
  40   2.0000      -0.687476       -18.7072
  41   2.0000      -0.654787       -17.8177
  42   2.0000      -0.625730       -17.0270
  43   2.0000      -0.619474       -16.8567
  44   2.0000      -0.613693       -16.6994
  45   2.0000      -0.590902       -16.0792
  46   2.0000      -0.564908       -15.3719
  47   2.0000      -0.519223       -14.1288
  48   2.0000      -0.504104       -13.7174
  49   2.0000      -0.497831       -13.5467
  50   2.0000      -0.474973       -12.9247
  51   2.0000      -0.465354       -12.6629
  52   2.0000      -0.459227       -12.4962
  53   2.0000      -0.448417       -12.2020
  54   2.0000      -0.446094       -12.1388
  55   2.0000      -0.425373       -11.5750
  56   2.0000      -0.419671       -11.4198
  57   2.0000      -0.415117       -11.2959
  58   2.0000      -0.411588       -11.1999
  59   2.0000      -0.407047       -11.0763
  60   2.0000      -0.397475       -10.8159
  61   2.0000      -0.392566       -10.6823
  62   2.0000      -0.387618       -10.5476
  63   2.0000      -0.379328       -10.3220
  64   2.0000      -0.376263       -10.2386
  65   2.0000      -0.371800       -10.1172
  66   2.0000      -0.363956        -9.9038
  67   2.0000      -0.354262        -9.6399
  68   2.0000      -0.346645        -9.4327
  69   2.0000      -0.340878        -9.2758
  70   2.0000      -0.331877        -9.0308
  71   2.0000      -0.327168        -8.9027
  72   2.0000      -0.323910        -8.8140
  73   2.0000      -0.309973        -8.4348
  74   2.0000      -0.305108        -8.3024
  75   2.0000      -0.294501        -8.0138
  76   2.0000      -0.288991        -7.8638
  77   2.0000      -0.286608        -7.7990
  78   2.0000      -0.268695        -7.3116
  79   2.0000      -0.263692        -7.1754
  80   2.0000      -0.260824        -7.0974
  81   2.0000      -0.251228        -6.8362
  82   2.0000      -0.236520        -6.4360
  83   2.0000      -0.225821        -6.1449
  84   2.0000      -0.204870        -5.5748
  85   2.0000      -0.198214        -5.3937
  86   2.0000      -0.189033        -5.1439
  87   0.0000      -0.047124        -1.2823
  88   0.0000      -0.034150        -0.9293
  89   0.0000      -0.026058        -0.7091
  90   0.0000       0.025478         0.6933
  91   0.0000       0.032790         0.8923

MULLIKEN ATOMIC CHARGES
-----------------------
   0 C :   -0.315200
   1 C :   -0.014371
   2 O :   -0.219638
   3 C :    0.130068
   4 O :   -0.205822
   5 C :   -0.012228
   6 C :   -0.395982
   7 H :    0.157257
   8 C :    0.223839
   9 O :   -0.187946
  10 O :   -0.227215
  11 C :   -0.030980
  12 C :   -0.275585
  13 S :   -0.101597
  14 P :    0.631383
  15 S :   -0.309102
  16 O :   -0.353532
  17 C :   -0.104610
  18 O :   -0.392147
  19 C :   -0.104815
  20 H :    0.109534
  21 H :    0.146812
  22 H :    0.109435
  23 H :    0.101435
  24 H :    0.109806
  25 H :    0.106893
  26 H :    0.117791
  27 H :    0.116349
  28 H :    0.111118
  29 H :    0.115271
  30 H :    0.116933
  31 H :    0.117974
  32 H :    0.131046
  33 H :    0.123837
  34 H :    0.121744
  35 H :    0.116886
  36 H :    0.115065
  37 H :    0.120294
Sum of atomic charges:   -0.0000000

LOEWDIN ATOMIC CHARGES
----------------------
   0 C :   -0.359763
   1 C :   -0.110787
   2 O :   -0.049848
   3 C :    0.038182
   4 O :   -0.172891
   5 C :   -0.254328
   6 C :   -0.267894
   7 H :    0.135285
   8 C :    0.008553
   9 O :   -0.157049
  10 O :   -0.052012
  11 C :   -0.104936
  12 C :   -0.350561
  13 S :    0.101457
  14 P :    0.596533
  15 S :   -0.298378
  16 O :   -0.227716
  17 C :   -0.207021
  18 O :   -0.268323
  19 C :   -0.223013
  20 H :    0.129707
  21 H :    0.131040
  22 H :    0.123198
  23 H :    0.116652
  24 H :    0.120859
  25 H :    0.138182
  26 H :    0.144849
  27 H :    0.121601
  28 H :    0.120215
  29 H :    0.132789
  30 H :    0.127614
  31 H :    0.127875
  32 H :    0.126546
  33 H :    0.115534
  34 H :    0.111198
  35 H :    0.118221
  36 H :    0.109867
  37 H :    0.108564

  Mayer bond orders larger than 0.100000
B(  0-C ,  1-C ) :   1.1773 B(  0-C , 20-H ) :   0.9423 B(  0-C , 21-H ) :   0.9301
B(  0-C , 22-H ) :   0.9490 B(  1-C ,  2-O ) :   0.9058 B(  1-C , 23-H ) :   0.9369
B(  1-C , 24-H ) :   0.9117 B(  2-O ,  3-C ) :   1.2654 B(  3-C ,  4-O ) :   1.9641
B(  3-C ,  5-C ) :   0.9997 B(  5-C ,  6-C ) :   0.9986 B(  5-C , 25-H ) :   0.8984
B(  5-C , 26-H ) :   0.8718 B(  6-C ,  7-H ) :   0.8320 B(  6-C ,  8-C ) :   0.9084
B(  6-C , 13-S ) :   1.0291 B(  7-H , 15-S ) :   0.1195 B(  8-C ,  9-O ) :   2.0738
B(  8-C , 10-O ) :   1.2552 B(  9-O , 10-O ) :   0.1007 B( 10-O , 11-C ) :   0.8944
B( 11-C , 12-C ) :   1.1553 B( 11-C , 27-H ) :   0.9243 B( 11-C , 28-H ) :   0.9346
B( 12-C , 29-H ) :   0.9432 B( 12-C , 30-H ) :   0.9482 B( 12-C , 31-H ) :   0.9513
B( 13-S , 14-P ) :   0.9317 B( 13-S , 15-S ) :   0.1147 B( 14-P , 15-S ) :   1.5981
B( 14-P , 16-O ) :   1.1443 B( 14-P , 18-O ) :   1.0548 B( 16-O , 17-C ) :   0.9206
B( 17-C , 32-H ) :   0.9601 B( 17-C , 33-H ) :   0.9463 B( 17-C , 34-H ) :   0.9402
B( 18-O , 19-C ) :   0.9381 B( 19-C , 35-H ) :   0.9584 B( 19-C , 36-H ) :   0.9394
B( 19-C , 37-H ) :   0.9364

Dispersion correction           -0.050834664
FINAL SINGLE POINT ENERGY     -1979.014774360458

DIPOLE MOMENT
-------------

Method             : SCF
Type of density    : Electron Density
Multiplicity       :   1
Irrep              :   0
Energy             : -1979.1454652669394818 Eh
Relativity type    :
Basis              : AO
                                X                 Y                 Z
Electronic contribution:    -11.863315002      -5.527057278      -1.028627299
Nuclear contribution   :     12.768150240       6.426637377       2.110809700
                        -----------------------------------------
Total Dipole Moment    :      0.904835238       0.899580099       1.082182401
                        -----------------------------------------
Magnitude (a.u.)       :      1.673048090
Magnitude (Debye)      :      4.252550289

Rotational constants in cm-1:             0.010902             0.007570             0.005393
Rotational constants in MHz :           326.844016           226.929302           161.671699

                             ****ORCA TERMINATED NORMALLY****
TOTAL RUN TIME: 0 days 0 hours 0 minutes 37 seconds 511 msec
