                         Program Version 6.0.0  -   RELEASE  -
|  1> ! pbe def2-sv(p) def2/J RI DEFGRID1 loosescf d4 GCP(DFT/SV(P)) printgap
|  2> %output
|  3>     printlevel normal
|  4> end
|  5> * xyz 0 1
|  6> C 3.7576700658 1.549941628 -1.7400195684
|  7> C 2.4148861425 0.8811646528 -1.9478949255
|  8> O 2.2482965374 -0.2568652721 -1.0843779268
|  9> P 2.0345881247 -0.104092374 0.4945735992
| 10> S 1.0239782458 1.4699266668 1.0654413879
| 11> O 3.4635994859 -0.0781728845 1.1771881237
| 12> C 4.4873361152 -1.070076289 0.9143843242
| 13> C 4.5839301847 -2.0522841798 2.0640820299
| 14> S 1.3252292271 -2.0443838906 0.8903970065
| 15> C -0.2520143568 -2.0252861791 0.0007046037
| 16> S -1.6362240211 -1.3385897486 0.9784891677
| 17> P -2.1630468125 0.3292154154 -0.2021999005
| 18> S -1.1123619921 0.6648834331 -1.8269004534
| 19> O -2.2111153524 1.4296637076 0.9283755217
| 20> C -2.1710359206 2.8457056199 0.6663101115
| 21> C -3.3403693771 3.3109574305 -0.1752264961
| 22> O -3.7204582094 0.1468330386 -0.4902603833
| 23> C -4.2288432242 -0.5468076765 -1.6405384553
| 24> C -3.9106120039 -2.0282119196 -1.6075808999
| 25> H 4.5637713197 0.8376389129 -1.8958176911
| 26> H 3.8606639571 2.3699946256 -2.4436090314
| 27> H 3.8190232295 1.944432967 -0.7258882089
| 28> H 2.3107008445 0.4678775771 -2.9521765062
| 29> H 1.5967660831 1.5840534595 -1.7618551342
| 30> H 4.2601004137 -1.5787512059 -0.0255364343
| 31> H 5.407760296 -0.4923433302 0.8116626273
| 32> H 3.6643571289 -2.6266989107 2.1525252287
| 33> H 5.4118259345 -2.7301494176 1.8820929482
| 34> H 4.754506159 -1.5179739408 2.9945561158
| 35> H -0.4810334072 -3.0680056075 -0.2015578222
| 36> H -0.1445864522 -1.4489137415 -0.9219448996
| 37> H -2.1822651425 3.288774572 1.6631372304
| 38> H -1.215858709 3.0761032648 0.1832668025
| 39> H -3.2774256224 2.8772275784 -1.1729011416
| 40> H -4.2770085326 3.0054358334 0.2841273851
| 41> H -3.3116928972 4.3928490038 -0.2588399877
| 42> H -5.3035959475 -0.3648199472 -1.6007071138
| 43> H -3.8052660058 -0.083774311 -2.5377825604
| 44> H -2.8385739994 -2.1798603374 -1.7273435189
| 45> H -4.2244207828 -2.4609620614 -0.6610312449
| 46> H -4.4290898217 -2.5241319319 -2.4218488225
| 47> *
| 48>
| 49>                          ****END OF INPUT****

CARTESIAN COORDINATES (ANGSTROEM)
---------------------------------
  C      3.757670    1.549942   -1.740020
  C      2.414886    0.881165   -1.947895
  O      2.248297   -0.256865   -1.084378
  P      2.034588   -0.104092    0.494574
  S      1.023978    1.469927    1.065441
  O      3.463599   -0.078173    1.177188
  C      4.487336   -1.070076    0.914384
  C      4.583930   -2.052284    2.064082
  S      1.325229   -2.044384    0.890397
  C     -0.252014   -2.025286    0.000705
  S     -1.636224   -1.338590    0.978489
  P     -2.163047    0.329215   -0.202200
  S     -1.112362    0.664883   -1.826900
  O     -2.211115    1.429664    0.928376
  C     -2.171036    2.845706    0.666310
  C     -3.340369    3.310957   -0.175226
  O     -3.720458    0.146833   -0.490260
  C     -4.228843   -0.546808   -1.640538
  C     -3.910612   -2.028212   -1.607581
  H      4.563771    0.837639   -1.895818
  H      3.860664    2.369995   -2.443609
  H      3.819023    1.944433   -0.725888
  H      2.310701    0.467878   -2.952177
  H      1.596766    1.584053   -1.761855
  H      4.260100   -1.578751   -0.025536
  H      5.407760   -0.492343    0.811663
  H      3.664357   -2.626699    2.152525
  H      5.411826   -2.730149    1.882093
  H      4.754506   -1.517974    2.994556
  H     -0.481033   -3.068006   -0.201558
  H     -0.144586   -1.448914   -0.921945
  H     -2.182265    3.288775    1.663137
  H     -1.215859    3.076103    0.183267
  H     -3.277426    2.877228   -1.172901
  H     -4.277009    3.005436    0.284127
  H     -3.311693    4.392849   -0.258840
  H     -5.303596   -0.364820   -1.600707
  H     -3.805266   -0.083774   -2.537783
  H     -2.838574   -2.179860   -1.727344
  H     -4.224421   -2.460962   -0.661031
  H     -4.429090   -2.524132   -2.421849

 Total Charge           Charge          ....    0
 Multiplicity           Mult            ....    1
 Number of Electrons    NEL             ....  202
 Basis Dimension        Dim             ....  334

ORBITAL ENERGIES
----------------

  NO   OCC          E(Eh)            E(eV)
   0   2.0000     -88.041440     -2395.7294
   1   2.0000     -88.037568     -2395.6240
   2   2.0000     -87.988915     -2394.3001
   3   2.0000     -87.975025     -2393.9221
   4   2.0000     -76.423690     -2079.5943
   5   2.0000     -76.419715     -2079.4862
   6   2.0000     -18.791310      -511.3375
   7   2.0000     -18.785957      -511.1919
   8   2.0000     -18.784784      -511.1600
   9   2.0000     -18.782788      -511.1057
  10   2.0000      -9.956924      -270.9417
  11   2.0000      -9.956154      -270.9207
  12   2.0000      -9.949770      -270.7470
  13   2.0000      -9.945205      -270.6228
  14   2.0000      -9.942297      -270.5437
  15   2.0000      -9.888465      -269.0788
  16   2.0000      -9.884450      -268.9695
  17   2.0000      -9.881549      -268.8906
  18   2.0000      -9.878892      -268.8183
  19   2.0000      -7.687015      -209.1743
  20   2.0000      -7.683048      -209.0664
  21   2.0000      -7.633598      -207.7208
  22   2.0000      -7.620104      -207.3536
  23   2.0000      -6.421070      -174.7262
  24   2.0000      -6.417644      -174.6330
  25   2.0000      -5.714949      -155.5117
  26   2.0000      -5.711377      -155.4145
  27   2.0000      -5.710959      -155.4031
  28   2.0000      -5.707689      -155.3141
  29   2.0000      -5.703961      -155.2127
  30   2.0000      -5.699757      -155.0983
  31   2.0000      -5.662303      -154.0791
  32   2.0000      -5.654757      -153.8738
  33   2.0000      -5.653412      -153.8372
  34   2.0000      -5.649161      -153.7215
  35   2.0000      -5.640726      -153.4920
  36   2.0000      -5.640074      -153.4742
  37   2.0000      -4.643251      -126.3493
  38   2.0000      -4.642705      -126.3344
  39   2.0000      -4.642047      -126.3165
  40   2.0000      -4.640655      -126.2786
  41   2.0000      -4.639206      -126.2392
  42   2.0000      -4.637881      -126.2032
  43   2.0000      -0.981557       -26.7095
  44   2.0000      -0.981044       -26.6956
  45   2.0000      -0.940881       -25.6027
  46   2.0000      -0.938642       -25.5418
  47   2.0000      -0.759678       -20.6719
  48   2.0000      -0.719177       -19.5698
  49   2.0000      -0.707298       -19.2465
  50   2.0000      -0.689545       -18.7635
  51   2.0000      -0.683622       -18.6023
  52   2.0000      -0.671346       -18.2683
  53   2.0000      -0.650470       -17.7002
  54   2.0000      -0.633414       -17.2361
  55   2.0000      -0.601307       -16.3624
  56   2.0000      -0.582850       -15.8602
  57   2.0000      -0.576150       -15.6778
  58   2.0000      -0.569325       -15.4921
  59   2.0000      -0.559073       -15.2131
  60   2.0000      -0.498766       -13.5721
  61   2.0000      -0.487385       -13.2624
  62   2.0000      -0.474771       -12.9192
  63   2.0000      -0.467083       -12.7100
  64   2.0000      -0.451661       -12.2903
  65   2.0000      -0.445460       -12.1216
  66   2.0000      -0.436752       -11.8846
  67   2.0000      -0.436052       -11.8656
  68   2.0000      -0.424016       -11.5381
  69   2.0000      -0.413531       -11.2527
  70   2.0000      -0.406220       -11.0538
  71   2.0000      -0.397243       -10.8095
  72   2.0000      -0.390379       -10.6227
  73   2.0000      -0.385805       -10.4983
  74   2.0000      -0.381606       -10.3840
  75   2.0000      -0.375029       -10.2051
  76   2.0000      -0.364715        -9.9244
  77   2.0000      -0.356649        -9.7049
  78   2.0000      -0.352160        -9.5827
  79   2.0000      -0.350529        -9.5384
  80   2.0000      -0.345680        -9.4064
  81   2.0000      -0.343123        -9.3368
  82   2.0000      -0.339186        -9.2297
  83   2.0000      -0.334159        -9.0929
  84   2.0000      -0.331771        -9.0279
  85   2.0000      -0.312506        -8.5037
  86   2.0000      -0.309259        -8.4154
  87   2.0000      -0.302551        -8.2328
  88   2.0000      -0.292083        -7.9480
  89   2.0000      -0.281003        -7.6465
  90   2.0000      -0.272400        -7.4124
  91   2.0000      -0.271014        -7.3747
  92   2.0000      -0.267492        -7.2788
  93   2.0000      -0.263719        -7.1762
  94   2.0000      -0.259316        -7.0563
  95   2.0000      -0.234036        -6.3684
  96   2.0000      -0.218892        -5.9564
  97   2.0000      -0.210938        -5.7399
  98   2.0000      -0.205104        -5.5812
  99   2.0000      -0.190992        -5.1971
 100   2.0000      -0.182570        -4.9680
 101   0.0000      -0.037491        -1.0202
 102   0.0000      -0.028091        -0.7644
 103   0.0000      -0.013770        -0.3747
 104   0.0000       0.009955         0.2709
 105   0.0000       0.023141         0.6297

MULLIKEN ATOMIC CHARGES
-----------------------
   0 C :   -0.313461
   1 C :   -0.015595
   2 O :   -0.387177
   3 P :    0.615111
   4 S :   -0.308039
   5 O :   -0.366437
   6 C :   -0.034840
   7 C :   -0.290028
   8 S :   -0.100030
   9 C :   -0.359865
  10 S :   -0.067091
  11 P :    0.624659
  12 S :   -0.333406
  13 O :   -0.361248
  14 C :   -0.000493
  15 C :   -0.309022
  16 O :   -0.371604
  17 C :    0.000233
  18 C :   -0.315927
  19 H :    0.108268
  20 H :    0.112557
  21 H :    0.130012
  22 H :    0.101053
  23 H :    0.128873
  24 H :    0.110233
  25 H :    0.111006
  26 H :    0.131582
  27 H :    0.110823
  28 H :    0.123764
  29 H :    0.183426
  30 H :    0.203007
  31 H :    0.107764
  32 H :    0.120081
  33 H :    0.122077
  34 H :    0.117070
  35 H :    0.110426
  36 H :    0.103991
  37 H :    0.107204
  38 H :    0.118280
  39 H :    0.121357
  40 H :    0.111408
Sum of atomic charges:    0.0000000

LOEWDIN ATOMIC CHARGES
----------------------
   0 C :   -0.366593
   1 C :   -0.125315
   2 O :   -0.253538
   3 P :    0.563027
   4 S :   -0.302128
   5 O :   -0.240836
   6 C :   -0.121620
   7 C :   -0.359464
   8 S :    0.085471
   9 C :   -0.478817
  10 S :    0.092785
  11 P :    0.577193
  12 S :   -0.305001
  13 O :   -0.231286
  14 C :   -0.113069
  15 C :   -0.367293
  16 O :   -0.247244
  17 C :   -0.119798
  18 C :   -0.369105
  19 H :    0.120180
  20 H :    0.131117
  21 H :    0.125833
  22 H :    0.116694
  23 H :    0.108556
  24 H :    0.109181
  25 H :    0.120416
  26 H :    0.120056
  27 H :    0.130721
  28 H :    0.131031
  29 H :    0.136052
  30 H :    0.123887
  31 H :    0.121576
  32 H :    0.110639
  33 H :    0.120988
  34 H :    0.126239
  35 H :    0.129878
  36 H :    0.118363
  37 H :    0.107761
  38 H :    0.117963
  39 H :    0.125679
  40 H :    0.129823

  Mayer bond orders larger than 0.100000
B(  0-C ,  1-C ) :   1.1587 B(  0-C , 19-H ) :   0.9453 B(  0-C , 20-H ) :   0.9402
B(  0-C , 21-H ) :   0.9357 B(  1-C ,  2-O ) :   0.9040 B(  1-C , 22-H ) :   0.9361
B(  1-C , 23-H ) :   0.9049 B(  2-O ,  3-P ) :   1.0674 B(  3-P ,  4-S ) :   1.6649
B(  3-P ,  5-O ) :   1.1125 B(  3-P ,  8-S ) :   0.9657 B(  4-S ,  8-S ) :   0.1078
B(  5-O ,  6-C ) :   0.8972 B(  6-C ,  7-C ) :   1.1672 B(  6-C , 24-H ) :   0.9140
B(  6-C , 25-H ) :   0.9320 B(  7-C , 26-H ) :   0.9368 B(  7-C , 27-H ) :   0.9390
B(  7-C , 28-H ) :   0.9454 B(  8-S ,  9-C ) :   0.9982 B(  9-C , 10-S ) :   1.0058
B(  9-C , 29-H ) :   0.9102 B(  9-C , 30-H ) :   0.8478 B( 10-S , 11-P ) :   0.9644
B( 10-S , 12-S ) :   0.1155 B( 11-P , 12-S ) :   1.5667 B( 11-P , 13-O ) :   1.1522
B( 11-P , 16-O ) :   1.0917 B( 12-S , 30-H ) :   0.1010 B( 13-O , 14-C ) :   0.9019
B( 14-C , 15-C ) :   1.1632 B( 14-C , 31-H ) :   0.9360 B( 14-C , 32-H ) :   0.9173
B( 15-C , 33-H ) :   0.9351 B( 15-C , 34-H ) :   0.9445 B( 15-C , 35-H ) :   0.9379
B( 16-O , 17-C ) :   0.9212 B( 17-C , 18-C ) :   1.1648 B( 17-C , 36-H ) :   0.9339
B( 17-C , 37-H ) :   0.9150 B( 18-C , 38-H ) :   0.9387 B( 18-C , 39-H ) :   0.9423
B( 18-C , 40-H ) :   0.9379

Dispersion correction           -0.067368961
FINAL SINGLE POINT ENERGY     -2929.517239866535

DIPOLE MOMENT
-------------

Method             : SCF
Type of density    : Electron Density
Multiplicity       :   1
Irrep              :   0
Energy             : -2929.6355920996679743 Eh
Relativity type    :
Basis              : AO
                                X                 Y                 Z
Electronic contribution:     -3.758360591      -3.018368589      10.026286109
Nuclear contribution   :      4.024621668       2.450230949     -10.921927554
                        -----------------------------------------
Total Dipole Moment    :      0.266261077      -0.568137640      -0.895641445
                        -----------------------------------------
Magnitude (a.u.)       :      1.093548781
Magnitude (Debye)      :      2.779580105

Rotational constants in cm-1:             0.012973             0.005167             0.004631
Rotational constants in MHz :           388.918836           154.899949           138.837610

                             ****ORCA TERMINATED NORMALLY****
TOTAL RUN TIME: 0 days 0 hours 0 minutes 21 seconds 72 msec
