                         Program Version 6.0.0  -   RELEASE  -
|  1> ! r2scan-3c def2/J RI DEFGRID2 scfconv6 printgap
|  2> %output
|  3>     printlevel normal
|  4> end
|  5> * xyz 0 1
|  6> C 5.6375991588 1.4770218727 -0.5911326493
|  7> C 4.343399876 0.8844320642 -1.109934327
|  8> O 3.4787714608 0.6564826857 0.0224200688
|  9> P 1.9321559666 0.3440121497 -0.1627114767
| 10> S 0.9397084609 1.6533808233 -1.2252686686
| 11> O 1.4434457343 0.2459962129 1.3267698345
| 12> C 2.0977324353 -0.6010729252 2.3117105746
| 13> C 1.0578976012 -1.0383491012 3.3213831458
| 14> S 1.980452291 -1.6320951868 -0.955044222
| 15> C 0.2320555259 -1.793124213 -1.3714357745
| 16> S -0.8354515278 -1.912410399 0.1038842022
| 17> P -2.0136204163 -0.1958681519 -0.1336652777
| 18> S -2.3335529708 0.4125696014 -1.9756018499
| 19> O -1.3571232164 0.8098140032 0.8916654615
| 20> C -1.8025401429 2.1820884689 0.9795600898
| 21> C -0.9454387684 2.8735641056 2.0173633235
| 22> O -3.3506505565 -0.5679596962 0.6457416702
| 23> C -4.3953500615 -1.3589096996 0.0445098547
| 24> C -5.6975102462 -1.0336885256 0.7482873512
| 25> H 5.4419640271 2.4213894686 -0.0911598252
| 26> H 6.1016379512 0.7934559295 0.1136258486
| 27> H 6.310395773 1.64593399 -1.4253272556
| 28> H 4.5121890368 -0.0742696043 -1.6073365886
| 29> H 3.8364686893 1.5636213049 -1.8030725334
| 30> H 2.5435974967 -1.4582704869 1.7988857248
| 31> H 2.885701553 -0.0042379745 2.7736475752
| 32> H 1.5380322959 -1.6409398642 4.0855908317
| 33> H 0.5977938395 -0.1691216192 3.7823918294
| 34> H 0.283185654 -1.626155707 2.8351254928
| 35> H 0.1380012153 -2.7211080032 -1.9293275394
| 36> H -0.0934849904 -0.9373426425 -1.9698278004
| 37> H -1.6868830146 2.6424577438 -0.0078598863
| 38> H -2.8595289278 2.1851528186 1.2575477992
| 39> H -1.2421740288 3.9148173733 2.0888611151
| 40> H -1.0678987432 2.3907027556 2.9822870425
| 41> H 0.0997808243 2.8161986126 1.7229076212
| 42> H -4.4439369427 -1.1178649488 -1.0229154138
| 43> H -4.1292089016 -2.4120305653 0.1642914629
| 44> H -6.4873896776 -1.6527905765 0.336032328
| 45> H -5.6022056607 -1.2303784471 1.8121895768
| 46> H -5.9514875084 0.0127796441 0.6036791484
| 47> *
| 48>
| 49>                          ****END OF INPUT****

CARTESIAN COORDINATES (ANGSTROEM)
---------------------------------
  C      5.637599    1.477022   -0.591133
  C      4.343400    0.884432   -1.109934
  O      3.478771    0.656483    0.022420
  P      1.932156    0.344012   -0.162711
  S      0.939708    1.653381   -1.225269
  O      1.443446    0.245996    1.326770
  C      2.097732   -0.601073    2.311711
  C      1.057898   -1.038349    3.321383
  S      1.980452   -1.632095   -0.955044
  C      0.232056   -1.793124   -1.371436
  S     -0.835452   -1.912410    0.103884
  P     -2.013620   -0.195868   -0.133665
  S     -2.333553    0.412570   -1.975602
  O     -1.357123    0.809814    0.891665
  C     -1.802540    2.182088    0.979560
  C     -0.945439    2.873564    2.017363
  O     -3.350651   -0.567960    0.645742
  C     -4.395350   -1.358910    0.044510
  C     -5.697510   -1.033689    0.748287
  H      5.441964    2.421389   -0.091160
  H      6.101638    0.793456    0.113626
  H      6.310396    1.645934   -1.425327
  H      4.512189   -0.074270   -1.607337
  H      3.836469    1.563621   -1.803073
  H      2.543597   -1.458270    1.798886
  H      2.885702   -0.004238    2.773648
  H      1.538032   -1.640940    4.085591
  H      0.597794   -0.169122    3.782392
  H      0.283186   -1.626156    2.835125
  H      0.138001   -2.721108   -1.929328
  H     -0.093485   -0.937343   -1.969828
  H     -1.686883    2.642458   -0.007860
  H     -2.859529    2.185153    1.257548
  H     -1.242174    3.914817    2.088861
  H     -1.067899    2.390703    2.982287
  H      0.099781    2.816199    1.722908
  H     -4.443937   -1.117865   -1.022915
  H     -4.129209   -2.412031    0.164291
  H     -6.487390   -1.652791    0.336032
  H     -5.602206   -1.230378    1.812190
  H     -5.951488    0.012780    0.603679

 Total Charge           Charge          ....    0
 Multiplicity           Mult            ....    1
 Number of Electrons    NEL             ....  202
 Basis Dimension        Dim             ....  539

ORBITAL ENERGIES
----------------

  NO   OCC          E(Eh)            E(eV)
   0   2.0000     -88.575770     -2410.2692
   1   2.0000     -88.574947     -2410.2468
   2   2.0000     -88.513490     -2408.5745
   3   2.0000     -88.510566     -2408.4950
   4   2.0000     -76.910341     -2092.8368
   5   2.0000     -76.906481     -2092.7318
   6   2.0000     -18.991666      -516.7895
   7   2.0000     -18.990038      -516.7452
   8   2.0000     -18.985038      -516.6091
   9   2.0000     -18.979299      -516.4530
  10   2.0000     -10.106094      -275.0008
  11   2.0000     -10.100456      -274.8474
  12   2.0000     -10.099130      -274.8113
  13   2.0000     -10.091951      -274.6159
  14   2.0000     -10.086780      -274.4752
  15   2.0000     -10.034014      -273.0394
  16   2.0000     -10.029212      -272.9087
  17   2.0000     -10.029105      -272.9058
  18   2.0000     -10.019582      -272.6467
  19   2.0000      -7.870268      -214.1609
  20   2.0000      -7.869639      -214.1438
  21   2.0000      -7.808238      -212.4729
  22   2.0000      -7.805306      -212.3932
  23   2.0000      -6.588935      -179.2940
  24   2.0000      -6.585079      -179.1891
  25   2.0000      -5.817098      -158.2913
  26   2.0000      -5.816427      -158.2730
  27   2.0000      -5.813869      -158.2034
  28   2.0000      -5.813444      -158.1919
  29   2.0000      -5.807643      -158.0340
  30   2.0000      -5.806810      -158.0113
  31   2.0000      -5.756021      -156.6293
  32   2.0000      -5.752966      -156.5462
  33   2.0000      -5.748421      -156.4225
  34   2.0000      -5.748208      -156.4167
  35   2.0000      -5.745798      -156.3511
  36   2.0000      -5.745082      -156.3316
  37   2.0000      -4.734762      -128.8394
  38   2.0000      -4.734047      -128.8200
  39   2.0000      -4.732177      -128.7691
  40   2.0000      -4.730511      -128.7237
  41   2.0000      -4.729956      -128.7086
  42   2.0000      -4.728893      -128.6797
  43   2.0000      -1.050835       -28.5947
  44   2.0000      -1.042030       -28.3551
  45   2.0000      -1.009034       -27.4572
  46   2.0000      -1.000780       -27.2326
  47   2.0000      -0.799912       -21.7667
  48   2.0000      -0.758992       -20.6532
  49   2.0000      -0.748955       -20.3801
  50   2.0000      -0.735483       -20.0135
  51   2.0000      -0.726072       -19.7574
  52   2.0000      -0.707683       -19.2570
  53   2.0000      -0.679718       -18.4961
  54   2.0000      -0.659539       -17.9470
  55   2.0000      -0.620197       -16.8764
  56   2.0000      -0.612800       -16.6751
  57   2.0000      -0.603080       -16.4106
  58   2.0000      -0.598368       -16.2824
  59   2.0000      -0.588452       -16.0126
  60   2.0000      -0.535466       -14.5708
  61   2.0000      -0.526024       -14.3138
  62   2.0000      -0.500968       -13.6320
  63   2.0000      -0.492427       -13.3996
  64   2.0000      -0.468143       -12.7388
  65   2.0000      -0.461250       -12.5513
  66   2.0000      -0.455985       -12.4080
  67   2.0000      -0.451468       -12.2851
  68   2.0000      -0.446402       -12.1472
  69   2.0000      -0.432549       -11.7702
  70   2.0000      -0.423290       -11.5183
  71   2.0000      -0.410971       -11.1831
  72   2.0000      -0.403715       -10.9857
  73   2.0000      -0.396028       -10.7765
  74   2.0000      -0.390122       -10.6158
  75   2.0000      -0.381361       -10.3774
  76   2.0000      -0.378119       -10.2891
  77   2.0000      -0.370025       -10.0689
  78   2.0000      -0.368409       -10.0249
  79   2.0000      -0.363729        -9.8976
  80   2.0000      -0.359491        -9.7822
  81   2.0000      -0.356942        -9.7129
  82   2.0000      -0.351968        -9.5775
  83   2.0000      -0.347870        -9.4660
  84   2.0000      -0.339883        -9.2487
  85   2.0000      -0.328249        -8.9321
  86   2.0000      -0.322273        -8.7695
  87   2.0000      -0.318017        -8.6537
  88   2.0000      -0.315298        -8.5797
  89   2.0000      -0.309457        -8.4208
  90   2.0000      -0.296704        -8.0737
  91   2.0000      -0.285851        -7.7784
  92   2.0000      -0.277032        -7.5384
  93   2.0000      -0.274770        -7.4769
  94   2.0000      -0.270138        -7.3508
  95   2.0000      -0.250243        -6.8094
  96   2.0000      -0.234033        -6.3684
  97   2.0000      -0.225935        -6.1480
  98   2.0000      -0.214318        -5.8319
  99   2.0000      -0.203475        -5.5368
 100   2.0000      -0.194059        -5.2806
 101   0.0000      -0.042904        -1.1675
 102   0.0000      -0.030073        -0.8183
 103   0.0000      -0.006248        -0.1700
 104   0.0000       0.014857         0.4043
 105   0.0000       0.017487         0.4758

MULLIKEN ATOMIC CHARGES
-----------------------
   0 C :   -0.438803
   1 C :   -0.162232
   2 O :   -0.288379
   3 P :    0.668346
   4 S :   -0.414445
   5 O :   -0.259228
   6 C :   -0.108663
   7 C :   -0.454642
   8 S :   -0.173903
   9 C :   -0.222738
  10 S :   -0.148447
  11 P :    0.663455
  12 S :   -0.470172
  13 O :   -0.243252
  14 C :   -0.125847
  15 C :   -0.468334
  16 O :   -0.296367
  17 C :   -0.146392
  18 C :   -0.449061
  19 H :    0.158293
  20 H :    0.150810
  21 H :    0.147324
  22 H :    0.148729
  23 H :    0.173267
  24 H :    0.156574
  25 H :    0.154886
  26 H :    0.143524
  27 H :    0.154817
  28 H :    0.169945
  29 H :    0.195578
  30 H :    0.220499
  31 H :    0.176212
  32 H :    0.146142
  33 H :    0.142724
  34 H :    0.144325
  35 H :    0.179897
  36 H :    0.172531
  37 H :    0.148068
  38 H :    0.145860
  39 H :    0.152368
  40 H :    0.156732
Sum of atomic charges:    0.0000000

LOEWDIN ATOMIC CHARGES
----------------------
   0 C :   -0.385708
   1 C :    0.019764
   2 O :   -0.670917
   3 P :    0.371766
   4 S :   -0.064982
   5 O :   -0.650136
   6 C :    0.024288
   7 C :   -0.390843
   8 S :    0.119447
   9 C :   -0.413266
  10 S :    0.166781
  11 P :    0.364208
  12 S :   -0.132259
  13 O :   -0.669778
  14 C :    0.018850
  15 C :   -0.390052
  16 O :   -0.669924
  17 C :    0.017059
  18 C :   -0.387813
  19 H :    0.161769
  20 H :    0.158589
  21 H :    0.160289
  22 H :    0.171193
  23 H :    0.181488
  24 H :    0.176453
  25 H :    0.175136
  26 H :    0.157971
  27 H :    0.161698
  28 H :    0.166133
  29 H :    0.180836
  30 H :    0.203259
  31 H :    0.183595
  32 H :    0.170583
  33 H :    0.158031
  34 H :    0.156163
  35 H :    0.169893
  36 H :    0.181820
  37 H :    0.170319
  38 H :    0.159328
  39 H :    0.158851
  40 H :    0.160117

  Mayer bond orders larger than 0.100000
B(  0-C ,  1-C ) :   0.9561 B(  0-C , 19-H ) :   0.9713 B(  0-C , 20-H ) :   0.9715
B(  0-C , 21-H ) :   0.9638 B(  1-C ,  2-O ) :   0.7900 B(  1-C , 22-H ) :   0.9422
B(  1-C , 23-H ) :   0.9516 B(  2-O ,  3-P ) :   1.0495 B(  3-P ,  4-S ) :   1.8459
B(  3-P ,  5-O ) :   1.1390 B(  3-P ,  8-S ) :   0.9832 B(  5-O ,  6-C ) :   0.7391
B(  6-C ,  7-C ) :   0.9610 B(  6-C , 24-H ) :   0.9541 B(  6-C , 25-H ) :   0.9458
B(  7-C , 26-H ) :   0.9649 B(  7-C , 27-H ) :   0.9695 B(  7-C , 28-H ) :   0.9639
B(  8-S ,  9-C ) :   0.9203 B(  9-C , 10-S ) :   0.8963 B(  9-C , 29-H ) :   0.9148
B(  9-C , 30-H ) :   0.9046 B( 10-S , 11-P ) :   1.1008 B( 11-P , 12-S ) :   1.7516
B( 11-P , 13-O ) :   1.1979 B( 11-P , 16-O ) :   1.0781 B( 13-O , 14-C ) :   0.7621
B( 14-C , 15-C ) :   0.9363 B( 14-C , 31-H ) :   0.9509 B( 14-C , 32-H ) :   0.9439
B( 15-C , 33-H ) :   0.9660 B( 15-C , 34-H ) :   0.9725 B( 15-C , 35-H ) :   0.9694
B( 16-O , 17-C ) :   0.7813 B( 17-C , 18-C ) :   0.9545 B( 17-C , 36-H ) :   0.9494
B( 17-C , 37-H ) :   0.9466 B( 18-C , 38-H ) :   0.9655 B( 18-C , 39-H ) :   0.9724
B( 18-C , 40-H ) :   0.9727

Dispersion correction           -0.021715075
FINAL SINGLE POINT ENERGY     -2932.461736489975

DIPOLE MOMENT
-------------

Method             : SCF
Type of density    : Electron Density
Multiplicity       :   1
Irrep              :   0
Energy             : -2932.4864641554286209 Eh
Relativity type    :
Basis              : AO
                                X                 Y                 Z
Electronic contribution:     -0.141737747      -5.633968113     -14.711795750
Nuclear contribution   :      0.762920589       4.939093407      15.904916911
                        -----------------------------------------
Total Dipole Moment    :      0.621182842      -0.694874707       1.193121161
                        -----------------------------------------
Magnitude (a.u.)       :      1.514020174
Magnitude (Debye)      :      3.848333450

Rotational constants in cm-1:             0.013041             0.005010             0.004955
Rotational constants in MHz :           390.973637           150.205124           148.544688

                             ****ORCA TERMINATED NORMALLY****
TOTAL RUN TIME: 0 days 0 hours 1 minutes 22 seconds 197 msec
