                         Program Version 6.0.0  -   RELEASE  -
|  1> ! r2scan-3c def2/J RI DEFGRID2 scfconv6 printgap
|  2> %output
|  3>     printlevel normal
|  4> end
|  5> %cpcm
|  6>     smd true
|  7>     smdsolvent "water"
|  8> end
|  9> * xyz 0 1
| 10> C 5.6375991588 1.4770218727 -0.5911326493
| 11> C 4.343399876 0.8844320642 -1.109934327
| 12> O 3.4787714608 0.6564826857 0.0224200688
| 13> P 1.9321559666 0.3440121497 -0.1627114767
| 14> S 0.9397084609 1.6533808233 -1.2252686686
| 15> O 1.4434457343 0.2459962129 1.3267698345
| 16> C 2.0977324353 -0.6010729252 2.3117105746
| 17> C 1.0578976012 -1.0383491012 3.3213831458
| 18> S 1.980452291 -1.6320951868 -0.955044222
| 19> C 0.2320555259 -1.793124213 -1.3714357745
| 20> S -0.8354515278 -1.912410399 0.1038842022
| 21> P -2.0136204163 -0.1958681519 -0.1336652777
| 22> S -2.3335529708 0.4125696014 -1.9756018499
| 23> O -1.3571232164 0.8098140032 0.8916654615
| 24> C -1.8025401429 2.1820884689 0.9795600898
| 25> C -0.9454387684 2.8735641056 2.0173633235
| 26> O -3.3506505565 -0.5679596962 0.6457416702
| 27> C -4.3953500615 -1.3589096996 0.0445098547
| 28> C -5.6975102462 -1.0336885256 0.7482873512
| 29> H 5.4419640271 2.4213894686 -0.0911598252
| 30> H 6.1016379512 0.7934559295 0.1136258486
| 31> H 6.310395773 1.64593399 -1.4253272556
| 32> H 4.5121890368 -0.0742696043 -1.6073365886
| 33> H 3.8364686893 1.5636213049 -1.8030725334
| 34> H 2.5435974967 -1.4582704869 1.7988857248
| 35> H 2.885701553 -0.0042379745 2.7736475752
| 36> H 1.5380322959 -1.6409398642 4.0855908317
| 37> H 0.5977938395 -0.1691216192 3.7823918294
| 38> H 0.283185654 -1.626155707 2.8351254928
| 39> H 0.1380012153 -2.7211080032 -1.9293275394
| 40> H -0.0934849904 -0.9373426425 -1.9698278004
| 41> H -1.6868830146 2.6424577438 -0.0078598863
| 42> H -2.8595289278 2.1851528186 1.2575477992
| 43> H -1.2421740288 3.9148173733 2.0888611151
| 44> H -1.0678987432 2.3907027556 2.9822870425
| 45> H 0.0997808243 2.8161986126 1.7229076212
| 46> H -4.4439369427 -1.1178649488 -1.0229154138
| 47> H -4.1292089016 -2.4120305653 0.1642914629
| 48> H -6.4873896776 -1.6527905765 0.336032328
| 49> H -5.6022056607 -1.2303784471 1.8121895768
| 50> H -5.9514875084 0.0127796441 0.6036791484
| 51> *
| 52>
| 53>                          ****END OF INPUT****

CARTESIAN COORDINATES (ANGSTROEM)
---------------------------------
  C      5.637599    1.477022   -0.591133
  C      4.343400    0.884432   -1.109934
  O      3.478771    0.656483    0.022420
  P      1.932156    0.344012   -0.162711
  S      0.939708    1.653381   -1.225269
  O      1.443446    0.245996    1.326770
  C      2.097732   -0.601073    2.311711
  C      1.057898   -1.038349    3.321383
  S      1.980452   -1.632095   -0.955044
  C      0.232056   -1.793124   -1.371436
  S     -0.835452   -1.912410    0.103884
  P     -2.013620   -0.195868   -0.133665
  S     -2.333553    0.412570   -1.975602
  O     -1.357123    0.809814    0.891665
  C     -1.802540    2.182088    0.979560
  C     -0.945439    2.873564    2.017363
  O     -3.350651   -0.567960    0.645742
  C     -4.395350   -1.358910    0.044510
  C     -5.697510   -1.033689    0.748287
  H      5.441964    2.421389   -0.091160
  H      6.101638    0.793456    0.113626
  H      6.310396    1.645934   -1.425327
  H      4.512189   -0.074270   -1.607337
  H      3.836469    1.563621   -1.803073
  H      2.543597   -1.458270    1.798886
  H      2.885702   -0.004238    2.773648
  H      1.538032   -1.640940    4.085591
  H      0.597794   -0.169122    3.782392
  H      0.283186   -1.626156    2.835125
  H      0.138001   -2.721108   -1.929328
  H     -0.093485   -0.937343   -1.969828
  H     -1.686883    2.642458   -0.007860
  H     -2.859529    2.185153    1.257548
  H     -1.242174    3.914817    2.088861
  H     -1.067899    2.390703    2.982287
  H      0.099781    2.816199    1.722908
  H     -4.443937   -1.117865   -1.022915
  H     -4.129209   -2.412031    0.164291
  H     -6.487390   -1.652791    0.336032
  H     -5.602206   -1.230378    1.812190
  H     -5.951488    0.012780    0.603679

 Total Charge           Charge          ....    0
 Multiplicity           Mult            ....    1
 Number of Electrons    NEL             ....  202
 Basis Dimension        Dim             ....  539

ORBITAL ENERGIES
----------------

  NO   OCC          E(Eh)            E(eV)
   0   2.0000     -88.580704     -2410.4035
   1   2.0000     -88.579566     -2410.3725
   2   2.0000     -88.524144     -2408.8644
   3   2.0000     -88.523458     -2408.8458
   4   2.0000     -76.917311     -2093.0264
   5   2.0000     -76.916671     -2093.0090
   6   2.0000     -18.994917      -516.8780
   7   2.0000     -18.994301      -516.8612
   8   2.0000     -18.991989      -516.7983
   9   2.0000     -18.989505      -516.7307
  10   2.0000     -10.106182      -275.0032
  11   2.0000     -10.092220      -274.6233
  12   2.0000     -10.090543      -274.5776
  13   2.0000     -10.087661      -274.4992
  14   2.0000     -10.087319      -274.4899
  15   2.0000     -10.019762      -272.6516
  16   2.0000     -10.019085      -272.6332
  17   2.0000     -10.018820      -272.6260
  18   2.0000     -10.017731      -272.5963
  19   2.0000      -7.875314      -214.2982
  20   2.0000      -7.873979      -214.2619
  21   2.0000      -7.819241      -212.7724
  22   2.0000      -7.818543      -212.7534
  23   2.0000      -6.595938      -179.4846
  24   2.0000      -6.595307      -179.4674
  25   2.0000      -5.822116      -158.4278
  26   2.0000      -5.820820      -158.3926
  27   2.0000      -5.819120      -158.3463
  28   2.0000      -5.817595      -158.3048
  29   2.0000      -5.812487      -158.1658
  30   2.0000      -5.811342      -158.1346
  31   2.0000      -5.766915      -156.9257
  32   2.0000      -5.766114      -156.9039
  33   2.0000      -5.759443      -156.7224
  34   2.0000      -5.759235      -156.7168
  35   2.0000      -5.759046      -156.7116
  36   2.0000      -5.758330      -156.6921
  37   2.0000      -4.741722      -129.0288
  38   2.0000      -4.741008      -129.0094
  39   2.0000      -4.740700      -129.0010
  40   2.0000      -4.740174      -128.9867
  41   2.0000      -4.739301      -128.9629
  42   2.0000      -4.739205      -128.9603
  43   2.0000      -1.054495       -28.6943
  44   2.0000      -1.050282       -28.5796
  45   2.0000      -1.012055       -27.5394
  46   2.0000      -1.008525       -27.4434
  47   2.0000      -0.802947       -21.8493
  48   2.0000      -0.758131       -20.6298
  49   2.0000      -0.747031       -20.3277
  50   2.0000      -0.726657       -19.7734
  51   2.0000      -0.723084       -19.6761
  52   2.0000      -0.709783       -19.3142
  53   2.0000      -0.686348       -18.6765
  54   2.0000      -0.669031       -18.2053
  55   2.0000      -0.622232       -16.9318
  56   2.0000      -0.608844       -16.5675
  57   2.0000      -0.597481       -16.2583
  58   2.0000      -0.596025       -16.2187
  59   2.0000      -0.589186       -16.0326
  60   2.0000      -0.533922       -14.5288
  61   2.0000      -0.527738       -14.3605
  62   2.0000      -0.499180       -13.5834
  63   2.0000      -0.495998       -13.4968
  64   2.0000      -0.469089       -12.7646
  65   2.0000      -0.462630       -12.5888
  66   2.0000      -0.451677       -12.2908
  67   2.0000      -0.450309       -12.2535
  68   2.0000      -0.445506       -12.1228
  69   2.0000      -0.433059       -11.7841
  70   2.0000      -0.422715       -11.5027
  71   2.0000      -0.414451       -11.2778
  72   2.0000      -0.403862       -10.9897
  73   2.0000      -0.395728       -10.7683
  74   2.0000      -0.385429       -10.4881
  75   2.0000      -0.380694       -10.3592
  76   2.0000      -0.377696       -10.2776
  77   2.0000      -0.364739        -9.9250
  78   2.0000      -0.361232        -9.8296
  79   2.0000      -0.355726        -9.6798
  80   2.0000      -0.354627        -9.6499
  81   2.0000      -0.353277        -9.6131
  82   2.0000      -0.347739        -9.4625
  83   2.0000      -0.344203        -9.3662
  84   2.0000      -0.340793        -9.2735
  85   2.0000      -0.326839        -8.8937
  86   2.0000      -0.322260        -8.7691
  87   2.0000      -0.317603        -8.6424
  88   2.0000      -0.314133        -8.5480
  89   2.0000      -0.310616        -8.4523
  90   2.0000      -0.302036        -8.2188
  91   2.0000      -0.286356        -7.7921
  92   2.0000      -0.281369        -7.6564
  93   2.0000      -0.277434        -7.5494
  94   2.0000      -0.273521        -7.4429
  95   2.0000      -0.254878        -6.9356
  96   2.0000      -0.242139        -6.5889
  97   2.0000      -0.237878        -6.4730
  98   2.0000      -0.226590        -6.1658
  99   2.0000      -0.214118        -5.8265
 100   2.0000      -0.206888        -5.6297
 101   0.0000      -0.048277        -1.3137
 102   0.0000      -0.037525        -1.0211
 103   0.0000      -0.011061        -0.3010
 104   0.0000       0.007083         0.1927
 105   0.0000       0.013566         0.3691

MULLIKEN ATOMIC CHARGES
-----------------------
   0 C :   -0.479867
   1 C :   -0.151773
   2 O :   -0.311830
   3 P :    0.679268
   4 S :   -0.469335
   5 O :   -0.288252
   6 C :   -0.096658
   7 C :   -0.505954
   8 S :   -0.170921
   9 C :   -0.222349
  10 S :   -0.142776
  11 P :    0.692177
  12 S :   -0.528956
  13 O :   -0.269600
  14 C :   -0.123419
  15 C :   -0.510236
  16 O :   -0.322216
  17 C :   -0.141166
  18 C :   -0.487334
  19 H :    0.166309
  20 H :    0.165843
  21 H :    0.169518
  22 H :    0.168272
  23 H :    0.174019
  24 H :    0.171275
  25 H :    0.177819
  26 H :    0.171049
  27 H :    0.170148
  28 H :    0.170607
  29 H :    0.237460
  30 H :    0.213616
  31 H :    0.174967
  32 H :    0.170993
  33 H :    0.169772
  34 H :    0.166832
  35 H :    0.171306
  36 H :    0.171155
  37 H :    0.170035
  38 H :    0.169117
  39 H :    0.165193
  40 H :    0.165893
Sum of atomic charges:    0.0000000

LOEWDIN ATOMIC CHARGES
----------------------
   0 C :   -0.388897
   1 C :    0.024032
   2 O :   -0.680724
   3 P :    0.373555
   4 S :   -0.104440
   5 O :   -0.669945
   6 C :    0.031166
   7 C :   -0.395110
   8 S :    0.129315
   9 C :   -0.407775
  10 S :    0.173356
  11 P :    0.368113
  12 S :   -0.170992
  13 O :   -0.687755
  14 C :    0.020875
  15 C :   -0.393823
  16 O :   -0.682020
  17 C :    0.021612
  18 C :   -0.391126
  19 H :    0.163226
  20 H :    0.163218
  21 H :    0.169032
  22 H :    0.179145
  23 H :    0.181446
  24 H :    0.182246
  25 H :    0.185129
  26 H :    0.169239
  27 H :    0.164413
  28 H :    0.163324
  29 H :    0.197644
  30 H :    0.200105
  31 H :    0.182726
  32 H :    0.180165
  33 H :    0.168300
  34 H :    0.162902
  35 H :    0.164397
  36 H :    0.181488
  37 H :    0.179170
  38 H :    0.168502
  39 H :    0.162777
  40 H :    0.161990

  Mayer bond orders larger than 0.100000
B(  0-C ,  1-C ) :   0.9545 B(  0-C , 19-H ) :   0.9691 B(  0-C , 20-H ) :   0.9683
B(  0-C , 21-H ) :   0.9578 B(  1-C ,  2-O ) :   0.7821 B(  1-C , 22-H ) :   0.9332
B(  1-C , 23-H ) :   0.9481 B(  2-O ,  3-P ) :   1.0576 B(  3-P ,  4-S ) :   1.8136
B(  3-P ,  5-O ) :   1.1433 B(  3-P ,  8-S ) :   1.0079 B(  5-O ,  6-C ) :   0.7317
B(  6-C ,  7-C ) :   0.9444 B(  6-C , 24-H ) :   0.9474 B(  6-C , 25-H ) :   0.9350
B(  7-C , 26-H ) :   0.9577 B(  7-C , 27-H ) :   0.9677 B(  7-C , 28-H ) :   0.9658
B(  8-S ,  9-C ) :   0.9132 B(  9-C , 10-S ) :   0.8894 B(  9-C , 29-H ) :   0.8984
B(  9-C , 30-H ) :   0.9091 B( 10-S , 11-P ) :   1.1312 B( 11-P , 12-S ) :   1.6994
B( 11-P , 13-O ) :   1.1974 B( 11-P , 16-O ) :   1.0854 B( 13-O , 14-C ) :   0.7542
B( 14-C , 15-C ) :   0.9274 B( 14-C , 31-H ) :   0.9479 B( 14-C , 32-H ) :   0.9354
B( 15-C , 33-H ) :   0.9598 B( 15-C , 34-H ) :   0.9686 B( 15-C , 35-H ) :   0.9714
B( 16-O , 17-C ) :   0.7730 B( 17-C , 18-C ) :   0.9520 B( 17-C , 36-H ) :   0.9475
B( 17-C , 37-H ) :   0.9375 B( 18-C , 38-H ) :   0.9593 B( 18-C , 39-H ) :   0.9692
B( 18-C , 40-H ) :   0.9698

Dispersion correction           -0.021715075
FINAL SINGLE POINT ENERGY     -2932.471430460493

DIPOLE MOMENT
-------------

Method             : SCF
Type of density    : Electron Density
Multiplicity       :   1
Irrep              :   0
Energy             : -2932.4961581259458399 Eh
Relativity type    :
Basis              : AO
                                X                 Y                 Z
Electronic contribution:      0.095933484      -6.189923172     -14.381255119
Nuclear contribution   :      0.762920589       4.939093407      15.904916911
                        -----------------------------------------
Total Dipole Moment    :      0.858854073      -1.250829765       1.523661792
                        -----------------------------------------
Magnitude (a.u.)       :      2.150290835
Magnitude (Debye)      :      5.465604944

Rotational constants in cm-1:             0.013041             0.005010             0.004955
Rotational constants in MHz :           390.973637           150.205124           148.544688

                             ****ORCA TERMINATED NORMALLY****
TOTAL RUN TIME: 0 days 0 hours 1 minutes 58 seconds 115 msec
