                         Program Version 6.0.0  -   RELEASE  -
|  1> ! wb97x-v def2-tzvp def2/J RIJCOSX DEFGRID2 scfconv7 GCP(DFT/TZ) printgap
|  2> %output
|  3>     printlevel normal
|  4> end
|  5> * xyz 0 1
|  6> C 1.9120831987338136 -3.4970834117028126e-05 0.7150282388144631
|  7> N 1.1270116499798257 2.7502789287737895e-05 -0.5267932485085844
|  8> C 0.2681545469250955 1.1993779905248603 -0.6195662964671481
|  9> C -0.91905676891748 1.1992733900161796 0.335624827362061
| 10> N -1.7457044881929795 1.793739361664789e-05 0.09566085049970603
| 11> C -0.9190854660594041 -1.1992827011179383 0.3354997893909303
| 12> C 0.26814487586488533 -1.1993090653082559 -0.6196723894540255
| 13> H 1.3197283485519689 -0.0001777278608447196 1.6427477207315975
| 14> H 2.556492312306433 0.8853086320011005 0.7340628552197664
| 15> H 2.5566402221861586 -0.8852753104803143 0.733885544107555
| 16> H 0.886166012689621 2.08628532620995 -0.44074146086843463
| 17> H -0.11071467106163424 1.2635939707560697 -1.6483958665973557
| 18> H -0.5631890758452027 1.251214291614124 1.3790640448174605
| 19> H -1.520732654270256 2.0965931627057657 0.1537513155153519
| 20> H -2.4908394273281655 -1.1459213723233916e-05 0.7855614879413851
| 21> H -0.5632429575299127 -1.2513552344214771 1.378940848322469
| 22> H -1.5207786459258295 -2.096567763201735 0.1535066995272822
| 23> H 0.886146165837781 -2.086234242119171 -0.4408996588504875
| 24> H -0.11070411219186407 -1.2634490393892912 -1.648513732667507
| 25> *
| 26>
| 27>                          ****END OF INPUT****

CARTESIAN COORDINATES (ANGSTROEM)
---------------------------------
  C      1.912083   -0.000035    0.715028
  N      1.127012    0.000028   -0.526793
  C      0.268155    1.199378   -0.619566
  C     -0.919057    1.199273    0.335625
  N     -1.745704    0.000018    0.095661
  C     -0.919085   -1.199283    0.335500
  C      0.268145   -1.199309   -0.619672
  H      1.319728   -0.000178    1.642748
  H      2.556492    0.885309    0.734063
  H      2.556640   -0.885275    0.733886
  H      0.886166    2.086285   -0.440741
  H     -0.110715    1.263594   -1.648396
  H     -0.563189    1.251214    1.379064
  H     -1.520733    2.096593    0.153751
  H     -2.490839   -0.000011    0.785561
  H     -0.563243   -1.251355    1.378941
  H     -1.520779   -2.096568    0.153507
  H      0.886146   -2.086234   -0.440900
  H     -0.110704   -1.263449   -1.648514

 Total Charge           Charge          ....    0
 Multiplicity           Mult            ....    1
 Number of Electrons    NEL             ....   56
 Basis Dimension        Dim             ....  289

ORBITAL ENERGIES
----------------

  NO   OCC          E(Eh)            E(eV)
   0   2.0000     -16.514673      -449.3871
   1   2.0000     -16.511485      -449.3003
   2   2.0000     -12.064372      -328.2883
   3   2.0000     -12.064102      -328.2809
   4   2.0000     -12.061773      -328.2175
   5   2.0000     -12.061638      -328.2139
   6   2.0000     -12.058333      -328.1239
   7   2.0000      -1.488453       -40.5029
   8   2.0000      -1.452551       -39.5259
   9   2.0000      -1.271480       -34.5987
  10   2.0000      -1.223943       -33.3052
  11   2.0000      -1.146763       -31.2050
  12   2.0000      -1.136526       -30.9265
  13   2.0000      -1.025779       -27.9129
  14   2.0000      -0.973792       -26.4982
  15   2.0000      -0.932039       -25.3621
  16   2.0000      -0.920482       -25.0476
  17   2.0000      -0.909159       -24.7395
  18   2.0000      -0.897102       -24.4114
  19   2.0000      -0.871321       -23.7098
  20   2.0000      -0.828498       -22.5446
  21   2.0000      -0.815489       -22.1906
  22   2.0000      -0.814274       -22.1575
  23   2.0000      -0.793584       -21.5945
  24   2.0000      -0.793255       -21.5856
  25   2.0000      -0.777797       -21.1649
  26   2.0000      -0.713872       -19.4254
  27   2.0000      -0.691578       -18.8188
  28   0.0000      -0.115411        -3.1405
  29   0.0000      -0.071759        -1.9527
  30   0.0000      -0.066311        -1.8044
  31   0.0000      -0.045321        -1.2332
  32   0.0000      -0.039250        -1.0681

MULLIKEN ATOMIC CHARGES
-----------------------
   0 C :   -0.301292
   1 N :   -0.133978
   2 C :   -0.130845
   3 C :   -0.164077
   4 N :   -0.303043
   5 C :   -0.164116
   6 C :   -0.130814
   7 H :    0.097874
   8 H :    0.117200
   9 H :    0.117201
  10 H :    0.103603
  11 H :    0.099829
  12 H :    0.097959
  13 H :    0.104343
  14 H :    0.184425
  15 H :    0.097968
  16 H :    0.104328
  17 H :    0.103602
  18 H :    0.099829
Sum of atomic charges:    0.0000000

LOEWDIN ATOMIC CHARGES
----------------------
   0 C :   -0.322197
   1 N :    0.054683
   2 C :   -0.283124
   3 C :   -0.311553
   4 N :   -0.028692
   5 C :   -0.311553
   6 C :   -0.283123
   7 H :    0.094380
   8 H :    0.112626
   9 H :    0.112626
  10 H :    0.129579
  11 H :    0.133222
  12 H :    0.113421
  13 H :    0.127051
  14 H :    0.159382
  15 H :    0.113420
  16 H :    0.127051
  17 H :    0.129580
  18 H :    0.133221

  Mayer bond orders larger than 0.100000
B(  0-C ,  1-N ) :   0.9821 B(  0-C ,  7-H ) :   0.9744 B(  0-C ,  8-H ) :   0.9806
B(  0-C ,  9-H ) :   0.9806 B(  1-N ,  2-C ) :   0.9991 B(  1-N ,  6-C ) :   0.9991
B(  2-C ,  3-C ) :   0.9872 B(  2-C , 10-H ) :   0.9880 B(  2-C , 11-H ) :   0.9697
B(  3-C ,  4-N ) :   0.9921 B(  3-C , 12-H ) :   0.9856 B(  3-C , 13-H ) :   0.9679
B(  4-N ,  5-C ) :   0.9921 B(  4-N , 14-H ) :   0.9396 B(  5-C ,  6-C ) :   0.9872
B(  5-C , 15-H ) :   0.9856 B(  5-C , 16-H ) :   0.9679 B(  6-C , 17-H ) :   0.9879
B(  6-C , 18-H ) :   0.9697

FINAL SINGLE POINT ENERGY      -307.250298926991

DIPOLE MOMENT
-------------

Method             : SCF
Type of density    : Electron Density
Multiplicity       :   1
Irrep              :   0
Energy             :  -307.2641604532913107 Eh
Relativity type    :
Basis              : AO
                                X                 Y                 Z
Electronic contribution:     -1.375388564       0.000133666      -2.072761960
Nuclear contribution   :      1.239747084      -0.000166840       2.773819195
                        -----------------------------------------
Total Dipole Moment    :     -0.135641480      -0.000033175       0.701057235
                        -----------------------------------------
Magnitude (a.u.)       :      0.714058723
Magnitude (Debye)      :      1.814993033

Rotational constants in cm-1:             0.128886             0.088377             0.067609
Rotational constants in MHz :          3863.892130          2649.484634          2026.858986

                             ****ORCA TERMINATED NORMALLY****
TOTAL RUN TIME: 0 days 0 hours 2 minutes 33 seconds 642 msec
