                         Program Version 6.0.0  -   RELEASE  -
|  1> ! wb97x-v def2-tzvp def2/J RIJCOSX DEFGRID2 scfconv7 GCP(DFT/TZ) printgap
|  2> %output
|  3>     printlevel normal
|  4> end
|  5> %cpcm
|  6>     smd true
|  7>     smdsolvent "water"
|  8> end
|  9> * xyz 0 1
| 10> C 1.9120831987338136 -3.4970834117028126e-05 0.7150282388144631
| 11> N 1.1270116499798257 2.7502789287737895e-05 -0.5267932485085844
| 12> C 0.2681545469250955 1.1993779905248603 -0.6195662964671481
| 13> C -0.91905676891748 1.1992733900161796 0.335624827362061
| 14> N -1.7457044881929795 1.793739361664789e-05 0.09566085049970603
| 15> C -0.9190854660594041 -1.1992827011179383 0.3354997893909303
| 16> C 0.26814487586488533 -1.1993090653082559 -0.6196723894540255
| 17> H 1.3197283485519689 -0.0001777278608447196 1.6427477207315975
| 18> H 2.556492312306433 0.8853086320011005 0.7340628552197664
| 19> H 2.5566402221861586 -0.8852753104803143 0.733885544107555
| 20> H 0.886166012689621 2.08628532620995 -0.44074146086843463
| 21> H -0.11071467106163424 1.2635939707560697 -1.6483958665973557
| 22> H -0.5631890758452027 1.251214291614124 1.3790640448174605
| 23> H -1.520732654270256 2.0965931627057657 0.1537513155153519
| 24> H -2.4908394273281655 -1.1459213723233916e-05 0.7855614879413851
| 25> H -0.5632429575299127 -1.2513552344214771 1.378940848322469
| 26> H -1.5207786459258295 -2.096567763201735 0.1535066995272822
| 27> H 0.886146165837781 -2.086234242119171 -0.4408996588504875
| 28> H -0.11070411219186407 -1.2634490393892912 -1.648513732667507
| 29> *
| 30>
| 31>                          ****END OF INPUT****

CARTESIAN COORDINATES (ANGSTROEM)
---------------------------------
  C      1.912083   -0.000035    0.715028
  N      1.127012    0.000028   -0.526793
  C      0.268155    1.199378   -0.619566
  C     -0.919057    1.199273    0.335625
  N     -1.745704    0.000018    0.095661
  C     -0.919085   -1.199283    0.335500
  C      0.268145   -1.199309   -0.619672
  H      1.319728   -0.000178    1.642748
  H      2.556492    0.885309    0.734063
  H      2.556640   -0.885275    0.733886
  H      0.886166    2.086285   -0.440741
  H     -0.110715    1.263594   -1.648396
  H     -0.563189    1.251214    1.379064
  H     -1.520733    2.096593    0.153751
  H     -2.490839   -0.000011    0.785561
  H     -0.563243   -1.251355    1.378941
  H     -1.520779   -2.096568    0.153507
  H      0.886146   -2.086234   -0.440900
  H     -0.110704   -1.263449   -1.648514

 Total Charge           Charge          ....    0
 Multiplicity           Mult            ....    1
 Number of Electrons    NEL             ....   56
 Basis Dimension        Dim             ....  289

ORBITAL ENERGIES
----------------

  NO   OCC          E(Eh)            E(eV)
   0   2.0000     -16.512949      -449.3402
   1   2.0000     -16.505420      -449.1353
   2   2.0000     -12.055756      -328.0538
   3   2.0000     -12.055400      -328.0441
   4   2.0000     -12.053986      -328.0056
   5   2.0000     -12.053941      -328.0044
   6   2.0000     -12.049036      -327.8709
   7   2.0000      -1.483753       -40.3750
   8   2.0000      -1.446789       -39.3691
   9   2.0000      -1.264098       -34.3979
  10   2.0000      -1.217290       -33.1242
  11   2.0000      -1.138996       -30.9937
  12   2.0000      -1.129965       -30.7479
  13   2.0000      -1.018501       -27.7148
  14   2.0000      -0.966153       -26.2904
  15   2.0000      -0.926455       -25.2101
  16   2.0000      -0.914115       -24.8743
  17   2.0000      -0.901473       -24.5303
  18   2.0000      -0.890413       -24.2294
  19   2.0000      -0.864460       -23.5232
  20   2.0000      -0.820349       -22.3228
  21   2.0000      -0.807160       -21.9639
  22   2.0000      -0.805094       -21.9077
  23   2.0000      -0.787907       -21.4400
  24   2.0000      -0.786331       -21.3971
  25   2.0000      -0.769344       -20.9349
  26   2.0000      -0.709535       -19.3074
  27   2.0000      -0.687630       -18.7114
  28   0.0000      -0.108577        -2.9545
  29   0.0000      -0.063995        -1.7414
  30   0.0000      -0.060122        -1.6360
  31   0.0000      -0.038704        -1.0532
  32   0.0000      -0.028538        -0.7766

MULLIKEN ATOMIC CHARGES
-----------------------
   0 C :   -0.339514
   1 N :   -0.197225
   2 C :   -0.137707
   3 C :   -0.183818
   4 N :   -0.386604
   5 C :   -0.183854
   6 C :   -0.137680
   7 H :    0.123040
   8 H :    0.134985
   9 H :    0.134982
  10 H :    0.126169
  11 H :    0.105461
  12 H :    0.116708
  13 H :    0.124411
  14 H :    0.227902
  15 H :    0.116718
  16 H :    0.124395
  17 H :    0.126168
  18 H :    0.105462
Sum of atomic charges:    0.0000000

LOEWDIN ATOMIC CHARGES
----------------------
   0 C :   -0.325487
   1 N :    0.033702
   2 C :   -0.288748
   3 C :   -0.309915
   4 N :   -0.050882
   5 C :   -0.309915
   6 C :   -0.288746
   7 H :    0.102428
   8 H :    0.115628
   9 H :    0.115626
  10 H :    0.135110
  11 H :    0.131006
  12 H :    0.120780
  13 H :    0.130803
  14 H :    0.170909
  15 H :    0.120779
  16 H :    0.130803
  17 H :    0.135111
  18 H :    0.131006

  Mayer bond orders larger than 0.100000
B(  0-C ,  1-N ) :   0.9729 B(  0-C ,  7-H ) :   0.9755 B(  0-C ,  8-H ) :   0.9757
B(  0-C ,  9-H ) :   0.9758 B(  1-N ,  2-C ) :   0.9871 B(  1-N ,  6-C ) :   0.9871
B(  2-C ,  3-C ) :   0.9821 B(  2-C , 10-H ) :   0.9807 B(  2-C , 11-H ) :   0.9704
B(  3-C ,  4-N ) :   0.9858 B(  3-C , 12-H ) :   0.9857 B(  3-C , 13-H ) :   0.9684
B(  4-N ,  5-C ) :   0.9858 B(  4-N , 14-H ) :   0.9280 B(  5-C ,  6-C ) :   0.9821
B(  5-C , 15-H ) :   0.9857 B(  5-C , 16-H ) :   0.9684 B(  6-C , 17-H ) :   0.9807
B(  6-C , 18-H ) :   0.9704

FINAL SINGLE POINT ENERGY      -307.266239033920

DIPOLE MOMENT
-------------

Method             : SCF
Type of density    : Electron Density
Multiplicity       :   1
Irrep              :   0
Energy             :  -307.2801005602196369 Eh
Relativity type    :
Basis              : AO
                                X                 Y                 Z
Electronic contribution:     -1.413962027       0.000115109      -1.686711413
Nuclear contribution   :      1.239747084      -0.000166840       2.773819195
                        -----------------------------------------
Total Dipole Moment    :     -0.174214943      -0.000051731       1.087107782
                        -----------------------------------------
Magnitude (a.u.)       :      1.100978737
Magnitude (Debye)      :      2.798465551

Rotational constants in cm-1:             0.128886             0.088377             0.067609
Rotational constants in MHz :          3863.892130          2649.484634          2026.858986

                             ****ORCA TERMINATED NORMALLY****
TOTAL RUN TIME: 0 days 0 hours 2 minutes 41 seconds 273 msec
