                         Program Version 6.0.0  -   RELEASE  -
|  1> ! wb97x-v def2-tzvp def2/J RIJCOSX DEFGRID2 scfconv7 GCP(DFT/TZ) printgap
|  2> %output
|  3>     printlevel normal
|  4> end
|  5> * xyz 0 1
|  6> C -1.7556570569955903 -0.6646445994956687 0.0019305708376371894
|  7> C -0.4634325032527439 0.08470360034285937 -0.02666748233547381
|  8> O -0.37021818648207216 1.299993370625014 -0.09166841729288767
|  9> O 0.6085070061341605 -0.7301279942299875 0.03172590737126259
| 10> C 1.9025319419235405 -0.07272611889409315 0.015263369707995121
| 11> H -1.60861963783871 -1.743684263365932 0.03717319634385171
| 12> H -2.335478803189828 -0.39508213844191326 -0.8854980374334637
| 13> H -2.3253452664798826 -0.33935013989531204 0.8777296457606208
| 14> H 2.025460687872867 0.49425736795390657 -0.9104339793236957
| 15> H 2.634932874883948 -0.8773297510890652 0.06867947770441953
| 16> H 1.9997645709309129 0.5897966475530017 0.8785410389229757
| 17> *
| 18>
| 19>                          ****END OF INPUT****

CARTESIAN COORDINATES (ANGSTROEM)
---------------------------------
  C     -1.755657   -0.664645    0.001931
  C     -0.463433    0.084704   -0.026667
  O     -0.370218    1.299993   -0.091668
  O      0.608507   -0.730128    0.031726
  C      1.902532   -0.072726    0.015263
  H     -1.608620   -1.743684    0.037173
  H     -2.335479   -0.395082   -0.885498
  H     -2.325345   -0.339350    0.877730
  H      2.025461    0.494257   -0.910434
  H      2.634933   -0.877330    0.068679
  H      1.999765    0.589797    0.878541

 Total Charge           Charge          ....    0
 Multiplicity           Mult            ....    1
 Number of Electrons    NEL             ....   40
 Basis Dimension        Dim             ....  191

ORBITAL ENERGIES
----------------

  NO   OCC          E(Eh)            E(eV)
   0   2.0000     -21.721543      -591.0732
   1   2.0000     -21.654343      -589.2446
   2   2.0000     -12.179418      -331.4188
   3   2.0000     -12.103945      -329.3651
   4   2.0000     -12.058629      -328.1320
   5   2.0000      -1.758541       -47.8523
   6   2.0000      -1.690783       -46.0085
   7   2.0000      -1.305714       -35.5303
   8   2.0000      -1.226743       -33.3814
   9   2.0000      -1.120475       -30.4897
  10   2.0000      -1.061231       -28.8776
  11   2.0000      -1.009261       -27.4634
  12   2.0000      -0.996867       -27.1261
  13   2.0000      -0.939537       -25.5661
  14   2.0000      -0.903609       -24.5885
  15   2.0000      -0.857677       -23.3386
  16   2.0000      -0.841763       -22.9055
  17   2.0000      -0.839979       -22.8570
  18   2.0000      -0.838418       -22.8145
  19   2.0000      -0.824359       -22.4319
  20   0.0000      -0.303837        -8.2678
  21   0.0000      -0.182236        -4.9589
  22   0.0000      -0.104321        -2.8387
  23   0.0000      -0.012237        -0.3330
  24   0.0000       0.003880         0.1056

MULLIKEN ATOMIC CHARGES
-----------------------
   0 C :   -0.327421
   1 C :    0.327193
   2 O :   -0.364041
   3 O :   -0.250417
   4 C :   -0.180069
   5 H :    0.130432
   6 H :    0.137639
   7 H :    0.137055
   8 H :    0.130699
   9 H :    0.128325
  10 H :    0.130606
Sum of atomic charges:    0.0000000

LOEWDIN ATOMIC CHARGES
----------------------
   0 C :   -0.255327
   1 C :   -0.493461
   2 O :    0.076574
   3 O :    0.219177
   4 C :   -0.287064
   5 H :    0.128123
   6 H :    0.139671
   7 H :    0.140154
   8 H :    0.111303
   9 H :    0.109561
  10 H :    0.111289

  Mayer bond orders larger than 0.100000
B(  0-C ,  1-C ) :   0.9694 B(  0-C ,  5-H ) :   0.9747 B(  0-C ,  6-H ) :   0.9610
B(  0-C ,  7-H ) :   0.9588 B(  1-C ,  2-O ) :   2.0264 B(  1-C ,  3-O ) :   1.1980
B(  3-O ,  4-C ) :   0.9045 B(  4-C ,  8-H ) :   0.9776 B(  4-C ,  9-H ) :   0.9708
B(  4-C , 10-H ) :   0.9775

FINAL SINGLE POINT ENERGY      -268.405526871353

DIPOLE MOMENT
-------------

Method             : SCF
Type of density    : Electron Density
Multiplicity       :   1
Irrep              :   0
Energy             :  -268.4127901079526168 Eh
Relativity type    :
Basis              : AO
                                X                 Y                 Z
Electronic contribution:     -0.156191766       1.307476645      -0.091412673
Nuclear contribution   :      0.339219255      -2.045275930       0.138064062
                        -----------------------------------------
Total Dipole Moment    :      0.183027489      -0.737799284       0.046651389
                        -----------------------------------------
Magnitude (a.u.)       :      0.761592541
Magnitude (Debye)      :      1.935814397

Rotational constants in cm-1:             0.343970             0.136892             0.101686
Rotational constants in MHz :         10311.961039          4103.925122          3048.473158

                             ****ORCA TERMINATED NORMALLY****
TOTAL RUN TIME: 0 days 0 hours 0 minutes 55 seconds 84 msec
