                         Program Version 6.0.0  -   RELEASE  -
|  1> ! wb97x-v def2-tzvp def2/J RIJCOSX DEFGRID2 scfconv7 GCP(DFT/TZ) printgap
|  2> %output
|  3>     printlevel normal
|  4> end
|  5> %cpcm
|  6>     smd true
|  7>     smdsolvent "water"
|  8> end
|  9> * xyz 0 1
| 10> C -1.7556570569955903 -0.6646445994956687 0.0019305708376371894
| 11> C -0.4634325032527439 0.08470360034285937 -0.02666748233547381
| 12> O -0.37021818648207216 1.299993370625014 -0.09166841729288767
| 13> O 0.6085070061341605 -0.7301279942299875 0.03172590737126259
| 14> C 1.9025319419235405 -0.07272611889409315 0.015263369707995121
| 15> H -1.60861963783871 -1.743684263365932 0.03717319634385171
| 16> H -2.335478803189828 -0.39508213844191326 -0.8854980374334637
| 17> H -2.3253452664798826 -0.33935013989531204 0.8777296457606208
| 18> H 2.025460687872867 0.49425736795390657 -0.9104339793236957
| 19> H 2.634932874883948 -0.8773297510890652 0.06867947770441953
| 20> H 1.9997645709309129 0.5897966475530017 0.8785410389229757
| 21> *
| 22>
| 23>                          ****END OF INPUT****

CARTESIAN COORDINATES (ANGSTROEM)
---------------------------------
  C     -1.755657   -0.664645    0.001931
  C     -0.463433    0.084704   -0.026667
  O     -0.370218    1.299993   -0.091668
  O      0.608507   -0.730128    0.031726
  C      1.902532   -0.072726    0.015263
  H     -1.608620   -1.743684    0.037173
  H     -2.335479   -0.395082   -0.885498
  H     -2.325345   -0.339350    0.877730
  H      2.025461    0.494257   -0.910434
  H      2.634933   -0.877330    0.068679
  H      1.999765    0.589797    0.878541

 Total Charge           Charge          ....    0
 Multiplicity           Mult            ....    1
 Number of Electrons    NEL             ....   40
 Basis Dimension        Dim             ....  191

ORBITAL ENERGIES
----------------

  NO   OCC          E(Eh)            E(eV)
   0   2.0000     -21.725042      -591.1684
   1   2.0000     -21.667465      -589.6017
   2   2.0000     -12.188238      -331.6588
   3   2.0000     -12.092420      -329.0515
   4   2.0000     -12.047192      -327.8208
   5   2.0000      -1.764738       -48.0210
   6   2.0000      -1.702288       -46.3216
   7   2.0000      -1.303006       -35.4566
   8   2.0000      -1.219656       -33.1885
   9   2.0000      -1.125509       -30.6266
  10   2.0000      -1.072019       -29.1711
  11   2.0000      -1.007322       -27.4106
  12   2.0000      -0.999012       -27.1845
  13   2.0000      -0.944340       -25.6968
  14   2.0000      -0.916482       -24.9388
  15   2.0000      -0.860988       -23.4287
  16   2.0000      -0.834177       -22.6991
  17   2.0000      -0.830910       -22.6102
  18   2.0000      -0.829911       -22.5830
  19   2.0000      -0.814677       -22.1685
  20   0.0000      -0.306899        -8.3512
  21   0.0000      -0.175252        -4.7688
  22   0.0000      -0.105980        -2.8839
  23   0.0000      -0.007770        -0.2114
  24   0.0000       0.014561         0.3962

MULLIKEN ATOMIC CHARGES
-----------------------
   0 C :   -0.373128
   1 C :    0.416929
   2 O :   -0.485224
   3 O :   -0.274274
   4 C :   -0.219778
   5 H :    0.149384
   6 H :    0.163857
   7 H :    0.164643
   8 H :    0.150298
   9 H :    0.156933
  10 H :    0.150359
Sum of atomic charges:    0.0000000

LOEWDIN ATOMIC CHARGES
----------------------
   0 C :   -0.250426
   1 C :   -0.474066
   2 O :    0.011253
   3 O :    0.215374
   4 C :   -0.284206
   5 H :    0.135016
   6 H :    0.147629
   7 H :    0.148534
   8 H :    0.115791
   9 H :    0.119251
  10 H :    0.115849

  Mayer bond orders larger than 0.100000
B(  0-C ,  1-C ) :   0.9804 B(  0-C ,  5-H ) :   0.9713 B(  0-C ,  6-H ) :   0.9498
B(  0-C ,  7-H ) :   0.9475 B(  1-C ,  2-O ) :   1.8997 B(  1-C ,  3-O ) :   1.2155
B(  3-O ,  4-C ) :   0.8772 B(  4-C ,  8-H ) :   0.9724 B(  4-C ,  9-H ) :   0.9660
B(  4-C , 10-H ) :   0.9723

FINAL SINGLE POINT ENERGY      -268.411716878787

DIPOLE MOMENT
-------------

Method             : SCF
Type of density    : Electron Density
Multiplicity       :   1
Irrep              :   0
Energy             :  -268.4189801153872281 Eh
Relativity type    :
Basis              : AO
                                X                 Y                 Z
Electronic contribution:     -0.117232182       1.011812453      -0.072515717
Nuclear contribution   :      0.339219255      -2.045275930       0.138064062
                        -----------------------------------------
Total Dipole Moment    :      0.221987073      -1.033463477       0.065548345
                        -----------------------------------------
Magnitude (a.u.)       :      1.059066383
Magnitude (Debye)      :      2.691932815

Rotational constants in cm-1:             0.343970             0.136892             0.101686
Rotational constants in MHz :         10311.961039          4103.925122          3048.473158

                             ****ORCA TERMINATED NORMALLY****
TOTAL RUN TIME: 0 days 0 hours 1 minutes 0 seconds 404 msec
