                         Program Version 6.0.1  -  RELEASE   -
|  1> ! pbe def2-sv(p) def2/J RI DEFGRID1 loosescf d4 GCP(DFT/SV(P)) printgap
|  2> %output
|  3>     printlevel normal
|  4> end
|  5> * xyz 0 1
|  6> C 1.9908674949 -3.5324215431 -2.372344277
|  7> C 3.2139221656 -2.9078569652 -1.7199712395
|  8> O 2.9105299405 -1.5870487138 -1.234351601
|  9> C 2.3649758152 -1.4671537573 -0.0410685786
| 10> O 2.169739281 -2.3810208081 0.7274448991
| 11> C 2.0074998436 -0.0214349351 0.2603620994
| 12> C 1.1088781907 0.5340471933 -0.8479235271
| 13> H 1.6807602555 0.6581815967 -1.7696834424
| 14> C 0.4924158949 1.8509345595 -0.4234975587
| 15> O -0.7100365776 1.9786573907 -0.2771806867
| 16> O 1.3785181868 2.7795262605 -0.2295210741
| 17> C 0.9384405296 4.0542729194 0.2958256381
| 18> C 0.8564360702 4.001407034 1.8122575444
| 19> S -0.2573707053 -0.6039664818 -1.2729607928
| 20> P -1.5978674568 -0.2467791469 0.3185119332
| 21> S -1.1045454066 0.3441208427 2.1342560664
| 22> O -2.9666896246 0.3628943785 -0.2375597633
| 23> C -3.4484489433 1.6892052486 -0.0219150034
| 24> O -2.0181766999 -1.7994593026 0.3124187011
| 25> C -2.9967591577 -2.3121552829 1.2187416041
| 26> H 2.2560736755 -4.4999198487 -2.7851660969
| 27> H 1.2011831104 -3.6643986689 -1.6356420374
| 28> H 1.6181856076 -2.8886961541 -3.1641969907
| 29> H 4.0168190001 -2.7551573087 -2.4409903355
| 30> H 3.561274878 -3.5186602616 -0.881851473
| 31> H 2.9188192073 0.5755742214 0.3135207927
| 32> H 1.5003091797 0.00334601 1.227327337
| 33> H 1.6980855083 4.7589992097 -0.0407380207
| 34> H -0.0338144851 4.2961240353 -0.1398621139
| 35> H 1.8276904339 3.762146264 2.2354778846
| 36> H 0.5301768913 4.965113505 2.1883773772
| 37> H 0.1436262809 3.2411431771 2.1282135813
| 38> H -3.1218301662 2.3311870693 -0.8369968498
| 39> H -3.0716301634 2.0757157546 0.9259639691
| 40> H -4.5332066947 1.6108293809 0.000455645
| 41> H -3.9934139241 -1.9981152983 0.9097775193
| 42> H -2.7930334821 -1.9573954588 2.2316363019
| 43> H -2.9030941202 -3.3942281933 1.1726594664
| 44> *
| 45>
| 46>                          ****END OF INPUT****

CARTESIAN COORDINATES (ANGSTROEM)
---------------------------------
  C      1.990867   -3.532422   -2.372344
  C      3.213922   -2.907857   -1.719971
  O      2.910530   -1.587049   -1.234352
  C      2.364976   -1.467154   -0.041069
  O      2.169739   -2.381021    0.727445
  C      2.007500   -0.021435    0.260362
  C      1.108878    0.534047   -0.847924
  H      1.680760    0.658182   -1.769683
  C      0.492416    1.850935   -0.423498
  O     -0.710037    1.978657   -0.277181
  O      1.378518    2.779526   -0.229521
  C      0.938441    4.054273    0.295826
  C      0.856436    4.001407    1.812258
  S     -0.257371   -0.603966   -1.272961
  P     -1.597867   -0.246779    0.318512
  S     -1.104545    0.344121    2.134256
  O     -2.966690    0.362894   -0.237560
  C     -3.448449    1.689205   -0.021915
  O     -2.018177   -1.799459    0.312419
  C     -2.996759   -2.312155    1.218742
  H      2.256074   -4.499920   -2.785166
  H      1.201183   -3.664399   -1.635642
  H      1.618186   -2.888696   -3.164197
  H      4.016819   -2.755157   -2.440990
  H      3.561275   -3.518660   -0.881851
  H      2.918819    0.575574    0.313521
  H      1.500309    0.003346    1.227327
  H      1.698086    4.758999   -0.040738
  H     -0.033814    4.296124   -0.139862
  H      1.827690    3.762146    2.235478
  H      0.530177    4.965114    2.188377
  H      0.143626    3.241143    2.128214
  H     -3.121830    2.331187   -0.836997
  H     -3.071630    2.075716    0.925964
  H     -4.533207    1.610829    0.000456
  H     -3.993414   -1.998115    0.909778
  H     -2.793033   -1.957395    2.231636
  H     -2.903094   -3.394228    1.172659

 Total Charge           Charge          ....    0
 Multiplicity           Mult            ....    1
 Number of Electrons    NEL             ....  174
 Basis Dimension        Dim             ....  316

ORBITAL ENERGIES
----------------

  NO   OCC          E(Eh)            E(eV)
   0   2.0000     -88.035570     -2395.5696
   1   2.0000     -87.972698     -2393.8588
   2   2.0000     -76.418752     -2079.4600
   3   2.0000     -18.830747      -512.4107
   4   2.0000     -18.799971      -511.5732
   5   2.0000     -18.780992      -511.0568
   6   2.0000     -18.769259      -510.7375
   7   2.0000     -18.767023      -510.6767
   8   2.0000     -18.732788      -509.7451
   9   2.0000     -10.035464      -273.0789
  10   2.0000     -10.005768      -272.2708
  11   2.0000      -9.963875      -271.1308
  12   2.0000      -9.953964      -270.8611
  13   2.0000      -9.945228      -270.6234
  14   2.0000      -9.932635      -270.2807
  15   2.0000      -9.927833      -270.1501
  16   2.0000      -9.906105      -269.5588
  17   2.0000      -9.892222      -269.1810
  18   2.0000      -9.880697      -268.8674
  19   2.0000      -7.680474      -208.9963
  20   2.0000      -7.617667      -207.2873
  21   2.0000      -6.414455      -174.5462
  22   2.0000      -5.708748      -155.3429
  23   2.0000      -5.705171      -155.2456
  24   2.0000      -5.696803      -155.0179
  25   2.0000      -5.646778      -153.6566
  26   2.0000      -5.638537      -153.4324
  27   2.0000      -5.637337      -153.3997
  28   2.0000      -4.637083      -126.1814
  29   2.0000      -4.636475      -126.1649
  30   2.0000      -4.635086      -126.1271
  31   2.0000      -1.040899       -28.3243
  32   2.0000      -1.007622       -27.4188
  33   2.0000      -0.968983       -26.3674
  34   2.0000      -0.945715       -25.7342
  35   2.0000      -0.923619       -25.1330
  36   2.0000      -0.910038       -24.7634
  37   2.0000      -0.769167       -20.9301
  38   2.0000      -0.719233       -19.5713
  39   2.0000      -0.706485       -19.2244
  40   2.0000      -0.685642       -18.6573
  41   2.0000      -0.648107       -17.6359
  42   2.0000      -0.629634       -17.1332
  43   2.0000      -0.620252       -16.8779
  44   2.0000      -0.615634       -16.7523
  45   2.0000      -0.592886       -16.1333
  46   2.0000      -0.568729       -15.4759
  47   2.0000      -0.514202       -13.9922
  48   2.0000      -0.505768       -13.7626
  49   2.0000      -0.496378       -13.5071
  50   2.0000      -0.487251       -13.2588
  51   2.0000      -0.466566       -12.6959
  52   2.0000      -0.461810       -12.5665
  53   2.0000      -0.451822       -12.2947
  54   2.0000      -0.437819       -11.9137
  55   2.0000      -0.437089       -11.8938
  56   2.0000      -0.423540       -11.5251
  57   2.0000      -0.414276       -11.2730
  58   2.0000      -0.407109       -11.0780
  59   2.0000      -0.406065       -11.0496
  60   2.0000      -0.398972       -10.8566
  61   2.0000      -0.393181       -10.6990
  62   2.0000      -0.387429       -10.5425
  63   2.0000      -0.382756       -10.4153
  64   2.0000      -0.375284       -10.2120
  65   2.0000      -0.370713       -10.0876
  66   2.0000      -0.357157        -9.7187
  67   2.0000      -0.354814        -9.6550
  68   2.0000      -0.351318        -9.5598
  69   2.0000      -0.340820        -9.2742
  70   2.0000      -0.334810        -9.1106
  71   2.0000      -0.329932        -8.9779
  72   2.0000      -0.321279        -8.7424
  73   2.0000      -0.312700        -8.5090
  74   2.0000      -0.305071        -8.3014
  75   2.0000      -0.293429        -7.9846
  76   2.0000      -0.291032        -7.9194
  77   2.0000      -0.287298        -7.8178
  78   2.0000      -0.275960        -7.5093
  79   2.0000      -0.261633        -7.1194
  80   2.0000      -0.257930        -7.0186
  81   2.0000      -0.255217        -6.9448
  82   2.0000      -0.247064        -6.7230
  83   2.0000      -0.215822        -5.8728
  84   2.0000      -0.212744        -5.7890
  85   2.0000      -0.192556        -5.2397
  86   2.0000      -0.185475        -5.0470
  87   0.0000      -0.051024        -1.3884
  88   0.0000      -0.041591        -1.1318
  89   0.0000      -0.013701        -0.3728
  90   0.0000       0.006420         0.1747
  91   0.0000       0.033608         0.9145

MULLIKEN ATOMIC CHARGES
-----------------------
   0 C :   -0.304816
   1 C :   -0.012922
   2 O :   -0.242178
   3 C :    0.123803
   4 O :   -0.178967
   5 C :   -0.075211
   6 C :   -0.332043
   7 H :    0.150910
   8 C :    0.235614
   9 O :   -0.199022
  10 O :   -0.213427
  11 C :   -0.013582
  12 C :   -0.318056
  13 S :   -0.058887
  14 P :    0.650622
  15 S :   -0.346256
  16 O :   -0.390315
  17 C :   -0.084226
  18 O :   -0.389993
  19 C :   -0.095550
  20 H :    0.110026
  21 H :    0.138232
  22 H :    0.111237
  23 H :    0.099536
  24 H :    0.109466
  25 H :    0.117026
  26 H :    0.122902
  27 H :    0.110439
  28 H :    0.113486
  29 H :    0.118181
  30 H :    0.115854
  31 H :    0.147183
  32 H :    0.113165
  33 H :    0.112075
  34 H :    0.114704
  35 H :    0.105411
  36 H :    0.114102
  37 H :    0.121475
Sum of atomic charges:   -0.0000000

LOEWDIN ATOMIC CHARGES
----------------------
   0 C :   -0.357757
   1 C :   -0.110722
   2 O :   -0.066534
   3 C :    0.021767
   4 O :   -0.150920
   5 C :   -0.254792
   6 C :   -0.263184
   7 H :    0.149719
   8 C :    0.030790
   9 O :   -0.155157
  10 O :   -0.030550
  11 C :   -0.104786
  12 C :   -0.359606
  13 S :    0.134166
  14 P :    0.592380
  15 S :   -0.335149
  16 O :   -0.252218
  17 C :   -0.211822
  18 O :   -0.267929
  19 C :   -0.215696
  20 H :    0.128882
  21 H :    0.133986
  22 H :    0.122470
  23 H :    0.115894
  24 H :    0.120451
  25 H :    0.142559
  26 H :    0.136005
  27 H :    0.121677
  28 H :    0.122133
  29 H :    0.127503
  30 H :    0.133025
  31 H :    0.133024
  32 H :    0.111541
  33 H :    0.107201
  34 H :    0.115123
  35 H :    0.107952
  36 H :    0.108061
  37 H :    0.120510

  Mayer bond orders larger than 0.100000
B(  0-C ,  1-C ) :   1.1763 B(  0-C , 20-H ) :   0.9427 B(  0-C , 21-H ) :   0.9419
B(  0-C , 22-H ) :   0.9478 B(  1-C ,  2-O ) :   0.9159 B(  1-C , 23-H ) :   0.9376
B(  1-C , 24-H ) :   0.9139 B(  2-O ,  3-C ) :   1.1994 B(  3-C ,  4-O ) :   2.0865
B(  3-C ,  5-C ) :   1.0201 B(  5-C ,  6-C ) :   1.0347 B(  5-C , 25-H ) :   0.8736
B(  5-C , 26-H ) :   0.8787 B(  6-C ,  7-H ) :   0.8586 B(  6-C ,  8-C ) :   0.9210
B(  6-C , 13-S ) :   1.0464 B(  8-C ,  9-O ) :   1.9038 B(  8-C , 10-O ) :   1.2952
B(  9-O , 14-P ) :   0.1314 B( 10-O , 11-C ) :   0.8916 B( 11-C , 12-C ) :   1.1773
B( 11-C , 27-H ) :   0.9361 B( 11-C , 28-H ) :   0.9157 B( 12-C , 29-H ) :   0.9476
B( 12-C , 30-H ) :   0.9408 B( 12-C , 31-H ) :   0.9290 B( 13-S , 14-P ) :   0.9270
B( 13-S , 15-S ) :   0.1090 B( 14-P , 15-S ) :   1.5468 B( 14-P , 16-O ) :   1.0948
B( 14-P , 18-O ) :   1.0797 B( 16-O , 17-C ) :   0.9323 B( 17-C , 32-H ) :   0.9533
B( 17-C , 33-H ) :   0.9347 B( 17-C , 34-H ) :   0.9545 B( 18-O , 19-C ) :   0.9409
B( 19-C , 35-H ) :   0.9510 B( 19-C , 36-H ) :   0.9331 B( 19-C , 37-H ) :   0.9607

Dispersion correction           -0.052940243
FINAL SINGLE POINT ENERGY     -1979.012958280114

DIPOLE MOMENT
-------------

Method             : SCF
Type of density    : Electron Density
Multiplicity       :   1
Irrep              :   0
Energy             : -1979.1427611652688938 Eh
Relativity type    :
Basis              : AO
                                X                 Y                 Z
Electronic contribution:     -3.446762830      -2.294225941      -0.308275104
Nuclear contribution   :      3.826668808       3.597542234      -0.662781930
                        -----------------------------------------
Total Dipole Moment    :      0.379905977       1.303316292      -0.971057033
                        -----------------------------------------
Magnitude (a.u.)       :      1.669105650
Magnitude (Debye)      :      4.242529404

Rotational constants in cm-1:             0.011683             0.008364             0.006002
Rotational constants in MHz :           350.255911           250.738543           179.921077

                             ****ORCA TERMINATED NORMALLY****
TOTAL RUN TIME: 0 days 0 hours 0 minutes 49 seconds 831 msec
