                         Program Version 6.0.1  -  RELEASE   -
|  1> ! pbe def2-sv(p) def2/J RI DEFGRID1 loosescf d4 GCP(DFT/SV(P)) printgap
|  2> %output
|  3>     printlevel normal
|  4> end
|  5> * xyz 0 1
|  6> C 5.3894432649 -1.8223963102 -1.002623136
|  7> C 4.5700764775 -0.541692541 -0.9893910832
|  8> O 3.1647577047 -0.826174109 -1.1264744452
|  9> C 2.4695576883 -1.093032657 -0.038363111
| 10> O 2.9226692739 -1.1136358268 1.0826581217
| 11> C 1.0133829858 -1.376111193 -0.3706453746
| 12> C 0.3979100956 -0.1919720811 -1.121529156
| 13> H 0.9585345918 -0.0067427464 -2.0409834272
| 14> C 0.4123219238 1.04887531 -0.2557486032
| 15> O -0.6045177358 1.5880698329 0.1401286289
| 16> O 1.6198850734 1.4437839799 0.024157491
| 17> C 1.7895324399 2.5467105786 0.945710463
| 18> C 3.2162339013 2.5102136262 1.4547903352
| 19> S -1.3191041692 -0.5114943343 -1.6410555966
| 20> P -2.4473117058 -0.0994694736 0.1112606453
| 21> S -1.7349815034 -0.5070050559 1.9044188255
| 22> O -3.2831883327 1.2332394784 -0.0943141873
| 23> C -3.1865422056 2.4121870828 0.7058446582
| 24> O -3.6997316277 -1.0444989549 -0.2305751261
| 25> C -3.5933784078 -2.4689700363 -0.1861019511
| 26> H 5.1406142955 -2.4340076964 -0.1383542031
| 27> H 5.1865894014 -2.3884231368 -1.907497748
| 28> H 6.4448609279 -1.5737194 -0.9650533602
| 29> H 4.8050258519 0.0889701136 -1.8467245006
| 30> H 4.7247904168 0.0063874671 -0.0563179869
| 31> H 0.4772128463 -1.5683857352 0.5611655948
| 32> H 0.9622313842 -2.2581421047 -1.0097447447
| 33> H 1.5725343683 3.4716190061 0.4044228759
| 34> H 1.0636783242 2.4289334652 1.755674937
| 35> H 3.3556586023 3.301797484 2.1831760212
| 36> H 3.4137099067 1.5513211143 1.9280201526
| 37> H 3.9114425447 2.6513569987 0.6327113849
| 38> H -4.2059783541 2.7658987566 0.8452009924
| 39> H -2.5858085545 3.152680721 0.180906075
| 40> H -2.7285351256 2.184097784 1.6696931094
| 41> H -3.0279898105 -2.8315746488 -1.0449039077
| 42> H -4.6147722136 -2.8396166888 -0.2182986103
| 43> H -3.1068082036 -2.7802870078 0.7408096243
| 44> *
| 45>
| 46>                          ****END OF INPUT****

CARTESIAN COORDINATES (ANGSTROEM)
---------------------------------
  C      5.389443   -1.822396   -1.002623
  C      4.570076   -0.541693   -0.989391
  O      3.164758   -0.826174   -1.126474
  C      2.469558   -1.093033   -0.038363
  O      2.922669   -1.113636    1.082658
  C      1.013383   -1.376111   -0.370645
  C      0.397910   -0.191972   -1.121529
  H      0.958535   -0.006743   -2.040983
  C      0.412322    1.048875   -0.255749
  O     -0.604518    1.588070    0.140129
  O      1.619885    1.443784    0.024157
  C      1.789532    2.546711    0.945710
  C      3.216234    2.510214    1.454790
  S     -1.319104   -0.511494   -1.641056
  P     -2.447312   -0.099469    0.111261
  S     -1.734982   -0.507005    1.904419
  O     -3.283188    1.233239   -0.094314
  C     -3.186542    2.412187    0.705845
  O     -3.699732   -1.044499   -0.230575
  C     -3.593378   -2.468970   -0.186102
  H      5.140614   -2.434008   -0.138354
  H      5.186589   -2.388423   -1.907498
  H      6.444861   -1.573719   -0.965053
  H      4.805026    0.088970   -1.846725
  H      4.724790    0.006387   -0.056318
  H      0.477213   -1.568386    0.561166
  H      0.962231   -2.258142   -1.009745
  H      1.572534    3.471619    0.404423
  H      1.063678    2.428933    1.755675
  H      3.355659    3.301797    2.183176
  H      3.413710    1.551321    1.928020
  H      3.911443    2.651357    0.632711
  H     -4.205978    2.765899    0.845201
  H     -2.585809    3.152681    0.180906
  H     -2.728535    2.184098    1.669693
  H     -3.027990   -2.831575   -1.044904
  H     -4.614772   -2.839617   -0.218299
  H     -3.106808   -2.780287    0.740810

 Total Charge           Charge          ....    0
 Multiplicity           Mult            ....    1
 Number of Electrons    NEL             ....  174
 Basis Dimension        Dim             ....  316

ORBITAL ENERGIES
----------------

  NO   OCC          E(Eh)            E(eV)
   0   2.0000     -88.035791     -2395.5757
   1   2.0000     -87.970901     -2393.8099
   2   2.0000     -76.418684     -2079.4581
   3   2.0000     -18.829885      -512.3872
   4   2.0000     -18.808054      -511.7932
   5   2.0000     -18.776971      -510.9474
   6   2.0000     -18.771037      -510.7859
   7   2.0000     -18.765155      -510.6258
   8   2.0000     -18.741932      -509.9939
   9   2.0000     -10.034397      -273.0498
  10   2.0000     -10.014133      -272.4984
  11   2.0000      -9.962878      -271.1037
  12   2.0000      -9.955679      -270.9078
  13   2.0000      -9.954857      -270.8854
  14   2.0000      -9.931266      -270.2435
  15   2.0000      -9.929399      -270.1927
  16   2.0000      -9.909837      -269.6604
  17   2.0000      -9.896115      -269.2870
  18   2.0000      -9.892529      -269.1894
  19   2.0000      -7.680903      -209.0080
  20   2.0000      -7.615908      -207.2394
  21   2.0000      -6.414070      -174.5357
  22   2.0000      -5.709007      -155.3500
  23   2.0000      -5.705344      -155.2503
  24   2.0000      -5.697667      -155.0414
  25   2.0000      -5.645016      -153.6087
  26   2.0000      -5.636838      -153.3862
  27   2.0000      -5.635564      -153.3515
  28   2.0000      -4.636511      -126.1659
  29   2.0000      -4.636220      -126.1579
  30   2.0000      -4.634725      -126.1173
  31   2.0000      -1.040206       -28.3054
  32   2.0000      -1.015508       -27.6334
  33   2.0000      -0.970424       -26.4066
  34   2.0000      -0.943551       -25.6753
  35   2.0000      -0.924219       -25.1493
  36   2.0000      -0.919440       -25.0192
  37   2.0000      -0.771308       -20.9884
  38   2.0000      -0.721234       -19.6258
  39   2.0000      -0.714138       -19.4327
  40   2.0000      -0.686972       -18.6935
  41   2.0000      -0.655879       -17.8474
  42   2.0000      -0.627359       -17.0713
  43   2.0000      -0.618294       -16.8246
  44   2.0000      -0.609188       -16.5768
  45   2.0000      -0.598418       -16.2838
  46   2.0000      -0.568291       -15.4640
  47   2.0000      -0.526227       -14.3194
  48   2.0000      -0.508192       -13.8286
  49   2.0000      -0.501340       -13.6422
  50   2.0000      -0.487248       -13.2587
  51   2.0000      -0.471456       -12.8290
  52   2.0000      -0.465103       -12.6561
  53   2.0000      -0.459408       -12.5011
  54   2.0000      -0.446325       -12.1451
  55   2.0000      -0.431321       -11.7368
  56   2.0000      -0.421494       -11.4694
  57   2.0000      -0.414902       -11.2901
  58   2.0000      -0.408593       -11.1184
  59   2.0000      -0.406006       -11.0480
  60   2.0000      -0.401391       -10.9224
  61   2.0000      -0.395510       -10.7624
  62   2.0000      -0.387455       -10.5432
  63   2.0000      -0.383273       -10.4294
  64   2.0000      -0.378628       -10.3030
  65   2.0000      -0.374171       -10.1817
  66   2.0000      -0.368403       -10.0248
  67   2.0000      -0.360139        -9.7999
  68   2.0000      -0.348355        -9.4792
  69   2.0000      -0.347241        -9.4489
  70   2.0000      -0.340513        -9.2658
  71   2.0000      -0.332590        -9.0502
  72   2.0000      -0.330641        -8.9972
  73   2.0000      -0.317032        -8.6269
  74   2.0000      -0.309301        -8.4165
  75   2.0000      -0.299380        -8.1465
  76   2.0000      -0.292599        -7.9620
  77   2.0000      -0.286525        -7.7968
  78   2.0000      -0.276882        -7.5343
  79   2.0000      -0.265297        -7.2191
  80   2.0000      -0.261900        -7.1267
  81   2.0000      -0.245671        -6.6851
  82   2.0000      -0.244118        -6.6428
  83   2.0000      -0.230756        -6.2792
  84   2.0000      -0.216061        -5.8793
  85   2.0000      -0.191050        -5.1987
  86   2.0000      -0.183422        -4.9912
  87   0.0000      -0.049890        -1.3576
  88   0.0000      -0.038832        -1.0567
  89   0.0000      -0.023559        -0.6411
  90   0.0000       0.008888         0.2419
  91   0.0000       0.029057         0.7907

MULLIKEN ATOMIC CHARGES
-----------------------
   0 C :   -0.302194
   1 C :   -0.021762
   2 O :   -0.241210
   3 C :    0.105167
   4 O :   -0.195435
   5 C :   -0.043121
   6 C :   -0.324996
   7 H :    0.156979
   8 C :    0.227918
   9 O :   -0.195233
  10 O :   -0.219199
  11 C :   -0.030957
  12 C :   -0.298462
  13 S :   -0.085724
  14 P :    0.623481
  15 S :   -0.344970
  16 O :   -0.368984
  17 C :   -0.082949
  18 O :   -0.375738
  19 C :   -0.099757
  20 H :    0.128889
  21 H :    0.114588
  22 H :    0.113849
  23 H :    0.101496
  24 H :    0.113504
  25 H :    0.122464
  26 H :    0.119824
  27 H :    0.109595
  28 H :    0.127546
  29 H :    0.116464
  30 H :    0.149220
  31 H :    0.115020
  32 H :    0.118546
  33 H :    0.111184
  34 H :    0.115661
  35 H :    0.107297
  36 H :    0.120975
  37 H :    0.111025
Sum of atomic charges:   -0.0000000

LOEWDIN ATOMIC CHARGES
----------------------
   0 C :   -0.355314
   1 C :   -0.111279
   2 O :   -0.063027
   3 C :    0.022802
   4 O :   -0.161006
   5 C :   -0.248326
   6 C :   -0.267937
   7 H :    0.149795
   8 C :    0.032434
   9 O :   -0.147484
  10 O :   -0.029725
  11 C :   -0.100655
  12 C :   -0.354681
  13 S :    0.104638
  14 P :    0.586489
  15 S :   -0.340680
  16 O :   -0.238971
  17 C :   -0.207779
  18 O :   -0.259854
  19 C :   -0.222103
  20 H :    0.131796
  21 H :    0.125223
  22 H :    0.131240
  23 H :    0.117110
  24 H :    0.119961
  25 H :    0.135706
  26 H :    0.143147
  27 H :    0.119193
  28 H :    0.127415
  29 H :    0.133760
  30 H :    0.137501
  31 H :    0.124367
  32 H :    0.117016
  33 H :    0.111083
  34 H :    0.108989
  35 H :    0.102629
  36 H :    0.120301
  37 H :    0.106226

  Mayer bond orders larger than 0.100000
B(  0-C ,  1-C ) :   1.1732 B(  0-C , 20-H ) :   0.9457 B(  0-C , 21-H ) :   0.9486
B(  0-C , 22-H ) :   0.9440 B(  1-C ,  2-O ) :   0.9160 B(  1-C , 23-H ) :   0.9373
B(  1-C , 24-H ) :   0.9103 B(  2-O ,  3-C ) :   1.1956 B(  3-C ,  4-O ) :   2.0466
B(  3-C ,  5-C ) :   1.0172 B(  5-C ,  6-C ) :   1.0248 B(  5-C , 25-H ) :   0.8757
B(  5-C , 26-H ) :   0.8872 B(  6-C ,  7-H ) :   0.8676 B(  6-C ,  8-C ) :   0.9111
B(  6-C , 13-S ) :   1.0307 B(  8-C ,  9-O ) :   1.9283 B(  8-C , 10-O ) :   1.2747
B(  9-O , 14-P ) :   0.1253 B( 10-O , 11-C ) :   0.8802 B( 11-C , 12-C ) :   1.1625
B( 11-C , 27-H ) :   0.9353 B( 11-C , 28-H ) :   0.9226 B( 12-C , 29-H ) :   0.9397
B( 12-C , 30-H ) :   0.9365 B( 12-C , 31-H ) :   0.9456 B( 13-S , 14-P ) :   0.9293
B( 13-S , 15-S ) :   0.1160 B( 14-P , 15-S ) :   1.5551 B( 14-P , 16-O ) :   1.1341
B( 14-P , 18-O ) :   1.0776 B( 16-O , 17-C ) :   0.9295 B( 17-C , 32-H ) :   0.9544
B( 17-C , 33-H ) :   0.9546 B( 17-C , 34-H ) :   0.9348 B( 18-O , 19-C ) :   0.9463
B( 19-C , 35-H ) :   0.9445 B( 19-C , 36-H ) :   0.9596 B( 19-C , 37-H ) :   0.9319

Dispersion correction           -0.052156623
FINAL SINGLE POINT ENERGY     -1979.013456946516

DIPOLE MOMENT
-------------

Method             : SCF
Type of density    : Electron Density
Multiplicity       :   1
Irrep              :   0
Energy             : -1979.1451111339983981 Eh
Relativity type    :
Basis              : AO
                                X                 Y                 Z
Electronic contribution:    -21.108185156      -2.121766994      -2.387419309
Nuclear contribution   :     22.679279590       2.878819711       1.460343381
                        -----------------------------------------
Total Dipole Moment    :      1.571094435       0.757052718      -0.927075928
                        -----------------------------------------
Magnitude (a.u.)       :      1.975078813
Magnitude (Debye)      :      5.020251376

Rotational constants in cm-1:             0.016680             0.006125             0.005271
Rotational constants in MHz :           500.045702           183.626725           158.012974

                             ****ORCA TERMINATED NORMALLY****
TOTAL RUN TIME: 0 days 0 hours 0 minutes 44 seconds 325 msec
