                         Program Version 6.0.0  -   RELEASE  -
|  1> ! wb97x-v def2-tzvp def2/J RIJCOSX DEFGRID2 scfconv7 GCP(DFT/TZ) printgap
|  2> %output
|  3>     printlevel normal
|  4> end
|  5> * xyz 0 1
|  6> C 0.6173722617058912 1.705508355595592 -0.01979718892517628
|  7> C 1.3844523362005796 0.40853765718431817 -0.24578325973335607
|  8> H 1.6108825830026732 0.29166360246595424 -1.3154200355372099
|  9> C 0.5518154956358203 -0.7813625170652071 0.2097628407738527
| 10> H 0.40609249673460984 -0.720785868992452 1.2994743903824129
| 11> C -0.7961048462113899 -0.7428011992430092 -0.4909004672988325
| 12> H -0.6298932431853516 -0.8541680155194118 -1.5721480853191816
| 13> C -1.4880178081548423 0.6125321011549997 -0.28156583865823476
| 14> H -2.3764480919267577 0.6824097890763317 -0.9209612562775614
| 15> O -0.6429004514215847 1.6734880758462554 -0.71742886293439
| 16> O -1.8428447670388237 0.7357916772712891 1.080532683355003
| 17> O -1.5929670076328468 -1.820824621995902 0.0011874165837583303
| 18> O 1.186129553590617 -2.0209138842111782 -0.130105389957285
| 19> O 2.5948383176314977 0.40106190678427683 0.5229313649054078
| 20> H 1.1689333821601844 2.555460239739972 -0.4293792782320338
| 21> H 0.4624370229894627 1.8668747489768085 1.0549389196338221
| 22> H -2.467518941712239 1.4701355706404813 1.1548659907176335
| 23> H -2.372271684735875 -1.889952680968755 -0.5661995772000812
| 24> H 2.0375580349225837 -2.034808210842223 0.32720289523202595
| 25> H 3.2197387038720557 0.9990926644745133 0.09193386635521594
| 26> *
| 27>
| 28>                          ****END OF INPUT****

CARTESIAN COORDINATES (ANGSTROEM)
---------------------------------
  C      0.617372    1.705508   -0.019797
  C      1.384452    0.408538   -0.245783
  H      1.610883    0.291664   -1.315420
  C      0.551815   -0.781363    0.209763
  H      0.406092   -0.720786    1.299474
  C     -0.796105   -0.742801   -0.490900
  H     -0.629893   -0.854168   -1.572148
  C     -1.488018    0.612532   -0.281566
  H     -2.376448    0.682410   -0.920961
  O     -0.642900    1.673488   -0.717429
  O     -1.842845    0.735792    1.080533
  O     -1.592967   -1.820825    0.001187
  O      1.186130   -2.020914   -0.130105
  O      2.594838    0.401062    0.522931
  H      1.168933    2.555460   -0.429379
  H      0.462437    1.866875    1.054939
  H     -2.467519    1.470136    1.154866
  H     -2.372272   -1.889953   -0.566200
  H      2.037558   -2.034808    0.327203
  H      3.219739    0.999093    0.091934

 Total Charge           Charge          ....    0
 Multiplicity           Mult            ....    1
 Number of Electrons    NEL             ....   80
 Basis Dimension        Dim             ....  370

ORBITAL ENERGIES
----------------

  NO   OCC          E(Eh)            E(eV)
   0   2.0000     -21.690738      -590.2350
   1   2.0000     -21.689850      -590.2108
   2   2.0000     -21.688589      -590.1765
   3   2.0000     -21.672968      -589.7514
   4   2.0000     -21.665224      -589.5407
   5   2.0000     -12.155965      -330.7806
   6   2.0000     -12.106154      -329.4252
   7   2.0000     -12.105434      -329.4056
   8   2.0000     -12.100147      -329.2617
   9   2.0000     -12.098943      -329.2290
  10   2.0000      -1.719594       -46.7925
  11   2.0000      -1.691865       -46.0380
  12   2.0000      -1.677896       -45.6579
  13   2.0000      -1.675759       -45.5997
  14   2.0000      -1.665398       -45.3178
  15   2.0000      -1.331321       -36.2271
  16   2.0000      -1.304545       -35.4985
  17   2.0000      -1.197391       -32.5827
  18   2.0000      -1.188694       -32.3460
  19   2.0000      -1.118887       -30.4465
  20   2.0000      -1.084463       -29.5098
  21   2.0000      -1.055775       -28.7291
  22   2.0000      -1.042988       -28.3811
  23   2.0000      -1.037970       -28.2446
  24   2.0000      -1.014723       -27.6120
  25   2.0000      -0.990876       -26.9631
  26   2.0000      -0.979007       -26.6401
  27   2.0000      -0.968160       -26.3450
  28   2.0000      -0.961297       -26.1582
  29   2.0000      -0.946100       -25.7447
  30   2.0000      -0.934529       -25.4298
  31   2.0000      -0.923078       -25.1182
  32   2.0000      -0.917218       -24.9588
  33   2.0000      -0.889865       -24.2145
  34   2.0000      -0.882032       -24.0013
  35   2.0000      -0.851219       -23.1628
  36   2.0000      -0.819495       -22.2996
  37   2.0000      -0.815340       -22.1865
  38   2.0000      -0.803912       -21.8756
  39   2.0000      -0.774007       -21.0618
  40   0.0000      -0.235570        -6.4102
  41   0.0000      -0.176728        -4.8090
  42   0.0000      -0.159245        -4.3333
  43   0.0000      -0.148361        -4.0371
  44   0.0000      -0.116227        -3.1627

MULLIKEN ATOMIC CHARGES
-----------------------
   0 C :   -0.015382
   1 C :   -0.040086
   2 H :    0.082097
   3 C :    0.106969
   4 H :    0.102364
   5 C :    0.090307
   6 H :    0.081033
   7 C :    0.047778
   8 H :    0.092466
   9 O :   -0.293371
  10 O :   -0.399389
  11 O :   -0.405695
  12 O :   -0.433501
  13 O :   -0.444468
  14 H :    0.107472
  15 H :    0.103621
  16 H :    0.307097
  17 H :    0.294274
  18 H :    0.308837
  19 H :    0.307578
Sum of atomic charges:   -0.0000000

LOEWDIN ATOMIC CHARGES
----------------------
   0 C :   -0.280833
   1 C :   -0.336025
   2 H :    0.137967
   3 C :   -0.301876
   4 H :    0.149955
   5 C :   -0.308877
   6 H :    0.144210
   7 C :   -0.417475
   8 H :    0.126124
   9 O :    0.158034
  10 O :    0.008363
  11 O :    0.003863
  12 O :   -0.010241
  13 O :   -0.018988
  14 H :    0.124903
  15 H :    0.127573
  16 H :    0.176264
  17 H :    0.170440
  18 H :    0.173248
  19 H :    0.173371

  Mayer bond orders larger than 0.100000
B(  0-C ,  1-C ) :   0.9565 B(  0-C ,  9-O ) :   0.9809 B(  0-C , 14-H ) :   0.9568
B(  0-C , 15-H ) :   0.9662 B(  1-C ,  2-H ) :   0.9819 B(  1-C ,  3-C ) :   0.9457
B(  1-C , 13-O ) :   1.0890 B(  3-C ,  4-H ) :   0.9654 B(  3-C ,  5-C ) :   0.9497
B(  3-C , 12-O ) :   1.0931 B(  5-C ,  6-H ) :   0.9636 B(  5-C ,  7-C ) :   0.9610
B(  5-C , 11-O ) :   1.0940 B(  7-C ,  8-H ) :   0.9478 B(  7-C ,  9-O ) :   1.0560
B(  7-C , 10-O ) :   1.2459 B( 10-O , 16-H ) :   0.8941 B( 11-O , 17-H ) :   0.9046
B( 12-O , 18-H ) :   0.8922 B( 13-O , 19-H ) :   0.9008

FINAL SINGLE POINT ENERGY      -572.698196546963

DIPOLE MOMENT
-------------

Method             : SCF
Type of density    : Electron Density
Multiplicity       :   1
Irrep              :   0
Energy             :  -572.7136772525628885 Eh
Relativity type    :
Basis              : AO
                                X                 Y                 Z
Electronic contribution:     -1.076671050      -1.037289628       0.307945655
Nuclear contribution   :      1.018478992       2.183882801      -0.891095196
                        -----------------------------------------
Total Dipole Moment    :     -0.058192058       1.146593173      -0.583149541
                        -----------------------------------------
Magnitude (a.u.)       :      1.287682262
Magnitude (Debye)      :      3.273028197

Rotational constants in cm-1:             0.056341             0.044283             0.028723
Rotational constants in MHz :          1689.059310          1327.582864           861.093747

                             ****ORCA TERMINATED NORMALLY****
TOTAL RUN TIME: 0 days 0 hours 4 minutes 6 seconds 566 msec
