                         Program Version 6.0.0  -   RELEASE  -
|  1> ! r2scan-3c def2/J RI DEFGRID2 scfconv6 printgap
|  2> %output
|  3>     printlevel normal
|  4> end
|  5> * xyz 0 1
|  6> C 1.1248870707 0.1579318551 2.919502659
|  7> C 2.6207151693 0.0569272799 2.7020286801
|  8> O 3.0147907893 0.5671107374 1.4165813372
|  9> P 2.6647675373 -0.1823551842 0.0581645586
| 10> S 2.7756691842 -2.1424652195 0.1425813015
| 11> O 3.6413838703 0.5280819242 -0.9651413584
| 12> C 4.9867984767 0.0613452401 -1.1991814867
| 13> C 5.8743063003 0.2346300372 0.0157090525
| 14> S 0.8575900091 0.6764670601 -0.6463263424
| 15> C -0.1028862119 -0.8404392447 -0.9370567617
| 16> S -1.4065560709 -1.0931159192 0.2872549582
| 17> P -2.7723627791 0.3109832245 -0.558608554
| 18> S -2.9165148342 0.284250646 -2.5081910322
| 19> O -2.3081948442 1.7190306759 -0.0285013654
| 20> C -2.175247381 2.0319785029 1.3824755093
| 21> C -1.1881818024 3.1735829824 1.5100421619
| 22> O -4.117214288 0.0754214544 0.2561021592
| 23> C -5.1083832664 -0.8950101044 -0.129762695
| 24> C -4.586339581 -2.3149820392 -0.055909231
| 25> H 0.6011721687 -0.5072305035 2.2325662679
| 26> H 0.8885026321 -0.1375481383 3.936615862
| 27> H 0.789995954 1.1783408916 2.7528963226
| 28> H 2.9507529944 -0.9842382304 2.7780806683
| 29> H 3.1731949524 0.67551981 3.4105387827
| 30> H 4.9394420341 -0.9912294759 -1.4964735102
| 31> H 5.3276417976 0.6679737861 -2.0392789589
| 32> H 5.5454889314 -0.4276426413 0.8152416651
| 33> H 6.8970899195 -0.0145588541 -0.2495847259
| 34> H 5.8308611012 1.2616946749 0.3683663635
| 35> H 0.5638221733 -1.7033500647 -0.8793183764
| 36> H -0.5644431627 -0.7586799542 -1.92175812
| 37> H -3.1638448889 2.3087199229 1.7529414925
| 38> H -1.8299786577 1.1369659623 1.9086285691
| 39> H -1.5500418747 4.0402024726 0.964559617
| 40> H -1.0722118882 3.4306498496 2.5581767928
| 41> H -0.2261315801 2.8841558374 1.0935710465
| 42> H -5.9215975286 -0.7269629319 0.5777759546
| 43> H -5.4423468383 -0.6602816791 -1.1449121712
| 44> H -5.40510979 -3.0063986337 -0.2272923388
| 45> H -3.8272408768 -2.4735806421 -0.8205019005
| 46> H -4.1474870157 -2.5081827389 0.9197677305
| 47> *
| 48>
| 49>                          ****END OF INPUT****

CARTESIAN COORDINATES (ANGSTROEM)
---------------------------------
  C      1.124887    0.157932    2.919503
  C      2.620715    0.056927    2.702029
  O      3.014791    0.567111    1.416581
  P      2.664768   -0.182355    0.058165
  S      2.775669   -2.142465    0.142581
  O      3.641384    0.528082   -0.965141
  C      4.986798    0.061345   -1.199181
  C      5.874306    0.234630    0.015709
  S      0.857590    0.676467   -0.646326
  C     -0.102886   -0.840439   -0.937057
  S     -1.406556   -1.093116    0.287255
  P     -2.772363    0.310983   -0.558609
  S     -2.916515    0.284251   -2.508191
  O     -2.308195    1.719031   -0.028501
  C     -2.175247    2.031979    1.382476
  C     -1.188182    3.173583    1.510042
  O     -4.117214    0.075421    0.256102
  C     -5.108383   -0.895010   -0.129763
  C     -4.586340   -2.314982   -0.055909
  H      0.601172   -0.507231    2.232566
  H      0.888503   -0.137548    3.936616
  H      0.789996    1.178341    2.752896
  H      2.950753   -0.984238    2.778081
  H      3.173195    0.675520    3.410539
  H      4.939442   -0.991229   -1.496474
  H      5.327642    0.667974   -2.039279
  H      5.545489   -0.427643    0.815242
  H      6.897090   -0.014559   -0.249585
  H      5.830861    1.261695    0.368366
  H      0.563822   -1.703350   -0.879318
  H     -0.564443   -0.758680   -1.921758
  H     -3.163845    2.308720    1.752941
  H     -1.829979    1.136966    1.908629
  H     -1.550042    4.040202    0.964560
  H     -1.072212    3.430650    2.558177
  H     -0.226132    2.884156    1.093571
  H     -5.921598   -0.726963    0.577776
  H     -5.442347   -0.660282   -1.144912
  H     -5.405110   -3.006399   -0.227292
  H     -3.827241   -2.473581   -0.820502
  H     -4.147487   -2.508183    0.919768

 Total Charge           Charge          ....    0
 Multiplicity           Mult            ....    1
 Number of Electrons    NEL             ....  202
 Basis Dimension        Dim             ....  539

ORBITAL ENERGIES
----------------

  NO   OCC          E(Eh)            E(eV)
   0   2.0000     -88.575014     -2410.2487
   1   2.0000     -88.574640     -2410.2385
   2   2.0000     -88.528387     -2408.9799
   3   2.0000     -88.520368     -2408.7617
   4   2.0000     -76.916699     -2093.0098
   5   2.0000     -76.914369     -2092.9464
   6   2.0000     -18.996547      -516.9223
   7   2.0000     -18.995084      -516.8825
   8   2.0000     -18.992476      -516.8116
   9   2.0000     -18.991004      -516.7715
  10   2.0000     -10.102575      -274.9050
  11   2.0000     -10.102346      -274.8988
  12   2.0000     -10.102157      -274.8937
  13   2.0000     -10.100107      -274.8379
  14   2.0000     -10.099758      -274.8284
  15   2.0000     -10.032538      -272.9992
  16   2.0000     -10.032521      -272.9988
  17   2.0000     -10.031018      -272.9579
  18   2.0000     -10.030509      -272.9440
  19   2.0000      -7.869440      -214.1383
  20   2.0000      -7.868802      -214.1210
  21   2.0000      -7.823111      -212.8777
  22   2.0000      -7.815054      -212.6584
  23   2.0000      -6.595393      -179.4698
  24   2.0000      -6.592986      -179.4043
  25   2.0000      -5.816128      -158.2649
  26   2.0000      -5.815713      -158.2536
  27   2.0000      -5.813295      -158.1878
  28   2.0000      -5.812766      -158.1734
  29   2.0000      -5.806733      -158.0092
  30   2.0000      -5.805786      -157.9835
  31   2.0000      -5.770627      -157.0267
  32   2.0000      -5.763593      -156.8353
  33   2.0000      -5.763049      -156.8205
  34   2.0000      -5.762752      -156.8125
  35   2.0000      -5.755277      -156.6091
  36   2.0000      -5.755079      -156.6037
  37   2.0000      -4.740614      -128.9987
  38   2.0000      -4.740151      -128.9861
  39   2.0000      -4.739521      -128.9689
  40   2.0000      -4.738878      -128.9514
  41   2.0000      -4.737850      -128.9235
  42   2.0000      -4.736405      -128.8841
  43   2.0000      -1.053544       -28.6684
  44   2.0000      -1.052313       -28.6349
  45   2.0000      -1.013282       -27.5728
  46   2.0000      -1.012546       -27.5528
  47   2.0000      -0.799162       -21.7463
  48   2.0000      -0.761458       -20.7203
  49   2.0000      -0.752867       -20.4865
  50   2.0000      -0.735847       -20.0234
  51   2.0000      -0.734775       -19.9942
  52   2.0000      -0.713706       -19.4209
  53   2.0000      -0.688252       -18.7283
  54   2.0000      -0.670166       -18.2361
  55   2.0000      -0.637698       -17.3526
  56   2.0000      -0.624965       -17.0062
  57   2.0000      -0.608842       -16.5674
  58   2.0000      -0.606815       -16.5123
  59   2.0000      -0.588127       -16.0037
  60   2.0000      -0.532166       -14.4810
  61   2.0000      -0.520584       -14.1658
  62   2.0000      -0.496137       -13.5006
  63   2.0000      -0.495248       -13.4764
  64   2.0000      -0.479214       -13.0401
  65   2.0000      -0.464462       -12.6387
  66   2.0000      -0.461445       -12.5566
  67   2.0000      -0.457634       -12.4529
  68   2.0000      -0.451538       -12.2870
  69   2.0000      -0.439566       -11.9612
  70   2.0000      -0.427065       -11.6210
  71   2.0000      -0.413789       -11.2598
  72   2.0000      -0.410021       -11.1572
  73   2.0000      -0.409441       -11.1414
  74   2.0000      -0.399815       -10.8795
  75   2.0000      -0.390782       -10.6337
  76   2.0000      -0.382599       -10.4111
  77   2.0000      -0.374528       -10.1914
  78   2.0000      -0.373406       -10.1609
  79   2.0000      -0.370759       -10.0889
  80   2.0000      -0.365400        -9.9430
  81   2.0000      -0.358887        -9.7658
  82   2.0000      -0.358195        -9.7470
  83   2.0000      -0.355323        -9.6688
  84   2.0000      -0.350714        -9.5434
  85   2.0000      -0.332316        -9.0428
  86   2.0000      -0.327315        -8.9067
  87   2.0000      -0.319577        -8.6961
  88   2.0000      -0.314044        -8.5456
  89   2.0000      -0.311071        -8.4647
  90   2.0000      -0.303821        -8.2674
  91   2.0000      -0.291400        -7.9294
  92   2.0000      -0.286553        -7.7975
  93   2.0000      -0.282002        -7.6737
  94   2.0000      -0.274795        -7.4776
  95   2.0000      -0.244307        -6.6479
  96   2.0000      -0.233853        -6.3635
  97   2.0000      -0.230419        -6.2700
  98   2.0000      -0.222975        -6.0674
  99   2.0000      -0.220169        -5.9911
 100   2.0000      -0.212187        -5.7739
 101   0.0000      -0.045048        -1.2258
 102   0.0000      -0.032962        -0.8969
 103   0.0000      -0.012736        -0.3466
 104   0.0000       0.002772         0.0754
 105   0.0000       0.018065         0.4916

MULLIKEN ATOMIC CHARGES
-----------------------
   0 C :   -0.453035
   1 C :   -0.145523
   2 O :   -0.276348
   3 P :    0.663081
   4 S :   -0.486726
   5 O :   -0.298257
   6 C :   -0.152377
   7 C :   -0.435991
   8 S :   -0.088400
   9 C :   -0.254808
  10 S :   -0.154133
  11 P :    0.639938
  12 S :   -0.435877
  13 O :   -0.266762
  14 C :   -0.107864
  15 C :   -0.463635
  16 O :   -0.294553
  17 C :   -0.158620
  18 C :   -0.452753
  19 H :    0.176205
  20 H :    0.148497
  21 H :    0.159552
  22 H :    0.169728
  23 H :    0.148827
  24 H :    0.170415
  25 H :    0.151352
  26 H :    0.164677
  27 H :    0.147905
  28 H :    0.157130
  29 H :    0.216146
  30 H :    0.215953
  31 H :    0.155823
  32 H :    0.158844
  33 H :    0.157788
  34 H :    0.146782
  35 H :    0.169316
  36 H :    0.148145
  37 H :    0.173571
  38 H :    0.148785
  39 H :    0.182948
  40 H :    0.154255
Sum of atomic charges:   -0.0000000

LOEWDIN ATOMIC CHARGES
----------------------
   0 C :   -0.409167
   1 C :    0.020222
   2 O :   -0.666863
   3 P :    0.385788
   4 S :   -0.134727
   5 O :   -0.665478
   6 C :    0.025256
   7 C :   -0.399561
   8 S :    0.179993
   9 C :   -0.422681
  10 S :    0.121853
  11 P :    0.373966
  12 S :   -0.102936
  13 O :   -0.654169
  14 C :    0.021067
  15 C :   -0.395711
  16 O :   -0.663458
  17 C :    0.024028
  18 C :   -0.408584
  19 H :    0.167364
  20 H :    0.159692
  21 H :    0.161928
  22 H :    0.179587
  23 H :    0.179621
  24 H :    0.179290
  25 H :    0.181390
  26 H :    0.163717
  27 H :    0.159672
  28 H :    0.161996
  29 H :    0.197158
  30 H :    0.193462
  31 H :    0.174906
  32 H :    0.176363
  33 H :    0.162912
  34 H :    0.158783
  35 H :    0.165485
  36 H :    0.179768
  37 H :    0.180430
  38 H :    0.160136
  39 H :    0.167665
  40 H :    0.159836

  Mayer bond orders larger than 0.100000
B(  0-C ,  1-C ) :   0.9315 B(  0-C , 19-H ) :   0.9530 B(  0-C , 20-H ) :   0.9590
B(  0-C , 21-H ) :   0.9652 B(  1-C ,  2-O ) :   0.8055 B(  1-C , 22-H ) :   0.9631
B(  1-C , 23-H ) :   0.9590 B(  2-O ,  3-P ) :   1.0638 B(  3-P ,  4-S ) :   1.7315
B(  3-P ,  5-O ) :   1.1848 B(  3-P ,  8-S ) :   1.0818 B(  5-O ,  6-C ) :   0.8147
B(  6-C ,  7-C ) :   0.9260 B(  6-C , 24-H ) :   0.9673 B(  6-C , 25-H ) :   0.9603
B(  7-C , 26-H ) :   0.9607 B(  7-C , 27-H ) :   0.9607 B(  7-C , 28-H ) :   0.9700
B(  8-S ,  9-C ) :   0.9173 B(  9-C , 10-S ) :   0.9171 B(  9-C , 29-H ) :   0.8889
B(  9-C , 30-H ) :   0.9065 B( 10-S , 11-P ) :   1.0009 B( 11-P , 12-S ) :   1.8586
B( 11-P , 13-O ) :   1.1517 B( 11-P , 16-O ) :   1.0409 B( 13-O , 14-C ) :   0.7332
B( 14-C , 15-C ) :   0.9409 B( 14-C , 31-H ) :   0.9450 B( 14-C , 32-H ) :   0.9508
B( 15-C , 33-H ) :   0.9666 B( 15-C , 34-H ) :   0.9682 B( 15-C , 35-H ) :   0.9671
B( 16-O , 17-C ) :   0.8197 B( 17-C , 18-C ) :   0.9155 B( 17-C , 36-H ) :   0.9617
B( 17-C , 37-H ) :   0.9684 B( 18-C , 38-H ) :   0.9554 B( 18-C , 39-H ) :   0.9618
B( 18-C , 40-H ) :   0.9680

Dispersion correction           -0.021159385
FINAL SINGLE POINT ENERGY     -2932.462683503938

DIPOLE MOMENT
-------------

Method             : SCF
Type of density    : Electron Density
Multiplicity       :   1
Irrep              :   0
Energy             : -2932.4883044204457292 Eh
Relativity type    :
Basis              : AO
                                X                 Y                 Z
Electronic contribution:     -3.986482881      -2.283731304     -15.025892719
Nuclear contribution   :      4.207634962       2.512088232      16.757638044
                        -----------------------------------------
Total Dipole Moment    :      0.221152082       0.228356928       1.731745325
                        -----------------------------------------
Magnitude (a.u.)       :      1.760680835
Magnitude (Debye)      :      4.475295024

Rotational constants in cm-1:             0.014170             0.004114             0.003950
Rotational constants in MHz :           424.799648           123.325293           118.406934

                             ****ORCA TERMINATED NORMALLY****
TOTAL RUN TIME: 0 days 0 hours 1 minutes 21 seconds 68 msec
