                         Program Version 6.0.0  -   RELEASE  -
|  1> ! r2scan-3c def2/J RI DEFGRID2 scfconv6 printgap
|  2> %output
|  3>     printlevel normal
|  4> end
|  5> %cpcm
|  6>     smd true
|  7>     smdsolvent "water"
|  8> end
|  9> * xyz 0 1
| 10> C 1.1248870707 0.1579318551 2.919502659
| 11> C 2.6207151693 0.0569272799 2.7020286801
| 12> O 3.0147907893 0.5671107374 1.4165813372
| 13> P 2.6647675373 -0.1823551842 0.0581645586
| 14> S 2.7756691842 -2.1424652195 0.1425813015
| 15> O 3.6413838703 0.5280819242 -0.9651413584
| 16> C 4.9867984767 0.0613452401 -1.1991814867
| 17> C 5.8743063003 0.2346300372 0.0157090525
| 18> S 0.8575900091 0.6764670601 -0.6463263424
| 19> C -0.1028862119 -0.8404392447 -0.9370567617
| 20> S -1.4065560709 -1.0931159192 0.2872549582
| 21> P -2.7723627791 0.3109832245 -0.558608554
| 22> S -2.9165148342 0.284250646 -2.5081910322
| 23> O -2.3081948442 1.7190306759 -0.0285013654
| 24> C -2.175247381 2.0319785029 1.3824755093
| 25> C -1.1881818024 3.1735829824 1.5100421619
| 26> O -4.117214288 0.0754214544 0.2561021592
| 27> C -5.1083832664 -0.8950101044 -0.129762695
| 28> C -4.586339581 -2.3149820392 -0.055909231
| 29> H 0.6011721687 -0.5072305035 2.2325662679
| 30> H 0.8885026321 -0.1375481383 3.936615862
| 31> H 0.789995954 1.1783408916 2.7528963226
| 32> H 2.9507529944 -0.9842382304 2.7780806683
| 33> H 3.1731949524 0.67551981 3.4105387827
| 34> H 4.9394420341 -0.9912294759 -1.4964735102
| 35> H 5.3276417976 0.6679737861 -2.0392789589
| 36> H 5.5454889314 -0.4276426413 0.8152416651
| 37> H 6.8970899195 -0.0145588541 -0.2495847259
| 38> H 5.8308611012 1.2616946749 0.3683663635
| 39> H 0.5638221733 -1.7033500647 -0.8793183764
| 40> H -0.5644431627 -0.7586799542 -1.92175812
| 41> H -3.1638448889 2.3087199229 1.7529414925
| 42> H -1.8299786577 1.1369659623 1.9086285691
| 43> H -1.5500418747 4.0402024726 0.964559617
| 44> H -1.0722118882 3.4306498496 2.5581767928
| 45> H -0.2261315801 2.8841558374 1.0935710465
| 46> H -5.9215975286 -0.7269629319 0.5777759546
| 47> H -5.4423468383 -0.6602816791 -1.1449121712
| 48> H -5.40510979 -3.0063986337 -0.2272923388
| 49> H -3.8272408768 -2.4735806421 -0.8205019005
| 50> H -4.1474870157 -2.5081827389 0.9197677305
| 51> *
| 52>
| 53>                          ****END OF INPUT****

CARTESIAN COORDINATES (ANGSTROEM)
---------------------------------
  C      1.124887    0.157932    2.919503
  C      2.620715    0.056927    2.702029
  O      3.014791    0.567111    1.416581
  P      2.664768   -0.182355    0.058165
  S      2.775669   -2.142465    0.142581
  O      3.641384    0.528082   -0.965141
  C      4.986798    0.061345   -1.199181
  C      5.874306    0.234630    0.015709
  S      0.857590    0.676467   -0.646326
  C     -0.102886   -0.840439   -0.937057
  S     -1.406556   -1.093116    0.287255
  P     -2.772363    0.310983   -0.558609
  S     -2.916515    0.284251   -2.508191
  O     -2.308195    1.719031   -0.028501
  C     -2.175247    2.031979    1.382476
  C     -1.188182    3.173583    1.510042
  O     -4.117214    0.075421    0.256102
  C     -5.108383   -0.895010   -0.129763
  C     -4.586340   -2.314982   -0.055909
  H      0.601172   -0.507231    2.232566
  H      0.888503   -0.137548    3.936616
  H      0.789996    1.178341    2.752896
  H      2.950753   -0.984238    2.778081
  H      3.173195    0.675520    3.410539
  H      4.939442   -0.991229   -1.496474
  H      5.327642    0.667974   -2.039279
  H      5.545489   -0.427643    0.815242
  H      6.897090   -0.014559   -0.249585
  H      5.830861    1.261695    0.368366
  H      0.563822   -1.703350   -0.879318
  H     -0.564443   -0.758680   -1.921758
  H     -3.163845    2.308720    1.752941
  H     -1.829979    1.136966    1.908629
  H     -1.550042    4.040202    0.964560
  H     -1.072212    3.430650    2.558177
  H     -0.226132    2.884156    1.093571
  H     -5.921598   -0.726963    0.577776
  H     -5.442347   -0.660282   -1.144912
  H     -5.405110   -3.006399   -0.227292
  H     -3.827241   -2.473581   -0.820502
  H     -4.147487   -2.508183    0.919768

 Total Charge           Charge          ....    0
 Multiplicity           Mult            ....    1
 Number of Electrons    NEL             ....  202
 Basis Dimension        Dim             ....  539

ORBITAL ENERGIES
----------------

  NO   OCC          E(Eh)            E(eV)
   0   2.0000     -88.579792     -2410.3787
   1   2.0000     -88.578934     -2410.3553
   2   2.0000     -88.533939     -2409.1310
   3   2.0000     -88.531890     -2409.0752
   4   2.0000     -76.921339     -2093.1360
   5   2.0000     -76.920931     -2093.1249
   6   2.0000     -18.998318      -516.9705
   7   2.0000     -18.996933      -516.9328
   8   2.0000     -18.995429      -516.8919
   9   2.0000     -18.994186      -516.8581
  10   2.0000     -10.103184      -274.9216
  11   2.0000     -10.092393      -274.6280
  12   2.0000     -10.091815      -274.6122
  13   2.0000     -10.090455      -274.5752
  14   2.0000     -10.090060      -274.5645
  15   2.0000     -10.019578      -272.6466
  16   2.0000     -10.019395      -272.6416
  17   2.0000     -10.019043      -272.6320
  18   2.0000     -10.018666      -272.6218
  19   2.0000      -7.874080      -214.2646
  20   2.0000      -7.873322      -214.2440
  21   2.0000      -7.828887      -213.0349
  22   2.0000      -7.826951      -212.9822
  23   2.0000      -6.599999      -179.5951
  24   2.0000      -6.599662      -179.5859
  25   2.0000      -5.820949      -158.3961
  26   2.0000      -5.820051      -158.3716
  27   2.0000      -5.818026      -158.3165
  28   2.0000      -5.817211      -158.2944
  29   2.0000      -5.811118      -158.1286
  30   2.0000      -5.810541      -158.1129
  31   2.0000      -5.776375      -157.1831
  32   2.0000      -5.774523      -157.1327
  33   2.0000      -5.769340      -156.9917
  34   2.0000      -5.768844      -156.9782
  35   2.0000      -5.767150      -156.9321
  36   2.0000      -5.767053      -156.9295
  37   2.0000      -4.745835      -129.1407
  38   2.0000      -4.744859      -129.1142
  39   2.0000      -4.744816      -129.1130
  40   2.0000      -4.744397      -129.1016
  41   2.0000      -4.743857      -129.0869
  42   2.0000      -4.743562      -129.0789
  43   2.0000      -1.056293       -28.7432
  44   2.0000      -1.053645       -28.6712
  45   2.0000      -1.014618       -27.6092
  46   2.0000      -1.013965       -27.5914
  47   2.0000      -0.802967       -21.8498
  48   2.0000      -0.758563       -20.6415
  49   2.0000      -0.746530       -20.3141
  50   2.0000      -0.726438       -19.7674
  51   2.0000      -0.724356       -19.7107
  52   2.0000      -0.712374       -19.3847
  53   2.0000      -0.691775       -18.8242
  54   2.0000      -0.676621       -18.4118
  55   2.0000      -0.635143       -17.2831
  56   2.0000      -0.620914       -16.8959
  57   2.0000      -0.600633       -16.3441
  58   2.0000      -0.600058       -16.3284
  59   2.0000      -0.588111       -16.0033
  60   2.0000      -0.528373       -14.3778
  61   2.0000      -0.515662       -14.0319
  62   2.0000      -0.492185       -13.3930
  63   2.0000      -0.490540       -13.3483
  64   2.0000      -0.480006       -13.0616
  65   2.0000      -0.462064       -12.5734
  66   2.0000      -0.455056       -12.3827
  67   2.0000      -0.452125       -12.3030
  68   2.0000      -0.446659       -12.1542
  69   2.0000      -0.436346       -11.8736
  70   2.0000      -0.422315       -11.4918
  71   2.0000      -0.408106       -11.1051
  72   2.0000      -0.407507       -11.0888
  73   2.0000      -0.406653       -11.0656
  74   2.0000      -0.397089       -10.8053
  75   2.0000      -0.389961       -10.6114
  76   2.0000      -0.380122       -10.3437
  77   2.0000      -0.371007       -10.0956
  78   2.0000      -0.365811        -9.9542
  79   2.0000      -0.360319        -9.8048
  80   2.0000      -0.354104        -9.6356
  81   2.0000      -0.352526        -9.5927
  82   2.0000      -0.350055        -9.5255
  83   2.0000      -0.348589        -9.4856
  84   2.0000      -0.345397        -9.3987
  85   2.0000      -0.329114        -8.9557
  86   2.0000      -0.324079        -8.8186
  87   2.0000      -0.317139        -8.6298
  88   2.0000      -0.307961        -8.3801
  89   2.0000      -0.305714        -8.3189
  90   2.0000      -0.301871        -8.2143
  91   2.0000      -0.289721        -7.8837
  92   2.0000      -0.284719        -7.7476
  93   2.0000      -0.281274        -7.6538
  94   2.0000      -0.276426        -7.5219
  95   2.0000      -0.248584        -6.7643
  96   2.0000      -0.240175        -6.5355
  97   2.0000      -0.237638        -6.4665
  98   2.0000      -0.231305        -6.2941
  99   2.0000      -0.231142        -6.2897
 100   2.0000      -0.220771        -6.0075
 101   0.0000      -0.051300        -1.3960
 102   0.0000      -0.039425        -1.0728
 103   0.0000      -0.016353        -0.4450
 104   0.0000      -0.002226        -0.0606
 105   0.0000       0.013992         0.3807

MULLIKEN ATOMIC CHARGES
-----------------------
   0 C :   -0.478372
   1 C :   -0.143513
   2 O :   -0.300162
   3 P :    0.692289
   4 S :   -0.520281
   5 O :   -0.331691
   6 C :   -0.149386
   7 C :   -0.475740
   8 S :   -0.114141
   9 C :   -0.260278
  10 S :   -0.145190
  11 P :    0.655520
  12 S :   -0.496143
  13 O :   -0.297852
  14 C :   -0.104749
  15 C :   -0.493964
  16 O :   -0.313125
  17 C :   -0.152035
  18 C :   -0.489207
  19 H :    0.163524
  20 H :    0.173703
  21 H :    0.177357
  22 H :    0.174830
  23 H :    0.175929
  24 H :    0.176874
  25 H :    0.175818
  26 H :    0.168545
  27 H :    0.172639
  28 H :    0.169390
  29 H :    0.227138
  30 H :    0.226434
  31 H :    0.177449
  32 H :    0.173976
  33 H :    0.167900
  34 H :    0.173347
  35 H :    0.167556
  36 H :    0.176508
  37 H :    0.179559
  38 H :    0.173841
  39 H :    0.175411
  40 H :    0.170290
Sum of atomic charges:   -0.0000000

LOEWDIN ATOMIC CHARGES
----------------------
   0 C :   -0.408883
   1 C :    0.026302
   2 O :   -0.676229
   3 P :    0.389361
   4 S :   -0.155038
   5 O :   -0.684062
   6 C :    0.029419
   7 C :   -0.402460
   8 S :    0.164288
   9 C :   -0.420747
  10 S :    0.131044
  11 P :    0.376968
  12 S :   -0.148250
  13 O :   -0.674911
  14 C :    0.028696
  15 C :   -0.397454
  16 O :   -0.668506
  17 C :    0.029991
  18 C :   -0.410902
  19 H :    0.161424
  20 H :    0.169303
  21 H :    0.167200
  22 H :    0.181648
  23 H :    0.191351
  24 H :    0.181739
  25 H :    0.191484
  26 H :    0.162887
  27 H :    0.169081
  28 H :    0.164673
  29 H :    0.200352
  30 H :    0.195522
  31 H :    0.184554
  32 H :    0.182611
  33 H :    0.164230
  34 H :    0.170328
  35 H :    0.163340
  36 H :    0.192043
  37 H :    0.181968
  38 H :    0.169341
  39 H :    0.162268
  40 H :    0.164028

  Mayer bond orders larger than 0.100000
B(  0-C ,  1-C ) :   0.9197 B(  0-C , 19-H ) :   0.9552 B(  0-C , 20-H ) :   0.9540
B(  0-C , 21-H ) :   0.9627 B(  1-C ,  2-O ) :   0.7909 B(  1-C , 22-H ) :   0.9603
B(  1-C , 23-H ) :   0.9488 B(  2-O ,  3-P ) :   1.0759 B(  3-P ,  4-S ) :   1.7120
B(  3-P ,  5-O ) :   1.1855 B(  3-P ,  8-S ) :   1.0840 B(  5-O ,  6-C ) :   0.8035
B(  6-C ,  7-C ) :   0.9141 B(  6-C , 24-H ) :   0.9624 B(  6-C , 25-H ) :   0.9506
B(  7-C , 26-H ) :   0.9590 B(  7-C , 27-H ) :   0.9546 B(  7-C , 28-H ) :   0.9692
B(  8-S ,  9-C ) :   0.9068 B(  9-C , 10-S ) :   0.9139 B(  9-C , 29-H ) :   0.8874
B(  9-C , 30-H ) :   0.9042 B( 10-S , 11-P ) :   1.0145 B( 11-P , 12-S ) :   1.8277
B( 11-P , 13-O ) :   1.1605 B( 11-P , 16-O ) :   1.0532 B( 13-O , 14-C ) :   0.7246
B( 14-C , 15-C ) :   0.9348 B( 14-C , 31-H ) :   0.9346 B( 14-C , 32-H ) :   0.9437
B( 15-C , 33-H ) :   0.9668 B( 15-C , 34-H ) :   0.9602 B( 15-C , 35-H ) :   0.9668
B( 16-O , 17-C ) :   0.8072 B( 17-C , 18-C ) :   0.9030 B( 17-C , 36-H ) :   0.9506
B( 17-C , 37-H ) :   0.9671 B( 18-C , 38-H ) :   0.9500 B( 18-C , 39-H ) :   0.9639
B( 18-C , 40-H ) :   0.9647

Dispersion correction           -0.021159385
FINAL SINGLE POINT ENERGY     -2932.471449554738

DIPOLE MOMENT
-------------

Method             : SCF
Type of density    : Electron Density
Multiplicity       :   1
Irrep              :   0
Energy             : -2932.4970704712459337 Eh
Relativity type    :
Basis              : AO
                                X                 Y                 Z
Electronic contribution:     -3.955988922      -2.376824944     -14.194839442
Nuclear contribution   :      4.207634962       2.512088232      16.757638044
                        -----------------------------------------
Total Dipole Moment    :      0.251646041       0.135263289       2.562798602
                        -----------------------------------------
Magnitude (a.u.)       :      2.578673799
Magnitude (Debye)      :      6.554467905

Rotational constants in cm-1:             0.014170             0.004114             0.003950
Rotational constants in MHz :           424.799648           123.325293           118.406934

                             ****ORCA TERMINATED NORMALLY****
TOTAL RUN TIME: 0 days 0 hours 1 minutes 52 seconds 91 msec
