                         Program Version 6.0.1  -  RELEASE   -
|  1> ! pbe def2-sv(p) def2/J RI DEFGRID1 loosescf d4 GCP(DFT/SV(P)) printgap
|  2> %output
|  3>     printlevel normal
|  4> end
|  5> * xyz 0 1
|  6> C 4.9469322014 0.3994071181 -1.0352636314
|  7> C 4.5540585115 -1.039098468 -1.3292322595
|  8> O 3.1223392323 -1.200273784 -1.3466881838
|  9> C 2.4939696871 -1.3587808922 -0.1975717183
| 10> O 3.0339925082 -1.399364482 0.8833392386
| 11> C 0.9979409916 -1.5288234847 -0.4063194395
| 12> C 0.4157813821 -0.3410788778 -1.1771641015
| 13> H 0.9423462385 -0.2228032288 -2.1271479013
| 14> C 0.5338479234 0.9261185916 -0.3581326829
| 15> O -0.4383423727 1.5414708421 0.0379128926
| 16> O 1.7733120666 1.2523820068 -0.1297560803
| 17> C 2.0409404683 2.3300616671 0.7963997065
| 18> C 2.0245283695 1.804885775 2.222339673
| 19> S -1.3383192722 -0.5860799389 -1.6064105906
| 20> P -2.356632293 -0.0333166776 0.1761163808
| 21> S -1.5802784678 -0.3862776027 1.9541320969
| 22> O -3.1398727309 1.3261800271 -0.0575712898
| 23> C -2.9370454666 2.5427603476 0.662264575
| 24> O -3.6685803533 -0.9305592069 -0.0562973326
| 25> C -3.6274120597 -2.3544154749 0.0543521644
| 26> H 4.6406307147 0.6673868905 -0.0275331531
| 27> H 6.0242541111 0.4997933799 -1.1162277847
| 28> H 4.4681529323 1.0708108131 -1.7426337805
| 29> H 4.9710393326 -1.7128805972 -0.5753177048
| 30> H 4.8694798893 -1.3430713024 -2.3273761696
| 31> H 0.5213030007 -1.6318375921 0.5709142041
| 32> H 0.8309351963 -2.4357631828 -0.9888624275
| 33> H 3.0288240895 2.6919973915 0.5125553035
| 34> H 1.289556834 3.1107227489 0.6547210236
| 35> H 2.7116254247 0.9673818436 2.3209550248
| 36> H 2.3173304193 2.5954433107 2.9046250671
| 37> H 1.0272111322 1.458031041 2.4884967693
| 38> H -2.4297023608 2.3479643134 1.6084541607
| 39> H -3.9276600227 2.9553577488 0.8418617023
| 40> H -2.3380801541 3.2205391217 0.0567866548
| 41> H -3.1102072261 -2.6454938508 0.9712607843
| 42> H -3.1237760276 -2.7854470588 -0.8113141111
| 43> H -4.6653821483 -2.6754936423 0.0896982222
| 44> *
| 45>
| 46>                          ****END OF INPUT****

CARTESIAN COORDINATES (ANGSTROEM)
---------------------------------
  C      4.946932    0.399407   -1.035264
  C      4.554059   -1.039098   -1.329232
  O      3.122339   -1.200274   -1.346688
  C      2.493970   -1.358781   -0.197572
  O      3.033993   -1.399364    0.883339
  C      0.997941   -1.528823   -0.406319
  C      0.415781   -0.341079   -1.177164
  H      0.942346   -0.222803   -2.127148
  C      0.533848    0.926119   -0.358133
  O     -0.438342    1.541471    0.037913
  O      1.773312    1.252382   -0.129756
  C      2.040940    2.330062    0.796400
  C      2.024528    1.804886    2.222340
  S     -1.338319   -0.586080   -1.606411
  P     -2.356632   -0.033317    0.176116
  S     -1.580278   -0.386278    1.954132
  O     -3.139873    1.326180   -0.057571
  C     -2.937045    2.542760    0.662265
  O     -3.668580   -0.930559   -0.056297
  C     -3.627412   -2.354415    0.054352
  H      4.640631    0.667387   -0.027533
  H      6.024254    0.499793   -1.116228
  H      4.468153    1.070811   -1.742634
  H      4.971039   -1.712881   -0.575318
  H      4.869480   -1.343071   -2.327376
  H      0.521303   -1.631838    0.570914
  H      0.830935   -2.435763   -0.988862
  H      3.028824    2.691997    0.512555
  H      1.289557    3.110723    0.654721
  H      2.711625    0.967382    2.320955
  H      2.317330    2.595443    2.904625
  H      1.027211    1.458031    2.488497
  H     -2.429702    2.347964    1.608454
  H     -3.927660    2.955358    0.841862
  H     -2.338080    3.220539    0.056787
  H     -3.110207   -2.645494    0.971261
  H     -3.123776   -2.785447   -0.811314
  H     -4.665382   -2.675494    0.089698

 Total Charge           Charge          ....    0
 Multiplicity           Mult            ....    1
 Number of Electrons    NEL             ....  174
 Basis Dimension        Dim             ....  316

ORBITAL ENERGIES
----------------

  NO   OCC          E(Eh)            E(eV)
   0   2.0000     -88.037007     -2395.6088
   1   2.0000     -87.974440     -2393.9062
   2   2.0000     -76.421010     -2079.5214
   3   2.0000     -18.830896      -512.4147
   4   2.0000     -18.808261      -511.7988
   5   2.0000     -18.778918      -511.0003
   6   2.0000     -18.772836      -510.8348
   7   2.0000     -18.767176      -510.6808
   8   2.0000     -18.743118      -510.0262
   9   2.0000     -10.036098      -273.0961
  10   2.0000     -10.014681      -272.5133
  11   2.0000      -9.961479      -271.0656
  12   2.0000      -9.956299      -270.9247
  13   2.0000      -9.955132      -270.8929
  14   2.0000      -9.933086      -270.2930
  15   2.0000      -9.930815      -270.2312
  16   2.0000      -9.910682      -269.6834
  17   2.0000      -9.893740      -269.2223
  18   2.0000      -9.885533      -268.9990
  19   2.0000      -7.682109      -209.0408
  20   2.0000      -7.619334      -207.3326
  21   2.0000      -6.416377      -174.5985
  22   2.0000      -5.710209      -155.3827
  23   2.0000      -5.706549      -155.2831
  24   2.0000      -5.698885      -155.0746
  25   2.0000      -5.648377      -153.7002
  26   2.0000      -5.640273      -153.4796
  27   2.0000      -5.639030      -153.4458
  28   2.0000      -4.638848      -126.2295
  29   2.0000      -4.638534      -126.2209
  30   2.0000      -4.637012      -126.1795
  31   2.0000      -1.041170       -28.3317
  32   2.0000      -1.015770       -27.6405
  33   2.0000      -0.972383       -26.4599
  34   2.0000      -0.945869       -25.7384
  35   2.0000      -0.926049       -25.1991
  36   2.0000      -0.920250       -25.0413
  37   2.0000      -0.771805       -21.0019
  38   2.0000      -0.715854       -19.4794
  39   2.0000      -0.714380       -19.4393
  40   2.0000      -0.687948       -18.7200
  41   2.0000      -0.656994       -17.8777
  42   2.0000      -0.628266       -17.0960
  43   2.0000      -0.621216       -16.9041
  44   2.0000      -0.610745       -16.6192
  45   2.0000      -0.599756       -16.3202
  46   2.0000      -0.573829       -15.6147
  47   2.0000      -0.514346       -13.9961
  48   2.0000      -0.506601       -13.7853
  49   2.0000      -0.504347       -13.7240
  50   2.0000      -0.490055       -13.3351
  51   2.0000      -0.471320       -12.8253
  52   2.0000      -0.463912       -12.6237
  53   2.0000      -0.452598       -12.3158
  54   2.0000      -0.448840       -12.2136
  55   2.0000      -0.432621       -11.7722
  56   2.0000      -0.423822       -11.5328
  57   2.0000      -0.417373       -11.3573
  58   2.0000      -0.413307       -11.2467
  59   2.0000      -0.407805       -11.0969
  60   2.0000      -0.400553       -10.8996
  61   2.0000      -0.397494       -10.8164
  62   2.0000      -0.387983       -10.5575
  63   2.0000      -0.387257       -10.5378
  64   2.0000      -0.380647       -10.3579
  65   2.0000      -0.369673       -10.0593
  66   2.0000      -0.363592        -9.8938
  67   2.0000      -0.357429        -9.7261
  68   2.0000      -0.349987        -9.5236
  69   2.0000      -0.347545        -9.4572
  70   2.0000      -0.342751        -9.3267
  71   2.0000      -0.333861        -9.0848
  72   2.0000      -0.329829        -8.9751
  73   2.0000      -0.311359        -8.4725
  74   2.0000      -0.307534        -8.3684
  75   2.0000      -0.300146        -8.1674
  76   2.0000      -0.295042        -8.0285
  77   2.0000      -0.286255        -7.7894
  78   2.0000      -0.277640        -7.5550
  79   2.0000      -0.266309        -7.2466
  80   2.0000      -0.263465        -7.1692
  81   2.0000      -0.247691        -6.7400
  82   2.0000      -0.245932        -6.6921
  83   2.0000      -0.231741        -6.3060
  84   2.0000      -0.217183        -5.9098
  85   2.0000      -0.193748        -5.2721
  86   2.0000      -0.186653        -5.0791
  87   0.0000      -0.052240        -1.4215
  88   0.0000      -0.040186        -1.0935
  89   0.0000      -0.025631        -0.6975
  90   0.0000       0.007414         0.2017
  91   0.0000       0.029244         0.7958

MULLIKEN ATOMIC CHARGES
-----------------------
   0 C :   -0.315654
   1 C :   -0.011555
   2 O :   -0.241231
   3 C :    0.107510
   4 O :   -0.192668
   5 C :   -0.047782
   6 C :   -0.327897
   7 H :    0.157666
   8 C :    0.230951
   9 O :   -0.194265
  10 O :   -0.216958
  11 C :   -0.017446
  12 C :   -0.330320
  13 S :   -0.083686
  14 P :    0.622916
  15 S :   -0.339530
  16 O :   -0.368226
  17 C :   -0.084007
  18 O :   -0.375225
  19 C :   -0.100367
  20 H :    0.135225
  21 H :    0.113706
  22 H :    0.113589
  23 H :    0.109748
  24 H :    0.104076
  25 H :    0.122129
  26 H :    0.121756
  27 H :    0.110629
  28 H :    0.113574
  29 H :    0.140921
  30 H :    0.112592
  31 H :    0.141254
  32 H :    0.115778
  33 H :    0.119485
  34 H :    0.112369
  35 H :    0.111429
  36 H :    0.107873
  37 H :    0.121642
Sum of atomic charges:    0.0000000

LOEWDIN ATOMIC CHARGES
----------------------
   0 C :   -0.357617
   1 C :   -0.108484
   2 O :   -0.063910
   3 C :    0.024636
   4 O :   -0.159551
   5 C :   -0.248313
   6 C :   -0.268256
   7 H :    0.149930
   8 C :    0.034384
   9 O :   -0.148941
  10 O :   -0.025272
  11 C :   -0.105218
  12 C :   -0.362447
  13 S :    0.105585
  14 P :    0.587976
  15 S :   -0.335940
  16 O :   -0.238167
  17 C :   -0.207752
  18 O :   -0.259266
  19 C :   -0.222078
  20 H :    0.128762
  21 H :    0.131015
  22 H :    0.123885
  23 H :    0.121011
  24 H :    0.118392
  25 H :    0.135609
  26 H :    0.144250
  27 H :    0.119085
  28 H :    0.121618
  29 H :    0.133987
  30 H :    0.130951
  31 H :    0.132516
  32 H :    0.108868
  33 H :    0.117468
  34 H :    0.111432
  35 H :    0.106355
  36 H :    0.102853
  37 H :    0.120644

  Mayer bond orders larger than 0.100000
B(  0-C ,  1-C ) :   1.1750 B(  0-C , 20-H ) :   0.9374 B(  0-C , 21-H ) :   0.9411
B(  0-C , 22-H ) :   0.9473 B(  1-C ,  2-O ) :   0.9199 B(  1-C , 23-H ) :   0.9169
B(  1-C , 24-H ) :   0.9379 B(  2-O ,  3-C ) :   1.1989 B(  3-C ,  4-O ) :   2.0457
B(  3-C ,  5-C ) :   1.0166 B(  5-C ,  6-C ) :   1.0239 B(  5-C , 25-H ) :   0.8782
B(  5-C , 26-H ) :   0.8858 B(  6-C ,  7-H ) :   0.8660 B(  6-C ,  8-C ) :   0.9068
B(  6-C , 13-S ) :   1.0306 B(  8-C ,  9-O ) :   1.9217 B(  8-C , 10-O ) :   1.2770
B(  9-O , 14-P ) :   0.1275 B( 10-O , 11-C ) :   0.8849 B( 11-C , 12-C ) :   1.1797
B( 11-C , 27-H ) :   0.9297 B( 11-C , 28-H ) :   0.9161 B( 12-C , 29-H ) :   0.9388
B( 12-C , 30-H ) :   0.9398 B( 12-C , 31-H ) :   0.9303 B( 13-S , 14-P ) :   0.9297
B( 13-S , 15-S ) :   0.1158 B( 14-P , 15-S ) :   1.5486 B( 14-P , 16-O ) :   1.1354
B( 14-P , 18-O ) :   1.0783 B( 16-O , 17-C ) :   0.9294 B( 17-C , 32-H ) :   0.9351
B( 17-C , 33-H ) :   0.9541 B( 17-C , 34-H ) :   0.9550 B( 18-O , 19-C ) :   0.9461
B( 19-C , 35-H ) :   0.9324 B( 19-C , 36-H ) :   0.9444 B( 19-C , 37-H ) :   0.9595

Dispersion correction           -0.053734084
FINAL SINGLE POINT ENERGY     -1979.014964496735

DIPOLE MOMENT
-------------

Method             : SCF
Type of density    : Electron Density
Multiplicity       :   1
Irrep              :   0
Energy             : -1979.1464522543333260 Eh
Relativity type    :
Basis              : AO
                                X                 Y                 Z
Electronic contribution:    -17.758092991      -5.171327048      -3.880837571
Nuclear contribution   :     19.132273647       5.820118049       2.922302962
                        -----------------------------------------
Total Dipole Moment    :      1.374180656       0.648791002      -0.958534609
                        -----------------------------------------
Magnitude (a.u.)       :      1.796688853
Magnitude (Debye)      :      4.566820134

Rotational constants in cm-1:             0.017097             0.006491             0.005722
Rotational constants in MHz :           512.550986           194.600181           171.554817

                             ****ORCA TERMINATED NORMALLY****
TOTAL RUN TIME: 0 days 0 hours 0 minutes 45 seconds 425 msec
