                         Program Version 6.0.0  -   RELEASE  -
|  1> ! pbe def2-sv(p) def2/J RI DEFGRID1 loosescf d4 GCP(DFT/SV(P)) printgap
|  2> %output
|  3>     printlevel normal
|  4> end
|  5> * xyz 0 1
|  6> S 8.282e-07 -0.0542347485 -0.0
|  7> H -0.9536403034 0.862556062 -0.0
|  8> H 0.9536139606 0.8625813877 5e-10
|  9> *
| 10>
| 11>                          ****END OF INPUT****

CARTESIAN COORDINATES (ANGSTROEM)
---------------------------------
  S      0.000001   -0.054235   -0.000000
  H     -0.953640    0.862556   -0.000000
  H      0.953614    0.862581    0.000000

 Total Charge           Charge          ....    0
 Multiplicity           Mult            ....    1
 Number of Electrons    NEL             ....   18
 Basis Dimension        Dim             ....   22

ORBITAL ENERGIES
----------------

  NO   OCC          E(Eh)            E(eV)
   0   2.0000     -88.020802     -2395.1678
   1   2.0000      -7.669908      -208.7088
   2   2.0000      -5.697856      -155.0466
   3   2.0000      -5.694403      -154.9526
   4   2.0000      -5.685951      -154.7226
   5   2.0000      -0.677561       -18.4374
   6   2.0000      -0.405657       -11.0385
   7   2.0000      -0.321895        -8.7592
   8   2.0000      -0.215235        -5.8569
   9   0.0000       0.010465         0.2848
  10   0.0000       0.020823         0.5666
  11   0.0000       0.284982         7.7548
  12   0.0000       0.350914         9.5489
  13   0.0000       0.420716        11.4483

MULLIKEN ATOMIC CHARGES
-----------------------
   0 S :   -0.306395
   1 H :    0.153198
   2 H :    0.153198
Sum of atomic charges:   -0.0000000

LOEWDIN ATOMIC CHARGES
----------------------
   0 S :   -0.174926
   1 H :    0.087463
   2 H :    0.087463

  Mayer bond orders larger than 0.100000
B(  0-S ,  1-H ) :   0.9358 B(  0-S ,  2-H ) :   0.9358

Dispersion correction           -0.000551613
FINAL SINGLE POINT ENERGY      -399.057965059048

DIPOLE MOMENT
-------------

Method             : SCF
Type of density    : Electron Density
Multiplicity       :   1
Irrep              :   0
Energy             :  -399.0712023473481054 Eh
Relativity type    :
Basis              : AO
                                X                 Y                 Z
Electronic contribution:      0.000017415      -1.086138591       0.000000007
Nuclear contribution   :     -0.000024738       1.620043974       0.000000000
                        -----------------------------------------
Total Dipole Moment    :     -0.000007323       0.533905383       0.000000007
                        -----------------------------------------
Magnitude (a.u.)       :      0.533905383
Magnitude (Debye)      :      1.357079635

Rotational constants in cm-1:            10.573992             9.194946             4.918184
Rotational constants in MHz :        317000.295971        275657.541433        147443.460131

                             ****ORCA TERMINATED NORMALLY****
TOTAL RUN TIME: 0 days 0 hours 0 minutes 2 seconds 872 msec
