                         Program Version 6.0.0  -   RELEASE  -
|  1> ! pbe def2-sv(p) def2/J RI DEFGRID1 loosescf d4 GCP(DFT/SV(P)) printgap
|  2> %output
|  3>     printlevel normal
|  4> end
|  5> * xyz 0 1
|  6> C 4.6796604101 -1.3882978738 -0.9340943017
|  7> C 4.6326748453 0.0777310512 -0.5550675963
|  8> O 3.4820810221 0.3916160601 0.2484334984
|  9> P 1.9991303345 0.3769953557 -0.3330716788
| 10> S 1.8780874182 1.0619452479 -2.1719337619
| 11> O 1.2425857362 1.1731906508 0.8084871788
| 12> C 1.353484458 2.6091261862 0.907335448
| 13> C 0.5175834476 3.0544003413 2.0878403561
| 14> S 1.3169208565 -1.5674887753 0.0330428374
| 15> C 0.00539468 -1.705524021 -1.2317946102
| 16> S -1.6339733491 -1.9754497224 -0.5263802766
| 17> P -1.9866106602 -0.0176110345 0.2269843163
| 18> S -1.4647919789 1.4707120636 -0.9308216076
| 19> O -1.3029279561 0.0281559969 1.6461909816
| 20> C -1.6551835421 -0.9000984153 2.7087439295
| 21> C -0.3900643346 -1.4924649738 3.2941574443
| 22> O -3.5281178907 -0.0554822998 0.6225124612
| 23> C -4.5841747594 0.2616860309 -0.3013140647
| 24> C -4.6987691952 -0.7526501578 -1.4204796659
| 25> H 3.8676787725 -1.6194739616 -1.6219420134
| 26> H 5.6252711398 -1.6013756652 -1.4220085444
| 27> H 4.5793656672 -2.0109948961 -0.0487601384
| 28> H 4.6088236854 0.7064841462 -1.4510326992
| 29> H 5.4763359771 0.3595142367 0.0763369731
| 30> H 2.4081027464 2.867528136 1.0360248411
| 31> H 0.9875487334 3.0447564592 -0.029176227
| 32> H 0.8896732259 2.5987522644 3.0006461232
| 33> H 0.565752947 4.1351066212 2.1719842118
| 34> H -0.5154128091 2.750159531 1.937145288
| 35> H 0.217837682 -2.582103753 -1.8380628637
| 36> H 0.0090521281 -0.7955151995 -1.8380979751
| 37> H -2.2031562266 -0.3140319033 3.4482426342
| 38> H -2.3085545704 -1.6765468525 2.3028847897
| 39> H -0.6479412583 -2.0836734829 4.1669904088
| 40> H 0.1095189797 -2.1273830989 2.5665466911
| 41> H 0.2911916688 -0.6975916154 3.5852874537
| 42> H -5.4774157704 0.2736131957 0.3248850374
| 43> H -4.399069404 1.2617178725 -0.7053808481
| 44> H -4.7529636408 -1.7599750022 -1.0156236576
| 45> H -5.5942588167 -0.5462985132 -1.9978020232
| 46> H -3.8336874858 -0.6836447337 -2.0779618136
| 47> *
| 48>
| 49>                          ****END OF INPUT****

CARTESIAN COORDINATES (ANGSTROEM)
---------------------------------
  C      4.679660   -1.388298   -0.934094
  C      4.632675    0.077731   -0.555068
  O      3.482081    0.391616    0.248433
  P      1.999130    0.376995   -0.333072
  S      1.878087    1.061945   -2.171934
  O      1.242586    1.173191    0.808487
  C      1.353484    2.609126    0.907335
  C      0.517583    3.054400    2.087840
  S      1.316921   -1.567489    0.033043
  C      0.005395   -1.705524   -1.231795
  S     -1.633973   -1.975450   -0.526380
  P     -1.986611   -0.017611    0.226984
  S     -1.464792    1.470712   -0.930822
  O     -1.302928    0.028156    1.646191
  C     -1.655184   -0.900098    2.708744
  C     -0.390064   -1.492465    3.294157
  O     -3.528118   -0.055482    0.622512
  C     -4.584175    0.261686   -0.301314
  C     -4.698769   -0.752650   -1.420480
  H      3.867679   -1.619474   -1.621942
  H      5.625271   -1.601376   -1.422009
  H      4.579366   -2.010995   -0.048760
  H      4.608824    0.706484   -1.451033
  H      5.476336    0.359514    0.076337
  H      2.408103    2.867528    1.036025
  H      0.987549    3.044756   -0.029176
  H      0.889673    2.598752    3.000646
  H      0.565753    4.135107    2.171984
  H     -0.515413    2.750160    1.937145
  H      0.217838   -2.582104   -1.838063
  H      0.009052   -0.795515   -1.838098
  H     -2.203156   -0.314032    3.448243
  H     -2.308555   -1.676547    2.302885
  H     -0.647941   -2.083673    4.166990
  H      0.109519   -2.127383    2.566547
  H      0.291192   -0.697592    3.585287
  H     -5.477416    0.273613    0.324885
  H     -4.399069    1.261718   -0.705381
  H     -4.752964   -1.759975   -1.015624
  H     -5.594259   -0.546299   -1.997802
  H     -3.833687   -0.683645   -2.077962

 Total Charge           Charge          ....    0
 Multiplicity           Mult            ....    1
 Number of Electrons    NEL             ....  202
 Basis Dimension        Dim             ....  334

ORBITAL ENERGIES
----------------

  NO   OCC          E(Eh)            E(eV)
   0   2.0000     -88.044879     -2395.8230
   1   2.0000     -88.042389     -2395.7552
   2   2.0000     -87.983943     -2394.1648
   3   2.0000     -87.979422     -2394.0418
   4   2.0000     -76.424805     -2079.6247
   5   2.0000     -76.419132     -2079.4703
   6   2.0000     -18.793929      -511.4088
   7   2.0000     -18.788595      -511.2637
   8   2.0000     -18.787404      -511.2312
   9   2.0000     -18.777941      -510.9737
  10   2.0000      -9.955997      -270.9165
  11   2.0000      -9.953979      -270.8615
  12   2.0000      -9.953492      -270.8483
  13   2.0000      -9.947052      -270.6731
  14   2.0000      -9.938764      -270.4475
  15   2.0000      -9.884632      -268.9745
  16   2.0000      -9.881394      -268.8864
  17   2.0000      -9.880707      -268.8677
  18   2.0000      -9.873078      -268.6601
  19   2.0000      -7.689892      -209.2526
  20   2.0000      -7.687629      -209.1910
  21   2.0000      -7.628801      -207.5902
  22   2.0000      -7.624372      -207.4697
  23   2.0000      -6.422296      -174.7596
  24   2.0000      -6.416902      -174.6128
  25   2.0000      -5.717722      -155.5871
  26   2.0000      -5.715494      -155.5265
  27   2.0000      -5.714241      -155.4924
  28   2.0000      -5.712111      -155.4344
  29   2.0000      -5.707079      -155.2975
  30   2.0000      -5.704512      -155.2276
  31   2.0000      -5.657792      -153.9563
  32   2.0000      -5.653268      -153.8332
  33   2.0000      -5.649276      -153.7246
  34   2.0000      -5.649016      -153.7175
  35   2.0000      -5.645145      -153.6122
  36   2.0000      -5.644427      -153.5927
  37   2.0000      -4.645159      -126.4012
  38   2.0000      -4.644019      -126.3702
  39   2.0000      -4.642534      -126.3298
  40   2.0000      -4.639290      -126.2415
  41   2.0000      -4.638485      -126.2196
  42   2.0000      -4.637658      -126.1971
  43   2.0000      -0.987566       -26.8730
  44   2.0000      -0.979144       -26.6439
  45   2.0000      -0.943132       -25.6639
  46   2.0000      -0.935314       -25.4512
  47   2.0000      -0.762951       -20.7610
  48   2.0000      -0.719136       -19.5687
  49   2.0000      -0.706576       -19.2269
  50   2.0000      -0.688521       -18.7356
  51   2.0000      -0.681670       -18.5492
  52   2.0000      -0.672795       -18.3077
  53   2.0000      -0.648405       -17.6440
  54   2.0000      -0.630534       -17.1577
  55   2.0000      -0.598083       -16.2747
  56   2.0000      -0.586773       -15.9669
  57   2.0000      -0.571401       -15.5486
  58   2.0000      -0.564268       -15.3545
  59   2.0000      -0.553929       -15.0732
  60   2.0000      -0.503352       -13.6969
  61   2.0000      -0.495623       -13.4866
  62   2.0000      -0.472937       -12.8693
  63   2.0000      -0.466282       -12.6882
  64   2.0000      -0.450774       -12.2662
  65   2.0000      -0.444996       -12.1089
  66   2.0000      -0.439167       -11.9503
  67   2.0000      -0.433624       -11.7995
  68   2.0000      -0.425399       -11.5757
  69   2.0000      -0.418626       -11.3914
  70   2.0000      -0.412877       -11.2350
  71   2.0000      -0.390937       -10.6379
  72   2.0000      -0.387345       -10.5402
  73   2.0000      -0.382872       -10.4185
  74   2.0000      -0.378534       -10.3004
  75   2.0000      -0.366460        -9.9719
  76   2.0000      -0.362288        -9.8584
  77   2.0000      -0.354437        -9.6447
  78   2.0000      -0.351483        -9.5643
  79   2.0000      -0.348400        -9.4804
  80   2.0000      -0.343991        -9.3605
  81   2.0000      -0.342255        -9.3132
  82   2.0000      -0.337664        -9.1883
  83   2.0000      -0.333408        -9.0725
  84   2.0000      -0.324066        -8.8183
  85   2.0000      -0.313506        -8.5309
  86   2.0000      -0.307961        -8.3800
  87   2.0000      -0.301471        -8.2034
  88   2.0000      -0.293771        -7.9939
  89   2.0000      -0.290691        -7.9101
  90   2.0000      -0.279269        -7.5993
  91   2.0000      -0.268256        -7.2996
  92   2.0000      -0.263943        -7.1822
  93   2.0000      -0.261143        -7.1061
  94   2.0000      -0.256842        -6.9890
  95   2.0000      -0.236148        -6.4259
  96   2.0000      -0.220175        -5.9913
  97   2.0000      -0.214290        -5.8311
  98   2.0000      -0.203576        -5.5396
  99   2.0000      -0.193359        -5.2616
 100   2.0000      -0.184086        -5.0092
 101   0.0000      -0.039992        -1.0882
 102   0.0000      -0.030575        -0.8320
 103   0.0000      -0.012012        -0.3269
 104   0.0000       0.011867         0.3229
 105   0.0000       0.018198         0.4952

MULLIKEN ATOMIC CHARGES
-----------------------
   0 C :   -0.310830
   1 C :   -0.003059
   2 O :   -0.380181
   3 P :    0.612520
   4 S :   -0.321626
   5 O :   -0.355655
   6 C :   -0.003676
   7 C :   -0.279960
   8 S :   -0.086654
   9 C :   -0.357996
  10 S :   -0.104180
  11 P :    0.593741
  12 S :   -0.290342
  13 O :   -0.346435
  14 C :   -0.010976
  15 C :   -0.283419
  16 O :   -0.383421
  17 C :    0.000707
  18 C :   -0.319513
  19 H :    0.121069
  20 H :    0.111074
  21 H :    0.115214
  22 H :    0.109946
  23 H :    0.101778
  24 H :    0.094943
  25 H :    0.112048
  26 H :    0.106398
  27 H :    0.103333
  28 H :    0.125338
  29 H :    0.183633
  30 H :    0.208816
  31 H :    0.108032
  32 H :    0.101808
  33 H :    0.103927
  34 H :    0.125352
  35 H :    0.120939
  36 H :    0.103959
  37 H :    0.111583
  38 H :    0.116559
  39 H :    0.114417
  40 H :    0.130791
Sum of atomic charges:   -0.0000000

LOEWDIN ATOMIC CHARGES
----------------------
   0 C :   -0.369041
   1 C :   -0.121235
   2 O :   -0.248815
   3 P :    0.567516
   4 S :   -0.315332
   5 O :   -0.235262
   6 C :   -0.117852
   7 C :   -0.352566
   8 S :    0.096626
   9 C :   -0.479467
  10 S :    0.073001
  11 P :    0.564819
  12 S :   -0.284959
  13 O :   -0.229778
  14 C :   -0.111575
  15 C :   -0.357122
  16 O :   -0.251623
  17 C :   -0.116925
  18 C :   -0.371371
  19 H :    0.119751
  20 H :    0.129817
  21 H :    0.123153
  22 H :    0.109304
  23 H :    0.116907
  24 H :    0.106375
  25 H :    0.110098
  26 H :    0.121372
  27 H :    0.127042
  28 H :    0.126442
  29 H :    0.137975
  30 H :    0.127567
  31 H :    0.118213
  32 H :    0.104646
  33 H :    0.126790
  34 H :    0.118252
  35 H :    0.129341
  36 H :    0.118285
  37 H :    0.112327
  38 H :    0.122655
  39 H :    0.131815
  40 H :    0.122837

  Mayer bond orders larger than 0.100000
B(  0-C ,  1-C ) :   1.1658 B(  0-C , 19-H ) :   0.9366 B(  0-C , 20-H ) :   0.9386
B(  0-C , 21-H ) :   0.9451 B(  1-C ,  2-O ) :   0.9136 B(  1-C , 22-H ) :   0.9125
B(  1-C , 23-H ) :   0.9338 B(  2-O ,  3-P ) :   1.0940 B(  3-P ,  4-S ) :   1.6072
B(  3-P ,  5-O ) :   1.1427 B(  3-P ,  8-S ) :   0.9708 B(  4-S ,  8-S ) :   0.1158
B(  5-O ,  6-C ) :   0.8963 B(  6-C ,  7-C ) :   1.1655 B(  6-C , 24-H ) :   0.9266
B(  6-C , 25-H ) :   0.9148 B(  7-C , 26-H ) :   0.9498 B(  7-C , 27-H ) :   0.9411
B(  7-C , 28-H ) :   0.9415 B(  8-S ,  9-C ) :   0.9913 B(  9-C , 10-S ) :   1.0053
B(  9-C , 29-H ) :   0.9112 B(  9-C , 30-H ) :   0.8473 B( 10-S , 11-P ) :   0.9375
B( 10-S , 12-S ) :   0.1050 B( 11-P , 12-S ) :   1.6433 B( 11-P , 13-O ) :   1.1384
B( 11-P , 16-O ) :   1.0813 B( 13-O , 14-C ) :   0.8871 B( 14-C , 15-C ) :   1.1656
B( 14-C , 31-H ) :   0.9346 B( 14-C , 32-H ) :   0.9143 B( 15-C , 33-H ) :   0.9384
B( 15-C , 34-H ) :   0.9366 B( 15-C , 35-H ) :   0.9465 B( 16-O , 17-C ) :   0.9083
B( 17-C , 18-C ) :   1.1669 B( 17-C , 36-H ) :   0.9344 B( 17-C , 37-H ) :   0.9168
B( 18-C , 38-H ) :   0.9437 B( 18-C , 39-H ) :   0.9372 B( 18-C , 40-H ) :   0.9349

Dispersion correction           -0.068283733
FINAL SINGLE POINT ENERGY     -2929.521645667954

DIPOLE MOMENT
-------------

Method             : SCF
Type of density    : Electron Density
Multiplicity       :   1
Irrep              :   0
Energy             : -2929.6392332280879600 Eh
Relativity type    :
Basis              : AO
                                X                 Y                 Z
Electronic contribution:     -0.195927669       0.005188401      -9.199367338
Nuclear contribution   :     -0.105900051      -0.739098301      10.165671668
                        -----------------------------------------
Total Dipole Moment    :     -0.301827720      -0.733909900       0.966304330
                        -----------------------------------------
Magnitude (a.u.)       :      1.250387049
Magnitude (Debye)      :      3.178231301

Rotational constants in cm-1:             0.012226             0.005514             0.005402
Rotational constants in MHz :           366.515992           165.318669           161.944768

                             ****ORCA TERMINATED NORMALLY****
TOTAL RUN TIME: 0 days 0 hours 0 minutes 21 seconds 953 msec
