                         Program Version 6.0.0  -   RELEASE  -
|  1> ! r2scan-3c def2/J RI DEFGRID2 scfconv6 printgap
|  2> %output
|  3>     printlevel normal
|  4> end
|  5> * xyz 0 1
|  6> C 4.5272774702 -1.5372612876 -0.7640616446
|  7> C 4.5755981603 -0.0893521975 -0.3202913569
|  8> O 3.4323604353 0.2797228551 0.4683149863
|  9> P 1.9622748164 0.355216991 -0.1367333981
| 10> S 1.8788761274 1.0385021452 -1.9765264376
| 11> O 1.2221742875 1.1810849127 0.9972020999
| 12> C 1.1766808015 2.6223332903 0.9963949639
| 13> C 2.5524753322 3.2465372014 1.0860791392
| 14> S 1.1960697212 -1.5750579343 0.2298442605
| 15> C 0.0928388179 -1.7699657522 -1.2102655141
| 16> S -1.6139871352 -2.1605096469 -0.7487898036
| 17> P -2.1421164891 -0.3289374059 0.122675961
| 18> S -1.5597208352 1.3294290774 -0.762335373
| 19> O -1.6017626915 -0.5625069193 1.5917428236
| 20> C -1.720005036 0.4508559248 2.6153072838
| 21> C -0.6622264654 0.1801638448 3.6648744669
| 22> O -3.7143123645 -0.4092012069 0.3486770791
| 23> C -4.6617006794 0.0349434551 -0.6384996873
| 24> C -4.6513076425 -0.8452084051 -1.8712156935
| 25> H 4.3607132468 -2.1896040679 0.0893186739
| 26> H 3.7178337138 -1.6787350581 -1.4789417957
| 27> H 5.4668884022 -1.7970540452 -1.2409748564
| 28> H 4.6231946871 0.5745779217 -1.1895256327
| 29> H 5.4215977966 0.1015878551 0.341263353
| 30> H 0.655585651 2.9476241937 0.0894526756
| 31> H 0.5687218607 2.8628552504 1.8702311273
| 32> H 2.4487709927 4.321646733 1.1951040359
| 33> H 3.0928719672 2.8436112813 1.9388210006
| 34> H 3.1161068369 3.0372440607 0.1776059405
| 35> H 0.4386489052 -2.6206155979 -1.7919069417
| 36> H 0.1230992655 -0.8507311914 -1.8021428591
| 37> H -1.5865850106 1.4333500245 2.1487193471
| 38> H -2.7282537651 0.3858918123 3.0312297127
| 39> H 0.3278451599 0.2481870853 3.2209954294
| 40> H -0.7530205332 0.9111967665 4.4618331714
| 41> H -0.7941949825 -0.8183354171 4.0711792726
| 42> H -5.6195147527 -0.0074691772 -0.1184510628
| 43> H -4.4247934962 1.0708434245 -0.902083158
| 44> H -5.4607232124 -0.5496783653 -2.5309876087
| 45> H -3.7057756086 -0.7325693626 -2.4004429397
| 46> H -4.7728550091 -1.8885389814 -1.5914863413
| 47> *
| 48>
| 49>                          ****END OF INPUT****

CARTESIAN COORDINATES (ANGSTROEM)
---------------------------------
  C      4.527277   -1.537261   -0.764062
  C      4.575598   -0.089352   -0.320291
  O      3.432360    0.279723    0.468315
  P      1.962275    0.355217   -0.136733
  S      1.878876    1.038502   -1.976526
  O      1.222174    1.181085    0.997202
  C      1.176681    2.622333    0.996395
  C      2.552475    3.246537    1.086079
  S      1.196070   -1.575058    0.229844
  C      0.092839   -1.769966   -1.210266
  S     -1.613987   -2.160510   -0.748790
  P     -2.142116   -0.328937    0.122676
  S     -1.559721    1.329429   -0.762335
  O     -1.601763   -0.562507    1.591743
  C     -1.720005    0.450856    2.615307
  C     -0.662226    0.180164    3.664874
  O     -3.714312   -0.409201    0.348677
  C     -4.661701    0.034943   -0.638500
  C     -4.651308   -0.845208   -1.871216
  H      4.360713   -2.189604    0.089319
  H      3.717834   -1.678735   -1.478942
  H      5.466888   -1.797054   -1.240975
  H      4.623195    0.574578   -1.189526
  H      5.421598    0.101588    0.341263
  H      0.655586    2.947624    0.089453
  H      0.568722    2.862855    1.870231
  H      2.448771    4.321647    1.195104
  H      3.092872    2.843611    1.938821
  H      3.116107    3.037244    0.177606
  H      0.438649   -2.620616   -1.791907
  H      0.123099   -0.850731   -1.802143
  H     -1.586585    1.433350    2.148719
  H     -2.728254    0.385892    3.031230
  H      0.327845    0.248187    3.220995
  H     -0.753021    0.911197    4.461833
  H     -0.794195   -0.818335    4.071179
  H     -5.619515   -0.007469   -0.118451
  H     -4.424793    1.070843   -0.902083
  H     -5.460723   -0.549678   -2.530988
  H     -3.705776   -0.732569   -2.400443
  H     -4.772855   -1.888539   -1.591486

 Total Charge           Charge          ....    0
 Multiplicity           Mult            ....    1
 Number of Electrons    NEL             ....  202
 Basis Dimension        Dim             ....  539

ORBITAL ENERGIES
----------------

  NO   OCC          E(Eh)            E(eV)
   0   2.0000     -88.576908     -2410.3002
   1   2.0000     -88.571681     -2410.1580
   2   2.0000     -88.517360     -2408.6798
   3   2.0000     -88.513935     -2408.5866
   4   2.0000     -76.910655     -2092.8453
   5   2.0000     -76.910160     -2092.8319
   6   2.0000     -18.990550      -516.7591
   7   2.0000     -18.987729      -516.6824
   8   2.0000     -18.984727      -516.6007
   9   2.0000     -18.983030      -516.5545
  10   2.0000     -10.106072      -275.0002
  11   2.0000     -10.096202      -274.7316
  12   2.0000     -10.095524      -274.7132
  13   2.0000     -10.093478      -274.6575
  14   2.0000     -10.092476      -274.6302
  15   2.0000     -10.027466      -272.8612
  16   2.0000     -10.025975      -272.8207
  17   2.0000     -10.025005      -272.7943
  18   2.0000     -10.024710      -272.7862
  19   2.0000      -7.871555      -214.1959
  20   2.0000      -7.866197      -214.0501
  21   2.0000      -7.812051      -212.5767
  22   2.0000      -7.808703      -212.4856
  23   2.0000      -6.589056      -179.2973
  24   2.0000      -6.588721      -179.2882
  25   2.0000      -5.818607      -158.3323
  26   2.0000      -5.815227      -158.2404
  27   2.0000      -5.813069      -158.1816
  28   2.0000      -5.810176      -158.1029
  29   2.0000      -5.808598      -158.0600
  30   2.0000      -5.803132      -157.9112
  31   2.0000      -5.759719      -156.7299
  32   2.0000      -5.756326      -156.6376
  33   2.0000      -5.752554      -156.5349
  34   2.0000      -5.751824      -156.5151
  35   2.0000      -5.749062      -156.4399
  36   2.0000      -5.748660      -156.4290
  37   2.0000      -4.734352      -128.8283
  38   2.0000      -4.734315      -128.8273
  39   2.0000      -4.733848      -128.8145
  40   2.0000      -4.733635      -128.8088
  41   2.0000      -4.733111      -128.7945
  42   2.0000      -4.732354      -128.7739
  43   2.0000      -1.046465       -28.4758
  44   2.0000      -1.045535       -28.4505
  45   2.0000      -1.006263       -27.3818
  46   2.0000      -1.005440       -27.3594
  47   2.0000      -0.799599       -21.7582
  48   2.0000      -0.755899       -20.5691
  49   2.0000      -0.745740       -20.2926
  50   2.0000      -0.729016       -19.8375
  51   2.0000      -0.728136       -19.8136
  52   2.0000      -0.710594       -19.3362
  53   2.0000      -0.683697       -18.6044
  54   2.0000      -0.662630       -18.0311
  55   2.0000      -0.633347       -17.2342
  56   2.0000      -0.620656       -16.8889
  57   2.0000      -0.603293       -16.4164
  58   2.0000      -0.602000       -16.3813
  59   2.0000      -0.585822       -15.9410
  60   2.0000      -0.525317       -14.2946
  61   2.0000      -0.513439       -13.9714
  62   2.0000      -0.490363       -13.3434
  63   2.0000      -0.486805       -13.2466
  64   2.0000      -0.468070       -12.7368
  65   2.0000      -0.461181       -12.5494
  66   2.0000      -0.456875       -12.4322
  67   2.0000      -0.454289       -12.3618
  68   2.0000      -0.441517       -12.0143
  69   2.0000      -0.434565       -11.8251
  70   2.0000      -0.427835       -11.6420
  71   2.0000      -0.410782       -11.1779
  72   2.0000      -0.404852       -11.0166
  73   2.0000      -0.402595       -10.9552
  74   2.0000      -0.395777       -10.7696
  75   2.0000      -0.394537       -10.7359
  76   2.0000      -0.381193       -10.3728
  77   2.0000      -0.367669       -10.0048
  78   2.0000      -0.367364        -9.9965
  79   2.0000      -0.363545        -9.8926
  80   2.0000      -0.359738        -9.7890
  81   2.0000      -0.354775        -9.6539
  82   2.0000      -0.352244        -9.5851
  83   2.0000      -0.347734        -9.4623
  84   2.0000      -0.345113        -9.3910
  85   2.0000      -0.324710        -8.8358
  86   2.0000      -0.322190        -8.7672
  87   2.0000      -0.309092        -8.4108
  88   2.0000      -0.306134        -8.3303
  89   2.0000      -0.301509        -8.2045
  90   2.0000      -0.297748        -8.1021
  91   2.0000      -0.285549        -7.7702
  92   2.0000      -0.281990        -7.6733
  93   2.0000      -0.275310        -7.4916
  94   2.0000      -0.274304        -7.4642
  95   2.0000      -0.246343        -6.7033
  96   2.0000      -0.230463        -6.2712
  97   2.0000      -0.227952        -6.2029
  98   2.0000      -0.215931        -5.8758
  99   2.0000      -0.207624        -5.6497
 100   2.0000      -0.199899        -5.4395
 101   0.0000      -0.042258        -1.1499
 102   0.0000      -0.032297        -0.8789
 103   0.0000      -0.010204        -0.2777
 104   0.0000       0.015128         0.4117
 105   0.0000       0.022050         0.6000

MULLIKEN ATOMIC CHARGES
-----------------------
   0 C :   -0.443216
   1 C :   -0.154777
   2 O :   -0.297457
   3 P :    0.647108
   4 S :   -0.464242
   5 O :   -0.264639
   6 C :   -0.157194
   7 C :   -0.458936
   8 S :   -0.110094
   9 C :   -0.236775
  10 S :   -0.102302
  11 P :    0.712895
  12 S :   -0.452897
  13 O :   -0.285077
  14 C :   -0.120532
  15 C :   -0.479166
  16 O :   -0.317063
  17 C :   -0.154738
  18 C :   -0.461236
  19 H :    0.156024
  20 H :    0.171364
  21 H :    0.146600
  22 H :    0.171443
  23 H :    0.147028
  24 H :    0.185160
  25 H :    0.146878
  26 H :    0.147044
  27 H :    0.156918
  28 H :    0.171406
  29 H :    0.191892
  30 H :    0.217535
  31 H :    0.161363
  32 H :    0.150916
  33 H :    0.178504
  34 H :    0.143055
  35 H :    0.152804
  36 H :    0.146520
  37 H :    0.174361
  38 H :    0.148101
  39 H :    0.179392
  40 H :    0.156031
Sum of atomic charges:    0.0000000

LOEWDIN ATOMIC CHARGES
----------------------
   0 C :   -0.407825
   1 C :    0.017893
   2 O :   -0.670425
   3 P :    0.376534
   4 S :   -0.125960
   5 O :   -0.682574
   6 C :    0.009984
   7 C :   -0.400999
   8 S :    0.182291
   9 C :   -0.412426
  10 S :    0.171713
  11 P :    0.371591
  12 S :   -0.100536
  13 O :   -0.669182
  14 C :    0.023538
  15 C :   -0.390843
  16 O :   -0.661495
  17 C :    0.018398
  18 C :   -0.407167
  19 H :    0.160907
  20 H :    0.163548
  21 H :    0.158032
  22 H :    0.179246
  23 H :    0.178810
  24 H :    0.185060
  25 H :    0.179021
  26 H :    0.159135
  27 H :    0.161209
  28 H :    0.165985
  29 H :    0.179794
  30 H :    0.201486
  31 H :    0.178929
  32 H :    0.171926
  33 H :    0.171453
  34 H :    0.157695
  35 H :    0.160586
  36 H :    0.178846
  37 H :    0.180258
  38 H :    0.159630
  39 H :    0.166204
  40 H :    0.159730

  Mayer bond orders larger than 0.100000
B(  0-C ,  1-C ) :   0.9215 B(  0-C , 19-H ) :   0.9671 B(  0-C , 20-H ) :   0.9662
B(  0-C , 21-H ) :   0.9597 B(  1-C ,  2-O ) :   0.8222 B(  1-C , 22-H ) :   0.9673
B(  1-C , 23-H ) :   0.9588 B(  2-O ,  3-P ) :   1.0545 B(  3-P ,  4-S ) :   1.7402
B(  3-P ,  5-O ) :   1.1519 B(  3-P ,  8-S ) :   1.1388 B(  5-O ,  6-C ) :   0.7955
B(  6-C ,  7-C ) :   0.9067 B(  6-C , 24-H ) :   0.9604 B(  6-C , 25-H ) :   0.9593
B(  7-C , 26-H ) :   0.9591 B(  7-C , 27-H ) :   0.9727 B(  7-C , 28-H ) :   0.9628
B(  8-S ,  9-C ) :   0.8923 B(  9-C , 10-S ) :   0.9196 B(  9-C , 29-H ) :   0.9120
B(  9-C , 30-H ) :   0.9034 B( 10-S , 11-P ) :   1.1112 B( 11-P , 12-S ) :   1.7490
B( 11-P , 13-O ) :   1.1851 B( 11-P , 16-O ) :   1.0481 B( 13-O , 14-C ) :   0.7452
B( 14-C , 15-C ) :   0.9378 B( 14-C , 31-H ) :   0.9589 B( 14-C , 32-H ) :   0.9431
B( 15-C , 33-H ) :   0.9679 B( 15-C , 34-H ) :   0.9685 B( 15-C , 35-H ) :   0.9689
B( 16-O , 17-C ) :   0.8204 B( 17-C , 18-C ) :   0.9188 B( 17-C , 36-H ) :   0.9588
B( 17-C , 37-H ) :   0.9659 B( 18-C , 38-H ) :   0.9588 B( 18-C , 39-H ) :   0.9618
B( 18-C , 40-H ) :   0.9690

Dispersion correction           -0.022477609
FINAL SINGLE POINT ENERGY     -2932.460329931442

DIPOLE MOMENT
-------------

Method             : SCF
Type of density    : Electron Density
Multiplicity       :   1
Irrep              :   0
Energy             : -2932.4845464588929644 Eh
Relativity type    :
Basis              : AO
                                X                 Y                 Z
Electronic contribution:     -4.406014284      -7.236976698      -6.514864292
Nuclear contribution   :      4.390686686       7.158416095       7.276915525
                        -----------------------------------------
Total Dipole Moment    :     -0.015327599      -0.078560604       0.762051233
                        -----------------------------------------
Magnitude (a.u.)       :      0.766243294
Magnitude (Debye)      :      1.947635673

Rotational constants in cm-1:             0.012445             0.005508             0.005056
Rotational constants in MHz :           373.092435           165.136117           151.569590

                             ****ORCA TERMINATED NORMALLY****
TOTAL RUN TIME: 0 days 0 hours 1 minutes 23 seconds 111 msec
