                         Program Version 6.0.0  -   RELEASE  -
|  1> ! r2scan-3c def2/J RI DEFGRID2 scfconv6 printgap
|  2> %output
|  3>     printlevel normal
|  4> end
|  5> %cpcm
|  6>     smd true
|  7>     smdsolvent "water"
|  8> end
|  9> * xyz 0 1
| 10> C 4.5272774702 -1.5372612876 -0.7640616446
| 11> C 4.5755981603 -0.0893521975 -0.3202913569
| 12> O 3.4323604353 0.2797228551 0.4683149863
| 13> P 1.9622748164 0.355216991 -0.1367333981
| 14> S 1.8788761274 1.0385021452 -1.9765264376
| 15> O 1.2221742875 1.1810849127 0.9972020999
| 16> C 1.1766808015 2.6223332903 0.9963949639
| 17> C 2.5524753322 3.2465372014 1.0860791392
| 18> S 1.1960697212 -1.5750579343 0.2298442605
| 19> C 0.0928388179 -1.7699657522 -1.2102655141
| 20> S -1.6139871352 -2.1605096469 -0.7487898036
| 21> P -2.1421164891 -0.3289374059 0.122675961
| 22> S -1.5597208352 1.3294290774 -0.762335373
| 23> O -1.6017626915 -0.5625069193 1.5917428236
| 24> C -1.720005036 0.4508559248 2.6153072838
| 25> C -0.6622264654 0.1801638448 3.6648744669
| 26> O -3.7143123645 -0.4092012069 0.3486770791
| 27> C -4.6617006794 0.0349434551 -0.6384996873
| 28> C -4.6513076425 -0.8452084051 -1.8712156935
| 29> H 4.3607132468 -2.1896040679 0.0893186739
| 30> H 3.7178337138 -1.6787350581 -1.4789417957
| 31> H 5.4668884022 -1.7970540452 -1.2409748564
| 32> H 4.6231946871 0.5745779217 -1.1895256327
| 33> H 5.4215977966 0.1015878551 0.341263353
| 34> H 0.655585651 2.9476241937 0.0894526756
| 35> H 0.5687218607 2.8628552504 1.8702311273
| 36> H 2.4487709927 4.321646733 1.1951040359
| 37> H 3.0928719672 2.8436112813 1.9388210006
| 38> H 3.1161068369 3.0372440607 0.1776059405
| 39> H 0.4386489052 -2.6206155979 -1.7919069417
| 40> H 0.1230992655 -0.8507311914 -1.8021428591
| 41> H -1.5865850106 1.4333500245 2.1487193471
| 42> H -2.7282537651 0.3858918123 3.0312297127
| 43> H 0.3278451599 0.2481870853 3.2209954294
| 44> H -0.7530205332 0.9111967665 4.4618331714
| 45> H -0.7941949825 -0.8183354171 4.0711792726
| 46> H -5.6195147527 -0.0074691772 -0.1184510628
| 47> H -4.4247934962 1.0708434245 -0.902083158
| 48> H -5.4607232124 -0.5496783653 -2.5309876087
| 49> H -3.7057756086 -0.7325693626 -2.4004429397
| 50> H -4.7728550091 -1.8885389814 -1.5914863413
| 51> *
| 52>
| 53>                          ****END OF INPUT****

CARTESIAN COORDINATES (ANGSTROEM)
---------------------------------
  C      4.527277   -1.537261   -0.764062
  C      4.575598   -0.089352   -0.320291
  O      3.432360    0.279723    0.468315
  P      1.962275    0.355217   -0.136733
  S      1.878876    1.038502   -1.976526
  O      1.222174    1.181085    0.997202
  C      1.176681    2.622333    0.996395
  C      2.552475    3.246537    1.086079
  S      1.196070   -1.575058    0.229844
  C      0.092839   -1.769966   -1.210266
  S     -1.613987   -2.160510   -0.748790
  P     -2.142116   -0.328937    0.122676
  S     -1.559721    1.329429   -0.762335
  O     -1.601763   -0.562507    1.591743
  C     -1.720005    0.450856    2.615307
  C     -0.662226    0.180164    3.664874
  O     -3.714312   -0.409201    0.348677
  C     -4.661701    0.034943   -0.638500
  C     -4.651308   -0.845208   -1.871216
  H      4.360713   -2.189604    0.089319
  H      3.717834   -1.678735   -1.478942
  H      5.466888   -1.797054   -1.240975
  H      4.623195    0.574578   -1.189526
  H      5.421598    0.101588    0.341263
  H      0.655586    2.947624    0.089453
  H      0.568722    2.862855    1.870231
  H      2.448771    4.321647    1.195104
  H      3.092872    2.843611    1.938821
  H      3.116107    3.037244    0.177606
  H      0.438649   -2.620616   -1.791907
  H      0.123099   -0.850731   -1.802143
  H     -1.586585    1.433350    2.148719
  H     -2.728254    0.385892    3.031230
  H      0.327845    0.248187    3.220995
  H     -0.753021    0.911197    4.461833
  H     -0.794195   -0.818335    4.071179
  H     -5.619515   -0.007469   -0.118451
  H     -4.424793    1.070843   -0.902083
  H     -5.460723   -0.549678   -2.530988
  H     -3.705776   -0.732569   -2.400443
  H     -4.772855   -1.888539   -1.591486

 Total Charge           Charge          ....    0
 Multiplicity           Mult            ....    1
 Number of Electrons    NEL             ....  202
 Basis Dimension        Dim             ....  539

ORBITAL ENERGIES
----------------

  NO   OCC          E(Eh)            E(eV)
   0   2.0000     -88.582019     -2410.4393
   1   2.0000     -88.576738     -2410.2956
   2   2.0000     -88.525874     -2408.9115
   3   2.0000     -88.522093     -2408.8086
   4   2.0000     -76.917072     -2093.0199
   5   2.0000     -76.916618     -2093.0076
   6   2.0000     -18.994276      -516.8605
   7   2.0000     -18.991593      -516.7875
   8   2.0000     -18.989403      -516.7279
   9   2.0000     -18.989049      -516.7183
  10   2.0000     -10.106040      -274.9993
  11   2.0000     -10.088696      -274.5274
  12   2.0000     -10.088121      -274.5117
  13   2.0000     -10.087837      -274.5040
  14   2.0000     -10.086954      -274.4800
  15   2.0000     -10.018682      -272.6222
  16   2.0000     -10.017750      -272.5968
  17   2.0000     -10.017525      -272.5907
  18   2.0000     -10.017181      -272.5813
  19   2.0000      -7.876627      -214.3339
  20   2.0000      -7.871278      -214.1884
  21   2.0000      -7.820891      -212.8173
  22   2.0000      -7.817113      -212.7145
  23   2.0000      -6.595520      -179.4732
  24   2.0000      -6.595249      -179.4658
  25   2.0000      -5.823656      -158.4697
  26   2.0000      -5.820266      -158.3775
  27   2.0000      -5.818139      -158.3196
  28   2.0000      -5.815268      -158.2415
  29   2.0000      -5.813743      -158.2000
  30   2.0000      -5.808225      -158.0498
  31   2.0000      -5.768495      -156.9687
  32   2.0000      -5.764690      -156.8652
  33   2.0000      -5.761383      -156.7752
  34   2.0000      -5.760678      -156.7560
  35   2.0000      -5.757495      -156.6694
  36   2.0000      -5.757045      -156.6572
  37   2.0000      -4.740801      -129.0038
  38   2.0000      -4.740774      -129.0030
  39   2.0000      -4.740309      -128.9904
  40   2.0000      -4.740168      -128.9865
  41   2.0000      -4.739652      -128.9725
  42   2.0000      -4.738936      -128.9530
  43   2.0000      -1.051092       -28.6017
  44   2.0000      -1.049356       -28.5544
  45   2.0000      -1.010402       -27.4944
  46   2.0000      -1.008808       -27.4511
  47   2.0000      -0.802585       -21.8394
  48   2.0000      -0.755618       -20.5614
  49   2.0000      -0.742324       -20.1997
  50   2.0000      -0.723019       -19.6743
  51   2.0000      -0.722058       -19.6482
  52   2.0000      -0.710862       -19.3435
  53   2.0000      -0.688381       -18.7318
  54   2.0000      -0.669702       -18.2235
  55   2.0000      -0.634154       -17.2562
  56   2.0000      -0.618988       -16.8435
  57   2.0000      -0.599725       -16.3194
  58   2.0000      -0.597758       -16.2658
  59   2.0000      -0.584982       -15.9182
  60   2.0000      -0.524169       -14.2634
  61   2.0000      -0.511875       -13.9288
  62   2.0000      -0.489313       -13.3149
  63   2.0000      -0.485533       -13.2120
  64   2.0000      -0.469353       -12.7717
  65   2.0000      -0.461968       -12.5708
  66   2.0000      -0.455536       -12.3958
  67   2.0000      -0.451748       -12.2927
  68   2.0000      -0.437918       -11.9163
  69   2.0000      -0.432988       -11.7822
  70   2.0000      -0.424905       -11.5623
  71   2.0000      -0.409625       -11.1465
  72   2.0000      -0.403854       -10.9894
  73   2.0000      -0.402938       -10.9645
  74   2.0000      -0.396553       -10.7907
  75   2.0000      -0.392302       -10.6751
  76   2.0000      -0.381275       -10.3750
  77   2.0000      -0.363812        -9.8998
  78   2.0000      -0.362561        -9.8658
  79   2.0000      -0.356602        -9.7036
  80   2.0000      -0.353220        -9.6116
  81   2.0000      -0.350186        -9.5290
  82   2.0000      -0.348135        -9.4732
  83   2.0000      -0.345411        -9.3991
  84   2.0000      -0.343513        -9.3475
  85   2.0000      -0.323974        -8.8158
  86   2.0000      -0.321349        -8.7443
  87   2.0000      -0.307344        -8.3633
  88   2.0000      -0.304313        -8.2808
  89   2.0000      -0.302067        -8.2197
  90   2.0000      -0.299029        -8.1370
  91   2.0000      -0.286298        -7.7906
  92   2.0000      -0.283099        -7.7035
  93   2.0000      -0.277579        -7.5533
  94   2.0000      -0.276588        -7.5263
  95   2.0000      -0.251826        -6.8525
  96   2.0000      -0.238340        -6.4855
  97   2.0000      -0.235835        -6.4174
  98   2.0000      -0.224178        -6.1002
  99   2.0000      -0.215422        -5.8619
 100   2.0000      -0.209037        -5.6882
 101   0.0000      -0.047403        -1.2899
 102   0.0000      -0.039016        -1.0617
 103   0.0000      -0.014505        -0.3947
 104   0.0000       0.010218         0.2780
 105   0.0000       0.016485         0.4486

MULLIKEN ATOMIC CHARGES
-----------------------
   0 C :   -0.477323
   1 C :   -0.156723
   2 O :   -0.324814
   3 P :    0.694546
   4 S :   -0.517795
   5 O :   -0.288979
   6 C :   -0.156337
   7 C :   -0.499800
   8 S :   -0.126775
   9 C :   -0.232547
  10 S :   -0.115433
  11 P :    0.734545
  12 S :   -0.498216
  13 O :   -0.320116
  14 C :   -0.116100
  15 C :   -0.513281
  16 O :   -0.341602
  17 C :   -0.152594
  18 C :   -0.494488
  19 H :    0.166066
  20 H :    0.171162
  21 H :    0.171279
  22 H :    0.176826
  23 H :    0.173649
  24 H :    0.181002
  25 H :    0.180408
  26 H :    0.171922
  27 H :    0.169927
  28 H :    0.171102
  29 H :    0.235081
  30 H :    0.213073
  31 H :    0.173087
  32 H :    0.172668
  33 H :    0.171366
  34 H :    0.170626
  35 H :    0.166200
  36 H :    0.173955
  37 H :    0.177557
  38 H :    0.173169
  39 H :    0.173203
  40 H :    0.170504
Sum of atomic charges:    0.0000000

LOEWDIN ATOMIC CHARGES
----------------------
   0 C :   -0.410569
   1 C :    0.022985
   2 O :   -0.681877
   3 P :    0.382561
   4 S :   -0.158201
   5 O :   -0.693426
   6 C :    0.013508
   7 C :   -0.403859
   8 S :    0.175599
   9 C :   -0.405060
  10 S :    0.168506
  11 P :    0.373298
  12 S :   -0.126660
  13 O :   -0.689852
  14 C :    0.027682
  15 C :   -0.393659
  16 O :   -0.673249
  17 C :    0.023566
  18 C :   -0.409952
  19 H :    0.163173
  20 H :    0.160945
  21 H :    0.167027
  22 H :    0.180974
  23 H :    0.189979
  24 H :    0.183175
  25 H :    0.191366
  26 H :    0.168363
  27 H :    0.164448
  28 H :    0.163343
  29 H :    0.196923
  30 H :    0.199626
  31 H :    0.183397
  32 H :    0.181215
  33 H :    0.167018
  34 H :    0.169168
  35 H :    0.162969
  36 H :    0.190377
  37 H :    0.181198
  38 H :    0.168750
  39 H :    0.161611
  40 H :    0.163613

  Mayer bond orders larger than 0.100000
B(  0-C ,  1-C ) :   0.9093 B(  0-C , 19-H ) :   0.9651 B(  0-C , 20-H ) :   0.9661
B(  0-C , 21-H ) :   0.9545 B(  1-C ,  2-O ) :   0.8096 B(  1-C , 22-H ) :   0.9656
B(  1-C , 23-H ) :   0.9491 B(  2-O ,  3-P ) :   1.0642 B(  3-P ,  4-S ) :   1.6890
B(  3-P ,  5-O ) :   1.1583 B(  3-P ,  8-S ) :   1.1495 B(  5-O ,  6-C ) :   0.7810
B(  6-C ,  7-C ) :   0.8962 B(  6-C , 24-H ) :   0.9590 B(  6-C , 25-H ) :   0.9488
B(  7-C , 26-H ) :   0.9532 B(  7-C , 27-H ) :   0.9709 B(  7-C , 28-H ) :   0.9627
B(  8-S ,  9-C ) :   0.8847 B(  9-C , 10-S ) :   0.9117 B(  9-C , 29-H ) :   0.8960
B(  9-C , 30-H ) :   0.9076 B( 10-S , 11-P ) :   1.1250 B( 11-P , 12-S ) :   1.7152
B( 11-P , 13-O ) :   1.1840 B( 11-P , 16-O ) :   1.0556 B( 13-O , 14-C ) :   0.7378
B( 14-C , 15-C ) :   0.9298 B( 14-C , 31-H ) :   0.9519 B( 14-C , 32-H ) :   0.9335
B( 15-C , 33-H ) :   0.9679 B( 15-C , 34-H ) :   0.9613 B( 15-C , 35-H ) :   0.9687
B( 16-O , 17-C ) :   0.8092 B( 17-C , 18-C ) :   0.9067 B( 17-C , 36-H ) :   0.9492
B( 17-C , 37-H ) :   0.9642 B( 18-C , 38-H ) :   0.9534 B( 18-C , 39-H ) :   0.9633
B( 18-C , 40-H ) :   0.9659

Dispersion correction           -0.022477609
FINAL SINGLE POINT ENERGY     -2932.468360561934

DIPOLE MOMENT
-------------

Method             : SCF
Type of density    : Electron Density
Multiplicity       :   1
Irrep              :   0
Energy             : -2932.4925770893846675 Eh
Relativity type    :
Basis              : AO
                                X                 Y                 Z
Electronic contribution:     -4.421794880      -7.246663863      -6.296643576
Nuclear contribution   :      4.390686686       7.158416095       7.276915525
                        -----------------------------------------
Total Dipole Moment    :     -0.031108195      -0.088247768       0.980271949
                        -----------------------------------------
Magnitude (a.u.)       :      0.984727618
Magnitude (Debye)      :      2.502978691

Rotational constants in cm-1:             0.012445             0.005508             0.005056
Rotational constants in MHz :           373.092435           165.136117           151.569590

                             ****ORCA TERMINATED NORMALLY****
TOTAL RUN TIME: 0 days 0 hours 1 minutes 53 seconds 358 msec
