                         Program Version 6.0.0  -   RELEASE  -
|  1> ! pbe def2-sv(p) def2/J RI DEFGRID1 loosescf d4 GCP(DFT/SV(P)) printgap
|  2> %output
|  3>     printlevel normal
|  4> end
|  5> * xyz 0 1
|  6> C 2.868286968 0.0518033731 -2.6668135983
|  7> C 2.8913654241 1.1728964828 -1.6472254842
|  8> O 3.2664050286 0.6762043819 -0.3505448902
|  9> P 2.2552150646 0.3085670388 0.8113207052
| 10> S 1.0143160177 1.7267830701 1.3428628477
| 11> O 3.225133679 -0.0068845626 2.0119073721
| 12> C 4.0497853274 -1.1872833302 2.1758296722
| 13> C 4.9510767178 -1.4522365233 0.9900346057
| 14> S 1.3734993839 -1.5579919612 0.2780406527
| 15> C -0.1160679039 -1.4600411263 1.3234209531
| 16> S -1.6316115437 -1.8928521225 0.432987831
| 17> P -1.9971550857 -0.0910599294 -0.6003004415
| 18> S -0.6688706399 0.6512873335 -1.8213500111
| 19> O -2.3917501285 0.8224500503 0.6533535319
| 20> C -2.3997800875 2.2585862634 0.5770919396
| 21> C -3.5327257284 2.7643965615 -0.2913292874
| 22> O -3.3273726772 -0.4233389672 -1.3945478077
| 23> C -4.5134303082 -0.9465047299 -0.7450727743
| 24> C -5.7146873127 -0.5443711478 -1.5759908704
| 25> H 2.0801971056 -0.6596042303 -2.4306223824
| 26> H 2.6674417813 0.472892496 -3.6463912475
| 27> H 3.8246141746 -0.4630274918 -2.6808110319
| 28> H 1.9158919794 1.6646416408 -1.5850187622
| 29> H 3.6564110778 1.9129569384 -1.8890780104
| 30> H 4.62209254 -0.9630109769 3.07712831
| 31> H 3.3896850393 -2.0394483612 2.3565361528
| 32> H 5.617482858 -2.2751121726 1.2299920021
| 33> H 4.3564563493 -1.7212225095 0.1190517853
| 34> H 5.5386666817 -0.5682012302 0.7571244832
| 35> H -0.1993998759 -0.4423395378 1.7143994613
| 36> H -0.0295946564 -2.1913988248 2.1225219601
| 37> H -2.5007525224 2.5773084893 1.6155235304
| 38> H -1.4309835785 2.5938592722 0.1936800188
| 39> H -3.3996232156 2.4075943257 -1.3127766252
| 40> H -4.4883354169 2.4128528647 0.0897832925
| 41> H -3.5238640717 3.8497634673 -0.2936841679
| 42> H -4.4076453554 -2.0325379921 -0.6943848041
| 43> H -4.5696069441 -0.5423699527 0.2690441584
| 44> H -5.6065012395 -0.92293731 -2.5882491876
| 45> H -6.6112962994 -0.9617468957 -1.1292630038
| 46> H -5.8029943285 0.5378567358 -1.616944862
| 47> *
| 48>
| 49>                          ****END OF INPUT****

CARTESIAN COORDINATES (ANGSTROEM)
---------------------------------
  C      2.868287    0.051803   -2.666814
  C      2.891365    1.172896   -1.647225
  O      3.266405    0.676204   -0.350545
  P      2.255215    0.308567    0.811321
  S      1.014316    1.726783    1.342863
  O      3.225134   -0.006885    2.011907
  C      4.049785   -1.187283    2.175830
  C      4.951077   -1.452237    0.990035
  S      1.373499   -1.557992    0.278041
  C     -0.116068   -1.460041    1.323421
  S     -1.631612   -1.892852    0.432988
  P     -1.997155   -0.091060   -0.600300
  S     -0.668871    0.651287   -1.821350
  O     -2.391750    0.822450    0.653354
  C     -2.399780    2.258586    0.577092
  C     -3.532726    2.764397   -0.291329
  O     -3.327373   -0.423339   -1.394548
  C     -4.513430   -0.946505   -0.745073
  C     -5.714687   -0.544371   -1.575991
  H      2.080197   -0.659604   -2.430622
  H      2.667442    0.472892   -3.646391
  H      3.824614   -0.463027   -2.680811
  H      1.915892    1.664642   -1.585019
  H      3.656411    1.912957   -1.889078
  H      4.622093   -0.963011    3.077128
  H      3.389685   -2.039448    2.356536
  H      5.617483   -2.275112    1.229992
  H      4.356456   -1.721223    0.119052
  H      5.538667   -0.568201    0.757124
  H     -0.199400   -0.442340    1.714399
  H     -0.029595   -2.191399    2.122522
  H     -2.500753    2.577308    1.615524
  H     -1.430984    2.593859    0.193680
  H     -3.399623    2.407594   -1.312777
  H     -4.488335    2.412853    0.089783
  H     -3.523864    3.849763   -0.293684
  H     -4.407645   -2.032538   -0.694385
  H     -4.569607   -0.542370    0.269044
  H     -5.606501   -0.922937   -2.588249
  H     -6.611296   -0.961747   -1.129263
  H     -5.802994    0.537857   -1.616945

 Total Charge           Charge          ....    0
 Multiplicity           Mult            ....    1
 Number of Electrons    NEL             ....  202
 Basis Dimension        Dim             ....  334

ORBITAL ENERGIES
----------------

  NO   OCC          E(Eh)            E(eV)
   0   2.0000     -88.042320     -2395.7533
   1   2.0000     -88.041216     -2395.7233
   2   2.0000     -87.979292     -2394.0382
   3   2.0000     -87.977536     -2393.9905
   4   2.0000     -76.422791     -2079.5699
   5   2.0000     -76.421600     -2079.5374
   6   2.0000     -18.792481      -511.3694
   7   2.0000     -18.790030      -511.3027
   8   2.0000     -18.786578      -511.2088
   9   2.0000     -18.785120      -511.1691
  10   2.0000      -9.958172      -270.9756
  11   2.0000      -9.955398      -270.9002
  12   2.0000      -9.955044      -270.8905
  13   2.0000      -9.945612      -270.6338
  14   2.0000      -9.942202      -270.5411
  15   2.0000      -9.892117      -269.1782
  16   2.0000      -9.887206      -269.0445
  17   2.0000      -9.882162      -268.9073
  18   2.0000      -9.876459      -268.7521
  19   2.0000      -7.687952      -209.1998
  20   2.0000      -7.685804      -209.1413
  21   2.0000      -7.624462      -207.4722
  22   2.0000      -7.622744      -207.4254
  23   2.0000      -6.420163      -174.7015
  24   2.0000      -6.419479      -174.6829
  25   2.0000      -5.715822      -155.5354
  26   2.0000      -5.713608      -155.4752
  27   2.0000      -5.712443      -155.4435
  28   2.0000      -5.710338      -155.3862
  29   2.0000      -5.704847      -155.2368
  30   2.0000      -5.702910      -155.1841
  31   2.0000      -5.653449      -153.8382
  32   2.0000      -5.651733      -153.7915
  33   2.0000      -5.645129      -153.6118
  34   2.0000      -5.644415      -153.5923
  35   2.0000      -5.643479      -153.5669
  36   2.0000      -5.642614      -153.5433
  37   2.0000      -4.642859      -126.3386
  38   2.0000      -4.642435      -126.3271
  39   2.0000      -4.642089      -126.3177
  40   2.0000      -4.641027      -126.2888
  41   2.0000      -4.640390      -126.2714
  42   2.0000      -4.639817      -126.2558
  43   2.0000      -0.983453       -26.7611
  44   2.0000      -0.982704       -26.7407
  45   2.0000      -0.941842       -25.6288
  46   2.0000      -0.941306       -25.6142
  47   2.0000      -0.760827       -20.7032
  48   2.0000      -0.720949       -19.6180
  49   2.0000      -0.711040       -19.3484
  50   2.0000      -0.689991       -18.7756
  51   2.0000      -0.686757       -18.6876
  52   2.0000      -0.672400       -18.2969
  53   2.0000      -0.648704       -17.6521
  54   2.0000      -0.632550       -17.2125
  55   2.0000      -0.595231       -16.1971
  56   2.0000      -0.584768       -15.9123
  57   2.0000      -0.574207       -15.6250
  58   2.0000      -0.569987       -15.5101
  59   2.0000      -0.560191       -15.2436
  60   2.0000      -0.504720       -13.7341
  61   2.0000      -0.493747       -13.4355
  62   2.0000      -0.475894       -12.9497
  63   2.0000      -0.472143       -12.8477
  64   2.0000      -0.451863       -12.2958
  65   2.0000      -0.448157       -12.1950
  66   2.0000      -0.440915       -11.9979
  67   2.0000      -0.435687       -11.8556
  68   2.0000      -0.428259       -11.6535
  69   2.0000      -0.413064       -11.2401
  70   2.0000      -0.403779       -10.9874
  71   2.0000      -0.397540       -10.8176
  72   2.0000      -0.394354       -10.7309
  73   2.0000      -0.387443       -10.5429
  74   2.0000      -0.382973       -10.4212
  75   2.0000      -0.367177        -9.9914
  76   2.0000      -0.359820        -9.7912
  77   2.0000      -0.358691        -9.7605
  78   2.0000      -0.355231        -9.6663
  79   2.0000      -0.351371        -9.5613
  80   2.0000      -0.345183        -9.3929
  81   2.0000      -0.342786        -9.3277
  82   2.0000      -0.340413        -9.2631
  83   2.0000      -0.336577        -9.1587
  84   2.0000      -0.327741        -8.9183
  85   2.0000      -0.315910        -8.5963
  86   2.0000      -0.313389        -8.5278
  87   2.0000      -0.310160        -8.4399
  88   2.0000      -0.288275        -7.8444
  89   2.0000      -0.286006        -7.7826
  90   2.0000      -0.275084        -7.4854
  91   2.0000      -0.272074        -7.4035
  92   2.0000      -0.269264        -7.3270
  93   2.0000      -0.263803        -7.1785
  94   2.0000      -0.259155        -7.0520
  95   2.0000      -0.239404        -6.5145
  96   2.0000      -0.221332        -6.0227
  97   2.0000      -0.204048        -5.5524
  98   2.0000      -0.197797        -5.3823
  99   2.0000      -0.193517        -5.2659
 100   2.0000      -0.181710        -4.9446
 101   0.0000      -0.039527        -1.0756
 102   0.0000      -0.030343        -0.8257
 103   0.0000      -0.012870        -0.3502
 104   0.0000       0.008384         0.2281
 105   0.0000       0.021227         0.5776

MULLIKEN ATOMIC CHARGES
-----------------------
   0 C :   -0.311953
   1 C :   -0.013291
   2 O :   -0.372145
   3 P :    0.607266
   4 S :   -0.311758
   5 O :   -0.360756
   6 C :    0.002301
   7 C :   -0.312217
   8 S :   -0.107595
   9 C :   -0.341973
  10 S :   -0.100531
  11 P :    0.620193
  12 S :   -0.310298
  13 O :   -0.385410
  14 C :   -0.016775
  15 C :   -0.319972
  16 O :   -0.372360
  17 C :   -0.035191
  18 C :   -0.280215
  19 H :    0.140409
  20 H :    0.111895
  21 H :    0.110568
  22 H :    0.127952
  23 H :    0.103768
  24 H :    0.109931
  25 H :    0.102781
  26 H :    0.112742
  27 H :    0.122497
  28 H :    0.124853
  29 H :    0.197273
  30 H :    0.180357
  31 H :    0.104088
  32 H :    0.133261
  33 H :    0.131278
  34 H :    0.110915
  35 H :    0.114023
  36 H :    0.115368
  37 H :    0.111586
  38 H :    0.124072
  39 H :    0.111806
  40 H :    0.121260
Sum of atomic charges:    0.0000000

LOEWDIN ATOMIC CHARGES
----------------------
   0 C :   -0.365669
   1 C :   -0.116248
   2 O :   -0.234759
   3 P :    0.571144
   4 S :   -0.301625
   5 O :   -0.240097
   6 C :   -0.113763
   7 C :   -0.366983
   8 S :    0.069866
   9 C :   -0.478554
  10 S :    0.079170
  11 P :    0.567191
  12 S :   -0.300272
  13 O :   -0.250639
  14 C :   -0.124824
  15 C :   -0.367611
  16 O :   -0.244764
  17 C :   -0.122179
  18 C :   -0.349930
  19 H :    0.122882
  20 H :    0.132011
  21 H :    0.121630
  22 H :    0.109967
  23 H :    0.118097
  24 H :    0.122237
  25 H :    0.106752
  26 H :    0.130897
  27 H :    0.118222
  28 H :    0.129738
  29 H :    0.124095
  30 H :    0.134942
  31 H :    0.118369
  32 H :    0.110506
  33 H :    0.124762
  34 H :    0.119508
  35 H :    0.132050
  36 H :    0.113919
  37 H :    0.109823
  38 H :    0.131515
  39 H :    0.130870
  40 H :    0.127753

  Mayer bond orders larger than 0.100000
B(  0-C ,  1-C ) :   1.1719 B(  0-C , 19-H ) :   0.9316 B(  0-C , 20-H ) :   0.9401
B(  0-C , 21-H ) :   0.9453 B(  1-C ,  2-O ) :   0.8952 B(  1-C , 22-H ) :   0.9033
B(  1-C , 23-H ) :   0.9336 B(  2-O ,  3-P ) :   1.1164 B(  3-P ,  4-S ) :   1.6280
B(  3-P ,  5-O ) :   1.1339 B(  3-P ,  8-S ) :   0.9408 B(  4-S ,  8-S ) :   0.1137
B(  4-S , 29-H ) :   0.1122 B(  5-O ,  6-C ) :   0.9061 B(  6-C ,  7-C ) :   1.1708
B(  6-C , 24-H ) :   0.9341 B(  6-C , 25-H ) :   0.9208 B(  7-C , 26-H ) :   0.9352
B(  7-C , 27-H ) :   0.9375 B(  7-C , 28-H ) :   0.9431 B(  8-S ,  9-C ) :   0.9874
B(  9-C , 10-S ) :   1.0103 B(  9-C , 29-H ) :   0.8467 B(  9-C , 30-H ) :   0.9120
B( 10-S , 11-P ) :   0.9659 B( 10-S , 12-S ) :   0.1093 B( 11-P , 12-S ) :   1.6643
B( 11-P , 13-O ) :   1.0717 B( 11-P , 16-O ) :   1.1131 B( 13-O , 14-C ) :   0.9016
B( 14-C , 15-C ) :   1.1579 B( 14-C , 31-H ) :   0.9358 B( 14-C , 32-H ) :   0.9055
B( 15-C , 33-H ) :   0.9334 B( 15-C , 34-H ) :   0.9427 B( 15-C , 35-H ) :   0.9391
B( 16-O , 17-C ) :   0.8961 B( 17-C , 18-C ) :   1.1662 B( 17-C , 36-H ) :   0.9284
B( 17-C , 37-H ) :   0.9149 B( 18-C , 38-H ) :   0.9482 B( 18-C , 39-H ) :   0.9406
B( 18-C , 40-H ) :   0.9486

Dispersion correction           -0.066221444
FINAL SINGLE POINT ENERGY     -2929.514817469612

DIPOLE MOMENT
-------------

Method             : SCF
Type of density    : Electron Density
Multiplicity       :   1
Irrep              :   0
Energy             : -2929.6341647646008823 Eh
Relativity type    :
Basis              : AO
                                X                 Y                 Z
Electronic contribution:      4.463087838      -3.028514909       6.421468951
Nuclear contribution   :     -4.820263567       2.335657503      -6.113185236
                        -----------------------------------------
Total Dipole Moment    :     -0.357175729      -0.692857406       0.308283715
                        -----------------------------------------
Magnitude (a.u.)       :      0.838250998
Magnitude (Debye)      :      2.130664709

Rotational constants in cm-1:             0.014326             0.004669             0.004491
Rotational constants in MHz :           429.469829           139.973647           134.644064

                             ****ORCA TERMINATED NORMALLY****
TOTAL RUN TIME: 0 days 0 hours 0 minutes 20 seconds 810 msec
