                         Program Version 6.0.0  -   RELEASE  -
|  1> ! r2scan-3c def2/J RI DEFGRID2 scfconv6 printgap
|  2> %output
|  3>     printlevel normal
|  4> end
|  5> * xyz 0 1
|  6> C 4.2316373138 -0.0234093054 -2.151574302
|  7> C 4.398903967 -0.3737539876 -0.6863286544
|  8> O 3.1379249097 -0.6170982031 -0.0419255521
|  9> P 2.1089198085 0.5647511936 0.2654102244
| 10> S 2.9257871108 2.2743687246 0.7574765096
| 11> O 1.1639297401 -0.0970123443 1.3489231145
| 12> C 1.4239524345 0.0059598187 2.7617690165
| 13> C 2.6231447207 -0.8213164151 3.1740765799
| 14> S 0.7814227693 0.5898749018 -1.3814701491
| 15> C 0.4350828914 -1.1836434804 -1.5405262337
| 16> S -0.6345114513 -1.8686296453 -0.236086742
| 17> P -2.165703021 -0.4408448927 -0.3498038394
| 18> S -2.6716329761 0.2087097986 -2.1344016924
| 19> O -1.6796336257 0.6450291221 0.6950064499
| 20> C -2.1767882772 2.0014040206 0.6957590742
| 21> C -1.1414657354 2.886048132 1.358600246
| 22> O -3.3598485302 -1.1157696996 0.4557688115
| 23> C -4.2398481237 -2.085240594 -0.1505686616
| 24> C -5.5522358438 -2.0682230266 0.6069835774
| 25> H 3.6752558119 0.908757651 -2.2487327062
| 26> H 5.2102865267 0.1044543878 -2.6030483621
| 27> H 3.6953046656 -0.8087320937 -2.6779969409
| 28> H 4.9063283634 0.4391683466 -0.157184143
| 29> H 4.949626176 -1.3059117577 -0.5530965319
| 30> H 1.5767227475 1.0616890772 3.0091004199
| 31> H 0.5024870989 -0.3552508444 3.2212854051
| 32> H 2.71397675 -0.8079436218 4.2557272815
| 33> H 2.5061615907 -1.8464133195 2.8321458633
| 34> H 3.5289241857 -0.4028239452 2.7376920592
| 35> H 1.3612263683 -1.7516192307 -1.5026074447
| 36> H -0.0622761733 -1.2903192638 -2.5033708078
| 37> H -2.3606809679 2.3065807185 -0.3404740281
| 38> H -3.1200566616 2.0117985833 1.2469475747
| 39> H -1.5022008123 3.9093142952 1.3719965409
| 40> H -0.9617587971 2.5532883685 2.3771511576
| 41> H -0.2023548086 2.8515129119 0.8088523331
| 42> H -4.3813358841 -1.8168464686 -1.2029648466
| 43> H -3.7557752948 -3.06311744 -0.0897564317
| 44> H -5.3772818083 -2.2886064236 1.6560677233
| 45> H -6.0195519258 -1.0908400972 0.5250938447
| 46> H -6.2147045814 -2.8176688958 0.1865663698
| 47> *
| 48>
| 49>                          ****END OF INPUT****

CARTESIAN COORDINATES (ANGSTROEM)
---------------------------------
  C      4.231637   -0.023409   -2.151574
  C      4.398904   -0.373754   -0.686329
  O      3.137925   -0.617098   -0.041926
  P      2.108920    0.564751    0.265410
  S      2.925787    2.274369    0.757477
  O      1.163930   -0.097012    1.348923
  C      1.423952    0.005960    2.761769
  C      2.623145   -0.821316    3.174077
  S      0.781423    0.589875   -1.381470
  C      0.435083   -1.183643   -1.540526
  S     -0.634511   -1.868630   -0.236087
  P     -2.165703   -0.440845   -0.349804
  S     -2.671633    0.208710   -2.134402
  O     -1.679634    0.645029    0.695006
  C     -2.176788    2.001404    0.695759
  C     -1.141466    2.886048    1.358600
  O     -3.359849   -1.115770    0.455769
  C     -4.239848   -2.085241   -0.150569
  C     -5.552236   -2.068223    0.606984
  H      3.675256    0.908758   -2.248733
  H      5.210287    0.104454   -2.603048
  H      3.695305   -0.808732   -2.677997
  H      4.906328    0.439168   -0.157184
  H      4.949626   -1.305912   -0.553097
  H      1.576723    1.061689    3.009100
  H      0.502487   -0.355251    3.221285
  H      2.713977   -0.807944    4.255727
  H      2.506162   -1.846413    2.832146
  H      3.528924   -0.402824    2.737692
  H      1.361226   -1.751619   -1.502607
  H     -0.062276   -1.290319   -2.503371
  H     -2.360681    2.306581   -0.340474
  H     -3.120057    2.011799    1.246948
  H     -1.502201    3.909314    1.371997
  H     -0.961759    2.553288    2.377151
  H     -0.202355    2.851513    0.808852
  H     -4.381336   -1.816846   -1.202965
  H     -3.755775   -3.063117   -0.089756
  H     -5.377282   -2.288606    1.656068
  H     -6.019552   -1.090840    0.525094
  H     -6.214705   -2.817669    0.186566

 Total Charge           Charge          ....    0
 Multiplicity           Mult            ....    1
 Number of Electrons    NEL             ....  202
 Basis Dimension        Dim             ....  539

ORBITAL ENERGIES
----------------

  NO   OCC          E(Eh)            E(eV)
   0   2.0000     -88.575482     -2410.2614
   1   2.0000     -88.574515     -2410.2351
   2   2.0000     -88.523769     -2408.8542
   3   2.0000     -88.517286     -2408.6778
   4   2.0000     -76.913872     -2092.9329
   5   2.0000     -76.911550     -2092.8697
   6   2.0000     -18.993725      -516.8455
   7   2.0000     -18.989682      -516.7355
   8   2.0000     -18.986095      -516.6379
   9   2.0000     -18.984070      -516.5828
  10   2.0000     -10.111631      -275.1515
  11   2.0000     -10.100744      -274.8552
  12   2.0000     -10.096476      -274.7391
  13   2.0000     -10.096230      -274.7324
  14   2.0000     -10.090663      -274.5809
  15   2.0000     -10.032006      -272.9848
  16   2.0000     -10.031576      -272.9730
  17   2.0000     -10.028998      -272.9029
  18   2.0000     -10.021240      -272.6918
  19   2.0000      -7.869592      -214.1425
  20   2.0000      -7.869198      -214.1318
  21   2.0000      -7.818390      -212.7492
  22   2.0000      -7.812046      -212.5766
  23   2.0000      -6.592384      -179.3879
  24   2.0000      -6.589980      -179.3225
  25   2.0000      -5.817002      -158.2887
  26   2.0000      -5.816202      -158.2669
  27   2.0000      -5.813094      -158.1823
  28   2.0000      -5.813018      -158.1803
  29   2.0000      -5.806535      -158.0039
  30   2.0000      -5.806148      -157.9933
  31   2.0000      -5.765979      -156.9003
  32   2.0000      -5.759625      -156.7274
  33   2.0000      -5.758767      -156.7040
  34   2.0000      -5.758379      -156.6935
  35   2.0000      -5.752379      -156.5302
  36   2.0000      -5.752064      -156.5216
  37   2.0000      -4.737659      -128.9183
  38   2.0000      -4.737467      -128.9130
  39   2.0000      -4.736186      -128.8782
  40   2.0000      -4.735377      -128.8561
  41   2.0000      -4.734937      -128.8442
  42   2.0000      -4.733792      -128.8130
  43   2.0000      -1.049738       -28.5648
  44   2.0000      -1.045065       -28.4377
  45   2.0000      -1.011219       -27.5167
  46   2.0000      -1.005340       -27.3567
  47   2.0000      -0.802756       -21.8441
  48   2.0000      -0.758841       -20.6491
  49   2.0000      -0.748402       -20.3650
  50   2.0000      -0.732485       -19.9319
  51   2.0000      -0.728358       -19.8196
  52   2.0000      -0.710128       -19.3236
  53   2.0000      -0.686950       -18.6929
  54   2.0000      -0.668090       -18.1796
  55   2.0000      -0.631844       -17.1933
  56   2.0000      -0.620685       -16.8897
  57   2.0000      -0.606953       -16.5160
  58   2.0000      -0.600599       -16.3431
  59   2.0000      -0.588249       -16.0071
  60   2.0000      -0.530815       -14.4442
  61   2.0000      -0.519557       -14.1379
  62   2.0000      -0.496549       -13.5118
  63   2.0000      -0.493334       -13.4243
  64   2.0000      -0.477434       -12.9916
  65   2.0000      -0.460862       -12.5407
  66   2.0000      -0.457124       -12.4390
  67   2.0000      -0.450153       -12.2493
  68   2.0000      -0.446508       -12.1501
  69   2.0000      -0.432624       -11.7723
  70   2.0000      -0.423758       -11.5310
  71   2.0000      -0.412375       -11.2213
  72   2.0000      -0.410780       -11.1779
  73   2.0000      -0.407187       -11.0801
  74   2.0000      -0.391762       -10.6604
  75   2.0000      -0.390375       -10.6226
  76   2.0000      -0.383760       -10.4426
  77   2.0000      -0.372887       -10.1468
  78   2.0000      -0.370660       -10.0862
  79   2.0000      -0.363615        -9.8945
  80   2.0000      -0.362613        -9.8672
  81   2.0000      -0.359893        -9.7932
  82   2.0000      -0.355621        -9.6769
  83   2.0000      -0.348024        -9.4702
  84   2.0000      -0.343403        -9.3445
  85   2.0000      -0.335259        -9.1229
  86   2.0000      -0.325020        -8.8442
  87   2.0000      -0.314263        -8.5515
  88   2.0000      -0.308799        -8.4029
  89   2.0000      -0.306319        -8.3354
  90   2.0000      -0.298184        -8.1140
  91   2.0000      -0.289160        -7.8684
  92   2.0000      -0.279686        -7.6106
  93   2.0000      -0.277838        -7.5604
  94   2.0000      -0.274979        -7.4826
  95   2.0000      -0.242584        -6.6011
  96   2.0000      -0.230829        -6.2812
  97   2.0000      -0.224584        -6.1112
  98   2.0000      -0.221944        -6.0394
  99   2.0000      -0.212158        -5.7731
 100   2.0000      -0.211418        -5.7530
 101   0.0000      -0.046093        -1.2543
 102   0.0000      -0.021452        -0.5837
 103   0.0000      -0.009223        -0.2510
 104   0.0000       0.004630         0.1260
 105   0.0000       0.006731         0.1832

MULLIKEN ATOMIC CHARGES
-----------------------
   0 C :   -0.433629
   1 C :   -0.160873
   2 O :   -0.306855
   3 P :    0.671197
   4 S :   -0.470171
   5 O :   -0.226156
   6 C :   -0.172735
   7 C :   -0.440680
   8 S :   -0.117864
   9 C :   -0.249551
  10 S :   -0.127010
  11 P :    0.709802
  12 S :   -0.490637
  13 O :   -0.259778
  14 C :   -0.136828
  15 C :   -0.454615
  16 O :   -0.297670
  17 C :   -0.143779
  18 C :   -0.445107
  19 H :    0.177740
  20 H :    0.149026
  21 H :    0.145263
  22 H :    0.171256
  23 H :    0.148691
  24 H :    0.172365
  25 H :    0.159949
  26 H :    0.146844
  27 H :    0.157641
  28 H :    0.162810
  29 H :    0.188127
  30 H :    0.209609
  31 H :    0.171555
  32 H :    0.144430
  33 H :    0.144812
  34 H :    0.146925
  35 H :    0.180195
  36 H :    0.170789
  37 H :    0.148309
  38 H :    0.152935
  39 H :    0.157336
  40 H :    0.146332
Sum of atomic charges:   -0.0000000

LOEWDIN ATOMIC CHARGES
----------------------
   0 C :   -0.402740
   1 C :    0.016505
   2 O :   -0.681683
   3 P :    0.372277
   4 S :   -0.114481
   5 O :   -0.686389
   6 C :    0.021395
   7 C :   -0.398040
   8 S :    0.190180
   9 C :   -0.409572
  10 S :    0.188225
  11 P :    0.366434
  12 S :   -0.135324
  13 O :   -0.665460
  14 C :    0.022544
  15 C :   -0.389885
  16 O :   -0.663522
  17 C :    0.018741
  18 C :   -0.386855
  19 H :    0.167935
  20 H :    0.160122
  21 H :    0.155543
  22 H :    0.180523
  23 H :    0.178650
  24 H :    0.180171
  25 H :    0.182602
  26 H :    0.159030
  27 H :    0.161536
  28 H :    0.163225
  29 H :    0.186853
  30 H :    0.190696
  31 H :    0.182896
  32 H :    0.170361
  33 H :    0.159079
  34 H :    0.157506
  35 H :    0.169409
  36 H :    0.181260
  37 H :    0.170511
  38 H :    0.159328
  39 H :    0.160747
  40 H :    0.159665

  Mayer bond orders larger than 0.100000
B(  0-C ,  1-C ) :   0.9308 B(  0-C , 19-H ) :   0.9598 B(  0-C , 20-H ) :   0.9605
B(  0-C , 21-H ) :   0.9704 B(  1-C ,  2-O ) :   0.8114 B(  1-C , 22-H ) :   0.9611
B(  1-C , 23-H ) :   0.9592 B(  2-O ,  3-P ) :   1.0174 B(  3-P ,  4-S ) :   1.7937
B(  3-P ,  5-O ) :   1.1305 B(  3-P ,  8-S ) :   1.0702 B(  5-O ,  6-C ) :   0.7836
B(  6-C ,  7-C ) :   0.9220 B(  6-C , 24-H ) :   0.9599 B(  6-C , 25-H ) :   0.9631
B(  7-C , 26-H ) :   0.9624 B(  7-C , 27-H ) :   0.9743 B(  7-C , 28-H ) :   0.9625
B(  8-S ,  9-C ) :   0.9104 B(  9-C , 10-S ) :   0.9208 B(  9-C , 29-H ) :   0.9170
B(  9-C , 30-H ) :   0.9149 B( 10-S , 11-P ) :   1.0912 B( 11-P , 12-S ) :   1.7222
B( 11-P , 13-O ) :   1.1946 B( 11-P , 16-O ) :   1.0891 B( 13-O , 14-C ) :   0.7788
B( 14-C , 15-C ) :   0.9508 B( 14-C , 31-H ) :   0.9597 B( 14-C , 32-H ) :   0.9422
B( 15-C , 33-H ) :   0.9634 B( 15-C , 34-H ) :   0.9684 B( 15-C , 35-H ) :   0.9634
B( 16-O , 17-C ) :   0.7743 B( 17-C , 18-C ) :   0.9582 B( 17-C , 36-H ) :   0.9514
B( 17-C , 37-H ) :   0.9460 B( 18-C , 38-H ) :   0.9720 B( 18-C , 39-H ) :   0.9720
B( 18-C , 40-H ) :   0.9648

Dispersion correction           -0.021816389
FINAL SINGLE POINT ENERGY     -2932.461134700780

DIPOLE MOMENT
-------------

Method             : SCF
Type of density    : Electron Density
Multiplicity       :   1
Irrep              :   0
Energy             : -2932.4857366194937640 Eh
Relativity type    :
Basis              : AO
                                X                 Y                 Z
Electronic contribution:     -0.497315131       2.227373821      -9.211019331
Nuclear contribution   :      0.655203356      -3.446280072       9.907998103
                        -----------------------------------------
Total Dipole Moment    :      0.157888225      -1.218906251       0.696978771
                        -----------------------------------------
Magnitude (a.u.)       :      1.412954546
Magnitude (Debye)      :      3.591445038

Rotational constants in cm-1:             0.013010             0.004943             0.004734
Rotational constants in MHz :           390.032408           148.191992           141.924987

                             ****ORCA TERMINATED NORMALLY****
TOTAL RUN TIME: 0 days 0 hours 1 minutes 22 seconds 479 msec
