                         Program Version 6.0.0  -   RELEASE  -
|  1> ! r2scan-3c def2/J RI DEFGRID2 scfconv6 printgap
|  2> %output
|  3>     printlevel normal
|  4> end
|  5> %cpcm
|  6>     smd true
|  7>     smdsolvent "water"
|  8> end
|  9> * xyz 0 1
| 10> C 4.2316373138 -0.0234093054 -2.151574302
| 11> C 4.398903967 -0.3737539876 -0.6863286544
| 12> O 3.1379249097 -0.6170982031 -0.0419255521
| 13> P 2.1089198085 0.5647511936 0.2654102244
| 14> S 2.9257871108 2.2743687246 0.7574765096
| 15> O 1.1639297401 -0.0970123443 1.3489231145
| 16> C 1.4239524345 0.0059598187 2.7617690165
| 17> C 2.6231447207 -0.8213164151 3.1740765799
| 18> S 0.7814227693 0.5898749018 -1.3814701491
| 19> C 0.4350828914 -1.1836434804 -1.5405262337
| 20> S -0.6345114513 -1.8686296453 -0.236086742
| 21> P -2.165703021 -0.4408448927 -0.3498038394
| 22> S -2.6716329761 0.2087097986 -2.1344016924
| 23> O -1.6796336257 0.6450291221 0.6950064499
| 24> C -2.1767882772 2.0014040206 0.6957590742
| 25> C -1.1414657354 2.886048132 1.358600246
| 26> O -3.3598485302 -1.1157696996 0.4557688115
| 27> C -4.2398481237 -2.085240594 -0.1505686616
| 28> C -5.5522358438 -2.0682230266 0.6069835774
| 29> H 3.6752558119 0.908757651 -2.2487327062
| 30> H 5.2102865267 0.1044543878 -2.6030483621
| 31> H 3.6953046656 -0.8087320937 -2.6779969409
| 32> H 4.9063283634 0.4391683466 -0.157184143
| 33> H 4.949626176 -1.3059117577 -0.5530965319
| 34> H 1.5767227475 1.0616890772 3.0091004199
| 35> H 0.5024870989 -0.3552508444 3.2212854051
| 36> H 2.71397675 -0.8079436218 4.2557272815
| 37> H 2.5061615907 -1.8464133195 2.8321458633
| 38> H 3.5289241857 -0.4028239452 2.7376920592
| 39> H 1.3612263683 -1.7516192307 -1.5026074447
| 40> H -0.0622761733 -1.2903192638 -2.5033708078
| 41> H -2.3606809679 2.3065807185 -0.3404740281
| 42> H -3.1200566616 2.0117985833 1.2469475747
| 43> H -1.5022008123 3.9093142952 1.3719965409
| 44> H -0.9617587971 2.5532883685 2.3771511576
| 45> H -0.2023548086 2.8515129119 0.8088523331
| 46> H -4.3813358841 -1.8168464686 -1.2029648466
| 47> H -3.7557752948 -3.06311744 -0.0897564317
| 48> H -5.3772818083 -2.2886064236 1.6560677233
| 49> H -6.0195519258 -1.0908400972 0.5250938447
| 50> H -6.2147045814 -2.8176688958 0.1865663698
| 51> *
| 52>
| 53>                          ****END OF INPUT****

CARTESIAN COORDINATES (ANGSTROEM)
---------------------------------
  C      4.231637   -0.023409   -2.151574
  C      4.398904   -0.373754   -0.686329
  O      3.137925   -0.617098   -0.041926
  P      2.108920    0.564751    0.265410
  S      2.925787    2.274369    0.757477
  O      1.163930   -0.097012    1.348923
  C      1.423952    0.005960    2.761769
  C      2.623145   -0.821316    3.174077
  S      0.781423    0.589875   -1.381470
  C      0.435083   -1.183643   -1.540526
  S     -0.634511   -1.868630   -0.236087
  P     -2.165703   -0.440845   -0.349804
  S     -2.671633    0.208710   -2.134402
  O     -1.679634    0.645029    0.695006
  C     -2.176788    2.001404    0.695759
  C     -1.141466    2.886048    1.358600
  O     -3.359849   -1.115770    0.455769
  C     -4.239848   -2.085241   -0.150569
  C     -5.552236   -2.068223    0.606984
  H      3.675256    0.908758   -2.248733
  H      5.210287    0.104454   -2.603048
  H      3.695305   -0.808732   -2.677997
  H      4.906328    0.439168   -0.157184
  H      4.949626   -1.305912   -0.553097
  H      1.576723    1.061689    3.009100
  H      0.502487   -0.355251    3.221285
  H      2.713977   -0.807944    4.255727
  H      2.506162   -1.846413    2.832146
  H      3.528924   -0.402824    2.737692
  H      1.361226   -1.751619   -1.502607
  H     -0.062276   -1.290319   -2.503371
  H     -2.360681    2.306581   -0.340474
  H     -3.120057    2.011799    1.246948
  H     -1.502201    3.909314    1.371997
  H     -0.961759    2.553288    2.377151
  H     -0.202355    2.851513    0.808852
  H     -4.381336   -1.816846   -1.202965
  H     -3.755775   -3.063117   -0.089756
  H     -5.377282   -2.288606    1.656068
  H     -6.019552   -1.090840    0.525094
  H     -6.214705   -2.817669    0.186566

 Total Charge           Charge          ....    0
 Multiplicity           Mult            ....    1
 Number of Electrons    NEL             ....  202
 Basis Dimension        Dim             ....  539

ORBITAL ENERGIES
----------------

  NO   OCC          E(Eh)            E(eV)
   0   2.0000     -88.578379     -2410.3402
   1   2.0000     -88.578269     -2410.3372
   2   2.0000     -88.530278     -2409.0313
   3   2.0000     -88.526358     -2408.9247
   4   2.0000     -76.918363     -2093.0551
   5   2.0000     -76.917974     -2093.0445
   6   2.0000     -18.993755      -516.8464
   7   2.0000     -18.992758      -516.8192
   8   2.0000     -18.990871      -516.7679
   9   2.0000     -18.989050      -516.7183
  10   2.0000     -10.107826      -275.0479
  11   2.0000     -10.088846      -274.5314
  12   2.0000     -10.088773      -274.5295
  13   2.0000     -10.088577      -274.5241
  14   2.0000     -10.088265      -274.5157
  15   2.0000     -10.019243      -272.6375
  16   2.0000     -10.018395      -272.6144
  17   2.0000     -10.018162      -272.6080
  18   2.0000     -10.017823      -272.5988
  19   2.0000      -7.872989      -214.2349
  20   2.0000      -7.872513      -214.2220
  21   2.0000      -7.825246      -212.9358
  22   2.0000      -7.821424      -212.8318
  23   2.0000      -6.596856      -179.5096
  24   2.0000      -6.596512      -179.5002
  25   2.0000      -5.819967      -158.3694
  26   2.0000      -5.819877      -158.3669
  27   2.0000      -5.816792      -158.2829
  28   2.0000      -5.815991      -158.2612
  29   2.0000      -5.810009      -158.0984
  30   2.0000      -5.809518      -158.0850
  31   2.0000      -5.772755      -157.0846
  32   2.0000      -5.768932      -156.9806
  33   2.0000      -5.765643      -156.8911
  34   2.0000      -5.765229      -156.8799
  35   2.0000      -5.761749      -156.7852
  36   2.0000      -5.761461      -156.7773
  37   2.0000      -4.742230      -129.0426
  38   2.0000      -4.741822      -129.0315
  39   2.0000      -4.741710      -129.0285
  40   2.0000      -4.741606      -129.0257
  41   2.0000      -4.740706      -129.0012
  42   2.0000      -4.740409      -128.9931
  43   2.0000      -1.050873       -28.5957
  44   2.0000      -1.049651       -28.5624
  45   2.0000      -1.011485       -27.5239
  46   2.0000      -1.009903       -27.4809
  47   2.0000      -0.803277       -21.8583
  48   2.0000      -0.756988       -20.5987
  49   2.0000      -0.743085       -20.2204
  50   2.0000      -0.723041       -19.6749
  51   2.0000      -0.722611       -19.6632
  52   2.0000      -0.709369       -19.3029
  53   2.0000      -0.690952       -18.8018
  54   2.0000      -0.674722       -18.3601
  55   2.0000      -0.629080       -17.1181
  56   2.0000      -0.618693       -16.8355
  57   2.0000      -0.599263       -16.3068
  58   2.0000      -0.595705       -16.2100
  59   2.0000      -0.586602       -15.9622
  60   2.0000      -0.530018       -14.4225
  61   2.0000      -0.514691       -14.0055
  62   2.0000      -0.497247       -13.5308
  63   2.0000      -0.488836       -13.3019
  64   2.0000      -0.476305       -12.9609
  65   2.0000      -0.454492       -12.3674
  66   2.0000      -0.453669       -12.3450
  67   2.0000      -0.448631       -12.2079
  68   2.0000      -0.443383       -12.0651
  69   2.0000      -0.429730       -11.6935
  70   2.0000      -0.421089       -11.4584
  71   2.0000      -0.411650       -11.2016
  72   2.0000      -0.406681       -11.0664
  73   2.0000      -0.404228       -10.9996
  74   2.0000      -0.390944       -10.6381
  75   2.0000      -0.386798       -10.5253
  76   2.0000      -0.380777       -10.3615
  77   2.0000      -0.365613        -9.9488
  78   2.0000      -0.362331        -9.8595
  79   2.0000      -0.359045        -9.7701
  80   2.0000      -0.355474        -9.6729
  81   2.0000      -0.352514        -9.5924
  82   2.0000      -0.347491        -9.4557
  83   2.0000      -0.344503        -9.3744
  84   2.0000      -0.341273        -9.2865
  85   2.0000      -0.332133        -9.0378
  86   2.0000      -0.322862        -8.7855
  87   2.0000      -0.311827        -8.4852
  88   2.0000      -0.307450        -8.3661
  89   2.0000      -0.302972        -8.2443
  90   2.0000      -0.299207        -8.1418
  91   2.0000      -0.288933        -7.8623
  92   2.0000      -0.279256        -7.5989
  93   2.0000      -0.277495        -7.5510
  94   2.0000      -0.276279        -7.5179
  95   2.0000      -0.247300        -6.7294
  96   2.0000      -0.236858        -6.4452
  97   2.0000      -0.232446        -6.3252
  98   2.0000      -0.229643        -6.2489
  99   2.0000      -0.219849        -5.9824
 100   2.0000      -0.219120        -5.9626
 101   0.0000      -0.049953        -1.3593
 102   0.0000      -0.026404        -0.7185
 103   0.0000      -0.013078        -0.3559
 104   0.0000       0.000833         0.0227
 105   0.0000       0.003987         0.1085

MULLIKEN ATOMIC CHARGES
-----------------------
   0 C :   -0.472917
   1 C :   -0.156251
   2 O :   -0.321880
   3 P :    0.712198
   4 S :   -0.526080
   5 O :   -0.259395
   6 C :   -0.165816
   7 C :   -0.481386
   8 S :   -0.148823
   9 C :   -0.256952
  10 S :   -0.133450
  11 P :    0.732787
  12 S :   -0.539657
  13 O :   -0.286603
  14 C :   -0.130998
  15 C :   -0.501656
  16 O :   -0.324262
  17 C :   -0.138000
  18 C :   -0.485377
  19 H :    0.167445
  20 H :    0.171398
  21 H :    0.169150
  22 H :    0.174329
  23 H :    0.174981
  24 H :    0.177895
  25 H :    0.180671
  26 H :    0.171823
  27 H :    0.170233
  28 H :    0.167368
  29 H :    0.228788
  30 H :    0.234329
  31 H :    0.172350
  32 H :    0.170977
  33 H :    0.169831
  34 H :    0.169834
  35 H :    0.170382
  36 H :    0.170713
  37 H :    0.170788
  38 H :    0.165490
  39 H :    0.166241
  40 H :    0.169502
Sum of atomic charges:    0.0000000

LOEWDIN ATOMIC CHARGES
----------------------
   0 C :   -0.406631
   1 C :    0.023319
   2 O :   -0.684676
   3 P :    0.378355
   4 S :   -0.150533
   5 O :   -0.701244
   6 C :    0.025247
   7 C :   -0.401250
   8 S :    0.174805
   9 C :   -0.397711
  10 S :    0.187258
  11 P :    0.369360
  12 S :   -0.167957
  13 O :   -0.682225
  14 C :    0.026547
  15 C :   -0.395892
  16 O :   -0.677541
  17 C :    0.023271
  18 C :   -0.390602
  19 H :    0.161743
  20 H :    0.167855
  21 H :    0.162869
  22 H :    0.181156
  23 H :    0.190292
  24 H :    0.182293
  25 H :    0.190646
  26 H :    0.168381
  27 H :    0.164485
  28 H :    0.162749
  29 H :    0.202118
  30 H :    0.199372
  31 H :    0.183060
  32 H :    0.181091
  33 H :    0.168297
  34 H :    0.163351
  35 H :    0.163183
  36 H :    0.181520
  37 H :    0.179552
  38 H :    0.162962
  39 H :    0.162343
  40 H :    0.168786

  Mayer bond orders larger than 0.100000
B(  0-C ,  1-C ) :   0.9193 B(  0-C , 19-H ) :   0.9625 B(  0-C , 20-H ) :   0.9560
B(  0-C , 21-H ) :   0.9663 B(  1-C ,  2-O ) :   0.7982 B(  1-C , 22-H ) :   0.9605
B(  1-C , 23-H ) :   0.9493 B(  2-O ,  3-P ) :   1.0355 B(  3-P ,  4-S ) :   1.7472
B(  3-P ,  5-O ) :   1.1377 B(  3-P ,  8-S ) :   1.0769 B(  5-O ,  6-C ) :   0.7749
B(  6-C ,  7-C ) :   0.9127 B(  6-C , 24-H ) :   0.9541 B(  6-C , 25-H ) :   0.9536
B(  7-C , 26-H ) :   0.9564 B(  7-C , 27-H ) :   0.9722 B(  7-C , 28-H ) :   0.9607
B(  8-S ,  9-C ) :   0.9052 B(  9-C , 10-S ) :   0.9117 B(  9-C , 29-H ) :   0.9046
B(  9-C , 30-H ) :   0.9061 B( 10-S , 11-P ) :   1.1141 B( 11-P , 12-S ) :   1.6835
B( 11-P , 13-O ) :   1.1926 B( 11-P , 16-O ) :   1.0945 B( 13-O , 14-C ) :   0.7732
B( 14-C , 15-C ) :   0.9409 B( 14-C , 31-H ) :   0.9580 B( 14-C , 32-H ) :   0.9336
B( 15-C , 33-H ) :   0.9571 B( 15-C , 34-H ) :   0.9648 B( 15-C , 35-H ) :   0.9668
B( 16-O , 17-C ) :   0.7661 B( 17-C , 18-C ) :   0.9541 B( 17-C , 36-H ) :   0.9487
B( 17-C , 37-H ) :   0.9370 B( 18-C , 38-H ) :   0.9690 B( 18-C , 39-H ) :   0.9696
B( 18-C , 40-H ) :   0.9588

Dispersion correction           -0.021816389
FINAL SINGLE POINT ENERGY     -2932.470792100279

DIPOLE MOMENT
-------------

Method             : SCF
Type of density    : Electron Density
Multiplicity       :   1
Irrep              :   0
Energy             : -2932.4953940189925561 Eh
Relativity type    :
Basis              : AO
                                X                 Y                 Z
Electronic contribution:     -0.386039395       1.628100984      -9.111959979
Nuclear contribution   :      0.655203356      -3.446280072       9.907998103
                        -----------------------------------------
Total Dipole Moment    :      0.269163961      -1.818179088       0.796038123
                        -----------------------------------------
Magnitude (a.u.)       :      2.002973072
Magnitude (Debye)      :      5.091152948

Rotational constants in cm-1:             0.013010             0.004943             0.004734
Rotational constants in MHz :           390.032408           148.191992           141.924987

                             ****ORCA TERMINATED NORMALLY****
TOTAL RUN TIME: 0 days 0 hours 1 minutes 52 seconds 606 msec
