                         Program Version 6.0.0  -   RELEASE  -
|  1> ! pbe def2-sv(p) def2/J RI DEFGRID1 loosescf d4 GCP(DFT/SV(P)) printgap
|  2> %output
|  3>     printlevel normal
|  4> end
|  5> * xyz 0 1
|  6> C 2.3052979854 -3.0012884594 -0.3067729044
|  7> C 2.9590536708 -2.0131929427 0.6380508648
|  8> O 2.2175842255 -0.7749511456 0.6820918613
|  9> P 2.6304115186 0.4884102837 -0.2107078864
| 10> S 3.4220912585 0.1012862339 -1.9543848379
| 11> O 3.6369100343 1.3396546614 0.6706599825
| 12> C 3.3795865974 1.7083079356 2.0489659668
| 13> C 2.8297490206 3.1175519225 2.1388832235
| 14> S 0.8062467297 1.5451355158 -0.1918123726
| 15> C 0.0248549387 0.6129288915 -1.534900039
| 16> S -0.6040703345 -1.007111436 -1.0148084342
| 17> P -2.4579807347 -0.3794738418 -0.2085420462
| 18> S -2.7903571149 1.5460262198 0.0020621318
| 19> O -2.6600608023 -1.2458288477 1.1103381169
| 20> C -2.2641623197 -0.7801853757 2.4110090995
| 21> C -0.7578880722 -0.7568544798 2.5730895542
| 22> O -3.4017757819 -1.1272732927 -1.2380803849
| 23> C -4.7957790452 -0.7914578392 -1.3945642382
| 24> C -5.6129534751 -1.1646054871 -0.1752592465
| 25> H 1.2655435728 -3.1552887175 -0.0327067743
| 26> H 2.3392573866 -2.6229504882 -1.3260364996
| 27> H 2.837834967 -3.945671349 -0.2609145845
| 28> H 3.9885696964 -1.8064256526 0.3303685566
| 29> H 2.9482441621 -2.3779409232 1.6665984029
| 30> H 2.6899284701 0.9837720918 2.488703126
| 31> H 4.3552015384 1.6342644633 2.5325529665
| 32> H 1.8503397238 3.1785843404 1.6683917958
| 33> H 2.7394440382 3.3965782032 3.1839749509
| 34> H 3.5004654738 3.8107497717 1.6389144505
| 35> H 0.7662785777 0.4322865327 -2.3138592576
| 36> H -0.7953278783 1.2279567884 -1.8997306857
| 37> H -2.6817879714 0.2204703948 2.5638869872
| 38> H -2.7312812902 -1.487847515 3.0975100987
| 39> H -0.3236941528 -1.36485e-05 1.920874176
| 40> H -0.5107132109 -0.5161084896 3.602161998
| 41> H -0.3345983852 -1.7245278413 2.315430566
| 42> H -4.8717718339 0.2819086407 -1.5963040142
| 43> H -5.1013324612 -1.3575599559 -2.2755017545
| 44> H -6.6659851652 -1.0072238938 -0.3869901935
| 45> H -5.446464604 -2.2071331955 0.0826432011
| 46> H -5.3251511174 -0.5414302569 0.6700857826
| 47> *
| 48>
| 49>                          ****END OF INPUT****

CARTESIAN COORDINATES (ANGSTROEM)
---------------------------------
  C      2.305298   -3.001288   -0.306773
  C      2.959054   -2.013193    0.638051
  O      2.217584   -0.774951    0.682092
  P      2.630412    0.488410   -0.210708
  S      3.422091    0.101286   -1.954385
  O      3.636910    1.339655    0.670660
  C      3.379587    1.708308    2.048966
  C      2.829749    3.117552    2.138883
  S      0.806247    1.545136   -0.191812
  C      0.024855    0.612929   -1.534900
  S     -0.604070   -1.007111   -1.014808
  P     -2.457981   -0.379474   -0.208542
  S     -2.790357    1.546026    0.002062
  O     -2.660061   -1.245829    1.110338
  C     -2.264162   -0.780185    2.411009
  C     -0.757888   -0.756854    2.573090
  O     -3.401776   -1.127273   -1.238080
  C     -4.795779   -0.791458   -1.394564
  C     -5.612953   -1.164605   -0.175259
  H      1.265544   -3.155289   -0.032707
  H      2.339257   -2.622950   -1.326036
  H      2.837835   -3.945671   -0.260915
  H      3.988570   -1.806426    0.330369
  H      2.948244   -2.377941    1.666598
  H      2.689928    0.983772    2.488703
  H      4.355202    1.634264    2.532553
  H      1.850340    3.178584    1.668392
  H      2.739444    3.396578    3.183975
  H      3.500465    3.810750    1.638914
  H      0.766279    0.432287   -2.313859
  H     -0.795328    1.227957   -1.899731
  H     -2.681788    0.220470    2.563887
  H     -2.731281   -1.487848    3.097510
  H     -0.323694   -0.000014    1.920874
  H     -0.510713   -0.516108    3.602162
  H     -0.334598   -1.724528    2.315431
  H     -4.871772    0.281909   -1.596304
  H     -5.101332   -1.357560   -2.275502
  H     -6.665985   -1.007224   -0.386990
  H     -5.446465   -2.207133    0.082643
  H     -5.325151   -0.541430    0.670086

 Total Charge           Charge          ....    0
 Multiplicity           Mult            ....    1
 Number of Electrons    NEL             ....  202
 Basis Dimension        Dim             ....  334

ORBITAL ENERGIES
----------------

  NO   OCC          E(Eh)            E(eV)
   0   2.0000     -88.044238     -2395.8055
   1   2.0000     -88.041617     -2395.7342
   2   2.0000     -87.995046     -2394.4669
   3   2.0000     -87.985062     -2394.1952
   4   2.0000     -76.428703     -2079.7307
   5   2.0000     -76.425124     -2079.6334
   6   2.0000     -18.795195      -511.4433
   7   2.0000     -18.794592      -511.4269
   8   2.0000     -18.791298      -511.3372
   9   2.0000     -18.790169      -511.3065
  10   2.0000      -9.960901      -271.0499
  11   2.0000      -9.954560      -270.8774
  12   2.0000      -9.953481      -270.8480
  13   2.0000      -9.953137      -270.8386
  14   2.0000      -9.953003      -270.8350
  15   2.0000      -9.891111      -269.1508
  16   2.0000      -9.885666      -269.0027
  17   2.0000      -9.881814      -268.8978
  18   2.0000      -9.878584      -268.8099
  19   2.0000      -7.688791      -209.2226
  20   2.0000      -7.686842      -209.1696
  21   2.0000      -7.639843      -207.8907
  22   2.0000      -7.630394      -207.6336
  23   2.0000      -6.426517      -174.8744
  24   2.0000      -6.423298      -174.7868
  25   2.0000      -5.716553      -155.5553
  26   2.0000      -5.714735      -155.5058
  27   2.0000      -5.713462      -155.4712
  28   2.0000      -5.711489      -155.4175
  29   2.0000      -5.705748      -155.2613
  30   2.0000      -5.703566      -155.2019
  31   2.0000      -5.668625      -154.2511
  32   2.0000      -5.660560      -154.0317
  33   2.0000      -5.660103      -154.0192
  34   2.0000      -5.659442      -154.0013
  35   2.0000      -5.651083      -153.7738
  36   2.0000      -5.650278      -153.7519
  37   2.0000      -4.648778      -126.4997
  38   2.0000      -4.648238      -126.4850
  39   2.0000      -4.647267      -126.4586
  40   2.0000      -4.646352      -126.4337
  41   2.0000      -4.644625      -126.3867
  42   2.0000      -4.643674      -126.3608
  43   2.0000      -0.988102       -26.8876
  44   2.0000      -0.986037       -26.8314
  45   2.0000      -0.947071       -25.7711
  46   2.0000      -0.944450       -25.6998
  47   2.0000      -0.765127       -20.8202
  48   2.0000      -0.724263       -19.7082
  49   2.0000      -0.710741       -19.3402
  50   2.0000      -0.691981       -18.8298
  51   2.0000      -0.687861       -18.7177
  52   2.0000      -0.674743       -18.3607
  53   2.0000      -0.653371       -17.7791
  54   2.0000      -0.640457       -17.4277
  55   2.0000      -0.604518       -16.4498
  56   2.0000      -0.587517       -15.9872
  57   2.0000      -0.579896       -15.7798
  58   2.0000      -0.573318       -15.6008
  59   2.0000      -0.556746       -15.1498
  60   2.0000      -0.508865       -13.8469
  61   2.0000      -0.494967       -13.4687
  62   2.0000      -0.476817       -12.9749
  63   2.0000      -0.474699       -12.9172
  64   2.0000      -0.460954       -12.5432
  65   2.0000      -0.448338       -12.1999
  66   2.0000      -0.440868       -11.9966
  67   2.0000      -0.438920       -11.9436
  68   2.0000      -0.432033       -11.7562
  69   2.0000      -0.417028       -11.3479
  70   2.0000      -0.407362       -11.0849
  71   2.0000      -0.395014       -10.7489
  72   2.0000      -0.390918       -10.6374
  73   2.0000      -0.389078       -10.5874
  74   2.0000      -0.383185       -10.4270
  75   2.0000      -0.372291       -10.1305
  76   2.0000      -0.370372       -10.0783
  77   2.0000      -0.359902        -9.7934
  78   2.0000      -0.356276        -9.6948
  79   2.0000      -0.354576        -9.6485
  80   2.0000      -0.351907        -9.5759
  81   2.0000      -0.348041        -9.4707
  82   2.0000      -0.342076        -9.3084
  83   2.0000      -0.340152        -9.2560
  84   2.0000      -0.335688        -9.1345
  85   2.0000      -0.317699        -8.6450
  86   2.0000      -0.310674        -8.4539
  87   2.0000      -0.305411        -8.3107
  88   2.0000      -0.296456        -8.0670
  89   2.0000      -0.286352        -7.7920
  90   2.0000      -0.283710        -7.7201
  91   2.0000      -0.276195        -7.5157
  92   2.0000      -0.274195        -7.4612
  93   2.0000      -0.272319        -7.4102
  94   2.0000      -0.262539        -7.1440
  95   2.0000      -0.231224        -6.2919
  96   2.0000      -0.219214        -5.9651
  97   2.0000      -0.214533        -5.8377
  98   2.0000      -0.209687        -5.7059
  99   2.0000      -0.204010        -5.5514
 100   2.0000      -0.198607        -5.4044
 101   0.0000      -0.044413        -1.2085
 102   0.0000      -0.029227        -0.7953
 103   0.0000      -0.006863        -0.1867
 104   0.0000       0.005007         0.1363
 105   0.0000       0.007967         0.2168

MULLIKEN ATOMIC CHARGES
-----------------------
   0 C :   -0.298710
   1 C :   -0.008883
   2 O :   -0.382292
   3 P :    0.614435
   4 S :   -0.311718
   5 O :   -0.365656
   6 C :   -0.030834
   7 C :   -0.301804
   8 S :   -0.086998
   9 C :   -0.350850
  10 S :   -0.069282
  11 P :    0.612148
  12 S :   -0.335581
  13 O :   -0.371774
  14 C :   -0.002989
  15 C :   -0.340486
  16 O :   -0.365050
  17 C :   -0.004001
  18 C :   -0.306992
  19 H :    0.125413
  20 H :    0.123074
  21 H :    0.107168
  22 H :    0.106283
  23 H :    0.100687
  24 H :    0.112211
  25 H :    0.111593
  26 H :    0.137866
  27 H :    0.112463
  28 H :    0.125799
  29 H :    0.191163
  30 H :    0.192917
  31 H :    0.108922
  32 H :    0.103251
  33 H :    0.153887
  34 H :    0.105117
  35 H :    0.118405
  36 H :    0.111080
  37 H :    0.107661
  38 H :    0.112351
  39 H :    0.118439
  40 H :    0.121566
Sum of atomic charges:   -0.0000000

LOEWDIN ATOMIC CHARGES
----------------------
   0 C :   -0.365469
   1 C :   -0.116781
   2 O :   -0.254552
   3 P :    0.568573
   4 S :   -0.310108
   5 O :   -0.244054
   6 C :   -0.117770
   7 C :   -0.360790
   8 S :    0.103043
   9 C :   -0.480898
  10 S :    0.104633
  11 P :    0.572764
  12 S :   -0.318616
  13 O :   -0.243218
  14 C :   -0.119149
  15 C :   -0.373470
  16 O :   -0.244179
  17 C :   -0.116162
  18 C :   -0.364400
  19 H :    0.121625
  20 H :    0.122916
  21 H :    0.128262
  22 H :    0.109625
  23 H :    0.115148
  24 H :    0.110894
  25 H :    0.121890
  26 H :    0.120692
  27 H :    0.131557
  28 H :    0.131828
  29 H :    0.129811
  30 H :    0.132246
  31 H :    0.109066
  32 H :    0.117470
  33 H :    0.114912
  34 H :    0.127488
  35 H :    0.123893
  36 H :    0.110837
  37 H :    0.120205
  38 H :    0.130436
  39 H :    0.127245
  40 H :    0.122556

  Mayer bond orders larger than 0.100000
B(  0-C ,  1-C ) :   1.1726 B(  0-C , 19-H ) :   0.9422 B(  0-C , 20-H ) :   0.9354
B(  0-C , 21-H ) :   0.9385 B(  1-C ,  2-O ) :   0.8955 B(  1-C , 22-H ) :   0.9140
B(  1-C , 23-H ) :   0.9323 B(  2-O ,  3-P ) :   1.0766 B(  3-P ,  4-S ) :   1.6273
B(  3-P ,  5-O ) :   1.1264 B(  3-P ,  8-S ) :   0.9663 B(  5-O ,  6-C ) :   0.9018
B(  6-C ,  7-C ) :   1.1680 B(  6-C , 24-H ) :   0.9154 B(  6-C , 25-H ) :   0.9337
B(  7-C , 26-H ) :   0.9341 B(  7-C , 27-H ) :   0.9381 B(  7-C , 28-H ) :   0.9458
B(  8-S ,  9-C ) :   1.0056 B(  9-C , 10-S ) :   1.0078 B(  9-C , 29-H ) :   0.8675
B(  9-C , 30-H ) :   0.8843 B( 10-S , 11-P ) :   0.9655 B( 10-S , 12-S ) :   0.1136
B( 11-P , 12-S ) :   1.5881 B( 11-P , 13-O ) :   1.1061 B( 11-P , 16-O ) :   1.1350
B( 13-O , 14-C ) :   0.9102 B( 14-C , 15-C ) :   1.1625 B( 14-C , 31-H ) :   0.9147
B( 14-C , 32-H ) :   0.9335 B( 15-C , 33-H ) :   0.9201 B( 15-C , 34-H ) :   0.9374
B( 15-C , 35-H ) :   0.9431 B( 16-O , 17-C ) :   0.9116 B( 17-C , 18-C ) :   1.1629
B( 17-C , 36-H ) :   0.9183 B( 17-C , 37-H ) :   0.9352 B( 18-C , 38-H ) :   0.9385
B( 18-C , 39-H ) :   0.9461 B( 18-C , 40-H ) :   0.9387

Dispersion correction           -0.065157470
FINAL SINGLE POINT ENERGY     -2929.521573869485

DIPOLE MOMENT
-------------

Method             : SCF
Type of density    : Electron Density
Multiplicity       :   1
Irrep              :   0
Energy             : -2929.6414313722348197 Eh
Relativity type    :
Basis              : AO
                                X                 Y                 Z
Electronic contribution:      4.804310077       6.655484424     -15.453816743
Nuclear contribution   :     -5.347790504      -7.302050858      17.061733123
                        -----------------------------------------
Total Dipole Moment    :     -0.543480427      -0.646566433       1.607916381
                        -----------------------------------------
Magnitude (a.u.)       :      1.816263806
Magnitude (Debye)      :      4.616575710

Rotational constants in cm-1:             0.013106             0.004638             0.004385
Rotational constants in MHz :           392.904232           139.039460           131.453268

                             ****ORCA TERMINATED NORMALLY****
TOTAL RUN TIME: 0 days 0 hours 0 minutes 21 seconds 28 msec
