                         Program Version 6.0.1  -  RELEASE   -
|  1> ! r2scan-3c def2/J RI DEFGRID2 scfconv6 printgap
|  2> %output
|  3>     printlevel normal
|  4> end
|  5> * xyz 0 1
|  6> C 2.9070626495 -3.2591855626 -0.0284925608
|  7> C 3.3542221186 -1.8120584107 -0.1574033602
|  8> O 2.3175254986 -1.0094890435 -0.7546047644
|  9> C 2.228235775 -0.9793277701 -2.0741503837
| 10> O 3.0004891564 -1.536931245 -2.8207198176
| 11> C 1.0529750236 -0.1552768082 -2.5574686655
| 12> C 0.2093804197 0.4093875596 -1.4228550571
| 13> H -0.5648969909 1.0715446179 -1.829273079
| 14> C 1.063915726 1.2491042498 -0.4910839503
| 15> O 1.9252325199 1.9925469376 -0.9055820699
| 16> O 0.7500254023 1.1075895259 0.7782284973
| 17> C 1.4937662839 1.8980280942 1.7304047582
| 18> C 1.3403177322 1.2886242474 3.1086117795
| 19> S -0.6501979985 -0.9230482656 -0.5259722497
| 20> P -1.9880642672 0.2909895563 0.5982605225
| 21> S -2.241457444 2.136678267 -0.0092269567
| 22> O -3.3294184255 -0.5874146364 0.5841201843
| 23> C -4.0898558709 -0.7589262102 -0.6157458293
| 24> O -1.6047524256 0.1753849836 2.1241690683
| 25> C -1.4577450198 -1.1084759652 2.7648803088
| 26> H 3.6637826776 -3.8215803357 0.508148932
| 27> H 1.9648517387 -3.3128069761 0.5101254584
| 28> H 2.773725699 -3.6956926133 -1.0153402185
| 29> H 4.2536141076 -1.734116912 -0.7746595887
| 30> H 3.5250825866 -1.3568213942 0.8186350834
| 31> H 0.4487770864 -0.7805565685 -3.2163581191
| 32> H 1.4571771553 0.6700178082 -3.1488854414
| 33> H 2.5372626117 1.9187936704 1.400830806
| 34> H 1.0960940923 2.9169903983 1.6938598205
| 35> H 1.9337519646 1.861473765 3.8135494626
| 36> H 0.2978714475 1.318943429 3.4104030951
| 37> H 1.6826311416 0.2579418396 3.1044501876
| 38> H -4.2831716696 0.2094381975 -1.0800685883
| 39> H -5.0228314943 -1.2239313581 -0.307853236
| 40> H -3.549109265 -1.4040298865 -1.308147511
| 41> H -0.7305635838 -1.7113075692 2.2214085574
| 42> H -2.4177314898 -1.6196714648 2.7943122711
| 43> H -1.1051274913 -0.8912779012 3.7696268384
| 44> *
| 45>
| 46>                          ****END OF INPUT****

CARTESIAN COORDINATES (ANGSTROEM)
---------------------------------
  C      2.907063   -3.259186   -0.028493
  C      3.354222   -1.812058   -0.157403
  O      2.317525   -1.009489   -0.754605
  C      2.228236   -0.979328   -2.074150
  O      3.000489   -1.536931   -2.820720
  C      1.052975   -0.155277   -2.557469
  C      0.209380    0.409388   -1.422855
  H     -0.564897    1.071545   -1.829273
  C      1.063916    1.249104   -0.491084
  O      1.925233    1.992547   -0.905582
  O      0.750025    1.107590    0.778228
  C      1.493766    1.898028    1.730405
  C      1.340318    1.288624    3.108612
  S     -0.650198   -0.923048   -0.525972
  P     -1.988064    0.290990    0.598261
  S     -2.241457    2.136678   -0.009227
  O     -3.329418   -0.587415    0.584120
  C     -4.089856   -0.758926   -0.615746
  O     -1.604752    0.175385    2.124169
  C     -1.457745   -1.108476    2.764880
  H      3.663783   -3.821580    0.508149
  H      1.964852   -3.312807    0.510125
  H      2.773726   -3.695693   -1.015340
  H      4.253614   -1.734117   -0.774660
  H      3.525083   -1.356821    0.818635
  H      0.448777   -0.780557   -3.216358
  H      1.457177    0.670018   -3.148885
  H      2.537263    1.918794    1.400831
  H      1.096094    2.916990    1.693860
  H      1.933752    1.861474    3.813549
  H      0.297871    1.318943    3.410403
  H      1.682631    0.257942    3.104450
  H     -4.283172    0.209438   -1.080069
  H     -5.022831   -1.223931   -0.307853
  H     -3.549109   -1.404030   -1.308148
  H     -0.730564   -1.711308    2.221409
  H     -2.417731   -1.619671    2.794312
  H     -1.105127   -0.891278    3.769627

 Total Charge           Charge          ....    0
 Multiplicity           Mult            ....    1
 Number of Electrons    NEL             ....  174
 Basis Dimension        Dim             ....  510

ORBITAL ENERGIES
----------------

  NO   OCC          E(Eh)            E(eV)
   0   2.0000     -88.577540     -2410.3174
   1   2.0000     -88.522282     -2408.8138
   2   2.0000     -76.917595     -2093.0342
   3   2.0000     -19.008641      -517.2514
   4   2.0000     -19.003123      -517.1013
   5   2.0000     -19.000339      -517.0255
   6   2.0000     -18.994355      -516.8627
   7   2.0000     -18.935758      -515.2682
   8   2.0000     -18.934971      -515.2468
   9   2.0000     -10.164213      -276.5823
  10   2.0000     -10.162731      -276.5420
  11   2.0000     -10.104250      -274.9506
  12   2.0000     -10.100487      -274.8482
  13   2.0000     -10.096523      -274.7404
  14   2.0000     -10.094486      -274.6849
  15   2.0000     -10.094415      -274.6830
  16   2.0000     -10.065477      -273.8955
  17   2.0000     -10.035618      -273.0830
  18   2.0000     -10.034452      -273.0513
  19   2.0000      -7.871889      -214.2050
  20   2.0000      -7.816917      -212.7091
  21   2.0000      -6.595904      -179.4837
  22   2.0000      -5.818672      -158.3341
  23   2.0000      -5.815850      -158.2573
  24   2.0000      -5.808986      -158.0705
  25   2.0000      -5.764816      -156.8686
  26   2.0000      -5.757146      -156.6599
  27   2.0000      -5.756741      -156.6489
  28   2.0000      -4.741614      -129.0259
  29   2.0000      -4.740948      -129.0078
  30   2.0000      -4.739377      -128.9650
  31   2.0000      -1.086306       -29.5599
  32   2.0000      -1.080199       -29.3937
  33   2.0000      -1.056267       -28.7425
  34   2.0000      -1.013332       -27.5742
  35   2.0000      -0.986501       -26.8441
  36   2.0000      -0.984818       -26.7983
  37   2.0000      -0.816012       -22.2048
  38   2.0000      -0.758833       -20.6489
  39   2.0000      -0.746569       -20.3152
  40   2.0000      -0.736590       -20.0436
  41   2.0000      -0.702347       -19.1118
  42   2.0000      -0.680840       -18.5266
  43   2.0000      -0.661525       -18.0010
  44   2.0000      -0.650984       -17.7142
  45   2.0000      -0.635097       -17.2819
  46   2.0000      -0.601424       -16.3656
  47   2.0000      -0.547156       -14.8889
  48   2.0000      -0.539256       -14.6739
  49   2.0000      -0.531980       -14.4759
  50   2.0000      -0.502533       -13.6746
  51   2.0000      -0.497916       -13.5490
  52   2.0000      -0.490064       -13.3353
  53   2.0000      -0.470076       -12.7914
  54   2.0000      -0.457858       -12.4590
  55   2.0000      -0.453594       -12.3429
  56   2.0000      -0.450477       -12.2581
  57   2.0000      -0.447885       -12.1876
  58   2.0000      -0.442000       -12.0274
  59   2.0000      -0.436008       -11.8644
  60   2.0000      -0.424184       -11.5426
  61   2.0000      -0.423631       -11.5276
  62   2.0000      -0.410908       -11.1814
  63   2.0000      -0.406202       -11.0533
  64   2.0000      -0.397467       -10.8156
  65   2.0000      -0.384046       -10.4504
  66   2.0000      -0.378750       -10.3063
  67   2.0000      -0.375766       -10.2251
  68   2.0000      -0.365159        -9.9365
  69   2.0000      -0.358761        -9.7624
  70   2.0000      -0.353490        -9.6190
  71   2.0000      -0.348679        -9.4881
  72   2.0000      -0.337770        -9.1912
  73   2.0000      -0.334556        -9.1037
  74   2.0000      -0.330765        -9.0006
  75   2.0000      -0.321132        -8.7384
  76   2.0000      -0.317054        -8.6275
  77   2.0000      -0.315364        -8.5815
  78   2.0000      -0.291641        -7.9360
  79   2.0000      -0.283709        -7.7201
  80   2.0000      -0.280659        -7.6371
  81   2.0000      -0.275197        -7.4885
  82   2.0000      -0.260325        -7.0838
  83   2.0000      -0.245694        -6.6857
  84   2.0000      -0.227662        -6.1950
  85   2.0000      -0.220777        -6.0076
  86   2.0000      -0.217065        -5.9066
  87   0.0000      -0.046303        -1.2600
  88   0.0000      -0.022353        -0.6083
  89   0.0000      -0.019918        -0.5420
  90   0.0000       0.001897         0.0516
  91   0.0000       0.010826         0.2946

MULLIKEN ATOMIC CHARGES
-----------------------
   0 C :   -0.457716
   1 C :   -0.161327
   2 O :   -0.104395
   3 C :    0.291094
   4 O :   -0.397131
   5 C :   -0.397373
   6 C :    0.075831
   7 H :    0.254924
   8 C :    0.187152
   9 O :   -0.391760
  10 O :   -0.118653
  11 C :   -0.126600
  12 C :   -0.478645
  13 S :   -0.242726
  14 P :    0.783204
  15 S :   -0.444337
  16 O :   -0.342276
  17 C :   -0.298498
  18 O :   -0.317201
  19 C :   -0.293946
  20 H :    0.149562
  21 H :    0.152370
  22 H :    0.175603
  23 H :    0.173166
  24 H :    0.150369
  25 H :    0.194351
  26 H :    0.203101
  27 H :    0.169429
  28 H :    0.162004
  29 H :    0.149416
  30 H :    0.169998
  31 H :    0.147131
  32 H :    0.174579
  33 H :    0.152197
  34 H :    0.158864
  35 H :    0.168008
  36 H :    0.171456
  37 H :    0.158777
Sum of atomic charges:    0.0000000

LOEWDIN ATOMIC CHARGES
----------------------
   0 C :   -0.388048
   1 C :    0.037055
   2 O :   -0.613825
   3 C :    0.365845
   4 O :   -0.416129
   5 C :   -0.201186
   6 C :   -0.200250
   7 H :    0.210590
   8 C :    0.344782
   9 O :   -0.415379
  10 O :   -0.615145
  11 C :    0.042592
  12 C :   -0.387090
  13 S :    0.213837
  14 P :    0.399151
  15 S :   -0.085262
  16 O :   -0.687114
  17 C :   -0.060767
  18 O :   -0.655669
  19 C :   -0.055361
  20 H :    0.159994
  21 H :    0.158191
  22 H :    0.166900
  23 H :    0.191381
  24 H :    0.178630
  25 H :    0.192209
  26 H :    0.208786
  27 H :    0.189383
  28 H :    0.184307
  29 H :    0.159887
  30 H :    0.169192
  31 H :    0.156989
  32 H :    0.176383
  33 H :    0.177299
  34 H :    0.168972
  35 H :    0.172904
  36 H :    0.176242
  37 H :    0.179722

  Mayer bond orders larger than 0.100000
B(  0-C ,  1-C ) :   0.9274 B(  0-C , 20-H ) :   0.9644 B(  0-C , 21-H ) :   0.9738
B(  0-C , 22-H ) :   0.9706 B(  1-C ,  2-O ) :   0.7988 B(  1-C , 23-H ) :   0.9627
B(  1-C , 24-H ) :   0.9642 B(  2-O ,  3-C ) :   1.0922 B(  2-O ,  8-C ) :   0.1093
B(  3-C ,  4-O ) :   1.9072 B(  3-C ,  5-C ) :   0.9544 B(  5-C ,  6-C ) :   0.9563
B(  5-C , 25-H ) :   0.9564 B(  5-C , 26-H ) :   0.9126 B(  6-C ,  7-H ) :   0.9036
B(  6-C ,  8-C ) :   0.8535 B(  6-C , 13-S ) :   0.7811 B(  8-C ,  9-O ) :   1.8503
B(  8-C , 10-O ) :   1.1628 B( 10-O , 11-C ) :   0.7860 B( 11-C , 12-C ) :   0.9315
B( 11-C , 27-H ) :   0.9644 B( 11-C , 28-H ) :   0.9422 B( 12-C , 29-H ) :   0.9659
B( 12-C , 30-H ) :   0.9620 B( 12-C , 31-H ) :   0.9765 B( 13-S , 14-P ) :   0.9791
B( 14-P , 15-S ) :   1.7973 B( 14-P , 16-O ) :   1.0290 B( 14-P , 18-O ) :   1.1509
B( 16-O , 17-C ) :   0.8315 B( 17-C , 32-H ) :   0.9592 B( 17-C , 33-H ) :   0.9672
B( 17-C , 34-H ) :   0.9562 B( 18-O , 19-C ) :   0.7893 B( 19-C , 35-H ) :   0.9593
B( 19-C , 36-H ) :   0.9584 B( 19-C , 37-H ) :   0.9644

Dispersion correction           -0.018258937
FINAL SINGLE POINT ENERGY     -1981.453412345943

DIPOLE MOMENT
-------------

Method             : SCF
Type of density    : Electron Density
Multiplicity       :   1
Irrep              :   0
Energy             : -1981.4726976210222347 Eh
Relativity type    :
Basis              : AO
                                X                 Y                 Z
Electronic contribution:     -9.711729129       9.442180558      -8.735172465
Nuclear contribution   :      9.374323933     -10.919373354      10.128313303
                        -----------------------------------------
Total Dipole Moment    :     -0.337405196      -1.477192796       1.393140838
                        -----------------------------------------
Magnitude (a.u.)       :      2.058344533
Magnitude (Debye)      :      5.231896018

Rotational constants in cm-1:             0.013633             0.007347             0.006891
Rotational constants in MHz :           408.704098           220.255396           206.589406

                             ****ORCA TERMINATED NORMALLY****
TOTAL RUN TIME: 0 days 0 hours 1 minutes 26 seconds 840 msec
