                         Program Version 6.0.1  -  RELEASE   -
|  1> ! r2scan-3c def2/J RI DEFGRID2 scfconv6 printgap
|  2> %output
|  3>     printlevel normal
|  4> end
|  5> %cpcm
|  6>     smd true
|  7>     smdsolvent "water"
|  8> end
|  9> * xyz 0 1
| 10> C 2.9070626495 -3.2591855626 -0.0284925608
| 11> C 3.3542221186 -1.8120584107 -0.1574033602
| 12> O 2.3175254986 -1.0094890435 -0.7546047644
| 13> C 2.228235775 -0.9793277701 -2.0741503837
| 14> O 3.0004891564 -1.536931245 -2.8207198176
| 15> C 1.0529750236 -0.1552768082 -2.5574686655
| 16> C 0.2093804197 0.4093875596 -1.4228550571
| 17> H -0.5648969909 1.0715446179 -1.829273079
| 18> C 1.063915726 1.2491042498 -0.4910839503
| 19> O 1.9252325199 1.9925469376 -0.9055820699
| 20> O 0.7500254023 1.1075895259 0.7782284973
| 21> C 1.4937662839 1.8980280942 1.7304047582
| 22> C 1.3403177322 1.2886242474 3.1086117795
| 23> S -0.6501979985 -0.9230482656 -0.5259722497
| 24> P -1.9880642672 0.2909895563 0.5982605225
| 25> S -2.241457444 2.136678267 -0.0092269567
| 26> O -3.3294184255 -0.5874146364 0.5841201843
| 27> C -4.0898558709 -0.7589262102 -0.6157458293
| 28> O -1.6047524256 0.1753849836 2.1241690683
| 29> C -1.4577450198 -1.1084759652 2.7648803088
| 30> H 3.6637826776 -3.8215803357 0.508148932
| 31> H 1.9648517387 -3.3128069761 0.5101254584
| 32> H 2.773725699 -3.6956926133 -1.0153402185
| 33> H 4.2536141076 -1.734116912 -0.7746595887
| 34> H 3.5250825866 -1.3568213942 0.8186350834
| 35> H 0.4487770864 -0.7805565685 -3.2163581191
| 36> H 1.4571771553 0.6700178082 -3.1488854414
| 37> H 2.5372626117 1.9187936704 1.400830806
| 38> H 1.0960940923 2.9169903983 1.6938598205
| 39> H 1.9337519646 1.861473765 3.8135494626
| 40> H 0.2978714475 1.318943429 3.4104030951
| 41> H 1.6826311416 0.2579418396 3.1044501876
| 42> H -4.2831716696 0.2094381975 -1.0800685883
| 43> H -5.0228314943 -1.2239313581 -0.307853236
| 44> H -3.549109265 -1.4040298865 -1.308147511
| 45> H -0.7305635838 -1.7113075692 2.2214085574
| 46> H -2.4177314898 -1.6196714648 2.7943122711
| 47> H -1.1051274913 -0.8912779012 3.7696268384
| 48> *
| 49>
| 50>                          ****END OF INPUT****

CARTESIAN COORDINATES (ANGSTROEM)
---------------------------------
  C      2.907063   -3.259186   -0.028493
  C      3.354222   -1.812058   -0.157403
  O      2.317525   -1.009489   -0.754605
  C      2.228236   -0.979328   -2.074150
  O      3.000489   -1.536931   -2.820720
  C      1.052975   -0.155277   -2.557469
  C      0.209380    0.409388   -1.422855
  H     -0.564897    1.071545   -1.829273
  C      1.063916    1.249104   -0.491084
  O      1.925233    1.992547   -0.905582
  O      0.750025    1.107590    0.778228
  C      1.493766    1.898028    1.730405
  C      1.340318    1.288624    3.108612
  S     -0.650198   -0.923048   -0.525972
  P     -1.988064    0.290990    0.598261
  S     -2.241457    2.136678   -0.009227
  O     -3.329418   -0.587415    0.584120
  C     -4.089856   -0.758926   -0.615746
  O     -1.604752    0.175385    2.124169
  C     -1.457745   -1.108476    2.764880
  H      3.663783   -3.821580    0.508149
  H      1.964852   -3.312807    0.510125
  H      2.773726   -3.695693   -1.015340
  H      4.253614   -1.734117   -0.774660
  H      3.525083   -1.356821    0.818635
  H      0.448777   -0.780557   -3.216358
  H      1.457177    0.670018   -3.148885
  H      2.537263    1.918794    1.400831
  H      1.096094    2.916990    1.693860
  H      1.933752    1.861474    3.813549
  H      0.297871    1.318943    3.410403
  H      1.682631    0.257942    3.104450
  H     -4.283172    0.209438   -1.080069
  H     -5.022831   -1.223931   -0.307853
  H     -3.549109   -1.404030   -1.308148
  H     -0.730564   -1.711308    2.221409
  H     -2.417731   -1.619671    2.794312
  H     -1.105127   -0.891278    3.769627

 Total Charge           Charge          ....    0
 Multiplicity           Mult            ....    1
 Number of Electrons    NEL             ....  174
 Basis Dimension        Dim             ....  510

ORBITAL ENERGIES
----------------

  NO   OCC          E(Eh)            E(eV)
   0   2.0000     -88.577366     -2410.3127
   1   2.0000     -88.529621     -2409.0135
   2   2.0000     -76.920090     -2093.1021
   3   2.0000     -19.010810      -517.3104
   4   2.0000     -19.008877      -517.2578
   5   2.0000     -18.998237      -516.9683
   6   2.0000     -18.993274      -516.8333
   7   2.0000     -18.949973      -515.6550
   8   2.0000     -18.948498      -515.6148
   9   2.0000     -10.173923      -276.8465
  10   2.0000     -10.172556      -276.8093
  11   2.0000     -10.096219      -274.7321
  12   2.0000     -10.087522      -274.4954
  13   2.0000     -10.086862      -274.4775
  14   2.0000     -10.085216      -274.4327
  15   2.0000     -10.081058      -274.3195
  16   2.0000     -10.060851      -273.7697
  17   2.0000     -10.019896      -272.6552
  18   2.0000     -10.019076      -272.6329
  19   2.0000      -7.871639      -214.1982
  20   2.0000      -7.824638      -212.9192
  21   2.0000      -6.598473      -179.5536
  22   2.0000      -5.818490      -158.3292
  23   2.0000      -5.815652      -158.2519
  24   2.0000      -5.808621      -158.0606
  25   2.0000      -5.772398      -157.0749
  26   2.0000      -5.764894      -156.8707
  27   2.0000      -5.764501      -156.8601
  28   2.0000      -4.744130      -129.0943
  29   2.0000      -4.743469      -129.0764
  30   2.0000      -4.742089      -129.0388
  31   2.0000      -1.091903       -29.7122
  32   2.0000      -1.086035       -29.5525
  33   2.0000      -1.054377       -28.6910
  34   2.0000      -1.010868       -27.5071
  35   2.0000      -0.998316       -27.1656
  36   2.0000      -0.996565       -27.1179
  37   2.0000      -0.815321       -22.1860
  38   2.0000      -0.752787       -20.4844
  39   2.0000      -0.739788       -20.1307
  40   2.0000      -0.730163       -19.8687
  41   2.0000      -0.696686       -18.9578
  42   2.0000      -0.670265       -18.2388
  43   2.0000      -0.659861       -17.9557
  44   2.0000      -0.649335       -17.6693
  45   2.0000      -0.626730       -17.0542
  46   2.0000      -0.596161       -16.2224
  47   2.0000      -0.542511       -14.7625
  48   2.0000      -0.535538       -14.5727
  49   2.0000      -0.526445       -14.3253
  50   2.0000      -0.501901       -13.6574
  51   2.0000      -0.491928       -13.3861
  52   2.0000      -0.488728       -13.2990
  53   2.0000      -0.471073       -12.8186
  54   2.0000      -0.458130       -12.4664
  55   2.0000      -0.454515       -12.3680
  56   2.0000      -0.450497       -12.2586
  57   2.0000      -0.447978       -12.1901
  58   2.0000      -0.444112       -12.0849
  59   2.0000      -0.427394       -11.6300
  60   2.0000      -0.421410       -11.4671
  61   2.0000      -0.411559       -11.1991
  62   2.0000      -0.405135       -11.0243
  63   2.0000      -0.401851       -10.9349
  64   2.0000      -0.395890       -10.7727
  65   2.0000      -0.379549       -10.3281
  66   2.0000      -0.372653       -10.1404
  67   2.0000      -0.365808        -9.9541
  68   2.0000      -0.360020        -9.7966
  69   2.0000      -0.353165        -9.6101
  70   2.0000      -0.347884        -9.4664
  71   2.0000      -0.341735        -9.2991
  72   2.0000      -0.336606        -9.1595
  73   2.0000      -0.329399        -8.9634
  74   2.0000      -0.326161        -8.8753
  75   2.0000      -0.316259        -8.6058
  76   2.0000      -0.313865        -8.5407
  77   2.0000      -0.309486        -8.4215
  78   2.0000      -0.288543        -7.8517
  79   2.0000      -0.285950        -7.7811
  80   2.0000      -0.281661        -7.6644
  81   2.0000      -0.279200        -7.5974
  82   2.0000      -0.269375        -7.3301
  83   2.0000      -0.258893        -7.0448
  84   2.0000      -0.235624        -6.4117
  85   2.0000      -0.228747        -6.2245
  86   2.0000      -0.223551        -6.0831
  87   0.0000      -0.048542        -1.3209
  88   0.0000      -0.029651        -0.8068
  89   0.0000      -0.027034        -0.7356
  90   0.0000       0.003522         0.0958
  91   0.0000       0.010001         0.2721

MULLIKEN ATOMIC CHARGES
-----------------------
   0 C :   -0.482764
   1 C :   -0.167923
   2 O :   -0.117822
   3 C :    0.335595
   4 O :   -0.472113
   5 C :   -0.451494
   6 C :    0.097706
   7 H :    0.278688
   8 C :    0.192043
   9 O :   -0.457144
  10 O :   -0.129574
  11 C :   -0.132935
  12 C :   -0.514492
  13 S :   -0.227641
  14 P :    0.803803
  15 S :   -0.504813
  16 O :   -0.370046
  17 C :   -0.307350
  18 O :   -0.353173
  19 C :   -0.300607
  20 H :    0.173230
  21 H :    0.166978
  22 H :    0.171577
  23 H :    0.175670
  24 H :    0.181182
  25 H :    0.229930
  26 H :    0.229800
  27 H :    0.176598
  28 H :    0.179690
  29 H :    0.171065
  30 H :    0.171332
  31 H :    0.170831
  32 H :    0.176223
  33 H :    0.179115
  34 H :    0.174922
  35 H :    0.181852
  36 H :    0.185337
  37 H :    0.186725
Sum of atomic charges:    0.0000000

LOEWDIN ATOMIC CHARGES
----------------------
   0 C :   -0.389658
   1 C :    0.042511
   2 O :   -0.610981
   3 C :    0.372772
   4 O :   -0.472161
   5 C :   -0.196202
   6 C :   -0.195194
   7 H :    0.218903
   8 C :    0.347355
   9 O :   -0.466577
  10 O :   -0.616712
  11 C :    0.044348
  12 C :   -0.386510
  13 S :    0.229526
  14 P :    0.400927
  15 S :   -0.130484
  16 O :   -0.697276
  17 C :   -0.056141
  18 O :   -0.674416
  19 C :   -0.046256
  20 H :    0.169045
  21 H :    0.163296
  22 H :    0.163722
  23 H :    0.192209
  24 H :    0.191636
  25 H :    0.206590
  26 H :    0.215874
  27 H :    0.193588
  28 H :    0.187875
  29 H :    0.168513
  30 H :    0.168851
  31 H :    0.164955
  32 H :    0.177114
  33 H :    0.188551
  34 H :    0.175969
  35 H :    0.179753
  36 H :    0.182853
  37 H :    0.191835

  Mayer bond orders larger than 0.100000
B(  0-C ,  1-C ) :   0.9250 B(  0-C , 20-H ) :   0.9588 B(  0-C , 21-H ) :   0.9698
B(  0-C , 22-H ) :   0.9692 B(  1-C ,  2-O ) :   0.7843 B(  1-C , 23-H ) :   0.9566
B(  1-C , 24-H ) :   0.9532 B(  2-O ,  3-C ) :   1.1228 B(  2-O ,  8-C ) :   0.1078
B(  3-C ,  4-O ) :   1.8443 B(  3-C ,  5-C ) :   0.9335 B(  5-C ,  6-C ) :   0.9389
B(  5-C , 25-H ) :   0.9413 B(  5-C , 26-H ) :   0.9209 B(  6-C ,  7-H ) :   0.8917
B(  6-C ,  8-C ) :   0.8492 B(  6-C , 13-S ) :   0.7789 B(  8-C ,  9-O ) :   1.7964
B(  8-C , 10-O ) :   1.1813 B( 10-O , 11-C ) :   0.7719 B( 11-C , 12-C ) :   0.9316
B( 11-C , 27-H ) :   0.9543 B( 11-C , 28-H ) :   0.9367 B( 12-C , 29-H ) :   0.9599
B( 12-C , 30-H ) :   0.9596 B( 12-C , 31-H ) :   0.9722 B( 13-S , 14-P ) :   0.9947
B( 14-P , 15-S ) :   1.7678 B( 14-P , 16-O ) :   1.0361 B( 14-P , 18-O ) :   1.1566
B( 16-O , 17-C ) :   0.8244 B( 17-C , 32-H ) :   0.9555 B( 17-C , 33-H ) :   0.9573
B( 17-C , 34-H ) :   0.9501 B( 18-O , 19-C ) :   0.7801 B( 19-C , 35-H ) :   0.9493
B( 19-C , 36-H ) :   0.9504 B( 19-C , 37-H ) :   0.9537

Dispersion correction           -0.018258937
FINAL SINGLE POINT ENERGY     -1981.469328927210

DIPOLE MOMENT
-------------

Method             : SCF
Type of density    : Electron Density
Multiplicity       :   1
Irrep              :   0
Energy             : -1981.4886142022892273 Eh
Relativity type    :
Basis              : AO
                                X                 Y                 Z
Electronic contribution:     -9.882989887       8.770434825      -8.280381260
Nuclear contribution   :      9.374323933     -10.919373354      10.128313303
                        -----------------------------------------
Total Dipole Moment    :     -0.508665954      -2.148938529       1.847932044
                        -----------------------------------------
Magnitude (a.u.)       :      2.879501813
Magnitude (Debye)      :      7.319111949

Rotational constants in cm-1:             0.013633             0.007347             0.006891
Rotational constants in MHz :           408.704098           220.255396           206.589406

                             ****ORCA TERMINATED NORMALLY****
TOTAL RUN TIME: 0 days 0 hours 1 minutes 56 seconds 604 msec
