                         Program Version 6.0.1  -  RELEASE   -
|  1> ! r2scan-3c def2/J RI DEFGRID2 scfconv6 printgap
|  2> %output
|  3>     printlevel normal
|  4> end
|  5> * xyz 0 1
|  6> C 4.2486843784 0.3604751289 -2.3444685989
|  7> C 4.1947268574 -1.155441553 -2.2456450491
|  8> O 2.8586140838 -1.5792282072 -1.9128206544
|  9> C 2.5901130172 -1.9384210302 -0.6757139104
| 10> O 3.400876519 -2.0316546259 0.2189497687
| 11> C 1.1108300601 -2.2441774949 -0.5022376604
| 12> C 0.3232415349 -0.9286984306 -0.5297140336
| 13> H 0.3904066648 -0.4686515108 -1.5190313583
| 14> C 0.9468444809 0.0155935672 0.4826242053
| 15> O 1.9786333438 0.601603691 0.2481790801
| 16> O 0.3113022396 0.0289927316 1.6355201467
| 17> C 0.9056824176 0.7631801433 2.7262933071
| 18> C 0.6181750569 2.2519269017 2.6394193066
| 19> S -1.4232380012 -1.2877160856 -0.1562763578
| 20> P -2.0958257176 0.7092300384 0.1018952864
| 21> S -0.9923131378 2.0954482839 -0.7332316483
| 22> O -3.5998833521 0.6345118409 -0.4380031453
| 23> C -3.8813366151 0.4515344334 -1.8304259067
| 24> O -2.3602034553 0.9603313067 1.6373392125
| 25> C -3.1813470041 0.0725882733 2.4241145679
| 26> H 5.2658362265 0.67381761 -2.5541732761
| 27> H 3.5926476324 0.7102989239 -3.1364983651
| 28> H 3.9224491421 0.8032060983 -1.4052734229
| 29> H 4.8767545131 -1.5235764028 -1.4742468456
| 30> H 4.4144963368 -1.6263733895 -3.2049001852
| 31> H 0.9662450892 -2.7468147878 0.4546752678
| 32> H 0.7699888511 -2.8820236016 -1.3171308503
| 33> H 0.4570580801 0.3201363193 3.6154228399
| 34> H 1.9835462811 0.5766747209 2.7046380299
| 35> H 1.0686953678 2.6705519748 1.7414917636
| 36> H -0.4539210009 2.429663551 2.602615911
| 37> H 1.0374623392 2.7466201054 3.5090449932
| 38> H -3.3001729757 1.156593167 -2.4266779558
| 39> H -4.9447507323 0.646950799 -1.9417906732
| 40> H -3.6447935888 -0.5708877538 -2.1242259457
| 41> H -3.1070765602 0.4438606872 3.4427919249
| 42> H -2.7984013147 -0.9454617553 2.3539688704
| 43> H -4.2098408537 0.1114517945 2.0715088735
| 44> *
| 45>
| 46>                          ****END OF INPUT****

CARTESIAN COORDINATES (ANGSTROEM)
---------------------------------
  C      4.248684    0.360475   -2.344469
  C      4.194727   -1.155442   -2.245645
  O      2.858614   -1.579228   -1.912821
  C      2.590113   -1.938421   -0.675714
  O      3.400877   -2.031655    0.218950
  C      1.110830   -2.244177   -0.502238
  C      0.323242   -0.928698   -0.529714
  H      0.390407   -0.468652   -1.519031
  C      0.946844    0.015594    0.482624
  O      1.978633    0.601604    0.248179
  O      0.311302    0.028993    1.635520
  C      0.905682    0.763180    2.726293
  C      0.618175    2.251927    2.639419
  S     -1.423238   -1.287716   -0.156276
  P     -2.095826    0.709230    0.101895
  S     -0.992313    2.095448   -0.733232
  O     -3.599883    0.634512   -0.438003
  C     -3.881337    0.451534   -1.830426
  O     -2.360203    0.960331    1.637339
  C     -3.181347    0.072588    2.424115
  H      5.265836    0.673818   -2.554173
  H      3.592648    0.710299   -3.136498
  H      3.922449    0.803206   -1.405273
  H      4.876755   -1.523576   -1.474247
  H      4.414496   -1.626373   -3.204900
  H      0.966245   -2.746815    0.454675
  H      0.769989   -2.882024   -1.317131
  H      0.457058    0.320136    3.615423
  H      1.983546    0.576675    2.704638
  H      1.068695    2.670552    1.741492
  H     -0.453921    2.429664    2.602616
  H      1.037462    2.746620    3.509045
  H     -3.300173    1.156593   -2.426678
  H     -4.944751    0.646951   -1.941791
  H     -3.644794   -0.570888   -2.124226
  H     -3.107077    0.443861    3.442792
  H     -2.798401   -0.945462    2.353969
  H     -4.209841    0.111452    2.071509

 Total Charge           Charge          ....    0
 Multiplicity           Mult            ....    1
 Number of Electrons    NEL             ....  174
 Basis Dimension        Dim             ....  510

ORBITAL ENERGIES
----------------

  NO   OCC          E(Eh)            E(eV)
   0   2.0000     -88.579146     -2410.3611
   1   2.0000     -88.523020     -2408.8338
   2   2.0000     -76.918600     -2093.0615
   3   2.0000     -19.002601      -517.0871
   4   2.0000     -19.000220      -517.0223
   5   2.0000     -18.997697      -516.9536
   6   2.0000     -18.997092      -516.9372
   7   2.0000     -18.934746      -515.2406
   8   2.0000     -18.928329      -515.0660
   9   2.0000     -10.162625      -276.5391
  10   2.0000     -10.157570      -276.4015
  11   2.0000     -10.103219      -274.9226
  12   2.0000     -10.099223      -274.8138
  13   2.0000     -10.096384      -274.7366
  14   2.0000     -10.090831      -274.5855
  15   2.0000     -10.086050      -274.4554
  16   2.0000     -10.064584      -273.8712
  17   2.0000     -10.017343      -272.5858
  18   2.0000     -10.017275      -272.5839
  19   2.0000      -7.873563      -214.2505
  20   2.0000      -7.817635      -212.7287
  21   2.0000      -6.596944      -179.5120
  22   2.0000      -5.820343      -158.3796
  23   2.0000      -5.817413      -158.2999
  24   2.0000      -5.810770      -158.1191
  25   2.0000      -5.765525      -156.8879
  26   2.0000      -5.757697      -156.6749
  27   2.0000      -5.757649      -156.6736
  28   2.0000      -4.742654      -129.0542
  29   2.0000      -4.742010      -129.0367
  30   2.0000      -4.740395      -128.9927
  31   2.0000      -1.081462       -29.4281
  32   2.0000      -1.073598       -29.2141
  33   2.0000      -1.056945       -28.7609
  34   2.0000      -1.014861       -27.6158
  35   2.0000      -0.985703       -26.8224
  36   2.0000      -0.977648       -26.6032
  37   2.0000      -0.815412       -22.1885
  38   2.0000      -0.752274       -20.4704
  39   2.0000      -0.739466       -20.1219
  40   2.0000      -0.730786       -19.8857
  41   2.0000      -0.699138       -19.0245
  42   2.0000      -0.682034       -18.5591
  43   2.0000      -0.660968       -17.9859
  44   2.0000      -0.647822       -17.6281
  45   2.0000      -0.621156       -16.9025
  46   2.0000      -0.600840       -16.3497
  47   2.0000      -0.547835       -14.9073
  48   2.0000      -0.526586       -14.3291
  49   2.0000      -0.522959       -14.2304
  50   2.0000      -0.501247       -13.6396
  51   2.0000      -0.499381       -13.5888
  52   2.0000      -0.479462       -13.0468
  53   2.0000      -0.462587       -12.5876
  54   2.0000      -0.459654       -12.5078
  55   2.0000      -0.455985       -12.4080
  56   2.0000      -0.446330       -12.1452
  57   2.0000      -0.439419       -11.9572
  58   2.0000      -0.438481       -11.9317
  59   2.0000      -0.427764       -11.6400
  60   2.0000      -0.424834       -11.5603
  61   2.0000      -0.418257       -11.3813
  62   2.0000      -0.415345       -11.3021
  63   2.0000      -0.398599       -10.8464
  64   2.0000      -0.389283       -10.5929
  65   2.0000      -0.380832       -10.3630
  66   2.0000      -0.368735       -10.0338
  67   2.0000      -0.362129        -9.8540
  68   2.0000      -0.360584        -9.8120
  69   2.0000      -0.349906        -9.5214
  70   2.0000      -0.344811        -9.3828
  71   2.0000      -0.340284        -9.2596
  72   2.0000      -0.334439        -9.1005
  73   2.0000      -0.330999        -9.0070
  74   2.0000      -0.328779        -8.9465
  75   2.0000      -0.321338        -8.7441
  76   2.0000      -0.309771        -8.4293
  77   2.0000      -0.302720        -8.2374
  78   2.0000      -0.292463        -7.9583
  79   2.0000      -0.284257        -7.7350
  80   2.0000      -0.275913        -7.5080
  81   2.0000      -0.267153        -7.2696
  82   2.0000      -0.255305        -6.9472
  83   2.0000      -0.237785        -6.4705
  84   2.0000      -0.231668        -6.3040
  85   2.0000      -0.220457        -5.9989
  86   2.0000      -0.219759        -5.9800
  87   0.0000      -0.046048        -1.2530
  88   0.0000      -0.027924        -0.7599
  89   0.0000      -0.021117        -0.5746
  90   0.0000       0.006277         0.1708
  91   0.0000       0.014695         0.3999

MULLIKEN ATOMIC CHARGES
-----------------------
   0 C :   -0.464528
   1 C :   -0.150486
   2 O :   -0.139166
   3 C :    0.336475
   4 O :   -0.398258
   5 C :   -0.406018
   6 C :   -0.045344
   7 H :    0.248240
   8 C :    0.290581
   9 O :   -0.380161
  10 O :   -0.144125
  11 C :   -0.112502
  12 C :   -0.500328
  13 S :   -0.212735
  14 P :    0.752453
  15 S :   -0.403976
  16 O :   -0.347793
  17 C :   -0.296564
  18 O :   -0.301504
  19 C :   -0.293350
  20 H :    0.142094
  21 H :    0.147946
  22 H :    0.190929
  23 H :    0.179395
  24 H :    0.143276
  25 H :    0.190461
  26 H :    0.174346
  27 H :    0.144514
  28 H :    0.168223
  29 H :    0.188747
  30 H :    0.168780
  31 H :    0.144806
  32 H :    0.175139
  33 H :    0.153018
  34 H :    0.159332
  35 H :    0.157648
  36 H :    0.170917
  37 H :    0.169520
Sum of atomic charges:   -0.0000000

LOEWDIN ATOMIC CHARGES
----------------------
   0 C :   -0.388340
   1 C :    0.032690
   2 O :   -0.582552
   3 C :    0.354566
   4 O :   -0.416303
   5 C :   -0.201847
   6 C :   -0.197367
   7 H :    0.206326
   8 C :    0.328439
   9 O :   -0.414780
  10 O :   -0.610403
  11 C :    0.036884
  12 C :   -0.395145
  13 S :    0.190086
  14 P :    0.393274
  15 S :   -0.045735
  16 O :   -0.682343
  17 C :   -0.058407
  18 O :   -0.656258
  19 C :   -0.050429
  20 H :    0.156417
  21 H :    0.156702
  22 H :    0.178619
  23 H :    0.193326
  24 H :    0.175675
  25 H :    0.189493
  26 H :    0.186439
  27 H :    0.178620
  28 H :    0.191311
  29 H :    0.172739
  30 H :    0.167858
  31 H :    0.156425
  32 H :    0.177015
  33 H :    0.177723
  34 H :    0.169456
  35 H :    0.180144
  36 H :    0.174732
  37 H :    0.174949

  Mayer bond orders larger than 0.100000
B(  0-C ,  1-C ) :   0.9417 B(  0-C , 20-H ) :   0.9679 B(  0-C , 21-H ) :   0.9721
B(  0-C , 22-H ) :   0.9609 B(  1-C ,  2-O ) :   0.7944 B(  1-C , 23-H ) :   0.9721
B(  1-C , 24-H ) :   0.9599 B(  2-O ,  3-C ) :   1.0544 B(  3-C ,  4-O ) :   1.8609
B(  3-C ,  5-C ) :   0.9079 B(  5-C ,  6-C ) :   0.8861 B(  5-C , 25-H ) :   1.0022
B(  5-C , 26-H ) :   0.9446 B(  6-C ,  7-H ) :   0.9585 B(  6-C ,  8-C ) :   0.8944
B(  6-C , 13-S ) :   0.8758 B(  8-C ,  9-O ) :   1.7874 B(  8-C , 10-O ) :   1.0880
B( 10-O , 11-C ) :   0.7926 B( 11-C , 12-C ) :   0.9161 B( 11-C , 27-H ) :   0.9635
B( 11-C , 28-H ) :   0.9673 B( 12-C , 29-H ) :   0.9681 B( 12-C , 30-H ) :   0.9622
B( 12-C , 31-H ) :   0.9654 B( 13-S , 14-P ) :   1.0025 B( 14-P , 15-S ) :   1.7997
B( 14-P , 16-O ) :   1.0334 B( 14-P , 18-O ) :   1.1308 B( 16-O , 17-C ) :   0.8309
B( 17-C , 32-H ) :   0.9593 B( 17-C , 33-H ) :   0.9666 B( 17-C , 34-H ) :   0.9568
B( 18-O , 19-C ) :   0.7949 B( 19-C , 35-H ) :   0.9657 B( 19-C , 36-H ) :   0.9555
B( 19-C , 37-H ) :   0.9598

Dispersion correction           -0.017986936
FINAL SINGLE POINT ENERGY     -1981.452158922416

DIPOLE MOMENT
-------------

Method             : SCF
Type of density    : Electron Density
Multiplicity       :   1
Irrep              :   0
Energy             : -1981.4713030554157740 Eh
Relativity type    :
Basis              : AO
                                X                 Y                 Z
Electronic contribution:     -9.162542664      -2.417596503      -1.193154888
Nuclear contribution   :      7.878844606       1.692252083       1.261410893
                        -----------------------------------------
Total Dipole Moment    :     -1.283698059      -0.725344420       0.068256005
                        -----------------------------------------
Magnitude (a.u.)       :      1.476029849
Magnitude (Debye)      :      3.751769719

Rotational constants in cm-1:             0.015595             0.006492             0.005953
Rotational constants in MHz :           467.539836           194.612661           178.462373

                             ****ORCA TERMINATED NORMALLY****
TOTAL RUN TIME: 0 days 0 hours 1 minutes 23 seconds 383 msec
