                         Program Version 6.0.1  -  RELEASE   -
|  1> ! r2scan-3c def2/J RI DEFGRID2 scfconv6 printgap
|  2> %output
|  3>     printlevel normal
|  4> end
|  5> %cpcm
|  6>     smd true
|  7>     smdsolvent "water"
|  8> end
|  9> * xyz 0 1
| 10> C 4.2486843784 0.3604751289 -2.3444685989
| 11> C 4.1947268574 -1.155441553 -2.2456450491
| 12> O 2.8586140838 -1.5792282072 -1.9128206544
| 13> C 2.5901130172 -1.9384210302 -0.6757139104
| 14> O 3.400876519 -2.0316546259 0.2189497687
| 15> C 1.1108300601 -2.2441774949 -0.5022376604
| 16> C 0.3232415349 -0.9286984306 -0.5297140336
| 17> H 0.3904066648 -0.4686515108 -1.5190313583
| 18> C 0.9468444809 0.0155935672 0.4826242053
| 19> O 1.9786333438 0.601603691 0.2481790801
| 20> O 0.3113022396 0.0289927316 1.6355201467
| 21> C 0.9056824176 0.7631801433 2.7262933071
| 22> C 0.6181750569 2.2519269017 2.6394193066
| 23> S -1.4232380012 -1.2877160856 -0.1562763578
| 24> P -2.0958257176 0.7092300384 0.1018952864
| 25> S -0.9923131378 2.0954482839 -0.7332316483
| 26> O -3.5998833521 0.6345118409 -0.4380031453
| 27> C -3.8813366151 0.4515344334 -1.8304259067
| 28> O -2.3602034553 0.9603313067 1.6373392125
| 29> C -3.1813470041 0.0725882733 2.4241145679
| 30> H 5.2658362265 0.67381761 -2.5541732761
| 31> H 3.5926476324 0.7102989239 -3.1364983651
| 32> H 3.9224491421 0.8032060983 -1.4052734229
| 33> H 4.8767545131 -1.5235764028 -1.4742468456
| 34> H 4.4144963368 -1.6263733895 -3.2049001852
| 35> H 0.9662450892 -2.7468147878 0.4546752678
| 36> H 0.7699888511 -2.8820236016 -1.3171308503
| 37> H 0.4570580801 0.3201363193 3.6154228399
| 38> H 1.9835462811 0.5766747209 2.7046380299
| 39> H 1.0686953678 2.6705519748 1.7414917636
| 40> H -0.4539210009 2.429663551 2.602615911
| 41> H 1.0374623392 2.7466201054 3.5090449932
| 42> H -3.3001729757 1.156593167 -2.4266779558
| 43> H -4.9447507323 0.646950799 -1.9417906732
| 44> H -3.6447935888 -0.5708877538 -2.1242259457
| 45> H -3.1070765602 0.4438606872 3.4427919249
| 46> H -2.7984013147 -0.9454617553 2.3539688704
| 47> H -4.2098408537 0.1114517945 2.0715088735
| 48> *
| 49>
| 50>                          ****END OF INPUT****

CARTESIAN COORDINATES (ANGSTROEM)
---------------------------------
  C      4.248684    0.360475   -2.344469
  C      4.194727   -1.155442   -2.245645
  O      2.858614   -1.579228   -1.912821
  C      2.590113   -1.938421   -0.675714
  O      3.400877   -2.031655    0.218950
  C      1.110830   -2.244177   -0.502238
  C      0.323242   -0.928698   -0.529714
  H      0.390407   -0.468652   -1.519031
  C      0.946844    0.015594    0.482624
  O      1.978633    0.601604    0.248179
  O      0.311302    0.028993    1.635520
  C      0.905682    0.763180    2.726293
  C      0.618175    2.251927    2.639419
  S     -1.423238   -1.287716   -0.156276
  P     -2.095826    0.709230    0.101895
  S     -0.992313    2.095448   -0.733232
  O     -3.599883    0.634512   -0.438003
  C     -3.881337    0.451534   -1.830426
  O     -2.360203    0.960331    1.637339
  C     -3.181347    0.072588    2.424115
  H      5.265836    0.673818   -2.554173
  H      3.592648    0.710299   -3.136498
  H      3.922449    0.803206   -1.405273
  H      4.876755   -1.523576   -1.474247
  H      4.414496   -1.626373   -3.204900
  H      0.966245   -2.746815    0.454675
  H      0.769989   -2.882024   -1.317131
  H      0.457058    0.320136    3.615423
  H      1.983546    0.576675    2.704638
  H      1.068695    2.670552    1.741492
  H     -0.453921    2.429664    2.602616
  H      1.037462    2.746620    3.509045
  H     -3.300173    1.156593   -2.426678
  H     -4.944751    0.646951   -1.941791
  H     -3.644794   -0.570888   -2.124226
  H     -3.107077    0.443861    3.442792
  H     -2.798401   -0.945462    2.353969
  H     -4.209841    0.111452    2.071509

 Total Charge           Charge          ....    0
 Multiplicity           Mult            ....    1
 Number of Electrons    NEL             ....  174
 Basis Dimension        Dim             ....  510

ORBITAL ENERGIES
----------------

  NO   OCC          E(Eh)            E(eV)
   0   2.0000     -88.580922     -2410.4094
   1   2.0000     -88.531631     -2409.0682
   2   2.0000     -76.922313     -2093.1625
   3   2.0000     -19.011071      -517.3175
   4   2.0000     -19.008550      -517.2489
   5   2.0000     -18.999097      -516.9917
   6   2.0000     -18.996357      -516.9172
   7   2.0000     -18.952336      -515.7193
   8   2.0000     -18.948788      -515.6227
   9   2.0000     -10.176430      -276.9147
  10   2.0000     -10.173095      -276.8240
  11   2.0000     -10.101476      -274.8751
  12   2.0000     -10.087580      -274.4970
  13   2.0000     -10.085700      -274.4459
  14   2.0000     -10.085117      -274.4300
  15   2.0000     -10.082542      -274.3599
  16   2.0000     -10.061947      -273.7995
  17   2.0000     -10.017955      -272.6024
  18   2.0000     -10.016896      -272.5736
  19   2.0000      -7.875255      -214.2966
  20   2.0000      -7.826632      -212.9735
  21   2.0000      -6.600713      -179.6145
  22   2.0000      -5.822101      -158.4274
  23   2.0000      -5.819165      -158.3475
  24   2.0000      -5.812339      -158.1618
  25   2.0000      -5.774386      -157.1290
  26   2.0000      -5.766786      -156.9222
  27   2.0000      -5.766617      -156.9176
  28   2.0000      -4.746350      -129.1548
  29   2.0000      -4.745739      -129.1381
  30   2.0000      -4.744320      -129.0995
  31   2.0000      -1.092131       -29.7184
  32   2.0000      -1.085946       -29.5501
  33   2.0000      -1.055770       -28.7290
  34   2.0000      -1.012910       -27.5627
  35   2.0000      -1.001620       -27.2555
  36   2.0000      -0.996359       -27.1123
  37   2.0000      -0.817702       -22.2508
  38   2.0000      -0.754261       -20.5245
  39   2.0000      -0.739412       -20.1204
  40   2.0000      -0.730585       -19.8802
  41   2.0000      -0.697205       -18.9719
  42   2.0000      -0.672166       -18.2906
  43   2.0000      -0.661105       -17.9896
  44   2.0000      -0.650842       -17.7103
  45   2.0000      -0.624052       -16.9813
  46   2.0000      -0.602208       -16.3869
  47   2.0000      -0.545087       -14.8326
  48   2.0000      -0.529268       -14.4021
  49   2.0000      -0.524539       -14.2734
  50   2.0000      -0.504089       -13.7169
  51   2.0000      -0.493865       -13.4388
  52   2.0000      -0.485093       -13.2000
  53   2.0000      -0.466712       -12.6999
  54   2.0000      -0.459893       -12.5143
  55   2.0000      -0.458408       -12.4739
  56   2.0000      -0.455003       -12.3813
  57   2.0000      -0.450153       -12.2493
  58   2.0000      -0.434904       -11.8343
  59   2.0000      -0.428938       -11.6720
  60   2.0000      -0.420765       -11.4496
  61   2.0000      -0.417911       -11.3719
  62   2.0000      -0.411908       -11.2086
  63   2.0000      -0.400547       -10.8994
  64   2.0000      -0.391161       -10.6440
  65   2.0000      -0.382011       -10.3951
  66   2.0000      -0.371142       -10.0993
  67   2.0000      -0.363905        -9.9024
  68   2.0000      -0.363268        -9.8850
  69   2.0000      -0.352044        -9.5796
  70   2.0000      -0.348492        -9.4830
  71   2.0000      -0.344872        -9.3844
  72   2.0000      -0.340046        -9.2531
  73   2.0000      -0.331938        -9.0325
  74   2.0000      -0.325754        -8.8642
  75   2.0000      -0.318392        -8.6639
  76   2.0000      -0.309406        -8.4194
  77   2.0000      -0.306411        -8.3379
  78   2.0000      -0.291399        -7.9294
  79   2.0000      -0.285869        -7.7789
  80   2.0000      -0.283025        -7.7015
  81   2.0000      -0.279628        -7.6091
  82   2.0000      -0.265829        -7.2336
  83   2.0000      -0.257325        -7.0022
  84   2.0000      -0.240758        -6.5514
  85   2.0000      -0.230856        -6.2819
  86   2.0000      -0.227834        -6.1997
  87   0.0000      -0.049950        -1.3592
  88   0.0000      -0.040347        -1.0979
  89   0.0000      -0.030720        -0.8359
  90   0.0000       0.004147         0.1128
  91   0.0000       0.012302         0.3348

MULLIKEN ATOMIC CHARGES
-----------------------
   0 C :   -0.503933
   1 C :   -0.138298
   2 O :   -0.155438
   3 C :    0.363422
   4 O :   -0.479177
   5 C :   -0.420276
   6 C :   -0.047926
   7 H :    0.272173
   8 C :    0.297981
   9 O :   -0.449609
  10 O :   -0.149550
  11 C :   -0.113981
  12 C :   -0.526343
  13 S :   -0.199825
  14 P :    0.778858
  15 S :   -0.466816
  16 O :   -0.373011
  17 C :   -0.307345
  18 O :   -0.335560
  19 C :   -0.298187
  20 H :    0.169825
  21 H :    0.169375
  22 H :    0.171411
  23 H :    0.181447
  24 H :    0.174056
  25 H :    0.213203
  26 H :    0.212829
  27 H :    0.179610
  28 H :    0.173903
  29 H :    0.177681
  30 H :    0.171366
  31 H :    0.172526
  32 H :    0.177236
  33 H :    0.180618
  34 H :    0.176515
  35 H :    0.185300
  36 H :    0.180313
  37 H :    0.185626
Sum of atomic charges:   -0.0000000

LOEWDIN ATOMIC CHARGES
----------------------
   0 C :   -0.392571
   1 C :    0.039073
   2 O :   -0.581488
   3 C :    0.362958
   4 O :   -0.474210
   5 C :   -0.192910
   6 C :   -0.195528
   7 H :    0.211949
   8 C :    0.330690
   9 O :   -0.466875
  10 O :   -0.608603
  11 C :    0.042376
  12 C :   -0.397928
  13 S :    0.208571
  14 P :    0.397048
  15 S :   -0.091136
  16 O :   -0.690254
  17 C :   -0.053296
  18 O :   -0.672130
  19 C :   -0.041542
  20 H :    0.167216
  21 H :    0.162086
  22 H :    0.168355
  23 H :    0.194053
  24 H :    0.189430
  25 H :    0.197611
  26 H :    0.203336
  27 H :    0.193056
  28 H :    0.193006
  29 H :    0.165254
  30 H :    0.167028
  31 H :    0.166944
  32 H :    0.177856
  33 H :    0.189410
  34 H :    0.176757
  35 H :    0.191944
  36 H :    0.180036
  37 H :    0.182429

  Mayer bond orders larger than 0.100000
B(  0-C ,  1-C ) :   0.9267 B(  0-C , 20-H ) :   0.9614 B(  0-C , 21-H ) :   0.9707
B(  0-C , 22-H ) :   0.9661 B(  1-C ,  2-O ) :   0.7814 B(  1-C , 23-H ) :   0.9674
B(  1-C , 24-H ) :   0.9499 B(  2-O ,  3-C ) :   1.0705 B(  3-C ,  4-O ) :   1.7907
B(  3-C ,  5-C ) :   0.9073 B(  5-C ,  6-C ) :   0.8689 B(  5-C , 25-H ) :   1.0022
B(  5-C , 26-H ) :   0.9315 B(  6-C ,  7-H ) :   0.9538 B(  6-C ,  8-C ) :   0.8877
B(  6-C , 13-S ) :   0.8744 B(  8-C ,  9-O ) :   1.7355 B(  8-C , 10-O ) :   1.1049
B( 10-O , 11-C ) :   0.7775 B( 11-C , 12-C ) :   0.9050 B( 11-C , 27-H ) :   0.9524
B( 11-C , 28-H ) :   0.9635 B( 12-C , 29-H ) :   0.9713 B( 12-C , 30-H ) :   0.9618
B( 12-C , 31-H ) :   0.9593 B( 13-S , 14-P ) :   1.0162 B( 14-P , 15-S ) :   1.7620
B( 14-P , 16-O ) :   1.0444 B( 14-P , 18-O ) :   1.1403 B( 16-O , 17-C ) :   0.8226
B( 17-C , 32-H ) :   0.9551 B( 17-C , 33-H ) :   0.9566 B( 17-C , 34-H ) :   0.9504
B( 18-O , 19-C ) :   0.7863 B( 19-C , 35-H ) :   0.9548 B( 19-C , 36-H ) :   0.9473
B( 19-C , 37-H ) :   0.9513

Dispersion correction           -0.017986936
FINAL SINGLE POINT ENERGY     -1981.466944334390

DIPOLE MOMENT
-------------

Method             : SCF
Type of density    : Electron Density
Multiplicity       :   1
Irrep              :   0
Energy             : -1981.4860884673901182 Eh
Relativity type    :
Basis              : AO
                                X                 Y                 Z
Electronic contribution:     -9.769251491      -3.080014786      -1.267929627
Nuclear contribution   :      7.878844606       1.692252083       1.261410893
                        -----------------------------------------
Total Dipole Moment    :     -1.890406885      -1.387762703      -0.006518734
                        -----------------------------------------
Magnitude (a.u.)       :      2.345115350
Magnitude (Debye)      :      5.960809507

Rotational constants in cm-1:             0.015595             0.006492             0.005953
Rotational constants in MHz :           467.539836           194.612661           178.462373

                             ****ORCA TERMINATED NORMALLY****
TOTAL RUN TIME: 0 days 0 hours 1 minutes 47 seconds 788 msec
