                         Program Version 6.0.0  -   RELEASE  -
|  1> ! pbe def2-sv(p) def2/J RI DEFGRID1 loosescf d4 GCP(DFT/SV(P)) printgap
|  2> %output
|  3>     printlevel normal
|  4> end
|  5> * xyz 0 1
|  6> C 4.047438769 -1.4725136657 -2.2721181106
|  7> C 4.624441758 -1.166340852 -0.9056638156
|  8> O 3.6097478948 -1.0794791648 0.1122871061
|  9> P 2.5116381258 0.068397512 0.1218636586
| 10> S 3.1258687444 1.8450388364 -0.4282773309
| 11> O 2.0290914248 0.0672471688 1.6252462494
| 12> C 2.0449581921 -1.0662268081 2.5260763324
| 13> C 1.1742791366 -2.2052841097 2.0407269023
| 14> S 0.9034002067 -0.7070513452 -1.0526348104
| 15> C 0.0744785553 0.8740529409 -1.3076260367
| 16> S -0.7002724519 1.5176408651 0.2037718804
| 17> P -2.4148945561 0.2949522289 0.1025874249
| 18> S -3.2368613833 0.0473322546 -1.6646772062
| 19> O -3.4085592094 0.8656804074 1.2060611764
| 20> C -4.3964587987 1.8668063247 0.9058275128
| 21> C -3.7677026295 3.2106648879 0.5992872436
| 22> O -1.8687557046 -1.0047515645 0.8246565624
| 23> C -2.5773898762 -2.2678754993 0.7553406163
| 24> C -1.9875755751 -3.1496612894 -0.3270101735
| 25> H 4.8589465954 -1.6528367519 -2.9697789728
| 26> H 3.4066769287 -2.3494268258 -2.2281231631
| 27> H 3.4609771756 -0.6263820715 -2.6267067524
| 28> H 5.1742037508 -0.2204579524 -0.9247166833
| 29> H 5.2746122987 -1.9683827605 -0.5532624288
| 30> H 3.080830696 -1.3885500284 2.6491286829
| 31> H 1.6718174053 -0.6438680965 3.4605329487
| 32> H 0.1639229774 -1.8494258814 1.85502121
| 33> H 1.5789977814 -2.6202877298 1.1193623069
| 34> H 1.1483166035 -2.9811980017 2.7995245749
| 35> H -0.6908328645 0.7206577597 -2.069374462
| 36> H 0.8073143574 1.6180643392 -1.6216407462
| 37> H -4.9934915138 1.5195445115 0.0562630091
| 38> H -5.0136284539 1.9048225022 1.8043731209
| 39> H -4.5476004197 3.9575609395 0.4910897342
| 40> H -3.0934185559 3.5045452418 1.3999888023
| 41> H -3.2015463376 3.1539912955 -0.3298527894
| 42> H -2.4541754251 -2.70887171 1.7457050559
| 43> H -3.6373273181 -2.0747110615 0.5699268289
| 44> H -2.4806545449 -4.1160973369 -0.3068789279
| 45> H -2.1359958423 -2.6951360732 -1.3040863426
| 46> H -0.9216232835 -3.2820344959 -0.1664418801
| 47> *
| 48>
| 49>                          ****END OF INPUT****

CARTESIAN COORDINATES (ANGSTROEM)
---------------------------------
  C      4.047439   -1.472514   -2.272118
  C      4.624442   -1.166341   -0.905664
  O      3.609748   -1.079479    0.112287
  P      2.511638    0.068398    0.121864
  S      3.125869    1.845039   -0.428277
  O      2.029091    0.067247    1.625246
  C      2.044958   -1.066227    2.526076
  C      1.174279   -2.205284    2.040727
  S      0.903400   -0.707051   -1.052635
  C      0.074479    0.874053   -1.307626
  S     -0.700272    1.517641    0.203772
  P     -2.414895    0.294952    0.102587
  S     -3.236861    0.047332   -1.664677
  O     -3.408559    0.865680    1.206061
  C     -4.396459    1.866806    0.905828
  C     -3.767703    3.210665    0.599287
  O     -1.868756   -1.004752    0.824657
  C     -2.577390   -2.267875    0.755341
  C     -1.987576   -3.149661   -0.327010
  H      4.858947   -1.652837   -2.969779
  H      3.406677   -2.349427   -2.228123
  H      3.460977   -0.626382   -2.626707
  H      5.174204   -0.220458   -0.924717
  H      5.274612   -1.968383   -0.553262
  H      3.080831   -1.388550    2.649129
  H      1.671817   -0.643868    3.460533
  H      0.163923   -1.849426    1.855021
  H      1.578998   -2.620288    1.119362
  H      1.148317   -2.981198    2.799525
  H     -0.690833    0.720658   -2.069374
  H      0.807314    1.618064   -1.621641
  H     -4.993492    1.519545    0.056263
  H     -5.013628    1.904823    1.804373
  H     -4.547600    3.957561    0.491090
  H     -3.093419    3.504545    1.399989
  H     -3.201546    3.153991   -0.329853
  H     -2.454175   -2.708872    1.745705
  H     -3.637327   -2.074711    0.569927
  H     -2.480655   -4.116097   -0.306879
  H     -2.135996   -2.695136   -1.304086
  H     -0.921623   -3.282034   -0.166442

 Total Charge           Charge          ....    0
 Multiplicity           Mult            ....    1
 Number of Electrons    NEL             ....  202
 Basis Dimension        Dim             ....  334

ORBITAL ENERGIES
----------------

  NO   OCC          E(Eh)            E(eV)
   0   2.0000     -88.041188     -2395.7225
   1   2.0000     -88.039480     -2395.6761
   2   2.0000     -87.990509     -2394.3435
   3   2.0000     -87.985179     -2394.1984
   4   2.0000     -76.427597     -2079.7007
   5   2.0000     -76.427376     -2079.6946
   6   2.0000     -18.800134      -511.5777
   7   2.0000     -18.794842      -511.4336
   8   2.0000     -18.792262      -511.3634
   9   2.0000     -18.788132      -511.2511
  10   2.0000      -9.957031      -270.9446
  11   2.0000      -9.955759      -270.9100
  12   2.0000      -9.955039      -270.8904
  13   2.0000      -9.952643      -270.8252
  14   2.0000      -9.949516      -270.7401
  15   2.0000      -9.885945      -269.0102
  16   2.0000      -9.884724      -268.9770
  17   2.0000      -9.883593      -268.9462
  18   2.0000      -9.881488      -268.8889
  19   2.0000      -7.686431      -209.1584
  20   2.0000      -7.684314      -209.1008
  21   2.0000      -7.635406      -207.7700
  22   2.0000      -7.630429      -207.6345
  23   2.0000      -6.425446      -174.8453
  24   2.0000      -6.424654      -174.8237
  25   2.0000      -5.714243      -155.4925
  26   2.0000      -5.712053      -155.4329
  27   2.0000      -5.711140      -155.4080
  28   2.0000      -5.709009      -155.3500
  29   2.0000      -5.703221      -155.1925
  30   2.0000      -5.701262      -155.1392
  31   2.0000      -5.664127      -154.1287
  32   2.0000      -5.659411      -154.0004
  33   2.0000      -5.656194      -153.9129
  34   2.0000      -5.655608      -153.8969
  35   2.0000      -5.651083      -153.7738
  36   2.0000      -5.650456      -153.7567
  37   2.0000      -4.647999      -126.4785
  38   2.0000      -4.647836      -126.4740
  39   2.0000      -4.647111      -126.4543
  40   2.0000      -4.646066      -126.4259
  41   2.0000      -4.645961      -126.4230
  42   2.0000      -4.644929      -126.3949
  43   2.0000      -0.990145       -26.9432
  44   2.0000      -0.988507       -26.8986
  45   2.0000      -0.946909       -25.7667
  46   2.0000      -0.945147       -25.7188
  47   2.0000      -0.763760       -20.7830
  48   2.0000      -0.721655       -19.6372
  49   2.0000      -0.709494       -19.3063
  50   2.0000      -0.692351       -18.8398
  51   2.0000      -0.686666       -18.6851
  52   2.0000      -0.676819       -18.4172
  53   2.0000      -0.651830       -17.7372
  54   2.0000      -0.636843       -17.3294
  55   2.0000      -0.601951       -16.3799
  56   2.0000      -0.593455       -16.1487
  57   2.0000      -0.580141       -15.7864
  58   2.0000      -0.574962       -15.6455
  59   2.0000      -0.554528       -15.0895
  60   2.0000      -0.502177       -13.6649
  61   2.0000      -0.496863       -13.5203
  62   2.0000      -0.472072       -12.8457
  63   2.0000      -0.470546       -12.8042
  64   2.0000      -0.461625       -12.5615
  65   2.0000      -0.450064       -12.2469
  66   2.0000      -0.441128       -12.0037
  67   2.0000      -0.436176       -11.8689
  68   2.0000      -0.426107       -11.5950
  69   2.0000      -0.424245       -11.5443
  70   2.0000      -0.410269       -11.1640
  71   2.0000      -0.401087       -10.9141
  72   2.0000      -0.396493       -10.7891
  73   2.0000      -0.382586       -10.4107
  74   2.0000      -0.378642       -10.3034
  75   2.0000      -0.373464       -10.1625
  76   2.0000      -0.368601       -10.0301
  77   2.0000      -0.360112        -9.7991
  78   2.0000      -0.355073        -9.6620
  79   2.0000      -0.352091        -9.5809
  80   2.0000      -0.350178        -9.5288
  81   2.0000      -0.344957        -9.3868
  82   2.0000      -0.341526        -9.2934
  83   2.0000      -0.339218        -9.2306
  84   2.0000      -0.335759        -9.1365
  85   2.0000      -0.321776        -8.7560
  86   2.0000      -0.307583        -8.3698
  87   2.0000      -0.297903        -8.1064
  88   2.0000      -0.297631        -8.0990
  89   2.0000      -0.295505        -8.0411
  90   2.0000      -0.288315        -7.8454
  91   2.0000      -0.280161        -7.6236
  92   2.0000      -0.272702        -7.4206
  93   2.0000      -0.265042        -7.2121
  94   2.0000      -0.256443        -6.9782
  95   2.0000      -0.232712        -6.3324
  96   2.0000      -0.218538        -5.9467
  97   2.0000      -0.212962        -5.7950
  98   2.0000      -0.204859        -5.5745
  99   2.0000      -0.202630        -5.5138
 100   2.0000      -0.197433        -5.3724
 101   0.0000      -0.045105        -1.2274
 102   0.0000      -0.025635        -0.6976
 103   0.0000      -0.004371        -0.1190
 104   0.0000      -0.003265        -0.0888
 105   0.0000       0.015018         0.4087

MULLIKEN ATOMIC CHARGES
-----------------------
   0 C :   -0.316486
   1 C :   -0.000869
   2 O :   -0.387531
   3 P :    0.616617
   4 S :   -0.318018
   5 O :   -0.356942
   6 C :    0.019621
   7 C :   -0.372265
   8 S :   -0.088259
   9 C :   -0.383948
  10 S :   -0.050248
  11 P :    0.604838
  12 S :   -0.338590
  13 O :   -0.372412
  14 C :   -0.005451
  15 C :   -0.317632
  16 O :   -0.363125
  17 C :   -0.001113
  18 C :   -0.296667
  19 H :    0.114763
  20 H :    0.116436
  21 H :    0.130264
  22 H :    0.115412
  23 H :    0.104801
  24 H :    0.105948
  25 H :    0.109738
  26 H :    0.164187
  27 H :    0.122572
  28 H :    0.108698
  29 H :    0.190275
  30 H :    0.197474
  31 H :    0.111865
  32 H :    0.105307
  33 H :    0.113966
  34 H :    0.120310
  35 H :    0.128412
  36 H :    0.106816
  37 H :    0.107101
  38 H :    0.106636
  39 H :    0.124716
  40 H :    0.122784
Sum of atomic charges:    0.0000000

LOEWDIN ATOMIC CHARGES
----------------------
   0 C :   -0.370623
   1 C :   -0.115846
   2 O :   -0.247010
   3 P :    0.576679
   4 S :   -0.311333
   5 O :   -0.236818
   6 C :   -0.104317
   7 C :   -0.379068
   8 S :    0.084201
   9 C :   -0.492081
  10 S :    0.105088
  11 P :    0.573707
  12 S :   -0.324289
  13 O :   -0.245742
  14 C :   -0.120150
  15 C :   -0.369175
  16 O :   -0.240330
  17 C :   -0.112443
  18 C :   -0.363084
  19 H :    0.132155
  20 H :    0.123196
  21 H :    0.122583
  22 H :    0.114162
  23 H :    0.118494
  24 H :    0.112888
  25 H :    0.123114
  26 H :    0.131717
  27 H :    0.116277
  28 H :    0.128885
  29 H :    0.127324
  30 H :    0.128339
  31 H :    0.110178
  32 H :    0.118710
  33 H :    0.131640
  34 H :    0.125797
  35 H :    0.122014
  36 H :    0.117284
  37 H :    0.110807
  38 H :    0.128146
  39 H :    0.124406
  40 H :    0.124519

  Mayer bond orders larger than 0.100000
B(  0-C ,  1-C ) :   1.1669 B(  0-C , 19-H ) :   0.9365 B(  0-C , 20-H ) :   0.9445
B(  0-C , 21-H ) :   0.9333 B(  1-C ,  2-O ) :   0.9016 B(  1-C , 22-H ) :   0.9178
B(  1-C , 23-H ) :   0.9342 B(  2-O ,  3-P ) :   1.0766 B(  3-P ,  4-S ) :   1.6275
B(  3-P ,  5-O ) :   1.1386 B(  3-P ,  8-S ) :   0.9420 B(  4-S ,  8-S ) :   0.1125
B(  5-O ,  6-C ) :   0.9011 B(  6-C ,  7-C ) :   1.1690 B(  6-C , 24-H ) :   0.9293
B(  6-C , 25-H ) :   0.9334 B(  7-C , 26-H ) :   0.9162 B(  7-C , 27-H ) :   0.9370
B(  7-C , 28-H ) :   0.9341 B(  8-S ,  9-C ) :   1.0108 B(  9-C , 10-S ) :   1.0025
B(  9-C , 29-H ) :   0.8672 B(  9-C , 30-H ) :   0.8677 B( 10-S , 11-P ) :   0.9776
B( 10-S , 12-S ) :   0.1099 B( 11-P , 12-S ) :   1.5781 B( 11-P , 13-O ) :   1.1142
B( 11-P , 16-O ) :   1.1255 B( 13-O , 14-C ) :   0.9079 B( 14-C , 15-C ) :   1.1645
B( 14-C , 31-H ) :   0.9149 B( 14-C , 32-H ) :   0.9334 B( 15-C , 33-H ) :   0.9380
B( 15-C , 34-H ) :   0.9451 B( 15-C , 35-H ) :   0.9349 B( 16-O , 17-C ) :   0.8735
B( 17-C , 18-C ) :   1.1748 B( 17-C , 36-H ) :   0.9324 B( 17-C , 37-H ) :   0.9148
B( 18-C , 38-H ) :   0.9389 B( 18-C , 39-H ) :   0.9339 B( 18-C , 40-H ) :   0.9437

Dispersion correction           -0.066178901
FINAL SINGLE POINT ENERGY     -2929.521008749767

DIPOLE MOMENT
-------------

Method             : SCF
Type of density    : Electron Density
Multiplicity       :   1
Irrep              :   0
Energy             : -2929.6407008076612328 Eh
Relativity type    :
Basis              : AO
                                X                 Y                 Z
Electronic contribution:      2.345703292      12.984914190      -1.854606188
Nuclear contribution   :     -2.470160666     -14.303465985       2.614257327
                        -----------------------------------------
Total Dipole Moment    :     -0.124457374      -1.318551795       0.759651139
                        -----------------------------------------
Magnitude (a.u.)       :      1.526806578
Magnitude (Debye)      :      3.880833906

Rotational constants in cm-1:             0.012853             0.004891             0.004516
Rotational constants in MHz :           385.329506           146.631276           135.383148

                             ****ORCA TERMINATED NORMALLY****
TOTAL RUN TIME: 0 days 0 hours 0 minutes 21 seconds 277 msec
