                         Program Version 6.0.0  -   RELEASE  -
|  1> ! pbe def2-sv(p) def2/J RI DEFGRID1 loosescf d4 GCP(DFT/SV(P)) printgap
|  2> %output
|  3>     printlevel normal
|  4> end
|  5> * xyz 0 1
|  6> C 4.5985632682 1.0140130309 -1.6688376603
|  7> C 4.6267702101 -0.2185083297 -0.7889118137
|  8> O 3.332018787 -0.8386844827 -0.6907966223
|  9> P 2.1373723811 -0.1676370222 0.1133608491
| 10> S 2.6907474735 0.7864529029 1.7386506318
| 11> O 1.1259250423 -1.3765703122 0.2618311631
| 12> C 1.4747140645 -2.7085924948 0.6938586227
| 13> C 1.8108066334 -2.7537502357 2.1703244291
| 14> S 1.090320634 0.9965693948 -1.3063726391
| 15> C 0.1021644253 1.9450873564 -0.1114979208
| 16> S -0.9057968154 0.9169264724 0.9823509176
| 17> P -2.2050768547 0.0345082329 -0.4794508114
| 18> S -1.5203006642 -1.4300353694 -1.5859649132
| 19> O -2.7045058658 1.2495121981 -1.3563038719
| 20> C -3.8334488148 2.1080913219 -1.0519286628
| 21> C -3.6083032947 2.9693460626 0.1732028962
| 22> O -3.4870990924 -0.3495576482 0.3790390986
| 23> C -3.6043358718 -1.631357669 1.0200318614
| 24> C -2.5680498033 -1.81454861 2.1094897314
| 25> H 4.004437186 1.7945040422 -1.1952758126
| 26> H 5.6110308452 1.3779581611 -1.8105018074
| 27> H 4.1589966352 0.778710221 -2.6350657862
| 28> H 4.9635908725 0.0377391527 0.2208826072
| 29> H 5.261164243 -1.0005933186 -1.2080279973
| 30> H 0.5798712672 -3.2897431442 0.4600733299
| 31> H 2.3091625924 -3.0629225954 0.0847495323
| 32> H 0.9943207651 -2.3395729959 2.7573268281
| 33> H 1.9823348973 -3.7834698919 2.4672766221
| 34> H 2.7082726343 -2.1700357689 2.3696434898
| 35> H -0.5280990135 2.60647279 -0.7011691769
| 36> H 0.7673132708 2.5062896998 0.5448017193
| 37> H -3.9343261538 2.7105335761 -1.9562016728
| 38> H -4.7147371494 1.4775199719 -0.9245556652
| 39> H -3.4920570214 2.3471799624 1.0575777369
| 40> H -2.7209265821 3.5863632495 0.0570407879
| 41> H -4.4703947652 3.6155460482 0.3075273899
| 42> H -4.6188726142 -1.6327034954 1.4205170793
| 43> H -3.5001999811 -2.409195004 0.2568004995
| 44> H -2.6218649031 -1.001302015 2.8291546036
| 45> H -2.7364228641 -2.7595211441 2.6157908005
| 46> H -1.5715155195 -1.8218266484 1.6672922222
| 47> *
| 48>
| 49>                          ****END OF INPUT****

CARTESIAN COORDINATES (ANGSTROEM)
---------------------------------
  C      4.598563    1.014013   -1.668838
  C      4.626770   -0.218508   -0.788912
  O      3.332019   -0.838684   -0.690797
  P      2.137372   -0.167637    0.113361
  S      2.690747    0.786453    1.738651
  O      1.125925   -1.376570    0.261831
  C      1.474714   -2.708592    0.693859
  C      1.810807   -2.753750    2.170324
  S      1.090321    0.996569   -1.306373
  C      0.102164    1.945087   -0.111498
  S     -0.905797    0.916926    0.982351
  P     -2.205077    0.034508   -0.479451
  S     -1.520301   -1.430035   -1.585965
  O     -2.704506    1.249512   -1.356304
  C     -3.833449    2.108091   -1.051929
  C     -3.608303    2.969346    0.173203
  O     -3.487099   -0.349558    0.379039
  C     -3.604336   -1.631358    1.020032
  C     -2.568050   -1.814549    2.109490
  H      4.004437    1.794504   -1.195276
  H      5.611031    1.377958   -1.810502
  H      4.158997    0.778710   -2.635066
  H      4.963591    0.037739    0.220883
  H      5.261164   -1.000593   -1.208028
  H      0.579871   -3.289743    0.460073
  H      2.309163   -3.062923    0.084750
  H      0.994321   -2.339573    2.757327
  H      1.982335   -3.783470    2.467277
  H      2.708273   -2.170036    2.369643
  H     -0.528099    2.606473   -0.701169
  H      0.767313    2.506290    0.544802
  H     -3.934326    2.710534   -1.956202
  H     -4.714737    1.477520   -0.924556
  H     -3.492057    2.347180    1.057578
  H     -2.720927    3.586363    0.057041
  H     -4.470395    3.615546    0.307527
  H     -4.618873   -1.632703    1.420517
  H     -3.500200   -2.409195    0.256800
  H     -2.621865   -1.001302    2.829155
  H     -2.736423   -2.759521    2.615791
  H     -1.571516   -1.821827    1.667292

 Total Charge           Charge          ....    0
 Multiplicity           Mult            ....    1
 Number of Electrons    NEL             ....  202
 Basis Dimension        Dim             ....  334

ORBITAL ENERGIES
----------------

  NO   OCC          E(Eh)            E(eV)
   0   2.0000     -88.036223     -2395.5874
   1   2.0000     -88.034667     -2395.5451
   2   2.0000     -87.982383     -2394.1224
   3   2.0000     -87.975026     -2393.9221
   4   2.0000     -76.422918     -2079.5733
   5   2.0000     -76.422856     -2079.5716
   6   2.0000     -18.794671      -511.4290
   7   2.0000     -18.793173      -511.3882
   8   2.0000     -18.790905      -511.3265
   9   2.0000     -18.779505      -511.0163
  10   2.0000      -9.958749      -270.9913
  11   2.0000      -9.954348      -270.8716
  12   2.0000      -9.954042      -270.8632
  13   2.0000      -9.950619      -270.7701
  14   2.0000      -9.946551      -270.6594
  15   2.0000      -9.889670      -269.1116
  16   2.0000      -9.887109      -269.0419
  17   2.0000      -9.881772      -268.8967
  18   2.0000      -9.877608      -268.7834
  19   2.0000      -7.680609      -209.0000
  20   2.0000      -7.679964      -208.9824
  21   2.0000      -7.627435      -207.5531
  22   2.0000      -7.620211      -207.3565
  23   2.0000      -6.420054      -174.6985
  24   2.0000      -6.420027      -174.6978
  25   2.0000      -5.708523      -155.3368
  26   2.0000      -5.707943      -155.3210
  27   2.0000      -5.705343      -155.2503
  28   2.0000      -5.704658      -155.2316
  29   2.0000      -5.697410      -155.0344
  30   2.0000      -5.696566      -155.0114
  31   2.0000      -5.656176      -153.9124
  32   2.0000      -5.649267      -153.7244
  33   2.0000      -5.648257      -153.6969
  34   2.0000      -5.647593      -153.6788
  35   2.0000      -5.640994      -153.4993
  36   2.0000      -5.640054      -153.4737
  37   2.0000      -4.643495      -126.3559
  38   2.0000      -4.643089      -126.3449
  39   2.0000      -4.641603      -126.3045
  40   2.0000      -4.641545      -126.3028
  41   2.0000      -4.640427      -126.2724
  42   2.0000      -4.639852      -126.2568
  43   2.0000      -0.988433       -26.8966
  44   2.0000      -0.983372       -26.7589
  45   2.0000      -0.945623       -25.7317
  46   2.0000      -0.938723       -25.5439
  47   2.0000      -0.759999       -20.6806
  48   2.0000      -0.717511       -19.5245
  49   2.0000      -0.706564       -19.2266
  50   2.0000      -0.692963       -18.8565
  51   2.0000      -0.684398       -18.6234
  52   2.0000      -0.670644       -18.2492
  53   2.0000      -0.648070       -17.6349
  54   2.0000      -0.633358       -17.2345
  55   2.0000      -0.594854       -16.1868
  56   2.0000      -0.588459       -16.0128
  57   2.0000      -0.582020       -15.8376
  58   2.0000      -0.573322       -15.6009
  59   2.0000      -0.555656       -15.1202
  60   2.0000      -0.497059       -13.5257
  61   2.0000      -0.493432       -13.4270
  62   2.0000      -0.472344       -12.8531
  63   2.0000      -0.467901       -12.7322
  64   2.0000      -0.459597       -12.5063
  65   2.0000      -0.448481       -12.2038
  66   2.0000      -0.437621       -11.9083
  67   2.0000      -0.427612       -11.6359
  68   2.0000      -0.426830       -11.6146
  69   2.0000      -0.417496       -11.3606
  70   2.0000      -0.408354       -11.1119
  71   2.0000      -0.401675       -10.9301
  72   2.0000      -0.398904       -10.8547
  73   2.0000      -0.377560       -10.2739
  74   2.0000      -0.374227       -10.1832
  75   2.0000      -0.368851       -10.0369
  76   2.0000      -0.366947        -9.9851
  77   2.0000      -0.359814        -9.7910
  78   2.0000      -0.355045        -9.6613
  79   2.0000      -0.352547        -9.5933
  80   2.0000      -0.347921        -9.4674
  81   2.0000      -0.343429        -9.3452
  82   2.0000      -0.338402        -9.2084
  83   2.0000      -0.337589        -9.1863
  84   2.0000      -0.329819        -8.9748
  85   2.0000      -0.324614        -8.8332
  86   2.0000      -0.308280        -8.3887
  87   2.0000      -0.298594        -8.1252
  88   2.0000      -0.294490        -8.0135
  89   2.0000      -0.292621        -7.9626
  90   2.0000      -0.283063        -7.7025
  91   2.0000      -0.272166        -7.4060
  92   2.0000      -0.270497        -7.3606
  93   2.0000      -0.256555        -6.9812
  94   2.0000      -0.255342        -6.9482
  95   2.0000      -0.234788        -6.3889
  96   2.0000      -0.210899        -5.7389
  97   2.0000      -0.204609        -5.5677
  98   2.0000      -0.197170        -5.3653
  99   2.0000      -0.187957        -5.1146
 100   2.0000      -0.182241        -4.9590
 101   0.0000      -0.045374        -1.2347
 102   0.0000      -0.023269        -0.6332
 103   0.0000      -0.007566        -0.2059
 104   0.0000       0.001446         0.0393
 105   0.0000       0.020229         0.5505

MULLIKEN ATOMIC CHARGES
-----------------------
   0 C :   -0.314793
   1 C :   -0.004926
   2 O :   -0.378992
   3 P :    0.636485
   4 S :   -0.344091
   5 O :   -0.352654
   6 C :   -0.000544
   7 C :   -0.311888
   8 S :   -0.070664
   9 C :   -0.354056
  10 S :   -0.097241
  11 P :    0.608232
  12 S :   -0.296642
  13 O :   -0.375223
  14 C :    0.008050
  15 C :   -0.322542
  16 O :   -0.386499
  17 C :    0.006291
  18 C :   -0.361171
  19 H :    0.125346
  20 H :    0.112352
  21 H :    0.119596
  22 H :    0.111247
  23 H :    0.103831
  24 H :    0.107952
  25 H :    0.107575
  26 H :    0.122587
  27 H :    0.105562
  28 H :    0.123136
  29 H :    0.182341
  30 H :    0.190765
  31 H :    0.110391
  32 H :    0.110785
  33 H :    0.132090
  34 H :    0.118991
  35 H :    0.112802
  36 H :    0.103738
  37 H :    0.111100
  38 H :    0.122936
  39 H :    0.116171
  40 H :    0.161572
Sum of atomic charges:    0.0000000

LOEWDIN ATOMIC CHARGES
----------------------
   0 C :   -0.369115
   1 C :   -0.120583
   2 O :   -0.243232
   3 P :    0.575532
   4 S :   -0.330413
   5 O :   -0.233085
   6 C :   -0.110837
   7 C :   -0.365422
   8 S :    0.094081
   9 C :   -0.479770
  10 S :    0.084153
  11 P :    0.570357
  12 S :   -0.303577
  13 O :   -0.245571
  14 C :   -0.107224
  15 C :   -0.368038
  16 O :   -0.248933
  17 C :   -0.118912
  18 C :   -0.375897
  19 H :    0.120701
  20 H :    0.130874
  21 H :    0.125677
  22 H :    0.109718
  23 H :    0.117726
  24 H :    0.116923
  25 H :    0.111506
  26 H :    0.127446
  27 H :    0.126834
  28 H :    0.121567
  29 H :    0.127131
  30 H :    0.131427
  31 H :    0.121836
  32 H :    0.116167
  33 H :    0.122428
  34 H :    0.123810
  35 H :    0.131480
  36 H :    0.117909
  37 H :    0.111483
  38 H :    0.125519
  39 H :    0.132730
  40 H :    0.125595

  Mayer bond orders larger than 0.100000
B(  0-C ,  1-C ) :   1.1661 B(  0-C , 19-H ) :   0.9342 B(  0-C , 20-H ) :   0.9380
B(  0-C , 21-H ) :   0.9454 B(  1-C ,  2-O ) :   0.9070 B(  1-C , 22-H ) :   0.9127
B(  1-C , 23-H ) :   0.9329 B(  2-O ,  3-P ) :   1.0936 B(  3-P ,  4-S ) :   1.5937
B(  3-P ,  5-O ) :   1.1314 B(  3-P ,  8-S ) :   0.9566 B(  4-S ,  8-S ) :   0.1172
B(  5-O ,  6-C ) :   0.9055 B(  6-C ,  7-C ) :   1.1657 B(  6-C , 24-H ) :   0.9260
B(  6-C , 25-H ) :   0.9291 B(  7-C , 26-H ) :   0.9478 B(  7-C , 27-H ) :   0.9381
B(  7-C , 28-H ) :   0.9351 B(  8-S ,  9-C ) :   1.0043 B(  9-C , 10-S ) :   1.0091
B(  9-C , 29-H ) :   0.8942 B(  9-C , 30-H ) :   0.8874 B( 10-S , 11-P ) :   0.9335
B( 10-S , 12-S ) :   0.1140 B( 11-P , 12-S ) :   1.6842 B( 11-P , 13-O ) :   1.1076
B( 11-P , 16-O ) :   1.0613 B( 13-O , 14-C ) :   0.8967 B( 14-C , 15-C ) :   1.1686
B( 14-C , 31-H ) :   0.9357 B( 14-C , 32-H ) :   0.9267 B( 15-C , 33-H ) :   0.9354
B( 15-C , 34-H ) :   0.9442 B( 15-C , 35-H ) :   0.9354 B( 16-O , 17-C ) :   0.9060
B( 17-C , 18-C ) :   1.1627 B( 17-C , 36-H ) :   0.9326 B( 17-C , 37-H ) :   0.9131
B( 18-C , 38-H ) :   0.9422 B( 18-C , 39-H ) :   0.9372 B( 18-C , 40-H ) :   0.9197

Dispersion correction           -0.067863074
FINAL SINGLE POINT ENERGY     -2929.511093255477

DIPOLE MOMENT
-------------

Method             : SCF
Type of density    : Electron Density
Multiplicity       :   1
Irrep              :   0
Energy             : -2929.6285796045976895 Eh
Relativity type    :
Basis              : AO
                                X                 Y                 Z
Electronic contribution:      0.922595363       2.326907405      -8.161927981
Nuclear contribution   :     -1.476321958      -2.218987856       8.459875224
                        -----------------------------------------
Total Dipole Moment    :     -0.553726595       0.107919549       0.297947243
                        -----------------------------------------
Magnitude (a.u.)       :      0.637990855
Magnitude (Debye)      :      1.621643879

Rotational constants in cm-1:             0.012520             0.005502             0.004844
Rotational constants in MHz :           375.336385           164.940564           145.206163

                             ****ORCA TERMINATED NORMALLY****
TOTAL RUN TIME: 0 days 0 hours 0 minutes 21 seconds 533 msec
