                         Program Version 6.0.0  -   RELEASE  -
|  1> ! r2scan-3c def2/J RI DEFGRID2 scfconv6 printgap
|  2> %output
|  3>     printlevel normal
|  4> end
|  5> * xyz 0 1
|  6> C 2.4578595232 -3.1784817985 -1.11494846
|  7> C 3.356605177 -2.0981942988 -1.6792124425
|  8> O 3.5760410805 -1.0128771444 -0.748656676
|  9> P 2.4646006638 -0.0648284345 -0.1278223163
| 10> S 3.3033046129 1.5576049366 0.564590655
| 11> O 1.6603518759 -0.9330043157 0.947047085
| 12> C 1.9477284692 -0.9106755517 2.3597761309
| 13> C 0.9717265535 -0.0173625107 3.0991580802
| 14> S 1.027170552 0.1136647813 -1.6669893385
| 15> C 0.3930266785 1.7429878495 -1.2000875518
| 16> S -0.4508171892 1.7509547447 0.4027144576
| 17> P -1.9523150368 0.3475718206 -0.0941190372
| 18> S -2.6615789526 0.4512976302 -1.9231634559
| 19> O -3.0211103428 0.5530191931 1.0615036998
| 20> C -3.9421542256 1.6620436673 1.0505456742
| 21> C -5.0598745052 1.3481194408 2.0244200451
| 22> O -1.287266274 -1.0174666315 0.343006207
| 23> C -1.6586217545 -2.2755053666 -0.2563543905
| 24> C -3.0622756457 -2.6839739148 0.1368835601
| 25> H 2.8668439439 -3.562746684 -0.1840105043
| 26> H 1.4645606447 -2.7751429119 -0.9275242099
| 27> H 2.381040739 -3.9874647484 -1.8346594594
| 28> H 2.933653488 -1.6809718719 -2.5968502155
| 29> H 4.3643313654 -2.4698027103 -1.8718608776
| 30> H 1.851032087 -1.9506218066 2.676963667
| 31> H 2.9766386451 -0.5715176534 2.5133032438
| 32> H -0.0498512364 -0.2935387582 2.8485072705
| 33> H 1.1250521046 -0.1282411386 4.1677463911
| 34> H 1.1297898887 1.0230230277 2.8228380277
| 35> H -0.305119419 2.0325071481 -1.9850809241
| 36> H 1.2192308115 2.4484666142 -1.1164670043
| 37> H -3.3966970789 2.562816038 1.3451278143
| 38> H -4.3204720541 1.7906329111 0.0307811203
| 39> H -5.5926767713 0.4554378153 1.709595575
| 40> H -4.6495687175 1.1826894978 3.0162710241
| 41> H -5.7500332198 2.1847461316 2.055216335
| 42> H -1.5701737511 -2.1827427245 -1.34386655
| 43> H -0.911385138 -2.9757792903 0.1199452633
| 44> H -3.1592901063 -2.7036257184 1.2190839154
| 45> H -3.7782928529 -1.9695643619 -0.2681154398
| 46> H -3.2788739457 -3.6682617841 -0.2661558466
| 47> *
| 48>
| 49>                          ****END OF INPUT****

CARTESIAN COORDINATES (ANGSTROEM)
---------------------------------
  C      2.457860   -3.178482   -1.114948
  C      3.356605   -2.098194   -1.679212
  O      3.576041   -1.012877   -0.748657
  P      2.464601   -0.064828   -0.127822
  S      3.303305    1.557605    0.564591
  O      1.660352   -0.933004    0.947047
  C      1.947728   -0.910676    2.359776
  C      0.971727   -0.017363    3.099158
  S      1.027171    0.113665   -1.666989
  C      0.393027    1.742988   -1.200088
  S     -0.450817    1.750955    0.402714
  P     -1.952315    0.347572   -0.094119
  S     -2.661579    0.451298   -1.923163
  O     -3.021110    0.553019    1.061504
  C     -3.942154    1.662044    1.050546
  C     -5.059875    1.348119    2.024420
  O     -1.287266   -1.017467    0.343006
  C     -1.658622   -2.275505   -0.256354
  C     -3.062276   -2.683974    0.136884
  H      2.866844   -3.562747   -0.184011
  H      1.464561   -2.775143   -0.927524
  H      2.381041   -3.987465   -1.834659
  H      2.933653   -1.680972   -2.596850
  H      4.364331   -2.469803   -1.871861
  H      1.851032   -1.950622    2.676964
  H      2.976639   -0.571518    2.513303
  H     -0.049851   -0.293539    2.848507
  H      1.125052   -0.128241    4.167746
  H      1.129790    1.023023    2.822838
  H     -0.305119    2.032507   -1.985081
  H      1.219231    2.448467   -1.116467
  H     -3.396697    2.562816    1.345128
  H     -4.320472    1.790633    0.030781
  H     -5.592677    0.455438    1.709596
  H     -4.649569    1.182689    3.016271
  H     -5.750033    2.184746    2.055216
  H     -1.570174   -2.182743   -1.343867
  H     -0.911385   -2.975779    0.119945
  H     -3.159290   -2.703626    1.219084
  H     -3.778293   -1.969564   -0.268115
  H     -3.278874   -3.668262   -0.266156

 Total Charge           Charge          ....    0
 Multiplicity           Mult            ....    1
 Number of Electrons    NEL             ....  202
 Basis Dimension        Dim             ....  539

ORBITAL ENERGIES
----------------

  NO   OCC          E(Eh)            E(eV)
   0   2.0000     -88.577104     -2410.3055
   1   2.0000     -88.575214     -2410.2541
   2   2.0000     -88.522258     -2408.8131
   3   2.0000     -88.515844     -2408.6386
   4   2.0000     -76.914900     -2092.9608
   5   2.0000     -76.912210     -2092.8876
   6   2.0000     -18.994978      -516.8796
   7   2.0000     -18.990982      -516.7709
   8   2.0000     -18.989046      -516.7182
   9   2.0000     -18.983133      -516.5573
  10   2.0000     -10.107429      -275.0371
  11   2.0000     -10.106039      -274.9993
  12   2.0000     -10.100837      -274.8577
  13   2.0000     -10.100040      -274.8360
  14   2.0000     -10.093863      -274.6680
  15   2.0000     -10.037588      -273.1367
  16   2.0000     -10.035582      -273.0821
  17   2.0000     -10.030578      -272.9459
  18   2.0000     -10.018902      -272.6282
  19   2.0000      -7.871651      -214.1985
  20   2.0000      -7.869578      -214.1421
  21   2.0000      -7.817028      -212.7122
  22   2.0000      -7.810762      -212.5417
  23   2.0000      -6.593566      -179.4200
  24   2.0000      -6.590361      -179.3329
  25   2.0000      -5.818562      -158.3311
  26   2.0000      -5.816468      -158.2741
  27   2.0000      -5.815507      -158.2480
  28   2.0000      -5.813435      -158.1916
  29   2.0000      -5.808671      -158.0620
  30   2.0000      -5.806665      -158.0074
  31   2.0000      -5.764637      -156.8637
  32   2.0000      -5.758575      -156.6988
  33   2.0000      -5.757294      -156.6639
  34   2.0000      -5.757082      -156.6582
  35   2.0000      -5.751293      -156.5006
  36   2.0000      -5.750319      -156.4741
  37   2.0000      -4.738917      -128.9525
  38   2.0000      -4.738501      -128.9412
  39   2.0000      -4.737401      -128.9112
  40   2.0000      -4.736175      -128.8779
  41   2.0000      -4.735092      -128.8484
  42   2.0000      -4.734046      -128.8199
  43   2.0000      -1.052475       -28.6393
  44   2.0000      -1.042011       -28.3546
  45   2.0000      -1.013332       -27.5742
  46   2.0000      -1.004986       -27.3471
  47   2.0000      -0.804327       -21.8869
  48   2.0000      -0.760672       -20.6989
  49   2.0000      -0.752268       -20.4702
  50   2.0000      -0.735215       -20.0062
  51   2.0000      -0.732700       -19.9378
  52   2.0000      -0.709177       -19.2977
  53   2.0000      -0.685042       -18.6409
  54   2.0000      -0.670622       -18.2486
  55   2.0000      -0.632456       -17.2100
  56   2.0000      -0.622789       -16.9470
  57   2.0000      -0.611403       -16.6371
  58   2.0000      -0.601468       -16.3668
  59   2.0000      -0.591098       -16.0846
  60   2.0000      -0.531274       -14.4567
  61   2.0000      -0.521087       -14.1795
  62   2.0000      -0.498857       -13.5746
  63   2.0000      -0.493907       -13.4399
  64   2.0000      -0.476117       -12.9558
  65   2.0000      -0.466564       -12.6959
  66   2.0000      -0.457828       -12.4581
  67   2.0000      -0.454529       -12.3684
  68   2.0000      -0.447807       -12.1855
  69   2.0000      -0.431201       -11.7336
  70   2.0000      -0.422964       -11.5094
  71   2.0000      -0.417085       -11.3495
  72   2.0000      -0.411872       -11.2076
  73   2.0000      -0.401433       -10.9235
  74   2.0000      -0.394175       -10.7261
  75   2.0000      -0.389907       -10.6099
  76   2.0000      -0.383479       -10.4350
  77   2.0000      -0.375317       -10.2129
  78   2.0000      -0.371220       -10.1014
  79   2.0000      -0.369632       -10.0582
  80   2.0000      -0.363769        -9.8986
  81   2.0000      -0.361084        -9.8256
  82   2.0000      -0.360999        -9.8233
  83   2.0000      -0.354925        -9.6580
  84   2.0000      -0.349324        -9.5056
  85   2.0000      -0.333636        -9.0787
  86   2.0000      -0.323341        -8.7985
  87   2.0000      -0.318740        -8.6734
  88   2.0000      -0.315164        -8.5760
  89   2.0000      -0.303143        -8.2489
  90   2.0000      -0.293549        -7.9879
  91   2.0000      -0.293021        -7.9735
  92   2.0000      -0.287800        -7.8314
  93   2.0000      -0.279783        -7.6133
  94   2.0000      -0.272330        -7.4105
  95   2.0000      -0.244130        -6.6431
  96   2.0000      -0.230017        -6.2591
  97   2.0000      -0.227782        -6.1983
  98   2.0000      -0.219440        -5.9713
  99   2.0000      -0.212754        -5.7893
 100   2.0000      -0.208745        -5.6802
 101   0.0000      -0.048686        -1.3248
 102   0.0000      -0.026581        -0.7233
 103   0.0000      -0.000113        -0.0031
 104   0.0000       0.005851         0.1592
 105   0.0000       0.009944         0.2706

MULLIKEN ATOMIC CHARGES
-----------------------
   0 C :   -0.427039
   1 C :   -0.172285
   2 O :   -0.262120
   3 P :    0.645415
   4 S :   -0.456603
   5 O :   -0.239222
   6 C :   -0.133045
   7 C :   -0.468649
   8 S :   -0.160841
   9 C :   -0.240601
  10 S :   -0.132278
  11 P :    0.704176
  12 S :   -0.489364
  13 O :   -0.286416
  14 C :   -0.158761
  15 C :   -0.439356
  16 O :   -0.251911
  17 C :   -0.163538
  18 C :   -0.453915
  19 H :    0.155922
  20 H :    0.160908
  21 H :    0.152521
  22 H :    0.164687
  23 H :    0.156129
  24 H :    0.143528
  25 H :    0.161382
  26 H :    0.162134
  27 H :    0.139282
  28 H :    0.180434
  29 H :    0.211522
  30 H :    0.210852
  31 H :    0.153349
  32 H :    0.170848
  33 H :    0.154656
  34 H :    0.154100
  35 H :    0.147878
  36 H :    0.178531
  37 H :    0.152906
  38 H :    0.155689
  39 H :    0.171949
  40 H :    0.147144
Sum of atomic charges:    0.0000000

LOEWDIN ATOMIC CHARGES
----------------------
   0 C :   -0.401041
   1 C :    0.020824
   2 O :   -0.662451
   3 P :    0.387782
   4 S :   -0.102759
   5 O :   -0.685840
   6 C :    0.022710
   7 C :   -0.406756
   8 S :    0.165841
   9 C :   -0.417365
  10 S :    0.172708
  11 P :    0.374389
  12 S :   -0.133165
  13 O :   -0.664661
  14 C :    0.019706
  15 C :   -0.385394
  16 O :   -0.667143
  17 C :    0.014365
  18 C :   -0.399872
  19 H :    0.161658
  20 H :    0.165346
  21 H :    0.160240
  22 H :    0.174916
  23 H :    0.183873
  24 H :    0.174598
  25 H :    0.178297
  26 H :    0.163281
  27 H :    0.155204
  28 H :    0.167206
  29 H :    0.190329
  30 H :    0.192045
  31 H :    0.172510
  32 H :    0.180512
  33 H :    0.160054
  34 H :    0.160124
  35 H :    0.160396
  36 H :    0.181570
  37 H :    0.179629
  38 H :    0.160342
  39 H :    0.166438
  40 H :    0.159553

  Mayer bond orders larger than 0.100000
B(  0-C ,  1-C ) :   0.9264 B(  0-C , 19-H ) :   0.9703 B(  0-C , 20-H ) :   0.9565
B(  0-C , 21-H ) :   0.9632 B(  1-C ,  2-O ) :   0.8034 B(  1-C , 22-H ) :   0.9690
B(  1-C , 23-H ) :   0.9556 B(  2-O ,  3-P ) :   1.1385 B(  3-P ,  4-S ) :   1.8304
B(  3-P ,  5-O ) :   1.0641 B(  3-P ,  8-S ) :   1.0394 B(  5-O ,  6-C ) :   0.7761
B(  6-C ,  7-C ) :   0.9442 B(  6-C , 24-H ) :   0.9641 B(  6-C , 25-H ) :   0.9631
B(  7-C , 26-H ) :   0.9692 B(  7-C , 27-H ) :   0.9620 B(  7-C , 28-H ) :   0.9623
B(  8-S ,  9-C ) :   0.9070 B(  9-C , 10-S ) :   0.9050 B(  9-C , 29-H ) :   0.9116
B(  9-C , 30-H ) :   0.9104 B( 10-S , 11-P ) :   1.0616 B( 11-P , 12-S ) :   1.7331
B( 11-P , 13-O ) :   1.0877 B( 11-P , 16-O ) :   1.1598 B( 13-O , 14-C ) :   0.7798
B( 14-C , 15-C ) :   0.9561 B( 14-C , 31-H ) :   0.9452 B( 14-C , 32-H ) :   0.9517
B( 15-C , 33-H ) :   0.9714 B( 15-C , 34-H ) :   0.9717 B( 15-C , 35-H ) :   0.9643
B( 16-O , 17-C ) :   0.7795 B( 17-C , 18-C ) :   0.9270 B( 17-C , 36-H ) :   0.9620
B( 17-C , 37-H ) :   0.9595 B( 18-C , 38-H ) :   0.9728 B( 18-C , 39-H ) :   0.9599
B( 18-C , 40-H ) :   0.9622

Dispersion correction           -0.022132799
FINAL SINGLE POINT ENERGY     -2932.460333970549

DIPOLE MOMENT
-------------

Method             : SCF
Type of density    : Electron Density
Multiplicity       :   1
Irrep              :   0
Energy             : -2932.4845477125245452 Eh
Relativity type    :
Basis              : AO
                                X                 Y                 Z
Electronic contribution:     13.182053213      15.163065410     -11.108901592
Nuclear contribution   :    -14.036072736     -16.574261092      11.678732950
                        -----------------------------------------
Total Dipole Moment    :     -0.854019523      -1.411195682       0.569831358
                        -----------------------------------------
Magnitude (a.u.)       :      1.745144801
Magnitude (Debye)      :      4.435805564

Rotational constants in cm-1:             0.012109             0.005429             0.005060
Rotational constants in MHz :           363.014087           162.750433           151.709911

                             ****ORCA TERMINATED NORMALLY****
TOTAL RUN TIME: 0 days 0 hours 1 minutes 27 seconds 50 msec
