                         Program Version 6.0.0  -   RELEASE  -
|  1> ! r2scan-3c def2/J RI DEFGRID2 scfconv6 printgap
|  2> %output
|  3>     printlevel normal
|  4> end
|  5> %cpcm
|  6>     smd true
|  7>     smdsolvent "water"
|  8> end
|  9> * xyz 0 1
| 10> C 2.4578595232 -3.1784817985 -1.11494846
| 11> C 3.356605177 -2.0981942988 -1.6792124425
| 12> O 3.5760410805 -1.0128771444 -0.748656676
| 13> P 2.4646006638 -0.0648284345 -0.1278223163
| 14> S 3.3033046129 1.5576049366 0.564590655
| 15> O 1.6603518759 -0.9330043157 0.947047085
| 16> C 1.9477284692 -0.9106755517 2.3597761309
| 17> C 0.9717265535 -0.0173625107 3.0991580802
| 18> S 1.027170552 0.1136647813 -1.6669893385
| 19> C 0.3930266785 1.7429878495 -1.2000875518
| 20> S -0.4508171892 1.7509547447 0.4027144576
| 21> P -1.9523150368 0.3475718206 -0.0941190372
| 22> S -2.6615789526 0.4512976302 -1.9231634559
| 23> O -3.0211103428 0.5530191931 1.0615036998
| 24> C -3.9421542256 1.6620436673 1.0505456742
| 25> C -5.0598745052 1.3481194408 2.0244200451
| 26> O -1.287266274 -1.0174666315 0.343006207
| 27> C -1.6586217545 -2.2755053666 -0.2563543905
| 28> C -3.0622756457 -2.6839739148 0.1368835601
| 29> H 2.8668439439 -3.562746684 -0.1840105043
| 30> H 1.4645606447 -2.7751429119 -0.9275242099
| 31> H 2.381040739 -3.9874647484 -1.8346594594
| 32> H 2.933653488 -1.6809718719 -2.5968502155
| 33> H 4.3643313654 -2.4698027103 -1.8718608776
| 34> H 1.851032087 -1.9506218066 2.676963667
| 35> H 2.9766386451 -0.5715176534 2.5133032438
| 36> H -0.0498512364 -0.2935387582 2.8485072705
| 37> H 1.1250521046 -0.1282411386 4.1677463911
| 38> H 1.1297898887 1.0230230277 2.8228380277
| 39> H -0.305119419 2.0325071481 -1.9850809241
| 40> H 1.2192308115 2.4484666142 -1.1164670043
| 41> H -3.3966970789 2.562816038 1.3451278143
| 42> H -4.3204720541 1.7906329111 0.0307811203
| 43> H -5.5926767713 0.4554378153 1.709595575
| 44> H -4.6495687175 1.1826894978 3.0162710241
| 45> H -5.7500332198 2.1847461316 2.055216335
| 46> H -1.5701737511 -2.1827427245 -1.34386655
| 47> H -0.911385138 -2.9757792903 0.1199452633
| 48> H -3.1592901063 -2.7036257184 1.2190839154
| 49> H -3.7782928529 -1.9695643619 -0.2681154398
| 50> H -3.2788739457 -3.6682617841 -0.2661558466
| 51> *
| 52>
| 53>                          ****END OF INPUT****

CARTESIAN COORDINATES (ANGSTROEM)
---------------------------------
  C      2.457860   -3.178482   -1.114948
  C      3.356605   -2.098194   -1.679212
  O      3.576041   -1.012877   -0.748657
  P      2.464601   -0.064828   -0.127822
  S      3.303305    1.557605    0.564591
  O      1.660352   -0.933004    0.947047
  C      1.947728   -0.910676    2.359776
  C      0.971727   -0.017363    3.099158
  S      1.027171    0.113665   -1.666989
  C      0.393027    1.742988   -1.200088
  S     -0.450817    1.750955    0.402714
  P     -1.952315    0.347572   -0.094119
  S     -2.661579    0.451298   -1.923163
  O     -3.021110    0.553019    1.061504
  C     -3.942154    1.662044    1.050546
  C     -5.059875    1.348119    2.024420
  O     -1.287266   -1.017467    0.343006
  C     -1.658622   -2.275505   -0.256354
  C     -3.062276   -2.683974    0.136884
  H      2.866844   -3.562747   -0.184011
  H      1.464561   -2.775143   -0.927524
  H      2.381041   -3.987465   -1.834659
  H      2.933653   -1.680972   -2.596850
  H      4.364331   -2.469803   -1.871861
  H      1.851032   -1.950622    2.676964
  H      2.976639   -0.571518    2.513303
  H     -0.049851   -0.293539    2.848507
  H      1.125052   -0.128241    4.167746
  H      1.129790    1.023023    2.822838
  H     -0.305119    2.032507   -1.985081
  H      1.219231    2.448467   -1.116467
  H     -3.396697    2.562816    1.345128
  H     -4.320472    1.790633    0.030781
  H     -5.592677    0.455438    1.709596
  H     -4.649569    1.182689    3.016271
  H     -5.750033    2.184746    2.055216
  H     -1.570174   -2.182743   -1.343867
  H     -0.911385   -2.975779    0.119945
  H     -3.159290   -2.703626    1.219084
  H     -3.778293   -1.969564   -0.268115
  H     -3.278874   -3.668262   -0.266156

 Total Charge           Charge          ....    0
 Multiplicity           Mult            ....    1
 Number of Electrons    NEL             ....  202
 Basis Dimension        Dim             ....  539

ORBITAL ENERGIES
----------------

  NO   OCC          E(Eh)            E(eV)
   0   2.0000     -88.581376     -2410.4218
   1   2.0000     -88.578540     -2410.3446
   2   2.0000     -88.528115     -2408.9725
   3   2.0000     -88.527439     -2408.9541
   4   2.0000     -76.919819     -2093.0947
   5   2.0000     -76.918915     -2093.0701
   6   2.0000     -18.995882      -516.9042
   7   2.0000     -18.993277      -516.8333
   8   2.0000     -18.992977      -516.8252
   9   2.0000     -18.987858      -516.6859
  10   2.0000     -10.106821      -275.0206
  11   2.0000     -10.093804      -274.6664
  12   2.0000     -10.090283      -274.5706
  13   2.0000     -10.089749      -274.5560
  14   2.0000     -10.087700      -274.5003
  15   2.0000     -10.020943      -272.6837
  16   2.0000     -10.019740      -272.6510
  17   2.0000     -10.018501      -272.6173
  18   2.0000     -10.014287      -272.5026
  19   2.0000      -7.875875      -214.3135
  20   2.0000      -7.872949      -214.2338
  21   2.0000      -7.823163      -212.8791
  22   2.0000      -7.822721      -212.8671
  23   2.0000      -6.598005      -179.5408
  24   2.0000      -6.597611      -179.5301
  25   2.0000      -5.822788      -158.4461
  26   2.0000      -5.819811      -158.3651
  27   2.0000      -5.819711      -158.3624
  28   2.0000      -5.816795      -158.2831
  29   2.0000      -5.812924      -158.1777
  30   2.0000      -5.810076      -158.1002
  31   2.0000      -5.770720      -157.0293
  32   2.0000      -5.770419      -157.0211
  33   2.0000      -5.763414      -156.8305
  34   2.0000      -5.763230      -156.8255
  35   2.0000      -5.763182      -156.8242
  36   2.0000      -5.762390      -156.8026
  37   2.0000      -4.743762      -129.0843
  38   2.0000      -4.742918      -129.0614
  39   2.0000      -4.742711      -129.0557
  40   2.0000      -4.742553      -129.0514
  41   2.0000      -4.741811      -129.0312
  42   2.0000      -4.741512      -129.0231
  43   2.0000      -1.053769       -28.6745
  44   2.0000      -1.045786       -28.4573
  45   2.0000      -1.013947       -27.5909
  46   2.0000      -1.008351       -27.4386
  47   2.0000      -0.806562       -21.9477
  48   2.0000      -0.756982       -20.5985
  49   2.0000      -0.745006       -20.2727
  50   2.0000      -0.726540       -19.7702
  51   2.0000      -0.724153       -19.7052
  52   2.0000      -0.708484       -19.2788
  53   2.0000      -0.688231       -18.7277
  54   2.0000      -0.676279       -18.4025
  55   2.0000      -0.629907       -17.1406
  56   2.0000      -0.620104       -16.8739
  57   2.0000      -0.605666       -16.4810
  58   2.0000      -0.592289       -16.1170
  59   2.0000      -0.589017       -16.0280
  60   2.0000      -0.527192       -14.3456
  61   2.0000      -0.518362       -14.1053
  62   2.0000      -0.495448       -13.4818
  63   2.0000      -0.490170       -13.3382
  64   2.0000      -0.474947       -12.9240
  65   2.0000      -0.461759       -12.5651
  66   2.0000      -0.453881       -12.3507
  67   2.0000      -0.446725       -12.1560
  68   2.0000      -0.442446       -12.0396
  69   2.0000      -0.431000       -11.7281
  70   2.0000      -0.418820       -11.3967
  71   2.0000      -0.412345       -11.2205
  72   2.0000      -0.407990       -11.1020
  73   2.0000      -0.399490       -10.8707
  74   2.0000      -0.390638       -10.6298
  75   2.0000      -0.386295       -10.5116
  76   2.0000      -0.383789       -10.4434
  77   2.0000      -0.370659       -10.0861
  78   2.0000      -0.362694        -9.8694
  79   2.0000      -0.358611        -9.7583
  80   2.0000      -0.354199        -9.6383
  81   2.0000      -0.353092        -9.6081
  82   2.0000      -0.352616        -9.5952
  83   2.0000      -0.347964        -9.4686
  84   2.0000      -0.346664        -9.4332
  85   2.0000      -0.328270        -8.9327
  86   2.0000      -0.317969        -8.6524
  87   2.0000      -0.314819        -8.5666
  88   2.0000      -0.312556        -8.5051
  89   2.0000      -0.300592        -8.1795
  90   2.0000      -0.295230        -8.0336
  91   2.0000      -0.291834        -7.9412
  92   2.0000      -0.286187        -7.7876
  93   2.0000      -0.279180        -7.5969
  94   2.0000      -0.273471        -7.4415
  95   2.0000      -0.247569        -6.7367
  96   2.0000      -0.237463        -6.4617
  97   2.0000      -0.234902        -6.3920
  98   2.0000      -0.227230        -6.1832
  99   2.0000      -0.222001        -6.0409
 100   2.0000      -0.219211        -5.9650
 101   0.0000      -0.053098        -1.4449
 102   0.0000      -0.032753        -0.8913
 103   0.0000      -0.003098        -0.0843
 104   0.0000       0.001200         0.0327
 105   0.0000       0.008659         0.2356

MULLIKEN ATOMIC CHARGES
-----------------------
   0 C :   -0.459817
   1 C :   -0.166376
   2 O :   -0.299881
   3 P :    0.659474
   4 S :   -0.513957
   5 O :   -0.260584
   6 C :   -0.129605
   7 C :   -0.492278
   8 S :   -0.164935
   9 C :   -0.252754
  10 S :   -0.142919
  11 P :    0.735194
  12 S :   -0.531559
  13 O :   -0.313773
  14 C :   -0.149750
  15 C :   -0.482600
  16 O :   -0.286430
  17 C :   -0.149150
  18 C :   -0.494601
  19 H :    0.171521
  20 H :    0.161965
  21 H :    0.177434
  22 H :    0.176753
  23 H :    0.179865
  24 H :    0.174308
  25 H :    0.167721
  26 H :    0.164173
  27 H :    0.165055
  28 H :    0.171817
  29 H :    0.235068
  30 H :    0.230860
  31 H :    0.171371
  32 H :    0.172763
  33 H :    0.166168
  34 H :    0.166098
  35 H :    0.169831
  36 H :    0.180397
  37 H :    0.180599
  38 H :    0.170325
  39 H :    0.169305
  40 H :    0.172905
Sum of atomic charges:    0.0000000

LOEWDIN ATOMIC CHARGES
----------------------
   0 C :   -0.400702
   1 C :    0.027272
   2 O :   -0.683046
   3 P :    0.389564
   4 S :   -0.144495
   5 O :   -0.695622
   6 C :    0.027863
   7 C :   -0.409142
   8 S :    0.166905
   9 C :   -0.412265
  10 S :    0.166828
  11 P :    0.378652
  12 S :   -0.159585
  13 O :   -0.676683
  14 C :    0.024385
  15 C :   -0.389055
  16 O :   -0.683668
  17 C :    0.020468
  18 C :   -0.403063
  19 H :    0.165611
  20 H :    0.164366
  21 H :    0.170542
  22 H :    0.180399
  23 H :    0.194176
  24 H :    0.187502
  25 H :    0.180759
  26 H :    0.163019
  27 H :    0.164447
  28 H :    0.162108
  29 H :    0.197616
  30 H :    0.197858
  31 H :    0.179696
  32 H :    0.181632
  33 H :    0.162714
  34 H :    0.163363
  35 H :    0.169003
  36 H :    0.182942
  37 H :    0.191285
  38 H :    0.164173
  39 H :    0.163015
  40 H :    0.169163

  Mayer bond orders larger than 0.100000
B(  0-C ,  1-C ) :   0.9155 B(  0-C , 19-H ) :   0.9693 B(  0-C , 20-H ) :   0.9533
B(  0-C , 21-H ) :   0.9567 B(  1-C ,  2-O ) :   0.7912 B(  1-C , 22-H ) :   0.9590
B(  1-C , 23-H ) :   0.9452 B(  2-O ,  3-P ) :   1.1475 B(  3-P ,  4-S ) :   1.8023
B(  3-P ,  5-O ) :   1.0700 B(  3-P ,  8-S ) :   1.0595 B(  5-O ,  6-C ) :   0.7631
B(  6-C ,  7-C ) :   0.9335 B(  6-C , 24-H ) :   0.9543 B(  6-C , 25-H ) :   0.9611
B(  7-C , 26-H ) :   0.9670 B(  7-C , 27-H ) :   0.9582 B(  7-C , 28-H ) :   0.9648
B(  8-S ,  9-C ) :   0.8933 B(  9-C , 10-S ) :   0.8953 B(  9-C , 29-H ) :   0.9052
B(  9-C , 30-H ) :   0.9050 B( 10-S , 11-P ) :   1.0743 B( 11-P , 12-S ) :   1.6988
B( 11-P , 13-O ) :   1.0950 B( 11-P , 16-O ) :   1.1636 B( 13-O , 14-C ) :   0.7731
B( 14-C , 15-C ) :   0.9517 B( 14-C , 31-H ) :   0.9368 B( 14-C , 32-H ) :   0.9483
B( 15-C , 33-H ) :   0.9691 B( 15-C , 34-H ) :   0.9691 B( 15-C , 35-H ) :   0.9584
B( 16-O , 17-C ) :   0.7694 B( 17-C , 18-C ) :   0.9139 B( 17-C , 36-H ) :   0.9577
B( 17-C , 37-H ) :   0.9487 B( 18-C , 38-H ) :   0.9712 B( 18-C , 39-H ) :   0.9601
B( 18-C , 40-H ) :   0.9562

Dispersion correction           -0.022132799
FINAL SINGLE POINT ENERGY     -2932.470930459924

DIPOLE MOMENT
-------------

Method             : SCF
Type of density    : Electron Density
Multiplicity       :   1
Irrep              :   0
Energy             : -2932.4951442018991656 Eh
Relativity type    :
Basis              : AO
                                X                 Y                 Z
Electronic contribution:     12.933631647      14.665795087     -11.032920081
Nuclear contribution   :    -14.036072736     -16.574261092      11.678732950
                        -----------------------------------------
Total Dipole Moment    :     -1.102441090      -1.908466004       0.645812869
                        -----------------------------------------
Magnitude (a.u.)       :      2.296670004
Magnitude (Debye)      :      5.837671224

Rotational constants in cm-1:             0.012109             0.005429             0.005060
Rotational constants in MHz :           363.014087           162.750433           151.709911

                             ****ORCA TERMINATED NORMALLY****
TOTAL RUN TIME: 0 days 0 hours 1 minutes 54 seconds 354 msec
