                         Program Version 6.0.1  -  RELEASE   -
|  1> ! pbe def2-sv(p) def2/J RI DEFGRID1 loosescf d4 GCP(DFT/SV(P)) printgap
|  2> %output
|  3>     printlevel normal
|  4> end
|  5> * xyz 0 1
|  6> C 5.2813019629 -1.1158612225 -2.1498619345
|  7> C 4.2996939067 -0.130641136 -1.5352477552
|  8> O 2.9659609841 -0.6746694222 -1.5222318295
|  9> C 2.5960864149 -1.4143029212 -0.4986326299
| 10> O 3.2921125945 -1.6790698872 0.4555866199
| 11> C 1.1592710388 -1.88563577 -0.654473859
| 12> C 0.2237587951 -0.6788489053 -0.5491647703
| 13> H 0.4307329887 0.0375526267 -1.3472477459
| 14> C 0.4139853627 -0.0110513898 0.800297354
| 15> O -0.320062702 -0.21162558 1.7469542653
| 16> O 1.4862364108 0.7347672867 0.8103002405
| 17> C 1.8520408814 1.4059691862 2.0353201227
| 18> C 3.3648668317 1.4680704541 2.1172856322
| 19> S -1.5090449197 -1.2320241474 -0.6702857403
| 20> P -2.4344469192 0.5348025572 0.0498776242
| 21> S -1.4133267685 2.190477239 -0.1643683287
| 22> O -3.8155332755 0.5147297658 -0.7618749704
| 23> C -3.8512060716 0.7265550664 -2.1782915348
| 24> O -2.9866176437 0.3337440762 1.5123574325
| 25> C -3.6593913428 -0.8690844645 1.9357939346
| 26> H 4.9574513876 -1.3940031931 -3.1488739316
| 27> H 6.2620826781 -0.6555481058 -2.2066317347
| 28> H 5.3466929923 -2.010929542 -1.5354376392
| 29> H 4.2177302916 0.7768229032 -2.1334943421
| 30> H 4.5862372637 0.1138541477 -0.5091199668
| 31> H 0.9342365792 -2.606702415 0.1321340627
| 32> H 1.0304463399 -2.3493310285 -1.6323700014
| 33> H 1.4044288069 2.4034464577 1.9943068933
| 34> H 1.4184370252 0.8519359722 2.87289934
| 35> H 3.7779519391 0.4622794939 2.0872236838
| 36> H 3.7593456988 2.0421306952 1.2841121724
| 37> H 3.6510856965 1.9444185905 3.0488491072
| 38> H -3.4459214715 -0.1443701714 -2.6928451236
| 39> H -3.2760705425 1.6166729731 -2.4375723466
| 40> H -4.9003327514 0.8666369425 -2.4252728712
| 41> H -2.9334928314 -1.6779041699 2.0152762236
| 42> H -4.4471386703 -1.1282422906 1.2307570233
| 43> H -4.0729762853 -0.6309452083 2.9121279387
| 44> *
| 45>
| 46>                          ****END OF INPUT****

CARTESIAN COORDINATES (ANGSTROEM)
---------------------------------
  C      5.281302   -1.115861   -2.149862
  C      4.299694   -0.130641   -1.535248
  O      2.965961   -0.674669   -1.522232
  C      2.596086   -1.414303   -0.498633
  O      3.292113   -1.679070    0.455587
  C      1.159271   -1.885636   -0.654474
  C      0.223759   -0.678849   -0.549165
  H      0.430733    0.037553   -1.347248
  C      0.413985   -0.011051    0.800297
  O     -0.320063   -0.211626    1.746954
  O      1.486236    0.734767    0.810300
  C      1.852041    1.405969    2.035320
  C      3.364867    1.468070    2.117286
  S     -1.509045   -1.232024   -0.670286
  P     -2.434447    0.534803    0.049878
  S     -1.413327    2.190477   -0.164368
  O     -3.815533    0.514730   -0.761875
  C     -3.851206    0.726555   -2.178292
  O     -2.986618    0.333744    1.512357
  C     -3.659391   -0.869084    1.935794
  H      4.957451   -1.394003   -3.148874
  H      6.262083   -0.655548   -2.206632
  H      5.346693   -2.010930   -1.535438
  H      4.217730    0.776823   -2.133494
  H      4.586237    0.113854   -0.509120
  H      0.934237   -2.606702    0.132134
  H      1.030446   -2.349331   -1.632370
  H      1.404429    2.403446    1.994307
  H      1.418437    0.851936    2.872899
  H      3.777952    0.462279    2.087224
  H      3.759346    2.042131    1.284112
  H      3.651086    1.944419    3.048849
  H     -3.445921   -0.144370   -2.692845
  H     -3.276071    1.616673   -2.437572
  H     -4.900333    0.866637   -2.425273
  H     -2.933493   -1.677904    2.015276
  H     -4.447139   -1.128242    1.230757
  H     -4.072976   -0.630945    2.912128

 Total Charge           Charge          ....    0
 Multiplicity           Mult            ....    1
 Number of Electrons    NEL             ....  174
 Basis Dimension        Dim             ....  316

ORBITAL ENERGIES
----------------

  NO   OCC          E(Eh)            E(eV)
   0   2.0000     -88.039095     -2395.6656
   1   2.0000     -87.979720     -2394.0499
   2   2.0000     -76.422842     -2079.5713
   3   2.0000     -18.808533      -511.8062
   4   2.0000     -18.807074      -511.7665
   5   2.0000     -18.788590      -511.2635
   6   2.0000     -18.786337      -511.2022
   7   2.0000     -18.744104      -510.0530
   8   2.0000     -18.736238      -509.8390
   9   2.0000     -10.017077      -272.5785
  10   2.0000     -10.014561      -272.5101
  11   2.0000      -9.953026      -270.8356
  12   2.0000      -9.947219      -270.6776
  13   2.0000      -9.943522      -270.5770
  14   2.0000      -9.943159      -270.5671
  15   2.0000      -9.942289      -270.5434
  16   2.0000      -9.918218      -269.8884
  17   2.0000      -9.891742      -269.1680
  18   2.0000      -9.883906      -268.9548
  19   2.0000      -7.684153      -209.0964
  20   2.0000      -7.625021      -207.4874
  21   2.0000      -6.419711      -174.6892
  22   2.0000      -5.711930      -155.4295
  23   2.0000      -5.708762      -155.3433
  24   2.0000      -5.701146      -155.1361
  25   2.0000      -5.654148      -153.8572
  26   2.0000      -5.645446      -153.6204
  27   2.0000      -5.645089      -153.6107
  28   2.0000      -4.642342      -126.3245
  29   2.0000      -4.641723      -126.3077
  30   2.0000      -4.640045      -126.2620
  31   2.0000      -1.018810       -27.7232
  32   2.0000      -1.013137       -27.5689
  33   2.0000      -0.981917       -26.7193
  34   2.0000      -0.937698       -25.5161
  35   2.0000      -0.921198       -25.0671
  36   2.0000      -0.918002       -24.9801
  37   2.0000      -0.768391       -20.9090
  38   2.0000      -0.716035       -19.4843
  39   2.0000      -0.706579       -19.2270
  40   2.0000      -0.692646       -18.8479
  41   2.0000      -0.661070       -17.9886
  42   2.0000      -0.632854       -17.2208
  43   2.0000      -0.619397       -16.8546
  44   2.0000      -0.615191       -16.7402
  45   2.0000      -0.597043       -16.2464
  46   2.0000      -0.559557       -15.2263
  47   2.0000      -0.513158       -13.9637
  48   2.0000      -0.506530       -13.7834
  49   2.0000      -0.501995       -13.6600
  50   2.0000      -0.476987       -12.9795
  51   2.0000      -0.470368       -12.7994
  52   2.0000      -0.464998       -12.6532
  53   2.0000      -0.453351       -12.3363
  54   2.0000      -0.437959       -11.9175
  55   2.0000      -0.428773       -11.6675
  56   2.0000      -0.426711       -11.6114
  57   2.0000      -0.420089       -11.4312
  58   2.0000      -0.411467       -11.1966
  59   2.0000      -0.405628       -11.0377
  60   2.0000      -0.404129       -10.9969
  61   2.0000      -0.398485       -10.8433
  62   2.0000      -0.393010       -10.6944
  63   2.0000      -0.384621       -10.4661
  64   2.0000      -0.377510       -10.2726
  65   2.0000      -0.367084        -9.9889
  66   2.0000      -0.358508        -9.7555
  67   2.0000      -0.351691        -9.5700
  68   2.0000      -0.349130        -9.5003
  69   2.0000      -0.342840        -9.3292
  70   2.0000      -0.334694        -9.1075
  71   2.0000      -0.330392        -8.9904
  72   2.0000      -0.326096        -8.8735
  73   2.0000      -0.313956        -8.5432
  74   2.0000      -0.301649        -8.2083
  75   2.0000      -0.297571        -8.0973
  76   2.0000      -0.296956        -8.0806
  77   2.0000      -0.291542        -7.9333
  78   2.0000      -0.271440        -7.3863
  79   2.0000      -0.266633        -7.2555
  80   2.0000      -0.258774        -7.0416
  81   2.0000      -0.253677        -6.9029
  82   2.0000      -0.231850        -6.3090
  83   2.0000      -0.226350        -6.1593
  84   2.0000      -0.219454        -5.9716
  85   2.0000      -0.198932        -5.4132
  86   2.0000      -0.197184        -5.3657
  87   0.0000      -0.043760        -1.1908
  88   0.0000      -0.033413        -0.9092
  89   0.0000      -0.020694        -0.5631
  90   0.0000       0.014911         0.4058
  91   0.0000       0.023985         0.6527

MULLIKEN ATOMIC CHARGES
-----------------------
   0 C :   -0.303105
   1 C :   -0.023421
   2 O :   -0.231603
   3 C :    0.104971
   4 O :   -0.199706
   5 C :   -0.039414
   6 C :   -0.283994
   7 H :    0.151372
   8 C :    0.158535
   9 O :   -0.187075
  10 O :   -0.222799
  11 C :   -0.021030
  12 C :   -0.305761
  13 S :   -0.098587
  14 P :    0.612361
  15 S :   -0.321409
  16 O :   -0.386204
  17 C :   -0.100254
  18 O :   -0.347110
  19 C :   -0.101975
  20 H :    0.115034
  21 H :    0.114813
  22 H :    0.126614
  23 H :    0.106987
  24 H :    0.117550
  25 H :    0.112901
  26 H :    0.122869
  27 H :    0.113187
  28 H :    0.117889
  29 H :    0.141543
  30 H :    0.113350
  31 H :    0.111715
  32 H :    0.113321
  33 H :    0.117059
  34 H :    0.124771
  35 H :    0.129225
  36 H :    0.116285
  37 H :    0.131096
Sum of atomic charges:   -0.0000000

LOEWDIN ATOMIC CHARGES
----------------------
   0 C :   -0.355360
   1 C :   -0.109942
   2 O :   -0.054980
   3 C :    0.027042
   4 O :   -0.162820
   5 C :   -0.238088
   6 C :   -0.265053
   7 H :    0.139488
   8 C :   -0.006802
   9 O :   -0.168133
  10 O :   -0.037910
  11 C :   -0.102977
  12 C :   -0.357110
  13 S :    0.092616
  14 P :    0.583760
  15 S :   -0.308703
  16 O :   -0.261656
  17 C :   -0.217200
  18 O :   -0.226528
  19 C :   -0.206915
  20 H :    0.125285
  21 H :    0.131755
  22 H :    0.130739
  23 H :    0.120100
  24 H :    0.121705
  25 H :    0.140527
  26 H :    0.141888
  27 H :    0.121148
  28 H :    0.122592
  29 H :    0.132291
  30 H :    0.122546
  31 H :    0.130661
  32 H :    0.107149
  33 H :    0.111377
  34 H :    0.122166
  35 H :    0.117016
  36 H :    0.111301
  37 H :    0.127026

  Mayer bond orders larger than 0.100000
B(  0-C ,  1-C ) :   1.1724 B(  0-C , 20-H ) :   0.9484 B(  0-C , 21-H ) :   0.9441
B(  0-C , 22-H ) :   0.9460 B(  1-C ,  2-O ) :   0.9122 B(  1-C , 23-H ) :   0.9369
B(  1-C , 24-H ) :   0.9094 B(  2-O ,  3-C ) :   1.2154 B(  3-C ,  4-O ) :   2.0347
B(  3-C ,  5-C ) :   1.0197 B(  5-C ,  6-C ) :   1.0541 B(  5-C , 25-H ) :   0.8958
B(  5-C , 26-H ) :   0.8917 B(  6-C ,  7-H ) :   0.8689 B(  6-C ,  8-C ) :   0.8786
B(  6-C , 13-S ) :   1.0157 B(  8-C ,  9-O ) :   2.0362 B(  8-C , 10-O ) :   1.2370
B( 10-O , 11-C ) :   0.8932 B( 11-C , 12-C ) :   1.1633 B( 11-C , 27-H ) :   0.9320
B( 11-C , 28-H ) :   0.9157 B( 12-C , 29-H ) :   0.9356 B( 12-C , 30-H ) :   0.9445
B( 12-C , 31-H ) :   0.9413 B( 13-S , 14-P ) :   0.9516 B( 13-S , 15-S ) :   0.1123
B( 14-P , 15-S ) :   1.6117 B( 14-P , 16-O ) :   1.0739 B( 14-P , 18-O ) :   1.1510
B( 16-O , 17-C ) :   0.9335 B( 17-C , 32-H ) :   0.9461 B( 17-C , 33-H ) :   0.9357
B( 17-C , 34-H ) :   0.9587 B( 18-O , 19-C ) :   0.9159 B( 19-C , 35-H ) :   0.9427
B( 19-C , 36-H ) :   0.9451 B( 19-C , 37-H ) :   0.9597

Dispersion correction           -0.052129668
FINAL SINGLE POINT ENERGY     -1979.016201368567

DIPOLE MOMENT
-------------

Method             : SCF
Type of density    : Electron Density
Multiplicity       :   1
Irrep              :   0
Energy             : -1979.1468332901358735 Eh
Relativity type    :
Basis              : AO
                                X                 Y                 Z
Electronic contribution:    -19.436225630       1.443238501       1.476693660
Nuclear contribution   :     19.813679800      -1.910722224      -2.324365978
                        -----------------------------------------
Total Dipole Moment    :      0.377454170      -0.467483723      -0.847672318
                        -----------------------------------------
Magnitude (a.u.)       :      1.039019268
Magnitude (Debye)      :      2.640977099

Rotational constants in cm-1:             0.017177             0.005796             0.005336
Rotational constants in MHz :           514.955678           173.756227           159.969352

                             ****ORCA TERMINATED NORMALLY****
TOTAL RUN TIME: 0 days 0 hours 0 minutes 41 seconds 590 msec
