                         Program Version 6.0.0  -   RELEASE  -
|  1> ! pbe def2-sv(p) def2/J RI DEFGRID1 loosescf d4 GCP(DFT/SV(P)) printgap
|  2> %output
|  3>     printlevel normal
|  4> end
|  5> * xyz 0 1
|  6> C 3.3846917857 -1.9506278429 2.1300673592
|  7> C 1.9848387387 -1.91886918 1.5515307465
|  8> O 1.6560223528 -0.6074795545 1.0539755648
|  9> P 2.3033770911 -0.0318884391 -0.2919127978
| 10> S 2.8969834974 -1.3677844911 -1.5852397847
| 11> O 3.4819629696 0.9327971895 0.1404289336
| 12> C 3.3081606597 1.9961914772 1.1105228877
| 13> C 4.6402346515 2.7008353826 1.2576711213
| 14> S 0.7631274163 1.2926547618 -0.9026634175
| 15> C -0.1713112544 0.0529388244 -1.8354424097
| 16> S -1.021707243 -1.1377484789 -0.777509207
| 17> P -2.5531889856 0.2069880104 -0.1284856862
| 18> S -3.2107876756 1.4603198827 -1.475483191
| 19> O -1.9584726287 0.9478194996 1.1281728408
| 20> C -1.5254751554 0.2473134438 2.3223391791
| 21> C -0.5149698312 1.1246651451 3.030467637
| 22> O -3.6352606711 -0.7485188682 0.5384310287
| 23> C -4.7101998622 -1.3504952638 -0.2068739754
| 24> C -4.2136871049 -2.3382543167 -1.2422475945
| 25> H 4.1078031556 -1.7146939312 1.3492407652
| 26> H 3.4822290564 -1.2257732427 2.9340187641
| 27> H 3.5940416055 -2.943736868 2.514670059
| 28> H 1.226188416 -2.1169798095 2.3097773824
| 29> H 1.8874628057 -2.637439713 0.7320449483
| 30> H 2.5335937963 2.6744837722 0.7414582618
| 31> H 2.9817666413 1.5532176891 2.0546220273
| 32> H 4.5393426498 3.5064117645 1.9777268048
| 33> H 5.3973156678 2.0017359155 1.6008975154
| 34> H 4.9519511084 3.1101092056 0.3011144419
| 35> H 0.5123487875 -0.5132985423 -2.4685507699
| 36> H -0.9077615985 0.5979828423 -2.4273256124
| 37> H -2.4092950161 0.067046445 2.9368850179
| 38> H -1.0895408277 -0.7113930521 2.0253075467
| 39> H -0.952330977 2.0957119606 3.243239137
| 40> H -0.2171366876 0.6495682225 3.9595539342
| 41> H 0.358548156 1.2664124937 2.3992763039
| 42> H -5.3129227805 -1.8390166671 0.5600579773
| 43> H -5.2870203923 -0.5520407072 -0.6830859753
| 44> H -3.54575544 -3.0644583241 -0.785685187
| 45> H -5.0622324253 -2.8537090655 -1.6805105508
| 46> H -3.6762408873 -1.8135022123 -2.030788348
| 47> *
| 48>
| 49>                          ****END OF INPUT****

CARTESIAN COORDINATES (ANGSTROEM)
---------------------------------
  C      3.384692   -1.950628    2.130067
  C      1.984839   -1.918869    1.551531
  O      1.656022   -0.607480    1.053976
  P      2.303377   -0.031888   -0.291913
  S      2.896983   -1.367784   -1.585240
  O      3.481963    0.932797    0.140429
  C      3.308161    1.996191    1.110523
  C      4.640235    2.700835    1.257671
  S      0.763127    1.292655   -0.902663
  C     -0.171311    0.052939   -1.835442
  S     -1.021707   -1.137748   -0.777509
  P     -2.553189    0.206988   -0.128486
  S     -3.210788    1.460320   -1.475483
  O     -1.958473    0.947819    1.128173
  C     -1.525475    0.247313    2.322339
  C     -0.514970    1.124665    3.030468
  O     -3.635261   -0.748519    0.538431
  C     -4.710200   -1.350495   -0.206874
  C     -4.213687   -2.338254   -1.242248
  H      4.107803   -1.714694    1.349241
  H      3.482229   -1.225773    2.934019
  H      3.594042   -2.943737    2.514670
  H      1.226188   -2.116980    2.309777
  H      1.887463   -2.637440    0.732045
  H      2.533594    2.674484    0.741458
  H      2.981767    1.553218    2.054622
  H      4.539343    3.506412    1.977727
  H      5.397316    2.001736    1.600898
  H      4.951951    3.110109    0.301114
  H      0.512349   -0.513299   -2.468551
  H     -0.907762    0.597983   -2.427326
  H     -2.409295    0.067046    2.936885
  H     -1.089541   -0.711393    2.025308
  H     -0.952331    2.095712    3.243239
  H     -0.217137    0.649568    3.959554
  H      0.358548    1.266412    2.399276
  H     -5.312923   -1.839017    0.560058
  H     -5.287020   -0.552041   -0.683086
  H     -3.545755   -3.064458   -0.785685
  H     -5.062232   -2.853709   -1.680511
  H     -3.676241   -1.813502   -2.030788

 Total Charge           Charge          ....    0
 Multiplicity           Mult            ....    1
 Number of Electrons    NEL             ....  202
 Basis Dimension        Dim             ....  334

ORBITAL ENERGIES
----------------

  NO   OCC          E(Eh)            E(eV)
   0   2.0000     -88.040979     -2395.7168
   1   2.0000     -88.040676     -2395.7086
   2   2.0000     -87.990326     -2394.3385
   3   2.0000     -87.987107     -2394.2509
   4   2.0000     -76.427955     -2079.7104
   5   2.0000     -76.426094     -2079.6598
   6   2.0000     -18.799172      -511.5515
   7   2.0000     -18.795734      -511.4579
   8   2.0000     -18.795417      -511.4493
   9   2.0000     -18.789790      -511.2962
  10   2.0000      -9.965133      -271.1651
  11   2.0000      -9.955556      -270.9045
  12   2.0000      -9.955538      -270.9039
  13   2.0000      -9.954612      -270.8788
  14   2.0000      -9.950740      -270.7734
  15   2.0000      -9.895622      -269.2736
  16   2.0000      -9.890281      -269.1282
  17   2.0000      -9.886944      -269.0374
  18   2.0000      -9.885223      -268.9906
  19   2.0000      -7.685960      -209.1456
  20   2.0000      -7.685734      -209.1395
  21   2.0000      -7.635560      -207.7741
  22   2.0000      -7.632389      -207.6879
  23   2.0000      -6.425997      -174.8603
  24   2.0000      -6.423687      -174.7974
  25   2.0000      -5.713706      -155.4778
  26   2.0000      -5.713450      -155.4709
  27   2.0000      -5.710711      -155.3963
  28   2.0000      -5.710348      -155.3865
  29   2.0000      -5.702801      -155.1811
  30   2.0000      -5.702784      -155.1807
  31   2.0000      -5.664640      -154.1427
  32   2.0000      -5.661361      -154.0535
  33   2.0000      -5.656206      -153.9132
  34   2.0000      -5.655469      -153.8931
  35   2.0000      -5.652896      -153.8231
  36   2.0000      -5.652571      -153.8143
  37   2.0000      -4.648908      -126.5032
  38   2.0000      -4.647361      -126.4611
  39   2.0000      -4.646595      -126.4403
  40   2.0000      -4.646486      -126.4373
  41   2.0000      -4.645292      -126.4048
  42   2.0000      -4.643993      -126.3695
  43   2.0000      -0.990262       -26.9464
  44   2.0000      -0.989046       -26.9133
  45   2.0000      -0.949892       -25.8479
  46   2.0000      -0.945114       -25.7179
  47   2.0000      -0.764312       -20.7980
  48   2.0000      -0.725680       -19.7468
  49   2.0000      -0.714103       -19.4317
  50   2.0000      -0.696786       -18.9605
  51   2.0000      -0.690424       -18.7874
  52   2.0000      -0.676377       -18.4052
  53   2.0000      -0.652312       -17.7503
  54   2.0000      -0.639897       -17.4125
  55   2.0000      -0.598467       -16.2851
  56   2.0000      -0.590809       -16.0767
  57   2.0000      -0.579084       -15.7577
  58   2.0000      -0.572113       -15.5680
  59   2.0000      -0.561070       -15.2675
  60   2.0000      -0.512191       -13.9374
  61   2.0000      -0.504173       -13.7193
  62   2.0000      -0.485587       -13.2135
  63   2.0000      -0.475300       -12.9336
  64   2.0000      -0.462194       -12.5769
  65   2.0000      -0.448396       -12.2015
  66   2.0000      -0.447217       -12.1694
  67   2.0000      -0.439647       -11.9634
  68   2.0000      -0.431757       -11.7487
  69   2.0000      -0.417899       -11.3716
  70   2.0000      -0.408758       -11.1229
  71   2.0000      -0.398019       -10.8307
  72   2.0000      -0.393166       -10.6986
  73   2.0000      -0.391101       -10.6424
  74   2.0000      -0.377553       -10.2737
  75   2.0000      -0.373795       -10.1715
  76   2.0000      -0.365558        -9.9473
  77   2.0000      -0.362355        -9.8602
  78   2.0000      -0.362148        -9.8545
  79   2.0000      -0.356192        -9.6925
  80   2.0000      -0.352430        -9.5901
  81   2.0000      -0.346021        -9.4157
  82   2.0000      -0.344245        -9.3674
  83   2.0000      -0.339932        -9.2500
  84   2.0000      -0.337934        -9.1957
  85   2.0000      -0.324007        -8.8167
  86   2.0000      -0.319586        -8.6964
  87   2.0000      -0.313183        -8.5222
  88   2.0000      -0.302656        -8.2357
  89   2.0000      -0.296086        -8.0569
  90   2.0000      -0.286268        -7.7897
  91   2.0000      -0.275835        -7.5058
  92   2.0000      -0.274684        -7.4745
  93   2.0000      -0.267175        -7.2702
  94   2.0000      -0.259102        -7.0505
  95   2.0000      -0.232249        -6.3198
  96   2.0000      -0.217930        -5.9302
  97   2.0000      -0.214344        -5.8326
  98   2.0000      -0.205807        -5.6003
  99   2.0000      -0.203720        -5.5435
 100   2.0000      -0.201307        -5.4779
 101   0.0000      -0.044288        -1.2051
 102   0.0000      -0.024075        -0.6551
 103   0.0000      -0.003819        -0.1039
 104   0.0000       0.001435         0.0391
 105   0.0000       0.011584         0.3152

MULLIKEN ATOMIC CHARGES
-----------------------
   0 C :   -0.312848
   1 C :   -0.010399
   2 O :   -0.384133
   3 P :    0.619893
   4 S :   -0.308917
   5 O :   -0.370311
   6 C :   -0.058695
   7 C :   -0.265696
   8 S :   -0.085517
   9 C :   -0.369292
  10 S :   -0.091918
  11 P :    0.601418
  12 S :   -0.311979
  13 O :   -0.353263
  14 C :   -0.013289
  15 C :   -0.296653
  16 O :   -0.386344
  17 C :   -0.000032
  18 C :   -0.318146
  19 H :    0.131366
  20 H :    0.110754
  21 H :    0.114891
  22 H :    0.103794
  23 H :    0.115353
  24 H :    0.123741
  25 H :    0.119199
  26 H :    0.113338
  27 H :    0.120367
  28 H :    0.125845
  29 H :    0.194674
  30 H :    0.194922
  31 H :    0.106063
  32 H :    0.109490
  33 H :    0.117982
  34 H :    0.101938
  35 H :    0.131957
  36 H :    0.104665
  37 H :    0.113797
  38 H :    0.117439
  39 H :    0.114454
  40 H :    0.130094
Sum of atomic charges:    0.0000000

LOEWDIN ATOMIC CHARGES
----------------------
   0 C :   -0.365463
   1 C :   -0.121895
   2 O :   -0.250808
   3 P :    0.571803
   4 S :   -0.302749
   5 O :   -0.244615
   6 C :   -0.119078
   7 C :   -0.347746
   8 S :    0.083047
   9 C :   -0.488321
  10 S :    0.077442
  11 P :    0.572315
  12 S :   -0.308179
  13 O :   -0.234880
  14 C :   -0.112670
  15 C :   -0.355744
  16 O :   -0.250093
  17 C :   -0.115294
  18 C :   -0.371022
  19 H :    0.126087
  20 H :    0.121216
  21 H :    0.132231
  22 H :    0.113874
  23 H :    0.111023
  24 H :    0.111563
  25 H :    0.111022
  26 H :    0.131929
  27 H :    0.129625
  28 H :    0.132544
  29 H :    0.129227
  30 H :    0.128260
  31 H :    0.114173
  32 H :    0.103849
  33 H :    0.128630
  34 H :    0.126269
  35 H :    0.122209
  36 H :    0.118619
  37 H :    0.113914
  38 H :    0.123266
  39 H :    0.131837
  40 H :    0.122583

  Mayer bond orders larger than 0.100000
B(  0-C ,  1-C ) :   1.1627 B(  0-C , 19-H ) :   0.9340 B(  0-C , 20-H ) :   0.9459
B(  0-C , 21-H ) :   0.9395 B(  1-C ,  2-O ) :   0.9061 B(  1-C , 22-H ) :   0.9294
B(  1-C , 23-H ) :   0.9121 B(  2-O ,  3-P ) :   1.0626 B(  3-P ,  4-S ) :   1.6350
B(  3-P ,  5-O ) :   1.1189 B(  3-P ,  8-S ) :   0.9695 B(  4-S ,  8-S ) :   0.1034
B(  5-O ,  6-C ) :   0.9015 B(  6-C ,  7-C ) :   1.1620 B(  6-C , 24-H ) :   0.9206
B(  6-C , 25-H ) :   0.9168 B(  7-C , 26-H ) :   0.9402 B(  7-C , 27-H ) :   0.9499
B(  7-C , 28-H ) :   0.9485 B(  8-S ,  9-C ) :   1.0076 B(  9-C , 10-S ) :   1.0066
B(  9-C , 29-H ) :   0.8718 B(  9-C , 30-H ) :   0.8685 B( 10-S , 11-P ) :   0.9443
B( 10-S , 12-S ) :   0.1086 B( 11-P , 12-S ) :   1.6371 B( 11-P , 13-O ) :   1.1429
B( 11-P , 16-O ) :   1.0866 B( 13-O , 14-C ) :   0.8901 B( 14-C , 15-C ) :   1.1678
B( 14-C , 31-H ) :   0.9316 B( 14-C , 32-H ) :   0.9073 B( 15-C , 33-H ) :   0.9467
B( 15-C , 34-H ) :   0.9406 B( 15-C , 35-H ) :   0.9333 B( 16-O , 17-C ) :   0.9063
B( 17-C , 18-C ) :   1.1664 B( 17-C , 36-H ) :   0.9345 B( 17-C , 37-H ) :   0.9198
B( 18-C , 38-H ) :   0.9436 B( 18-C , 39-H ) :   0.9367 B( 18-C , 40-H ) :   0.9344

Dispersion correction           -0.065164037
FINAL SINGLE POINT ENERGY     -2929.522299429799

DIPOLE MOMENT
-------------

Method             : SCF
Type of density    : Electron Density
Multiplicity       :   1
Irrep              :   0
Energy             : -2929.6429366990942071 Eh
Relativity type    :
Basis              : AO
                                X                 Y                 Z
Electronic contribution:     -6.826750160       3.818666823     -18.825563501
Nuclear contribution   :      6.905638093      -4.343245684      20.785920783
                        -----------------------------------------
Total Dipole Moment    :      0.078887933      -0.524578862       1.960357281
                        -----------------------------------------
Magnitude (a.u.)       :      2.030863599
Magnitude (Debye)      :      5.162045035

Rotational constants in cm-1:             0.012666             0.004770             0.004627
Rotational constants in MHz :           379.712408           143.012033           138.726105

                             ****ORCA TERMINATED NORMALLY****
TOTAL RUN TIME: 0 days 0 hours 0 minutes 21 seconds 378 msec
