                         Program Version 6.0.0  -   RELEASE  -
|  1> ! pbe def2-sv(p) def2/J RI DEFGRID1 loosescf d4 GCP(DFT/SV(P)) printgap
|  2> %output
|  3>     printlevel normal
|  4> end
|  5> * xyz 0 1
|  6> C 4.6303717652 -1.6025201641 -0.7050936392
|  7> C 4.6693883852 -0.1489929327 -0.27895029
|  8> O 3.5016414983 0.2318291574 0.4680485556
|  9> P 2.0570190012 0.3376253892 -0.1903980268
| 10> S 2.0527844764 1.0328931599 -2.0266206047
| 11> O 1.2796089953 1.1567120539 0.9209082216
| 12> C 1.2343621342 2.5956645773 0.9350680413
| 13> C 2.5930042894 3.2081784886 1.1985087808
| 14> S 1.2596461944 -1.5800589859 0.1354551077
| 15> C 0.0447531392 -1.6941345493 -1.2266727127
| 16> S -1.6275160552 -2.0091779112 -0.6300670295
| 17> P -2.0211691468 -0.0808105325 0.177251131
| 18> S -1.4107205261 1.4089631294 -0.940965579
| 19> O -1.3927850889 0.0017645825 1.6156375806
| 20> C -1.3332524164 -1.0509749309 2.6133054535
| 21> C -2.6769172477 -1.6825620157 2.9023016491
| 22> O -3.5779193788 -0.136369121 0.4775079041
| 23> C -4.5785105022 -0.2280627054 -0.5560775709
| 24> C -5.0666156241 1.1470617143 -0.9680799326
| 25> H 3.8460288368 -1.7514285692 -1.445939216
| 26> H 5.584926496 -1.8718546005 -1.1455977819
| 27> H 4.432257745 -2.2426755784 0.1508631493
| 28> H 4.7468965747 0.5042484663 -1.1541323768
| 29> H 5.4936308533 0.0478944948 0.4078529728
| 30> H 0.8277975708 2.93733518 -0.0231128732
| 31> H 0.5201953743 2.822584926 1.7284969458
| 32> H 3.0262305176 2.7850310448 2.1010971525
| 33> H 3.2582388204 3.009823164 0.3589342131
| 34> H 2.4833091411 4.2818609493 1.3150503232
| 35> H 0.3118254371 -2.5455456716 -1.8468891452
| 36> H 0.0698364659 -0.7622657157 -1.7987785197
| 37> H -0.6127298837 -1.7994167951 2.270697843
| 38> H -0.9334340861 -0.5338524715 3.486947424
| 39> H -2.5688678317 -2.3602922546 3.7436967004
| 40> H -3.4087542013 -0.9174806466 3.1477519047
| 41> H -3.0271752763 -2.2448337665 2.0393680397
| 42> H -4.1664871889 -0.7713208648 -1.4104007581
| 43> H -5.3818419905 -0.8135338205 -0.1050605509
| 44> H -5.8602844605 1.0410856802 -1.700514865
| 45> H -5.4439255159 1.6846615081 -0.1027493585
| 46> H -4.2529436439 1.7208267448 -1.4066492162
| 47> *
| 48>
| 49>                          ****END OF INPUT****

CARTESIAN COORDINATES (ANGSTROEM)
---------------------------------
  C      4.630372   -1.602520   -0.705094
  C      4.669388   -0.148993   -0.278950
  O      3.501641    0.231829    0.468049
  P      2.057019    0.337625   -0.190398
  S      2.052784    1.032893   -2.026621
  O      1.279609    1.156712    0.920908
  C      1.234362    2.595665    0.935068
  C      2.593004    3.208178    1.198509
  S      1.259646   -1.580059    0.135455
  C      0.044753   -1.694135   -1.226673
  S     -1.627516   -2.009178   -0.630067
  P     -2.021169   -0.080811    0.177251
  S     -1.410721    1.408963   -0.940966
  O     -1.392785    0.001765    1.615638
  C     -1.333252   -1.050975    2.613305
  C     -2.676917   -1.682562    2.902302
  O     -3.577919   -0.136369    0.477508
  C     -4.578511   -0.228063   -0.556078
  C     -5.066616    1.147062   -0.968080
  H      3.846029   -1.751429   -1.445939
  H      5.584926   -1.871855   -1.145598
  H      4.432258   -2.242676    0.150863
  H      4.746897    0.504248   -1.154132
  H      5.493631    0.047894    0.407853
  H      0.827798    2.937335   -0.023113
  H      0.520195    2.822585    1.728497
  H      3.026231    2.785031    2.101097
  H      3.258239    3.009823    0.358934
  H      2.483309    4.281861    1.315050
  H      0.311825   -2.545546   -1.846889
  H      0.069836   -0.762266   -1.798779
  H     -0.612730   -1.799417    2.270698
  H     -0.933434   -0.533852    3.486947
  H     -2.568868   -2.360292    3.743697
  H     -3.408754   -0.917481    3.147752
  H     -3.027175   -2.244834    2.039368
  H     -4.166487   -0.771321   -1.410401
  H     -5.381842   -0.813534   -0.105061
  H     -5.860284    1.041086   -1.700515
  H     -5.443926    1.684662   -0.102749
  H     -4.252944    1.720827   -1.406649

 Total Charge           Charge          ....    0
 Multiplicity           Mult            ....    1
 Number of Electrons    NEL             ....  202
 Basis Dimension        Dim             ....  334

ORBITAL ENERGIES
----------------

  NO   OCC          E(Eh)            E(eV)
   0   2.0000     -88.046333     -2395.8625
   1   2.0000     -88.041776     -2395.7385
   2   2.0000     -87.982887     -2394.1361
   3   2.0000     -87.978201     -2394.0086
   4   2.0000     -76.424747     -2079.6231
   5   2.0000     -76.420949     -2079.5197
   6   2.0000     -18.793861      -511.4070
   7   2.0000     -18.789149      -511.2787
   8   2.0000     -18.788510      -511.2614
   9   2.0000     -18.778461      -510.9879
  10   2.0000      -9.956025      -270.9172
  11   2.0000      -9.955804      -270.9112
  12   2.0000      -9.952331      -270.8167
  13   2.0000      -9.948823      -270.7212
  14   2.0000      -9.937572      -270.4151
  15   2.0000      -9.886561      -269.0270
  16   2.0000      -9.881610      -268.8923
  17   2.0000      -9.879765      -268.8421
  18   2.0000      -9.875400      -268.7233
  19   2.0000      -7.691355      -209.2924
  20   2.0000      -7.686829      -209.1693
  21   2.0000      -7.627774      -207.5623
  22   2.0000      -7.623125      -207.4358
  23   2.0000      -6.421993      -174.7513
  24   2.0000      -6.418509      -174.6565
  25   2.0000      -5.719114      -155.6250
  26   2.0000      -5.715620      -155.5299
  27   2.0000      -5.714682      -155.5044
  28   2.0000      -5.711360      -155.4140
  29   2.0000      -5.708716      -155.3421
  30   2.0000      -5.703725      -155.2062
  31   2.0000      -5.656655      -153.9254
  32   2.0000      -5.652109      -153.8017
  33   2.0000      -5.648599      -153.7062
  34   2.0000      -5.647805      -153.6846
  35   2.0000      -5.643643      -153.5713
  36   2.0000      -5.643264      -153.5610
  37   2.0000      -4.644729      -126.3895
  38   2.0000      -4.644079      -126.3718
  39   2.0000      -4.642042      -126.3164
  40   2.0000      -4.640751      -126.2812
  41   2.0000      -4.640126      -126.2643
  42   2.0000      -4.639420      -126.2450
  43   2.0000      -0.986500       -26.8440
  44   2.0000      -0.979886       -26.6640
  45   2.0000      -0.944307       -25.6959
  46   2.0000      -0.937119       -25.5003
  47   2.0000      -0.762952       -20.7610
  48   2.0000      -0.719050       -19.5663
  49   2.0000      -0.706873       -19.2350
  50   2.0000      -0.690044       -18.7771
  51   2.0000      -0.682542       -18.5729
  52   2.0000      -0.672057       -18.2876
  53   2.0000      -0.648556       -17.6481
  54   2.0000      -0.632469       -17.2104
  55   2.0000      -0.598092       -16.2749
  56   2.0000      -0.589329       -16.0365
  57   2.0000      -0.572586       -15.5808
  58   2.0000      -0.566815       -15.4238
  59   2.0000      -0.563111       -15.3230
  60   2.0000      -0.499339       -13.5877
  61   2.0000      -0.485931       -13.2229
  62   2.0000      -0.473883       -12.8950
  63   2.0000      -0.465341       -12.6626
  64   2.0000      -0.447524       -12.1778
  65   2.0000      -0.445587       -12.1250
  66   2.0000      -0.440576       -11.9887
  67   2.0000      -0.434554       -11.8248
  68   2.0000      -0.429431       -11.6854
  69   2.0000      -0.413317       -11.2469
  70   2.0000      -0.402995       -10.9661
  71   2.0000      -0.398837       -10.8529
  72   2.0000      -0.391107       -10.6426
  73   2.0000      -0.385411       -10.4876
  74   2.0000      -0.383612       -10.4386
  75   2.0000      -0.377221       -10.2647
  76   2.0000      -0.358451        -9.7539
  77   2.0000      -0.354731        -9.6527
  78   2.0000      -0.350600        -9.5403
  79   2.0000      -0.349810        -9.5188
  80   2.0000      -0.346465        -9.4278
  81   2.0000      -0.342712        -9.3257
  82   2.0000      -0.335942        -9.1414
  83   2.0000      -0.332548        -9.0491
  84   2.0000      -0.330788        -9.0012
  85   2.0000      -0.316960        -8.6249
  86   2.0000      -0.307994        -8.3809
  87   2.0000      -0.295752        -8.0478
  88   2.0000      -0.291636        -7.9358
  89   2.0000      -0.288788        -7.8583
  90   2.0000      -0.274586        -7.4719
  91   2.0000      -0.271204        -7.3798
  92   2.0000      -0.263836        -7.1793
  93   2.0000      -0.263114        -7.1597
  94   2.0000      -0.257604        -7.0098
  95   2.0000      -0.239113        -6.5066
  96   2.0000      -0.220069        -5.9884
  97   2.0000      -0.212071        -5.7708
  98   2.0000      -0.201890        -5.4937
  99   2.0000      -0.192410        -5.2357
 100   2.0000      -0.183885        -5.0038
 101   0.0000      -0.040808        -1.1105
 102   0.0000      -0.030734        -0.8363
 103   0.0000      -0.010619        -0.2890
 104   0.0000       0.014669         0.3992
 105   0.0000       0.023172         0.6305

MULLIKEN ATOMIC CHARGES
-----------------------
   0 C :   -0.308973
   1 C :   -0.003678
   2 O :   -0.374950
   3 P :    0.615375
   4 S :   -0.319258
   5 O :   -0.354463
   6 C :   -0.001297
   7 C :   -0.301713
   8 S :   -0.098195
   9 C :   -0.353291
  10 S :   -0.114803
  11 P :    0.594140
  12 S :   -0.300762
  13 O :   -0.348717
  14 C :    0.000842
  15 C :   -0.307995
  16 O :   -0.372373
  17 C :   -0.013984
  18 C :   -0.290228
  19 H :    0.120676
  20 H :    0.111083
  21 H :    0.116235
  22 H :    0.109234
  23 H :    0.103302
  24 H :    0.121477
  25 H :    0.101815
  26 H :    0.111878
  27 H :    0.118937
  28 H :    0.108957
  29 H :    0.182629
  30 H :    0.213699
  31 H :    0.115325
  32 H :    0.107913
  33 H :    0.112781
  34 H :    0.121717
  35 H :    0.115450
  36 H :    0.104966
  37 H :    0.105003
  38 H :    0.106704
  39 H :    0.112851
  40 H :    0.131692
Sum of atomic charges:   -0.0000000

LOEWDIN ATOMIC CHARGES
----------------------
   0 C :   -0.369175
   1 C :   -0.120320
   2 O :   -0.245467
   3 P :    0.571562
   4 S :   -0.312309
   5 O :   -0.232411
   6 C :   -0.118820
   7 C :   -0.365886
   8 S :    0.089556
   9 C :   -0.477739
  10 S :    0.064713
  11 P :    0.562942
  12 S :   -0.290159
  13 O :   -0.226679
  14 C :   -0.112546
  15 C :   -0.367527
  16 O :   -0.242932
  17 C :   -0.116193
  18 C :   -0.363164
  19 H :    0.119647
  20 H :    0.129809
  21 H :    0.123293
  22 H :    0.109309
  23 H :    0.117682
  24 H :    0.109178
  25 H :    0.118469
  26 H :    0.123823
  27 H :    0.120675
  28 H :    0.128946
  29 H :    0.136771
  30 H :    0.127776
  31 H :    0.103860
  32 H :    0.122403
  33 H :    0.131033
  34 H :    0.127806
  35 H :    0.117056
  36 H :    0.107104
  37 H :    0.117594
  38 H :    0.128527
  39 H :    0.125951
  40 H :    0.125845

  Mayer bond orders larger than 0.100000
B(  0-C ,  1-C ) :   1.1676 B(  0-C , 19-H ) :   0.9370 B(  0-C , 20-H ) :   0.9382
B(  0-C , 21-H ) :   0.9441 B(  1-C ,  2-O ) :   0.9125 B(  1-C , 22-H ) :   0.9140
B(  1-C , 23-H ) :   0.9340 B(  2-O ,  3-P ) :   1.0959 B(  3-P ,  4-S ) :   1.5965
B(  3-P ,  5-O ) :   1.1491 B(  3-P ,  8-S ) :   0.9569 B(  4-S ,  8-S ) :   0.1133
B(  5-O ,  6-C ) :   0.9039 B(  6-C ,  7-C ) :   1.1570 B(  6-C , 24-H ) :   0.9139
B(  6-C , 25-H ) :   0.9360 B(  7-C , 26-H ) :   0.9449 B(  7-C , 27-H ) :   0.9379
B(  7-C , 28-H ) :   0.9394 B(  8-S ,  9-C ) :   0.9916 B(  9-C , 10-S ) :   1.0078
B(  9-C , 29-H ) :   0.9108 B(  9-C , 30-H ) :   0.8457 B( 10-S , 11-P ) :   0.9339
B( 10-S , 12-S ) :   0.1066 B( 11-P , 12-S ) :   1.6442 B( 11-P , 13-O ) :   1.1551
B( 11-P , 16-O ) :   1.0900 B( 13-O , 14-C ) :   0.8964 B( 14-C , 15-C ) :   1.1688
B( 14-C , 31-H ) :   0.9113 B( 14-C , 32-H ) :   0.9358 B( 15-C , 33-H ) :   0.9357
B( 15-C , 34-H ) :   0.9424 B( 15-C , 35-H ) :   0.9397 B( 16-O , 17-C ) :   0.9050
B( 17-C , 18-C ) :   1.1689 B( 17-C , 36-H ) :   0.9155 B( 17-C , 37-H ) :   0.9356
B( 18-C , 38-H ) :   0.9389 B( 18-C , 39-H ) :   0.9475 B( 18-C , 40-H ) :   0.9298

Dispersion correction           -0.068109553
FINAL SINGLE POINT ENERGY     -2929.519191777117

DIPOLE MOMENT
-------------

Method             : SCF
Type of density    : Electron Density
Multiplicity       :   1
Irrep              :   0
Energy             : -2929.6370664590449451 Eh
Relativity type    :
Basis              : AO
                                X                 Y                 Z
Electronic contribution:      0.798246093      -2.761457784      -7.309850819
Nuclear contribution   :     -1.032799857       1.905859232       8.242072088
                        -----------------------------------------
Total Dipole Moment    :     -0.234553764      -0.855598553       0.932221269
                        -----------------------------------------
Magnitude (a.u.)       :      1.286895818
Magnitude (Debye)      :      3.271029216

Rotational constants in cm-1:             0.013014             0.005243             0.004928
Rotational constants in MHz :           390.156136           157.166385           147.740075

                             ****ORCA TERMINATED NORMALLY****
TOTAL RUN TIME: 0 days 0 hours 0 minutes 21 seconds 808 msec
