                         Program Version 6.0.0  -   RELEASE  -
|  1> ! pbe def2-sv(p) def2/J RI DEFGRID1 loosescf d4 GCP(DFT/SV(P)) printgap
|  2> %output
|  3>     printlevel normal
|  4> end
|  5> * xyz 0 1
|  6> C 2.9363115728 -1.2262177425 -2.9731096221
|  7> C 3.2219700269 -0.3219313107 -1.791766209
|  8> O 2.6593847985 -0.9286660903 -0.6060495914
|  9> P 1.9482884922 -0.130125685 0.5526356392
| 10> S 1.2368996369 1.6551754964 0.1004011103
| 11> O 3.1073048887 -0.0342144203 1.6381148971
| 12> C 3.0551223012 0.8192787667 2.7969829173
| 13> C 4.4690413561 1.2527036378 3.1303258842
| 14> S 0.75365353 -1.6413747195 1.3971249223
| 15> C -0.2718350222 -2.1826867465 -0.0251026913
| 16> S -0.4360803875 -0.9716976434 -1.3561850563
| 17> P -1.9295606824 0.2752990597 -0.5237026421
| 18> S -2.2644373826 1.9842558603 -1.414012697
| 19> O -1.4717841676 0.2872985294 0.9937209341
| 20> C -1.8448973891 1.3473020891 1.8943188619
| 21> C -3.3339396686 1.3582639881 2.1632729143
| 22> O -3.208290628 -0.6762152829 -0.4159927209
| 23> C -4.1904658705 -0.7591251117 -1.4594405388
| 24> C -3.6526024171 -1.4548173919 -2.6940398723
| 25> H 1.8633599217 -1.3124665844 -3.1275902626
| 26> H 3.3932308986 -0.8022336602 -3.8612948375
| 27> H 3.3491807452 -2.2138766047 -2.7908599271
| 28> H 2.7760727602 0.6697183762 -1.9271860398
| 29> H 4.2945079891 -0.2135046659 -1.6177548846
| 30> H 2.4181317239 1.6813738415 2.5696549827
| 31> H 2.611448165 0.2444776167 3.6137808383
| 32> H 4.4524272587 1.8598158939 4.0294982725
| 33> H 5.0936989119 0.3794729868 3.2943913411
| 34> H 4.8839422508 1.8350859251 2.3121639689
| 35> H -1.2543914439 -2.4255705378 0.374372425
| 36> H 0.2058914048 -3.0519743922 -0.4707513424
| 37> H -1.2683161999 1.1337424895 2.7963295881
| 38> H -1.5131706141 2.2981479488 1.4637683929
| 39> H -3.6579093301 0.3833331894 2.5178356701
| 40> H -3.5566703023 2.1111638357 2.9126446521
| 41> H -3.8711782197 1.6007537637 1.2469519761
| 42> H -5.0116680131 -1.3158946534 -1.0060382507
| 43> H -4.5173713277 0.25611766 -1.7061414358
| 44> H -2.8510439315 -0.8605725028 -3.1327078118
| 45> H -3.2631907376 -2.4373344132 -2.4407158213
| 46> H -4.4505072928 -1.5601188743 -3.4220097508
| 47> *
| 48>
| 49>                          ****END OF INPUT****

CARTESIAN COORDINATES (ANGSTROEM)
---------------------------------
  C      2.936312   -1.226218   -2.973110
  C      3.221970   -0.321931   -1.791766
  O      2.659385   -0.928666   -0.606050
  P      1.948288   -0.130126    0.552636
  S      1.236900    1.655175    0.100401
  O      3.107305   -0.034214    1.638115
  C      3.055122    0.819279    2.796983
  C      4.469041    1.252704    3.130326
  S      0.753654   -1.641375    1.397125
  C     -0.271835   -2.182687   -0.025103
  S     -0.436080   -0.971698   -1.356185
  P     -1.929561    0.275299   -0.523703
  S     -2.264437    1.984256   -1.414013
  O     -1.471784    0.287299    0.993721
  C     -1.844897    1.347302    1.894319
  C     -3.333940    1.358264    2.163273
  O     -3.208291   -0.676215   -0.415993
  C     -4.190466   -0.759125   -1.459441
  C     -3.652602   -1.454817   -2.694040
  H      1.863360   -1.312467   -3.127590
  H      3.393231   -0.802234   -3.861295
  H      3.349181   -2.213877   -2.790860
  H      2.776073    0.669718   -1.927186
  H      4.294508   -0.213505   -1.617755
  H      2.418132    1.681374    2.569655
  H      2.611448    0.244478    3.613781
  H      4.452427    1.859816    4.029498
  H      5.093699    0.379473    3.294391
  H      4.883942    1.835086    2.312164
  H     -1.254391   -2.425571    0.374372
  H      0.205891   -3.051974   -0.470751
  H     -1.268316    1.133742    2.796330
  H     -1.513171    2.298148    1.463768
  H     -3.657909    0.383333    2.517836
  H     -3.556670    2.111164    2.912645
  H     -3.871178    1.600754    1.246952
  H     -5.011668   -1.315895   -1.006038
  H     -4.517371    0.256118   -1.706141
  H     -2.851044   -0.860573   -3.132708
  H     -3.263191   -2.437334   -2.440716
  H     -4.450507   -1.560119   -3.422010

 Total Charge           Charge          ....    0
 Multiplicity           Mult            ....    1
 Number of Electrons    NEL             ....  202
 Basis Dimension        Dim             ....  334

ORBITAL ENERGIES
----------------

  NO   OCC          E(Eh)            E(eV)
   0   2.0000     -88.046083     -2395.8557
   1   2.0000     -88.035580     -2395.5699
   2   2.0000     -87.985892     -2394.2178
   3   2.0000     -87.977060     -2393.9775
   4   2.0000     -76.424391     -2079.6134
   5   2.0000     -76.422139     -2079.5521
   6   2.0000     -18.788748      -511.2678
   7   2.0000     -18.788741      -511.2676
   8   2.0000     -18.784623      -511.1556
   9   2.0000     -18.784393      -511.1493
  10   2.0000      -9.961254      -271.0595
  11   2.0000      -9.950027      -270.7540
  12   2.0000      -9.948188      -270.7040
  13   2.0000      -9.947799      -270.6934
  14   2.0000      -9.944530      -270.6044
  15   2.0000      -9.884136      -268.9610
  16   2.0000      -9.883723      -268.9498
  17   2.0000      -9.883640      -268.9475
  18   2.0000      -9.878624      -268.8110
  19   2.0000      -7.690483      -209.2687
  20   2.0000      -7.681118      -209.0138
  21   2.0000      -7.631021      -207.6506
  22   2.0000      -7.621650      -207.3956
  23   2.0000      -6.421695      -174.7432
  24   2.0000      -6.419162      -174.6743
  25   2.0000      -5.718815      -155.6169
  26   2.0000      -5.714786      -155.5072
  27   2.0000      -5.709340      -155.3590
  28   2.0000      -5.707198      -155.3008
  29   2.0000      -5.705635      -155.2582
  30   2.0000      -5.697659      -155.0412
  31   2.0000      -5.660037      -154.0174
  32   2.0000      -5.651796      -153.7932
  33   2.0000      -5.650946      -153.7701
  34   2.0000      -5.650611      -153.7609
  35   2.0000      -5.642263      -153.5338
  36   2.0000      -5.641815      -153.5216
  37   2.0000      -4.643941      -126.3681
  38   2.0000      -4.643665      -126.3606
  39   2.0000      -4.642323      -126.3240
  40   2.0000      -4.641795      -126.3097
  41   2.0000      -4.641051      -126.2894
  42   2.0000      -4.639510      -126.2475
  43   2.0000      -0.983118       -26.7520
  44   2.0000      -0.981107       -26.6973
  45   2.0000      -0.940907       -25.6034
  46   2.0000      -0.940563       -25.5940
  47   2.0000      -0.762987       -20.7619
  48   2.0000      -0.719971       -19.5914
  49   2.0000      -0.706022       -19.2118
  50   2.0000      -0.685504       -18.6535
  51   2.0000      -0.683050       -18.5867
  52   2.0000      -0.670596       -18.2478
  53   2.0000      -0.649599       -17.6765
  54   2.0000      -0.634120       -17.2553
  55   2.0000      -0.597186       -16.2503
  56   2.0000      -0.588631       -16.0175
  57   2.0000      -0.568322       -15.4648
  58   2.0000      -0.566960       -15.4278
  59   2.0000      -0.560961       -15.2645
  60   2.0000      -0.503397       -13.6981
  61   2.0000      -0.490076       -13.3356
  62   2.0000      -0.478196       -13.0124
  63   2.0000      -0.468930       -12.7602
  64   2.0000      -0.455269       -12.3885
  65   2.0000      -0.439258       -11.9528
  66   2.0000      -0.436355       -11.8738
  67   2.0000      -0.431886       -11.7522
  68   2.0000      -0.425297       -11.5729
  69   2.0000      -0.414659       -11.2834
  70   2.0000      -0.411104       -11.1867
  71   2.0000      -0.391195       -10.6450
  72   2.0000      -0.390194       -10.6177
  73   2.0000      -0.387033       -10.5317
  74   2.0000      -0.377353       -10.2683
  75   2.0000      -0.375338       -10.2135
  76   2.0000      -0.366330        -9.9683
  77   2.0000      -0.354759        -9.6535
  78   2.0000      -0.354000        -9.6328
  79   2.0000      -0.349916        -9.5217
  80   2.0000      -0.345157        -9.3922
  81   2.0000      -0.343250        -9.3403
  82   2.0000      -0.337917        -9.1952
  83   2.0000      -0.335361        -9.1256
  84   2.0000      -0.327382        -8.9085
  85   2.0000      -0.320965        -8.7339
  86   2.0000      -0.311057        -8.4643
  87   2.0000      -0.295407        -8.0384
  88   2.0000      -0.293012        -7.9733
  89   2.0000      -0.284580        -7.7438
  90   2.0000      -0.281881        -7.6704
  91   2.0000      -0.270755        -7.3676
  92   2.0000      -0.268443        -7.3047
  93   2.0000      -0.259835        -7.0705
  94   2.0000      -0.256520        -6.9803
  95   2.0000      -0.229100        -6.2341
  96   2.0000      -0.218423        -5.9436
  97   2.0000      -0.208245        -5.6666
  98   2.0000      -0.200739        -5.4624
  99   2.0000      -0.191232        -5.2037
 100   2.0000      -0.183600        -4.9960
 101   0.0000      -0.050532        -1.3750
 102   0.0000      -0.028262        -0.7690
 103   0.0000      -0.012434        -0.3383
 104   0.0000      -0.002801        -0.0762
 105   0.0000       0.024553         0.6681

MULLIKEN ATOMIC CHARGES
-----------------------
   0 C :   -0.295895
   1 C :   -0.002888
   2 O :   -0.374217
   3 P :    0.617210
   4 S :   -0.321180
   5 O :   -0.376013
   6 C :   -0.006719
   7 C :   -0.282162
   8 S :   -0.108104
   9 C :   -0.312478
  10 S :   -0.094782
  11 P :    0.628432
  12 S :   -0.304424
  13 O :   -0.371478
  14 C :    0.002858
  15 C :   -0.303973
  16 O :   -0.377577
  17 C :   -0.006953
  18 C :   -0.305244
  19 H :    0.126383
  20 H :    0.111158
  21 H :    0.112689
  22 H :    0.114620
  23 H :    0.103843
  24 H :    0.102313
  25 H :    0.097215
  26 H :    0.109186
  27 H :    0.115686
  28 H :    0.117331
  29 H :    0.183681
  30 H :    0.185221
  31 H :    0.097339
  32 H :    0.118625
  33 H :    0.111561
  34 H :    0.110041
  35 H :    0.121433
  36 H :    0.102475
  37 H :    0.109770
  38 H :    0.123478
  39 H :    0.109716
  40 H :    0.111821
Sum of atomic charges:    0.0000000

LOEWDIN ATOMIC CHARGES
----------------------
   0 C :   -0.355604
   1 C :   -0.115352
   2 O :   -0.244630
   3 P :    0.558030
   4 S :   -0.308536
   5 O :   -0.252329
   6 C :   -0.121823
   7 C :   -0.351157
   8 S :    0.067471
   9 C :   -0.465779
  10 S :    0.111800
  11 P :    0.576167
  12 S :   -0.304151
  13 O :   -0.238205
  14 C :   -0.115924
  15 C :   -0.366504
  16 O :   -0.251246
  17 C :   -0.122735
  18 C :   -0.367151
  19 H :    0.121007
  20 H :    0.130784
  21 H :    0.124516
  22 H :    0.109930
  23 H :    0.115033
  24 H :    0.103883
  25 H :    0.109389
  26 H :    0.129351
  27 H :    0.126074
  28 H :    0.127708
  29 H :    0.133253
  30 H :    0.137144
  31 H :    0.115518
  32 H :    0.112416
  33 H :    0.124080
  34 H :    0.129525
  35 H :    0.120817
  36 H :    0.117013
  37 H :    0.108891
  38 H :    0.119877
  39 H :    0.121395
  40 H :    0.130056

  Mayer bond orders larger than 0.100000
B(  0-C ,  1-C ) :   1.1619 B(  0-C , 19-H ) :   0.9448 B(  0-C , 20-H ) :   0.9411
B(  0-C , 21-H ) :   0.9500 B(  1-C ,  2-O ) :   0.8910 B(  1-C , 22-H ) :   0.9034
B(  1-C , 23-H ) :   0.9343 B(  2-O ,  3-P ) :   1.1257 B(  3-P ,  4-S ) :   1.5915
B(  3-P ,  5-O ) :   1.1058 B(  3-P ,  8-S ) :   0.9913 B(  4-S ,  8-S ) :   0.1170
B(  5-O ,  6-C ) :   0.9115 B(  6-C ,  7-C ) :   1.1620 B(  6-C , 24-H ) :   0.9002
B(  6-C , 25-H ) :   0.9318 B(  7-C , 26-H ) :   0.9420 B(  7-C , 27-H ) :   0.9511
B(  7-C , 28-H ) :   0.9509 B(  8-S ,  9-C ) :   0.9632 B(  9-C , 10-S ) :   1.0159
B(  9-C , 29-H ) :   0.9023 B(  9-C , 30-H ) :   0.9097 B( 10-S , 11-P ) :   0.9396
B( 11-P , 12-S ) :   1.6395 B( 11-P , 13-O ) :   1.1192 B( 11-P , 16-O ) :   1.0679
B( 13-O , 14-C ) :   0.8974 B( 14-C , 15-C ) :   1.1614 B( 14-C , 31-H ) :   0.9332
B( 14-C , 32-H ) :   0.9180 B( 15-C , 33-H ) :   0.9451 B( 15-C , 34-H ) :   0.9392
B( 15-C , 35-H ) :   0.9344 B( 16-O , 17-C ) :   0.9170 B( 17-C , 18-C ) :   1.1654
B( 17-C , 36-H ) :   0.9340 B( 17-C , 37-H ) :   0.9130 B( 18-C , 38-H ) :   0.9363
B( 18-C , 39-H ) :   0.9459 B( 18-C , 40-H ) :   0.9387

Dispersion correction           -0.067245620
FINAL SINGLE POINT ENERGY     -2929.512066055089

DIPOLE MOMENT
-------------

Method             : SCF
Type of density    : Electron Density
Multiplicity       :   1
Irrep              :   0
Energy             : -2929.6287986354950590 Eh
Relativity type    :
Basis              : AO
                                X                 Y                 Z
Electronic contribution:     -0.174003447       0.763912284      -1.144571298
Nuclear contribution   :      0.138565956      -1.812184717       1.562494172
                        -----------------------------------------
Total Dipole Moment    :     -0.035437491      -1.048272433       0.417922874
                        -----------------------------------------
Magnitude (a.u.)       :      1.129066180
Magnitude (Debye)      :      2.869858158

Rotational constants in cm-1:             0.011757             0.005716             0.004889
Rotational constants in MHz :           352.474112           171.370941           146.578377

                             ****ORCA TERMINATED NORMALLY****
TOTAL RUN TIME: 0 days 0 hours 0 minutes 21 seconds 371 msec
