                         Program Version 6.0.0  -   RELEASE  -
|  1> ! pbe def2-sv(p) def2/J RI DEFGRID1 loosescf d4 GCP(DFT/SV(P)) printgap
|  2> %output
|  3>     printlevel normal
|  4> end
|  5> * xyz 0 1
|  6> C 5.0796300268 -1.3270207918 0.2389821159
|  7> C 4.7488644823 -0.4383049593 -0.9414432047
|  8> O 3.7111642802 0.5248959429 -0.6387870689
|  9> P 2.2064861745 0.1814547145 -0.2825283075
| 10> S 1.07440666 1.7616788011 -0.5385152176
| 11> O 2.1624198897 -0.418814806 1.1988686661
| 12> C 1.9048304111 0.3959562647 2.3524205657
| 13> C 3.1435157191 1.1615057324 2.7717133374
| 14> S 1.8010651387 -1.5656753395 -1.3853879812
| 15> C 0.0033145813 -1.4201792982 -1.4899705559
| 16> S -0.8132475492 -1.3220388363 0.1320163034
| 17> P -2.1703114495 0.2954526254 -0.2321608751
| 18> S -2.2055724205 0.9980749591 -2.0556104021
| 19> O -1.9068621279 1.3843894986 0.8679012787
| 20> C -1.9127357694 1.104084116 2.2919064955
| 21> C -3.2742757623 1.3757949757 2.8971978357
| 22> O -3.5520296287 -0.3310959561 0.2523038203
| 23> C -4.20701501 -1.3605086062 -0.5148579649
| 24> C -5.6302201153 -1.4839011023 -0.0095030466
| 25> H 5.3828820553 -0.7250028412 1.0913851542
| 26> H 4.2132917118 -1.9247376006 0.5139417655
| 27> H 5.8936276043 -1.9899666194 -0.0370956424
| 28> H 4.4248522982 -1.0343750593 -1.7985111166
| 29> H 5.5955728198 0.18859483 -1.225915549
| 30> H 1.0905047753 1.0883831781 2.1134361213
| 31> H 1.5811232771 -0.3114215367 3.1171997942
| 32> H 3.4510738023 1.8270836185 1.9652931627
| 33> H 2.9216636817 1.7528056794 3.6545343396
| 34> H 3.9546022311 0.4736605041 2.9937601893
| 35> H -0.3309518529 -2.3235164813 -1.9949438103
| 36> H -0.2683485282 -0.5275734982 -2.061537027
| 37> H -1.6051810996 0.0660544735 2.4486360686
| 38> H -1.1588630126 1.7811206188 2.6990503432
| 39> H -4.0157060243 0.6991708941 2.4823247362
| 40> H -3.2156789241 1.2326544944 3.9716745722
| 41> H -3.5755245049 2.3981948103 2.6862898301
| 42> H -4.1787885537 -1.0765254972 -1.5720853939
| 43> H -3.6517424263 -2.2927151806 -0.3772301851
| 44> H -6.1541307677 -0.5409140033 -0.1379305358
| 45> H -6.1414286512 -2.2566936275 -0.5739093059
| 46> H -5.6305227381 -1.7485508932 1.043850734
| 47> *
| 48>
| 49>                          ****END OF INPUT****

CARTESIAN COORDINATES (ANGSTROEM)
---------------------------------
  C      5.079630   -1.327021    0.238982
  C      4.748864   -0.438305   -0.941443
  O      3.711164    0.524896   -0.638787
  P      2.206486    0.181455   -0.282528
  S      1.074407    1.761679   -0.538515
  O      2.162420   -0.418815    1.198869
  C      1.904830    0.395956    2.352421
  C      3.143516    1.161506    2.771713
  S      1.801065   -1.565675   -1.385388
  C      0.003315   -1.420179   -1.489971
  S     -0.813248   -1.322039    0.132016
  P     -2.170311    0.295453   -0.232161
  S     -2.205572    0.998075   -2.055610
  O     -1.906862    1.384389    0.867901
  C     -1.912736    1.104084    2.291906
  C     -3.274276    1.375795    2.897198
  O     -3.552030   -0.331096    0.252304
  C     -4.207015   -1.360509   -0.514858
  C     -5.630220   -1.483901   -0.009503
  H      5.382882   -0.725003    1.091385
  H      4.213292   -1.924738    0.513942
  H      5.893628   -1.989967   -0.037096
  H      4.424852   -1.034375   -1.798511
  H      5.595573    0.188595   -1.225916
  H      1.090505    1.088383    2.113436
  H      1.581123   -0.311422    3.117200
  H      3.451074    1.827084    1.965293
  H      2.921664    1.752806    3.654534
  H      3.954602    0.473661    2.993760
  H     -0.330952   -2.323516   -1.994944
  H     -0.268349   -0.527573   -2.061537
  H     -1.605181    0.066054    2.448636
  H     -1.158863    1.781121    2.699050
  H     -4.015706    0.699171    2.482325
  H     -3.215679    1.232654    3.971675
  H     -3.575525    2.398195    2.686290
  H     -4.178789   -1.076525   -1.572085
  H     -3.651742   -2.292715   -0.377230
  H     -6.154131   -0.540914   -0.137931
  H     -6.141429   -2.256694   -0.573909
  H     -5.630523   -1.748551    1.043851

 Total Charge           Charge          ....    0
 Multiplicity           Mult            ....    1
 Number of Electrons    NEL             ....  202
 Basis Dimension        Dim             ....  334

ORBITAL ENERGIES
----------------

  NO   OCC          E(Eh)            E(eV)
   0   2.0000     -88.043333     -2395.7809
   1   2.0000     -88.039507     -2395.6768
   2   2.0000     -87.981226     -2394.0909
   3   2.0000     -87.975911     -2393.9462
   4   2.0000     -76.422665     -2079.5664
   5   2.0000     -76.420488     -2079.5072
   6   2.0000     -18.790628      -511.3190
   7   2.0000     -18.790360      -511.3117
   8   2.0000     -18.789159      -511.2790
   9   2.0000     -18.784389      -511.1492
  10   2.0000      -9.959481      -271.0113
  11   2.0000      -9.959284      -271.0059
  12   2.0000      -9.953097      -270.8375
  13   2.0000      -9.950803      -270.7751
  14   2.0000      -9.948472      -270.7117
  15   2.0000      -9.890550      -269.1355
  16   2.0000      -9.888717      -269.0857
  17   2.0000      -9.886915      -269.0366
  18   2.0000      -9.884728      -268.9771
  19   2.0000      -7.688892      -209.2254
  20   2.0000      -7.683880      -209.0890
  21   2.0000      -7.626449      -207.5262
  22   2.0000      -7.620707      -207.3700
  23   2.0000      -6.420067      -174.6989
  24   2.0000      -6.418174      -174.6474
  25   2.0000      -5.716817      -155.5625
  26   2.0000      -5.713301      -155.4668
  27   2.0000      -5.711723      -155.4239
  28   2.0000      -5.708447      -155.3347
  29   2.0000      -5.705821      -155.2633
  30   2.0000      -5.700941      -155.1305
  31   2.0000      -5.655514      -153.8943
  32   2.0000      -5.649898      -153.7415
  33   2.0000      -5.646996      -153.6626
  34   2.0000      -5.646487      -153.6487
  35   2.0000      -5.641480      -153.5125
  36   2.0000      -5.640453      -153.4845
  37   2.0000      -4.642827      -126.3377
  38   2.0000      -4.641760      -126.3087
  39   2.0000      -4.640992      -126.2878
  40   2.0000      -4.640410      -126.2720
  41   2.0000      -4.639800      -126.2554
  42   2.0000      -4.638522      -126.2206
  43   2.0000      -0.986960       -26.8565
  44   2.0000      -0.980308       -26.6755
  45   2.0000      -0.942997       -25.6602
  46   2.0000      -0.942289       -25.6410
  47   2.0000      -0.761105       -20.7107
  48   2.0000      -0.720593       -19.6083
  49   2.0000      -0.711142       -19.3511
  50   2.0000      -0.692818       -18.8525
  51   2.0000      -0.691794       -18.8247
  52   2.0000      -0.673344       -18.3226
  53   2.0000      -0.647033       -17.6067
  54   2.0000      -0.633331       -17.2338
  55   2.0000      -0.593698       -16.1553
  56   2.0000      -0.588058       -16.0019
  57   2.0000      -0.577481       -15.7141
  58   2.0000      -0.569920       -15.5083
  59   2.0000      -0.562547       -15.3077
  60   2.0000      -0.508709       -13.8427
  61   2.0000      -0.492714       -13.4074
  62   2.0000      -0.481889       -13.1129
  63   2.0000      -0.475808       -12.9474
  64   2.0000      -0.450695       -12.2640
  65   2.0000      -0.446738       -12.1564
  66   2.0000      -0.441403       -12.0112
  67   2.0000      -0.436267       -11.8714
  68   2.0000      -0.430745       -11.7212
  69   2.0000      -0.420772       -11.4498
  70   2.0000      -0.410864       -11.1802
  71   2.0000      -0.392396       -10.6776
  72   2.0000      -0.391337       -10.6488
  73   2.0000      -0.385627       -10.4934
  74   2.0000      -0.384616       -10.4659
  75   2.0000      -0.368957       -10.0398
  76   2.0000      -0.363668        -9.8959
  77   2.0000      -0.355973        -9.6865
  78   2.0000      -0.354705        -9.6520
  79   2.0000      -0.353778        -9.6268
  80   2.0000      -0.349249        -9.5035
  81   2.0000      -0.347134        -9.4460
  82   2.0000      -0.343505        -9.3472
  83   2.0000      -0.340404        -9.2629
  84   2.0000      -0.336827        -9.1655
  85   2.0000      -0.315767        -8.5925
  86   2.0000      -0.313057        -8.5187
  87   2.0000      -0.306355        -8.3363
  88   2.0000      -0.298356        -8.1187
  89   2.0000      -0.291448        -7.9307
  90   2.0000      -0.278708        -7.5840
  91   2.0000      -0.273418        -7.4401
  92   2.0000      -0.269662        -7.3379
  93   2.0000      -0.263206        -7.1622
  94   2.0000      -0.256252        -6.9730
  95   2.0000      -0.229263        -6.2386
  96   2.0000      -0.222362        -6.0508
  97   2.0000      -0.208786        -5.6814
  98   2.0000      -0.197017        -5.3611
  99   2.0000      -0.188553        -5.1308
 100   2.0000      -0.184300        -5.0151
 101   0.0000      -0.042711        -1.1622
 102   0.0000      -0.031427        -0.8552
 103   0.0000      -0.004177        -0.1137
 104   0.0000       0.005441         0.1481
 105   0.0000       0.018626         0.5069

MULLIKEN ATOMIC CHARGES
-----------------------
   0 C :   -0.317088
   1 C :   -0.026309
   2 O :   -0.366654
   3 P :    0.610060
   4 S :   -0.294705
   5 O :   -0.377245
   6 C :   -0.040219
   7 C :   -0.308498
   8 S :   -0.120240
   9 C :   -0.324458
  10 S :   -0.131886
  11 P :    0.612266
  12 S :   -0.289443
  13 O :   -0.346361
  14 C :   -0.041094
  15 C :   -0.277047
  16 O :   -0.384881
  17 C :   -0.006758
  18 C :   -0.283103
  19 H :    0.124124
  20 H :    0.131284
  21 H :    0.113737
  22 H :    0.122480
  23 H :    0.115445
  24 H :    0.133776
  25 H :    0.100169
  26 H :    0.127925
  27 H :    0.108418
  28 H :    0.117755
  29 H :    0.175846
  30 H :    0.208974
  31 H :    0.106835
  32 H :    0.123789
  33 H :    0.126306
  34 H :    0.106596
  35 H :    0.121973
  36 H :    0.102414
  37 H :    0.096389
  38 H :    0.122365
  39 H :    0.111939
  40 H :    0.115120
Sum of atomic charges:   -0.0000000

LOEWDIN ATOMIC CHARGES
----------------------
   0 C :   -0.367779
   1 C :   -0.117724
   2 O :   -0.242714
   3 P :    0.560754
   4 S :   -0.294937
   5 O :   -0.250640
   6 C :   -0.126552
   7 C :   -0.362618
   8 S :    0.077966
   9 C :   -0.476442
  10 S :    0.051425
  11 P :    0.572881
  12 S :   -0.285950
  13 O :   -0.224536
  14 C :   -0.111574
  15 C :   -0.359854
  16 O :   -0.252470
  17 C :   -0.124328
  18 C :   -0.350559
  19 H :    0.126765
  20 H :    0.124092
  21 H :    0.131731
  22 H :    0.109233
  23 H :    0.124563
  24 H :    0.107582
  25 H :    0.114980
  26 H :    0.127132
  27 H :    0.128942
  28 H :    0.122190
  29 H :    0.134060
  30 H :    0.125138
  31 H :    0.105117
  32 H :    0.120944
  33 H :    0.126902
  34 H :    0.128591
  35 H :    0.130738
  36 H :    0.107487
  37 H :    0.104686
  38 H :    0.129306
  39 H :    0.130767
  40 H :    0.124707

  Mayer bond orders larger than 0.100000
B(  0-C ,  1-C ) :   1.1626 B(  0-C , 19-H ) :   0.9412 B(  0-C , 20-H ) :   0.9359
B(  0-C , 21-H ) :   0.9359 B(  1-C ,  2-O ) :   0.9089 B(  1-C , 22-H ) :   0.9174
B(  1-C , 23-H ) :   0.9345 B(  2-O ,  3-P ) :   1.1154 B(  3-P ,  4-S ) :   1.6540
B(  3-P ,  5-O ) :   1.0638 B(  3-P ,  8-S ) :   0.9508 B(  4-S ,  8-S ) :   0.1041
B(  5-O ,  6-C ) :   0.9134 B(  6-C ,  7-C ) :   1.1596 B(  6-C , 24-H ) :   0.8932
B(  6-C , 25-H ) :   0.9337 B(  7-C , 26-H ) :   0.9386 B(  7-C , 27-H ) :   0.9398
B(  7-C , 28-H ) :   0.9423 B(  8-S ,  9-C ) :   1.0039 B(  9-C , 10-S ) :   0.9985
B(  9-C , 29-H ) :   0.9124 B(  9-C , 30-H ) :   0.8454 B( 10-S , 11-P ) :   0.9345
B( 10-S , 12-S ) :   0.1199 B( 11-P , 12-S ) :   1.6473 B( 11-P , 13-O ) :   1.1479
B( 11-P , 16-O ) :   1.0639 B( 12-S , 30-H ) :   0.1095 B( 13-O , 14-C ) :   0.8949
B( 14-C , 15-C ) :   1.1630 B( 14-C , 31-H ) :   0.9167 B( 14-C , 32-H ) :   0.9239
B( 15-C , 33-H ) :   0.9372 B( 15-C , 34-H ) :   0.9388 B( 15-C , 35-H ) :   0.9457
B( 16-O , 17-C ) :   0.9105 B( 17-C , 18-C ) :   1.1596 B( 17-C , 36-H ) :   0.9091
B( 17-C , 37-H ) :   0.9222 B( 18-C , 38-H ) :   0.9512 B( 18-C , 39-H ) :   0.9422
B( 18-C , 40-H ) :   0.9508

Dispersion correction           -0.065764468
FINAL SINGLE POINT ENERGY     -2929.512482008744

DIPOLE MOMENT
-------------

Method             : SCF
Type of density    : Electron Density
Multiplicity       :   1
Irrep              :   0
Energy             : -2929.6319771006019437 Eh
Relativity type    :
Basis              : AO
                                X                 Y                 Z
Electronic contribution:      1.640998476       3.892898091     -18.791998796
Nuclear contribution   :     -1.352051657      -5.325270554      20.299826165
                        -----------------------------------------
Total Dipole Moment    :      0.288946819      -1.432372462       1.507827369
                        -----------------------------------------
Magnitude (a.u.)       :      2.099696290
Magnitude (Debye)      :      5.337003830

Rotational constants in cm-1:             0.013715             0.004885             0.004378
Rotational constants in MHz :           411.159635           146.451516           131.242125

                             ****ORCA TERMINATED NORMALLY****
TOTAL RUN TIME: 0 days 0 hours 0 minutes 20 seconds 860 msec
