                         Program Version 6.0.1  -  RELEASE   -
|  1> ! pbe def2-sv(p) def2/J RI DEFGRID1 loosescf d4 GCP(DFT/SV(P)) printgap
|  2> %output
|  3>     printlevel normal
|  4> end
|  5> * xyz 0 1
|  6> C 5.1924711141 -0.4268323865 0.1203647556
|  7> C 4.6196685947 -1.6382249783 -0.5970003571
|  8> O 3.1940004726 -1.7235996695 -0.4031019569
|  9> C 2.4082038092 -1.0982996021 -1.2530384421
| 10> O 2.7912384416 -0.4624549621 -2.2111672239
| 11> C 0.9443542725 -1.3104984582 -0.9121235825
| 12> C 0.1432255682 -0.0901973779 -1.3440326858
| 13> H 0.4488239569 0.1884587644 -2.3605180671
| 14> C 0.3701985519 1.1240045528 -0.4632519737
| 15> O -0.4941298386 1.9590984351 -0.2766905591
| 16> O 1.5883224104 1.1690954894 0.0012065314
| 17> C 1.9721815938 2.246934952 0.8826077903
| 18> C 2.311427266 1.6814061241 2.2503874078
| 19> S -1.6451894882 -0.3956133111 -1.4591855792
| 20> P -2.2568316598 0.0043895449 0.5377807825
| 21> S -0.9586984596 -0.2841518874 1.9710010941
| 22> O -2.9904136747 1.3973700179 0.6392476291
| 23> C -3.9191884911 1.8681778509 -0.3556622367
| 24> O -3.5318309267 -0.9646160085 0.6367445518
| 25> C -3.3877267935 -2.3884577694 0.6695278934
| 26> H 4.974187053 -0.483924215 1.1831844671
| 27> H 6.2676491765 -0.3989892059 -0.0225976691
| 28> H 4.7565961518 0.4834435812 -0.2848387028
| 29> H 5.0093444845 -2.5679664637 -0.1822725524
| 30> H 4.8215896403 -1.5830012115 -1.6705286737
| 31> H 0.8450441668 -1.5059499859 0.1563076273
| 32> H 0.5947226388 -2.1834578531 -1.467489623
| 33> H 2.841831455 2.7135433264 0.4153558698
| 34> H 1.1465014534 2.9612857151 0.9379394158
| 35> H 2.6233060517 2.4894445277 2.9033209307
| 36> H 1.440421385 1.1902274342 2.6794340886
| 37> H 3.1130609222 0.954250841 2.1655547094
| 38> H -4.6704465697 1.1072998102 -0.5599085835
| 39> H -3.375766982 2.1232272698 -1.2652208113
| 40> H -4.3718192535 2.7554609748 0.0790685355
| 41> H -2.627179168 -2.6709456218 1.3991377584
| 42> H -3.1138425814 -2.7552079492 -0.319275918
| 43> H -4.3597366941 -2.7735043074 0.9667865207
| 44> *
| 45>
| 46>                          ****END OF INPUT****

CARTESIAN COORDINATES (ANGSTROEM)
---------------------------------
  C      5.192471   -0.426832    0.120365
  C      4.619669   -1.638225   -0.597000
  O      3.194000   -1.723600   -0.403102
  C      2.408204   -1.098300   -1.253038
  O      2.791238   -0.462455   -2.211167
  C      0.944354   -1.310498   -0.912124
  C      0.143226   -0.090197   -1.344033
  H      0.448824    0.188459   -2.360518
  C      0.370199    1.124005   -0.463252
  O     -0.494130    1.959098   -0.276691
  O      1.588322    1.169095    0.001207
  C      1.972182    2.246935    0.882608
  C      2.311427    1.681406    2.250387
  S     -1.645189   -0.395613   -1.459186
  P     -2.256832    0.004390    0.537781
  S     -0.958698   -0.284152    1.971001
  O     -2.990414    1.397370    0.639248
  C     -3.919188    1.868178   -0.355662
  O     -3.531831   -0.964616    0.636745
  C     -3.387727   -2.388458    0.669528
  H      4.974187   -0.483924    1.183184
  H      6.267649   -0.398989   -0.022598
  H      4.756596    0.483444   -0.284839
  H      5.009344   -2.567966   -0.182273
  H      4.821590   -1.583001   -1.670529
  H      0.845044   -1.505950    0.156308
  H      0.594723   -2.183458   -1.467490
  H      2.841831    2.713543    0.415356
  H      1.146501    2.961286    0.937939
  H      2.623306    2.489445    2.903321
  H      1.440421    1.190227    2.679434
  H      3.113061    0.954251    2.165555
  H     -4.670447    1.107300   -0.559909
  H     -3.375767    2.123227   -1.265221
  H     -4.371819    2.755461    0.079069
  H     -2.627179   -2.670946    1.399138
  H     -3.113843   -2.755208   -0.319276
  H     -4.359737   -2.773504    0.966787

 Total Charge           Charge          ....    0
 Multiplicity           Mult            ....    1
 Number of Electrons    NEL             ....  174
 Basis Dimension        Dim             ....  316

ORBITAL ENERGIES
----------------

  NO   OCC          E(Eh)            E(eV)
   0   2.0000     -88.039740     -2395.6831
   1   2.0000     -87.981953     -2394.1107
   2   2.0000     -76.424270     -2079.6101
   3   2.0000     -18.811963      -511.8995
   4   2.0000     -18.802042      -511.6296
   5   2.0000     -18.788068      -511.2493
   6   2.0000     -18.786050      -511.1944
   7   2.0000     -18.739666      -509.9322
   8   2.0000     -18.739157      -509.9184
   9   2.0000     -10.019251      -272.6377
  10   2.0000     -10.009994      -272.3858
  11   2.0000      -9.949491      -270.7394
  12   2.0000      -9.947894      -270.6959
  13   2.0000      -9.946241      -270.6510
  14   2.0000      -9.943175      -270.5676
  15   2.0000      -9.941860      -270.5318
  16   2.0000      -9.904485      -269.5147
  17   2.0000      -9.890447      -269.1328
  18   2.0000      -9.882520      -268.9170
  19   2.0000      -7.684651      -209.1100
  20   2.0000      -7.627057      -207.5428
  21   2.0000      -6.420914      -174.7220
  22   2.0000      -5.712602      -155.4478
  23   2.0000      -5.709128      -155.3533
  24   2.0000      -5.701601      -155.1484
  25   2.0000      -5.656040      -153.9087
  26   2.0000      -5.647585      -153.6786
  27   2.0000      -5.647126      -153.6661
  28   2.0000      -4.643598      -126.3587
  29   2.0000      -4.642920      -126.3403
  30   2.0000      -4.641286      -126.2958
  31   2.0000      -1.020012       -27.7559
  32   2.0000      -1.010425       -27.4951
  33   2.0000      -0.981696       -26.7133
  34   2.0000      -0.937337       -25.5062
  35   2.0000      -0.921368       -25.0717
  36   2.0000      -0.916210       -24.9313
  37   2.0000      -0.763589       -20.7783
  38   2.0000      -0.712379       -19.3848
  39   2.0000      -0.707964       -19.2647
  40   2.0000      -0.690951       -18.8017
  41   2.0000      -0.658855       -17.9284
  42   2.0000      -0.632477       -17.2106
  43   2.0000      -0.621678       -16.9167
  44   2.0000      -0.616533       -16.7767
  45   2.0000      -0.594992       -16.1905
  46   2.0000      -0.563403       -15.3310
  47   2.0000      -0.513747       -13.9798
  48   2.0000      -0.503668       -13.7055
  49   2.0000      -0.499485       -13.5917
  50   2.0000      -0.477701       -12.9989
  51   2.0000      -0.470045       -12.7906
  52   2.0000      -0.465390       -12.6639
  53   2.0000      -0.443830       -12.0772
  54   2.0000      -0.436298       -11.8723
  55   2.0000      -0.430420       -11.7123
  56   2.0000      -0.427437       -11.6312
  57   2.0000      -0.416624       -11.3369
  58   2.0000      -0.411406       -11.1949
  59   2.0000      -0.410241       -11.1632
  60   2.0000      -0.399299       -10.8655
  61   2.0000      -0.395869       -10.7722
  62   2.0000      -0.390482       -10.6256
  63   2.0000      -0.385298       -10.4845
  64   2.0000      -0.378823       -10.3083
  65   2.0000      -0.365621        -9.9491
  66   2.0000      -0.361025        -9.8240
  67   2.0000      -0.351401        -9.5621
  68   2.0000      -0.347072        -9.4443
  69   2.0000      -0.339528        -9.2390
  70   2.0000      -0.334146        -9.0926
  71   2.0000      -0.330034        -8.9807
  72   2.0000      -0.319688        -8.6992
  73   2.0000      -0.313640        -8.5346
  74   2.0000      -0.300607        -8.1799
  75   2.0000      -0.296466        -8.0673
  76   2.0000      -0.294622        -8.0171
  77   2.0000      -0.289507        -7.8779
  78   2.0000      -0.271243        -7.3809
  79   2.0000      -0.262659        -7.1473
  80   2.0000      -0.257655        -7.0112
  81   2.0000      -0.255788        -6.9604
  82   2.0000      -0.237040        -6.4502
  83   2.0000      -0.229496        -6.2449
  84   2.0000      -0.216416        -5.8890
  85   2.0000      -0.199330        -5.4241
  86   2.0000      -0.197819        -5.3829
  87   0.0000      -0.043136        -1.1738
  88   0.0000      -0.027238        -0.7412
  89   0.0000      -0.015858        -0.4315
  90   0.0000       0.007483         0.2036
  91   0.0000       0.022152         0.6028

MULLIKEN ATOMIC CHARGES
-----------------------
   0 C :   -0.319540
   1 C :   -0.016522
   2 O :   -0.224435
   3 C :    0.116995
   4 O :   -0.215629
   5 C :   -0.057101
   6 C :   -0.300975
   7 H :    0.167704
   8 C :    0.173139
   9 O :   -0.190260
  10 O :   -0.217704
  11 C :   -0.020341
  12 C :   -0.310439
  13 S :   -0.090724
  14 P :    0.611620
  15 S :   -0.319459
  16 O :   -0.349543
  17 C :   -0.100925
  18 O :   -0.387752
  19 C :   -0.100083
  20 H :    0.131166
  21 H :    0.113258
  22 H :    0.130372
  23 H :    0.104367
  24 H :    0.108903
  25 H :    0.121500
  26 H :    0.117600
  27 H :    0.109197
  28 H :    0.122467
  29 H :    0.109843
  30 H :    0.138489
  31 H :    0.116096
  32 H :    0.117024
  33 H :    0.127969
  34 H :    0.130233
  35 H :    0.116031
  36 H :    0.112994
  37 H :    0.124463
Sum of atomic charges:   -0.0000000

LOEWDIN ATOMIC CHARGES
----------------------
   0 C :   -0.356402
   1 C :   -0.110170
   2 O :   -0.054616
   3 C :    0.030103
   4 O :   -0.176340
   5 C :   -0.259113
   6 C :   -0.267151
   7 H :    0.158470
   8 C :    0.006415
   9 O :   -0.170963
  10 O :   -0.031019
  11 C :   -0.105792
  12 C :   -0.356811
  13 S :    0.103582
  14 P :    0.584915
  15 S :   -0.302953
  16 O :   -0.227571
  17 C :   -0.207137
  18 O :   -0.262854
  19 C :   -0.217976
  20 H :    0.125122
  21 H :    0.131207
  22 H :    0.130283
  23 H :    0.118410
  24 H :    0.120075
  25 H :    0.134487
  26 H :    0.145208
  27 H :    0.118039
  28 H :    0.126013
  29 H :    0.130037
  30 H :    0.128482
  31 H :    0.122407
  32 H :    0.111629
  33 H :    0.116323
  34 H :    0.126490
  35 H :    0.110303
  36 H :    0.106768
  37 H :    0.122098

  Mayer bond orders larger than 0.100000
B(  0-C ,  1-C ) :   1.1770 B(  0-C , 20-H ) :   0.9372 B(  0-C , 21-H ) :   0.9410
B(  0-C , 22-H ) :   0.9437 B(  1-C ,  2-O ) :   0.9164 B(  1-C , 23-H ) :   0.9370
B(  1-C , 24-H ) :   0.9123 B(  2-O ,  3-C ) :   1.2479 B(  3-C ,  4-O ) :   2.0224
B(  3-C ,  5-C ) :   0.9928 B(  5-C ,  6-C ) :   1.0294 B(  5-C , 25-H ) :   0.8880
B(  5-C , 26-H ) :   0.8774 B(  6-C ,  7-H ) :   0.8453 B(  6-C ,  8-C ) :   0.9007
B(  6-C , 13-S ) :   1.0168 B(  8-C ,  9-O ) :   2.0226 B(  8-C , 10-O ) :   1.2684
B( 10-O , 11-C ) :   0.8915 B( 11-C , 12-C ) :   1.1791 B( 11-C , 27-H ) :   0.9326
B( 11-C , 28-H ) :   0.9046 B( 12-C , 29-H ) :   0.9411 B( 12-C , 30-H ) :   0.9326
B( 12-C , 31-H ) :   0.9427 B( 13-S , 14-P ) :   0.9520 B( 13-S , 15-S ) :   0.1110
B( 14-P , 15-S ) :   1.6029 B( 14-P , 16-O ) :   1.1466 B( 14-P , 18-O ) :   1.0672
B( 16-O , 17-C ) :   0.9177 B( 17-C , 32-H ) :   0.9452 B( 17-C , 33-H ) :   0.9429
B( 17-C , 34-H ) :   0.9594 B( 18-O , 19-C ) :   0.9348 B( 19-C , 35-H ) :   0.9349
B( 19-C , 36-H ) :   0.9464 B( 19-C , 37-H ) :   0.9587

Dispersion correction           -0.053023864
FINAL SINGLE POINT ENERGY     -1979.019941447503

DIPOLE MOMENT
-------------

Method             : SCF
Type of density    : Electron Density
Multiplicity       :   1
Irrep              :   0
Energy             : -1979.1500629670345006 Eh
Relativity type    :
Basis              : AO
                                X                 Y                 Z
Electronic contribution:    -17.064373894      -0.489497909      -4.162222761
Nuclear contribution   :     17.452629898       0.077112361       3.940313588
                        -----------------------------------------
Total Dipole Moment    :      0.388256004      -0.412385548      -0.221909173
                        -----------------------------------------
Magnitude (a.u.)       :      0.608315910
Magnitude (Debye)      :      1.546216163

Rotational constants in cm-1:             0.016954             0.006209             0.005735
Rotational constants in MHz :           508.275196           186.141965           171.924815

                             ****ORCA TERMINATED NORMALLY****
TOTAL RUN TIME: 0 days 0 hours 0 minutes 39 seconds 52 msec
