                         Program Version 6.0.0  -   RELEASE  -
|  1> ! pbe def2-sv(p) def2/J RI DEFGRID1 loosescf d4 GCP(DFT/SV(P)) printgap
|  2> %output
|  3>     printlevel normal
|  4> end
|  5> * xyz 0 1
|  6> C 5.8705540409 0.0133038371 -0.2709738705
|  7> C 4.5424737337 -0.6089804474 -0.6529140982
|  8> O 3.5040052416 0.0494953221 0.0995752519
|  9> P 2.0032100593 0.1412641678 -0.4239962019
| 10> S 1.8719861761 0.64448883 -2.3191868541
| 11> O 1.3850361628 1.1115373625 0.6581925463
| 12> C 1.5838529444 2.5414555989 0.5826510433
| 13> C 0.7942417191 3.170715798 1.7097498631
| 14> S 1.1955121268 -1.7146312229 0.1219174641
| 15> C -0.1042667694 -1.8969507374 -1.1499361437
| 16> S -1.7661943919 -1.9979945913 -0.4546609532
| 17> P -1.9404915346 0.0106311195 0.2294405935
| 18> S -1.3912769891 1.411855352 -1.0203967403
| 19> O -1.1384695536 0.0716676888 1.5837284987
| 20> C -1.2821164529 -0.8675110394 2.6780251937
| 21> C -2.3297438128 -0.4014737723 3.6672815361
| 22> O -3.4533421723 0.098824364 0.7102398898
| 23> C -4.5330956848 0.4480296872 -0.1740805683
| 24> C -4.800809915 -0.6248190484 -1.2094724429
| 25> H 5.8848594493 1.0648481338 -0.5443355153
| 26> H 6.0263560653 -0.0753755202 0.8002772685
| 27> H 6.6678003375 -0.5026257683 -0.7956965584
| 28> H 4.512873443 -1.672218893 -0.4024369611
| 29> H 4.3330682634 -0.4827872883 -1.7206438287
| 30> H 2.6538159424 2.745995846 0.6713169462
| 31> H 1.2297411147 2.8845464577 -0.3957478148
| 32> H 1.1483327735 2.7966325005 2.665723368
| 33> H 0.9134651094 4.2484828903 1.6706187826
| 34> H -0.2583700965 2.9206947481 1.6000248866
| 35> H 0.0640915435 -2.8387160057 -1.6656967554
| 36> H -0.0340953148 -1.0517369494 -1.8406205972
| 37> H -1.5325035851 -1.851341788 2.2709157076
| 38> H -0.2883022528 -0.9006105633 3.1290289607
| 39> H -3.3099015039 -0.383138268 3.1989098989
| 40> H -2.3473483035 -1.0870064691 4.5088366351
| 41> H -2.0914301357 0.597068477 4.0233104061
| 42> H -5.3836741103 0.5816348672 0.495856551
| 43> H -4.2881750091 1.3986325791 -0.6579992288
| 44> H -4.9113550979 -1.5943571256 -0.73054873
| 45> H -5.711139611 -0.3815856483 -1.7479913873
| 46> H -3.9764102344 -0.6751232345 -1.9187283014
| 47> *
| 48>
| 49>                          ****END OF INPUT****

CARTESIAN COORDINATES (ANGSTROEM)
---------------------------------
  C      5.870554    0.013304   -0.270974
  C      4.542474   -0.608980   -0.652914
  O      3.504005    0.049495    0.099575
  P      2.003210    0.141264   -0.423996
  S      1.871986    0.644489   -2.319187
  O      1.385036    1.111537    0.658193
  C      1.583853    2.541456    0.582651
  C      0.794242    3.170716    1.709750
  S      1.195512   -1.714631    0.121917
  C     -0.104267   -1.896951   -1.149936
  S     -1.766194   -1.997995   -0.454661
  P     -1.940492    0.010631    0.229441
  S     -1.391277    1.411855   -1.020397
  O     -1.138470    0.071668    1.583728
  C     -1.282116   -0.867511    2.678025
  C     -2.329744   -0.401474    3.667282
  O     -3.453342    0.098824    0.710240
  C     -4.533096    0.448030   -0.174081
  C     -4.800810   -0.624819   -1.209472
  H      5.884859    1.064848   -0.544336
  H      6.026356   -0.075376    0.800277
  H      6.667800   -0.502626   -0.795697
  H      4.512873   -1.672219   -0.402437
  H      4.333068   -0.482787   -1.720644
  H      2.653816    2.745996    0.671317
  H      1.229741    2.884546   -0.395748
  H      1.148333    2.796633    2.665723
  H      0.913465    4.248483    1.670619
  H     -0.258370    2.920695    1.600025
  H      0.064092   -2.838716   -1.665697
  H     -0.034095   -1.051737   -1.840621
  H     -1.532504   -1.851342    2.270916
  H     -0.288302   -0.900611    3.129029
  H     -3.309902   -0.383138    3.198910
  H     -2.347348   -1.087006    4.508837
  H     -2.091430    0.597068    4.023310
  H     -5.383674    0.581635    0.495857
  H     -4.288175    1.398633   -0.657999
  H     -4.911355   -1.594357   -0.730549
  H     -5.711140   -0.381586   -1.747991
  H     -3.976410   -0.675123   -1.918728

 Total Charge           Charge          ....    0
 Multiplicity           Mult            ....    1
 Number of Electrons    NEL             ....  202
 Basis Dimension        Dim             ....  334

ORBITAL ENERGIES
----------------

  NO   OCC          E(Eh)            E(eV)
   0   2.0000     -88.044789     -2395.8205
   1   2.0000     -88.041485     -2395.7306
   2   2.0000     -87.982321     -2394.1207
   3   2.0000     -87.977988     -2394.0028
   4   2.0000     -76.424996     -2079.6299
   5   2.0000     -76.418313     -2079.4480
   6   2.0000     -18.795394      -511.4487
   7   2.0000     -18.789381      -511.2850
   8   2.0000     -18.786350      -511.2026
   9   2.0000     -18.779149      -511.0066
  10   2.0000      -9.954764      -270.8829
  11   2.0000      -9.953736      -270.8549
  12   2.0000      -9.951548      -270.7954
  13   2.0000      -9.946417      -270.6558
  14   2.0000      -9.940203      -270.4867
  15   2.0000      -9.885053      -268.9860
  16   2.0000      -9.884648      -268.9750
  17   2.0000      -9.884498      -268.9709
  18   2.0000      -9.873443      -268.6701
  19   2.0000      -7.689756      -209.2489
  20   2.0000      -7.686872      -209.1704
  21   2.0000      -7.627241      -207.5478
  22   2.0000      -7.623003      -207.4325
  23   2.0000      -6.422389      -174.7621
  24   2.0000      -6.416178      -174.5931
  25   2.0000      -5.717579      -155.5832
  26   2.0000      -5.714723      -155.5055
  27   2.0000      -5.714079      -155.4880
  28   2.0000      -5.711343      -155.4135
  29   2.0000      -5.706968      -155.2945
  30   2.0000      -5.703820      -155.2088
  31   2.0000      -5.656236      -153.9140
  32   2.0000      -5.651864      -153.7950
  33   2.0000      -5.647742      -153.6829
  34   2.0000      -5.647419      -153.6741
  35   2.0000      -5.643781      -153.5751
  36   2.0000      -5.643055      -153.5553
  37   2.0000      -4.645260      -126.4039
  38   2.0000      -4.644189      -126.3748
  39   2.0000      -4.642557      -126.3304
  40   2.0000      -4.638525      -126.2207
  41   2.0000      -4.637819      -126.2015
  42   2.0000      -4.636883      -126.1760
  43   2.0000      -0.987547       -26.8725
  44   2.0000      -0.978908       -26.6374
  45   2.0000      -0.945166       -25.7193
  46   2.0000      -0.935393       -25.4533
  47   2.0000      -0.762301       -20.7433
  48   2.0000      -0.719671       -19.5832
  49   2.0000      -0.708085       -19.2680
  50   2.0000      -0.690050       -18.7772
  51   2.0000      -0.682249       -18.5649
  52   2.0000      -0.673040       -18.3144
  53   2.0000      -0.647546       -17.6206
  54   2.0000      -0.629042       -17.1171
  55   2.0000      -0.596541       -16.2327
  56   2.0000      -0.584739       -15.9116
  57   2.0000      -0.574334       -15.6284
  58   2.0000      -0.564113       -15.3503
  59   2.0000      -0.553815       -15.0701
  60   2.0000      -0.502831       -13.6827
  61   2.0000      -0.496500       -13.5105
  62   2.0000      -0.474907       -12.9229
  63   2.0000      -0.472814       -12.8659
  64   2.0000      -0.449258       -12.2249
  65   2.0000      -0.444382       -12.0923
  66   2.0000      -0.439271       -11.9532
  67   2.0000      -0.431627       -11.7452
  68   2.0000      -0.427059       -11.6209
  69   2.0000      -0.419628       -11.4187
  70   2.0000      -0.409790       -11.1509
  71   2.0000      -0.392305       -10.6752
  72   2.0000      -0.387106       -10.5337
  73   2.0000      -0.379977       -10.3397
  74   2.0000      -0.378296       -10.2940
  75   2.0000      -0.366662        -9.9774
  76   2.0000      -0.362456        -9.8629
  77   2.0000      -0.356359        -9.6970
  78   2.0000      -0.352889        -9.6026
  79   2.0000      -0.351847        -9.5743
  80   2.0000      -0.347429        -9.4540
  81   2.0000      -0.342270        -9.3136
  82   2.0000      -0.337644        -9.1878
  83   2.0000      -0.334173        -9.0933
  84   2.0000      -0.324045        -8.8177
  85   2.0000      -0.315267        -8.5789
  86   2.0000      -0.309048        -8.4096
  87   2.0000      -0.296393        -8.0653
  88   2.0000      -0.293919        -7.9979
  89   2.0000      -0.291249        -7.9253
  90   2.0000      -0.279923        -7.6171
  91   2.0000      -0.270292        -7.3550
  92   2.0000      -0.263476        -7.1696
  93   2.0000      -0.259851        -7.0709
  94   2.0000      -0.256629        -6.9832
  95   2.0000      -0.237564        -6.4644
  96   2.0000      -0.221504        -6.0274
  97   2.0000      -0.213458        -5.8085
  98   2.0000      -0.202429        -5.5084
  99   2.0000      -0.192064        -5.2263
 100   2.0000      -0.182541        -4.9672
 101   0.0000      -0.039202        -1.0667
 102   0.0000      -0.027867        -0.7583
 103   0.0000      -0.009556        -0.2600
 104   0.0000       0.012912         0.3513
 105   0.0000       0.023982         0.6526

MULLIKEN ATOMIC CHARGES
-----------------------
   0 C :   -0.282252
   1 C :   -0.006000
   2 O :   -0.384706
   3 P :    0.614226
   4 S :   -0.321923
   5 O :   -0.354629
   6 C :   -0.002540
   7 C :   -0.278332
   8 S :   -0.101054
   9 C :   -0.355335
  10 S :   -0.104733
  11 P :    0.601453
  12 S :   -0.294719
  13 O :   -0.342036
  14 C :   -0.011893
  15 C :   -0.290000
  16 O :   -0.380894
  17 C :   -0.001247
  18 C :   -0.320411
  19 H :    0.117351
  20 H :    0.114724
  21 H :    0.110415
  22 H :    0.097083
  23 H :    0.102975
  24 H :    0.095868
  25 H :    0.113601
  26 H :    0.105158
  27 H :    0.103748
  28 H :    0.125152
  29 H :    0.183239
  30 H :    0.208952
  31 H :    0.101907
  32 H :    0.109329
  33 H :    0.121195
  34 H :    0.108343
  35 H :    0.117605
  36 H :    0.104202
  37 H :    0.112626
  38 H :    0.116568
  39 H :    0.115012
  40 H :    0.131973
Sum of atomic charges:   -0.0000000

LOEWDIN ATOMIC CHARGES
----------------------
   0 C :   -0.351041
   1 C :   -0.122555
   2 O :   -0.253724
   3 P :    0.565201
   4 S :   -0.313436
   5 O :   -0.232701
   6 C :   -0.115485
   7 C :   -0.352583
   8 S :    0.075441
   9 C :   -0.479389
  10 S :    0.078742
  11 P :    0.564840
  12 S :   -0.289386
  13 O :   -0.223672
  14 C :   -0.118662
  15 C :   -0.360817
  16 O :   -0.247623
  17 C :   -0.118137
  18 C :   -0.371397
  19 H :    0.127209
  20 H :    0.125703
  21 H :    0.129990
  22 H :    0.108949
  23 H :    0.105359
  24 H :    0.106977
  25 H :    0.110915
  26 H :    0.121899
  27 H :    0.127282
  28 H :    0.126326
  29 H :    0.138061
  30 H :    0.127050
  31 H :    0.101043
  32 H :    0.119701
  33 H :    0.124943
  34 H :    0.128987
  35 H :    0.127404
  36 H :    0.117964
  37 H :    0.112435
  38 H :    0.122918
  39 H :    0.132175
  40 H :    0.123094

  Mayer bond orders larger than 0.100000
B(  0-C ,  1-C ) :   1.1611 B(  0-C , 19-H ) :   0.9512 B(  0-C , 20-H ) :   0.9510
B(  0-C , 21-H ) :   0.9424 B(  1-C ,  2-O ) :   0.9089 B(  1-C , 22-H ) :   0.9307
B(  1-C , 23-H ) :   0.9026 B(  2-O ,  3-P ) :   1.0937 B(  3-P ,  4-S ) :   1.6165
B(  3-P ,  5-O ) :   1.1529 B(  3-P ,  8-S ) :   0.9697 B(  4-S ,  8-S ) :   0.1185
B(  5-O ,  6-C ) :   0.8922 B(  6-C ,  7-C ) :   1.1655 B(  6-C , 24-H ) :   0.9277
B(  6-C , 25-H ) :   0.9141 B(  7-C , 26-H ) :   0.9502 B(  7-C , 27-H ) :   0.9411
B(  7-C , 28-H ) :   0.9415 B(  8-S ,  9-C ) :   0.9927 B(  9-C , 10-S ) :   1.0010
B(  9-C , 29-H ) :   0.9116 B(  9-C , 30-H ) :   0.8469 B( 10-S , 11-P ) :   0.9414
B( 10-S , 12-S ) :   0.1035 B( 11-P , 12-S ) :   1.6420 B( 11-P , 13-O ) :   1.1448
B( 11-P , 16-O ) :   1.0813 B( 13-O , 14-C ) :   0.8927 B( 14-C , 15-C ) :   1.1630
B( 14-C , 31-H ) :   0.9083 B( 14-C , 32-H ) :   0.9332 B( 15-C , 33-H ) :   0.9403
B( 15-C , 34-H ) :   0.9397 B( 15-C , 35-H ) :   0.9477 B( 16-O , 17-C ) :   0.9060
B( 17-C , 18-C ) :   1.1662 B( 17-C , 36-H ) :   0.9339 B( 17-C , 37-H ) :   0.9154
B( 18-C , 38-H ) :   0.9440 B( 18-C , 39-H ) :   0.9374 B( 18-C , 40-H ) :   0.9349

Dispersion correction           -0.066735494
FINAL SINGLE POINT ENERGY     -2929.522003254075

DIPOLE MOMENT
-------------

Method             : SCF
Type of density    : Electron Density
Multiplicity       :   1
Irrep              :   0
Energy             : -2929.6404161363579988 Eh
Relativity type    :
Basis              : AO
                                X                 Y                 Z
Electronic contribution:      0.435434185      -5.942901610     -11.083319950
Nuclear contribution   :     -0.704159383       5.318846469      12.159786676
                        -----------------------------------------
Total Dipole Moment    :     -0.268725198      -0.624055141       1.076466727
                        -----------------------------------------
Magnitude (a.u.)       :      1.272964518
Magnitude (Debye)      :      3.235618666

Rotational constants in cm-1:             0.012867             0.005167             0.004990
Rotational constants in MHz :           385.740943           154.909870           149.595063

                             ****ORCA TERMINATED NORMALLY****
TOTAL RUN TIME: 0 days 0 hours 0 minutes 21 seconds 440 msec
