                         Program Version 6.0.0  -   RELEASE  -
|  1> ! pbe def2-sv(p) def2/J RI DEFGRID1 loosescf d4 GCP(DFT/SV(P)) printgap
|  2> %output
|  3>     printlevel normal
|  4> end
|  5> * xyz 0 1
|  6> C 4.0215604874 -0.961288426 -2.2514355062
|  7> C 4.6087605037 -0.0780037957 -1.1709519295
|  8> O 3.598763849 0.6056128734 -0.3867451225
|  9> P 2.5179742098 -0.0803134432 0.5392067906
| 10> S 2.0213156274 1.0923509335 2.0266573611
| 11> O 3.2018330051 -1.4552903013 0.9428714285
| 12> C 2.7800890325 -2.2016961486 2.0988921877
| 13> C 1.348815465 -2.6813301917 1.9742728967
| 14> S 0.946986995 -0.6581938034 -0.7925470384
| 15> C 0.4256900358 1.0169182844 -1.2334506816
| 16> S -0.7222648096 1.766512877 -0.0371359859
| 17> P -2.2744801976 0.3647173586 -0.3162573325
| 18> S -2.5617703223 -0.2930586127 -2.1437084661
| 19> O -3.5426441515 1.0372411642 0.3654189837
| 20> C -4.459202185 1.8722513272 -0.362861559
| 21> C -3.8337123524 3.1923348053 -0.765343433
| 22> O -1.8675881189 -0.7183733575 0.7654468506
| 23> C -2.3162544744 -2.0880361997 0.6788659789
| 24> C -3.8120836842 -2.205439305 0.8814691185
| 25> H 3.3545442992 -0.3917067849 -2.893693066
| 26> H 4.8314290069 -1.3653799832 -2.8510134418
| 27> H 3.4645427124 -1.7837286308 -1.8084136305
| 28> H 5.1884569048 0.7440014404 -1.5940854327
| 29> H 5.2307808736 -0.6598362668 -0.4887869918
| 30> H 3.4844113808 -3.0334981505 2.1431281418
| 31> H 2.8942516406 -1.5644406636 2.9811401638
| 32> H 1.1084476412 -3.320060261 2.8182215976
| 33> H 0.674988943 -1.8241400402 1.97589323
| 34> H 1.2119232032 -3.2342441039 1.0478670163
| 35> H -0.0721993116 0.939529645 -2.1996685217
| 36> H 1.2928723595 1.6727828028 -1.2826151127
| 37> H -4.7983694826 1.3230746899 -1.2473449609
| 38> H -5.2903973289 2.0145360426 0.3290808722
| 39> H -3.3976925978 3.6833986453 0.1013027896
| 40> H -3.0490978546 3.0240361256 -1.5019464533
| 41> H -4.5940149759 3.833400254 -1.1998602949
| 42> H -2.022372555 -2.4836374038 -0.2986768663
| 43> H -1.7597725285 -2.5961755152 1.4672582548
| 44> H -4.1032392168 -1.7279047392 1.8134836307
| 45> H -4.3364095974 -1.7205660878 0.0586681684
| 46> H -4.0902381869 -3.2543060641 0.9076898703
| 47> *
| 48>
| 49>                          ****END OF INPUT****

CARTESIAN COORDINATES (ANGSTROEM)
---------------------------------
  C      4.021560   -0.961288   -2.251436
  C      4.608761   -0.078004   -1.170952
  O      3.598764    0.605613   -0.386745
  P      2.517974   -0.080313    0.539207
  S      2.021316    1.092351    2.026657
  O      3.201833   -1.455290    0.942871
  C      2.780089   -2.201696    2.098892
  C      1.348815   -2.681330    1.974273
  S      0.946987   -0.658194   -0.792547
  C      0.425690    1.016918   -1.233451
  S     -0.722265    1.766513   -0.037136
  P     -2.274480    0.364717   -0.316257
  S     -2.561770   -0.293059   -2.143708
  O     -3.542644    1.037241    0.365419
  C     -4.459202    1.872251   -0.362862
  C     -3.833712    3.192335   -0.765343
  O     -1.867588   -0.718373    0.765447
  C     -2.316254   -2.088036    0.678866
  C     -3.812084   -2.205439    0.881469
  H      3.354544   -0.391707   -2.893693
  H      4.831429   -1.365380   -2.851013
  H      3.464543   -1.783729   -1.808414
  H      5.188457    0.744001   -1.594085
  H      5.230781   -0.659836   -0.488787
  H      3.484411   -3.033498    2.143128
  H      2.894252   -1.564441    2.981140
  H      1.108448   -3.320060    2.818222
  H      0.674989   -1.824140    1.975893
  H      1.211923   -3.234244    1.047867
  H     -0.072199    0.939530   -2.199669
  H      1.292872    1.672783   -1.282615
  H     -4.798369    1.323075   -1.247345
  H     -5.290397    2.014536    0.329081
  H     -3.397693    3.683399    0.101303
  H     -3.049098    3.024036   -1.501946
  H     -4.594015    3.833400   -1.199860
  H     -2.022373   -2.483637   -0.298677
  H     -1.759773   -2.596176    1.467258
  H     -4.103239   -1.727905    1.813484
  H     -4.336410   -1.720566    0.058668
  H     -4.090238   -3.254306    0.907690

 Total Charge           Charge          ....    0
 Multiplicity           Mult            ....    1
 Number of Electrons    NEL             ....  202
 Basis Dimension        Dim             ....  334

ORBITAL ENERGIES
----------------

  NO   OCC          E(Eh)            E(eV)
   0   2.0000     -88.038220     -2395.6418
   1   2.0000     -88.036037     -2395.5823
   2   2.0000     -87.987988     -2394.2749
   3   2.0000     -87.979466     -2394.0430
   4   2.0000     -76.425195     -2079.6353
   5   2.0000     -76.423568     -2079.5910
   6   2.0000     -18.798781      -511.5408
   7   2.0000     -18.791528      -511.3435
   8   2.0000     -18.791473      -511.3420
   9   2.0000     -18.786093      -511.1956
  10   2.0000      -9.958324      -270.9798
  11   2.0000      -9.956962      -270.9427
  12   2.0000      -9.953910      -270.8597
  13   2.0000      -9.951319      -270.7891
  14   2.0000      -9.948614      -270.7155
  15   2.0000      -9.888183      -269.0711
  16   2.0000      -9.886990      -269.0387
  17   2.0000      -9.882248      -268.9096
  18   2.0000      -9.881749      -268.8961
  19   2.0000      -7.682796      -209.0595
  20   2.0000      -7.681209      -209.0163
  21   2.0000      -7.632932      -207.7026
  22   2.0000      -7.624597      -207.4758
  23   2.0000      -6.422434      -174.7633
  24   2.0000      -6.421183      -174.7293
  25   2.0000      -5.710536      -155.3916
  26   2.0000      -5.709035      -155.3507
  27   2.0000      -5.707586      -155.3113
  28   2.0000      -5.705928      -155.2662
  29   2.0000      -5.699673      -155.0960
  30   2.0000      -5.697976      -155.0498
  31   2.0000      -5.661565      -154.0590
  32   2.0000      -5.653621      -153.8428
  33   2.0000      -5.653614      -153.8426
  34   2.0000      -5.653342      -153.8353
  35   2.0000      -5.645470      -153.6210
  36   2.0000      -5.644422      -153.5925
  37   2.0000      -4.645760      -126.4176
  38   2.0000      -4.643993      -126.3695
  39   2.0000      -4.643591      -126.3585
  40   2.0000      -4.642908      -126.3399
  41   2.0000      -4.642395      -126.3260
  42   2.0000      -4.641816      -126.3102
  43   2.0000      -0.990537       -26.9539
  44   2.0000      -0.984329       -26.7849
  45   2.0000      -0.947203       -25.7747
  46   2.0000      -0.943343       -25.6697
  47   2.0000      -0.760991       -20.7076
  48   2.0000      -0.719648       -19.5826
  49   2.0000      -0.707863       -19.2619
  50   2.0000      -0.693782       -18.8788
  51   2.0000      -0.685134       -18.6434
  52   2.0000      -0.673858       -18.3366
  53   2.0000      -0.650450       -17.6996
  54   2.0000      -0.635628       -17.2963
  55   2.0000      -0.600140       -16.3306
  56   2.0000      -0.593196       -16.1417
  57   2.0000      -0.582098       -15.8397
  58   2.0000      -0.570046       -15.5117
  59   2.0000      -0.556712       -15.1489
  60   2.0000      -0.498306       -13.5596
  61   2.0000      -0.490406       -13.3446
  62   2.0000      -0.472689       -12.8625
  63   2.0000      -0.472058       -12.8453
  64   2.0000      -0.459184       -12.4950
  65   2.0000      -0.450004       -12.2452
  66   2.0000      -0.437970       -11.9178
  67   2.0000      -0.436491       -11.8775
  68   2.0000      -0.428373       -11.6566
  69   2.0000      -0.420993       -11.4558
  70   2.0000      -0.409377       -11.1397
  71   2.0000      -0.401041       -10.9129
  72   2.0000      -0.392142       -10.6707
  73   2.0000      -0.385114       -10.4795
  74   2.0000      -0.377944       -10.2844
  75   2.0000      -0.373407       -10.1609
  76   2.0000      -0.367289        -9.9944
  77   2.0000      -0.360469        -9.8088
  78   2.0000      -0.353691        -9.6244
  79   2.0000      -0.353264        -9.6128
  80   2.0000      -0.348640        -9.4870
  81   2.0000      -0.346475        -9.4281
  82   2.0000      -0.343108        -9.3365
  83   2.0000      -0.338664        -9.2155
  84   2.0000      -0.330866        -9.0033
  85   2.0000      -0.321634        -8.7521
  86   2.0000      -0.312223        -8.4960
  87   2.0000      -0.298944        -8.1347
  88   2.0000      -0.296803        -8.0764
  89   2.0000      -0.293420        -7.9844
  90   2.0000      -0.281454        -7.6587
  91   2.0000      -0.273904        -7.4533
  92   2.0000      -0.271183        -7.3793
  93   2.0000      -0.262270        -7.1367
  94   2.0000      -0.258256        -7.0275
  95   2.0000      -0.232731        -6.3329
  96   2.0000      -0.213435        -5.8079
  97   2.0000      -0.210158        -5.7187
  98   2.0000      -0.205805        -5.6002
  99   2.0000      -0.197137        -5.3644
 100   2.0000      -0.185032        -5.0350
 101   0.0000      -0.041070        -1.1176
 102   0.0000      -0.025293        -0.6883
 103   0.0000      -0.003862        -0.1051
 104   0.0000       0.005938         0.1616
 105   0.0000       0.017813         0.4847

MULLIKEN ATOMIC CHARGES
-----------------------
   0 C :   -0.312680
   1 C :    0.006275
   2 O :   -0.371394
   3 P :    0.594731
   4 S :   -0.303533
   5 O :   -0.386352
   6 C :    0.013435
   7 C :   -0.361759
   8 S :   -0.084491
   9 C :   -0.365443
  10 S :   -0.040044
  11 P :    0.603808
  12 S :   -0.346496
  13 O :   -0.369881
  14 C :   -0.004492
  15 C :   -0.315727
  16 O :   -0.354363
  17 C :   -0.011233
  18 C :   -0.302976
  19 H :    0.118996
  20 H :    0.112405
  21 H :    0.125764
  22 H :    0.110248
  23 H :    0.109348
  24 H :    0.103892
  25 H :    0.115479
  26 H :    0.115824
  27 H :    0.157849
  28 H :    0.119078
  29 H :    0.192702
  30 H :    0.185347
  31 H :    0.109950
  32 H :    0.105874
  33 H :    0.121249
  34 H :    0.125766
  35 H :    0.112545
  36 H :    0.110255
  37 H :    0.110414
  38 H :    0.117932
  39 H :    0.121882
  40 H :    0.109814
Sum of atomic charges:   -0.0000000

LOEWDIN ATOMIC CHARGES
----------------------
   0 C :   -0.368738
   1 C :   -0.107324
   2 O :   -0.246267
   3 P :    0.569205
   4 S :   -0.311266
   5 O :   -0.247270
   6 C :   -0.115300
   7 C :   -0.377621
   8 S :    0.084545
   9 C :   -0.482333
  10 S :    0.108549
  11 P :    0.571516
  12 S :   -0.332022
  13 O :   -0.242407
  14 C :   -0.119037
  15 C :   -0.369557
  16 O :   -0.236220
  17 C :   -0.117456
  18 C :   -0.365335
  19 H :    0.125368
  20 H :    0.130598
  21 H :    0.119685
  22 H :    0.122002
  23 H :    0.115326
  24 H :    0.118254
  25 H :    0.114941
  26 H :    0.132126
  27 H :    0.128423
  28 H :    0.122682
  29 H :    0.130181
  30 H :    0.132927
  31 H :    0.109764
  32 H :    0.119020
  33 H :    0.126088
  34 H :    0.120770
  35 H :    0.130797
  36 H :    0.109585
  37 H :    0.117597
  38 H :    0.127076
  39 H :    0.121611
  40 H :    0.129516

  Mayer bond orders larger than 0.100000
B(  0-C ,  1-C ) :   1.1709 B(  0-C , 19-H ) :   0.9443 B(  0-C , 20-H ) :   0.9351
B(  0-C , 21-H ) :   0.9388 B(  1-C ,  2-O ) :   0.8985 B(  1-C , 22-H ) :   0.9356
B(  1-C , 23-H ) :   0.9279 B(  2-O ,  3-P ) :   1.1083 B(  3-P ,  4-S ) :   1.6683
B(  3-P ,  5-O ) :   1.0730 B(  3-P ,  8-S ) :   0.9442 B(  4-S ,  8-S ) :   0.1151
B(  5-O ,  6-C ) :   0.9011 B(  6-C ,  7-C ) :   1.1638 B(  6-C , 24-H ) :   0.9327
B(  6-C , 25-H ) :   0.9171 B(  7-C , 26-H ) :   0.9364 B(  7-C , 27-H ) :   0.9210
B(  7-C , 28-H ) :   0.9429 B(  8-S ,  9-C ) :   0.9968 B(  9-C , 10-S ) :   1.0035
B(  9-C , 29-H ) :   0.8824 B(  9-C , 30-H ) :   0.8943 B( 10-S , 11-P ) :   0.9796
B( 10-S , 12-S ) :   0.1098 B( 11-P , 12-S ) :   1.5699 B( 11-P , 13-O ) :   1.1110
B( 11-P , 16-O ) :   1.1299 B( 13-O , 14-C ) :   0.9095 B( 14-C , 15-C ) :   1.1663
B( 14-C , 31-H ) :   0.9159 B( 14-C , 32-H ) :   0.9339 B( 15-C , 33-H ) :   0.9446
B( 15-C , 34-H ) :   0.9355 B( 15-C , 35-H ) :   0.9378 B( 16-O , 17-C ) :   0.9052
B( 17-C , 18-C ) :   1.1654 B( 17-C , 36-H ) :   0.9175 B( 17-C , 37-H ) :   0.9291
B( 18-C , 38-H ) :   0.9453 B( 18-C , 39-H ) :   0.9350 B( 18-C , 40-H ) :   0.9392

Dispersion correction           -0.066001562
FINAL SINGLE POINT ENERGY     -2929.517471870165

DIPOLE MOMENT
-------------

Method             : SCF
Type of density    : Electron Density
Multiplicity       :   1
Irrep              :   0
Energy             : -2929.6364752073527598 Eh
Relativity type    :
Basis              : AO
                                X                 Y                 Z
Electronic contribution:      4.913357006      10.372563788       1.535862323
Nuclear contribution   :     -4.669623825     -11.317135667      -1.762696377
                        -----------------------------------------
Total Dipole Moment    :      0.243733181      -0.944571879      -0.226834055
                        -----------------------------------------
Magnitude (a.u.)       :      1.001536613
Magnitude (Debye)      :      2.545703759

Rotational constants in cm-1:             0.012778             0.004819             0.004488
Rotational constants in MHz :           383.068899           144.459995           134.560874

                             ****ORCA TERMINATED NORMALLY****
TOTAL RUN TIME: 0 days 0 hours 0 minutes 21 seconds 185 msec
