                         Program Version 6.0.0  -   RELEASE  -
|  1> ! pbe def2-sv(p) def2/J RI DEFGRID1 loosescf d4 GCP(DFT/SV(P)) printgap
|  2> %output
|  3>     printlevel normal
|  4> end
|  5> * xyz 0 1
|  6> C 4.1630609827 0.5075304242 -2.3879366418
|  7> C 2.8435477069 -0.2113611932 -2.1983838362
|  8> O 2.0230001405 0.4676607275 -1.2150486935
|  9> P 1.9707102429 0.106429642 0.3163402574
| 10> S 0.8285314175 1.3419589921 1.312037588
| 11> O 3.4993891378 0.1329614921 0.754310298
| 12> C 3.9091465826 0.2206368138 2.1300445809
| 13> C 3.5493195917 -1.0240010039 2.9149281537
| 14> S 1.5341139732 -1.9796340921 0.3702003007
| 15> C -0.0833853501 -1.9978822047 -0.438885986
| 16> S -1.4733208937 -1.5514321527 0.6657891728
| 17> P -2.1601739486 0.1851157138 -0.2956116515
| 18> S -1.1571754789 0.8453591519 -1.8528061817
| 19> O -2.3135388419 1.1263548147 0.9606959229
| 20> C -2.6734913794 2.5185980396 0.823895991
| 21> C -2.3790027838 3.200173487 2.1431278874
| 22> O -3.700970804 -0.070643848 -0.6349149053
| 23> C -4.1454946287 -0.6348842559 -1.8788577833
| 24> C -3.7149177617 -2.0792073648 -2.0366188369
| 25> H 4.7489504505 0.4678879122 -1.4737012778
| 26> H 4.7145251503 0.0274389997 -3.1902812384
| 27> H 3.98531672 1.5479195325 -2.6467964787
| 28> H 2.9993431072 -1.2453482966 -1.8785303326
| 29> H 2.2409860893 -0.1862365955 -3.1089428608
| 30> H 4.9892223506 0.3621611793 2.071175949
| 31> H 3.441024101 1.1051853092 2.5733150648
| 32> H 2.4676976996 -1.0992713693 3.0189729974
| 33> H 3.9150290725 -1.9121569934 2.4057443873
| 34> H 3.9927995771 -0.9649529744 3.9036761471
| 35> H -0.2354114071 -3.0250878477 -0.7590596059
| 36> H -0.0796280367 -1.3049516364 -1.2855964478
| 37> H -2.0797925341 2.9524186308 0.0112880655
| 38> H -3.7342313407 2.5730534945 0.5643416536
| 39> H -2.6285544316 4.2532449472 2.0664750109
| 40> H -2.9623398239 2.7415028799 2.9357579659
| 41> H -1.3224977342 3.0930747854 2.3786723454
| 42> H -5.2311754108 -0.5390089658 -1.8355226466
| 43> H -3.7484021937 -0.0230034831 -2.6953141519
| 44> H -4.0071333934 -2.6576824887 -1.1638950159
| 45> H -4.1819382888 -2.4982219593 -2.9220340007
| 46> H -2.632748642 -2.1308656282 -2.1497574268
| 47> *
| 48>
| 49>                          ****END OF INPUT****

CARTESIAN COORDINATES (ANGSTROEM)
---------------------------------
  C      4.163061    0.507530   -2.387937
  C      2.843548   -0.211361   -2.198384
  O      2.023000    0.467661   -1.215049
  P      1.970710    0.106430    0.316340
  S      0.828531    1.341959    1.312038
  O      3.499389    0.132961    0.754310
  C      3.909147    0.220637    2.130045
  C      3.549320   -1.024001    2.914928
  S      1.534114   -1.979634    0.370200
  C     -0.083385   -1.997882   -0.438886
  S     -1.473321   -1.551432    0.665789
  P     -2.160174    0.185116   -0.295612
  S     -1.157175    0.845359   -1.852806
  O     -2.313539    1.126355    0.960696
  C     -2.673491    2.518598    0.823896
  C     -2.379003    3.200173    2.143128
  O     -3.700971   -0.070644   -0.634915
  C     -4.145495   -0.634884   -1.878858
  C     -3.714918   -2.079207   -2.036619
  H      4.748950    0.467888   -1.473701
  H      4.714525    0.027439   -3.190281
  H      3.985317    1.547920   -2.646796
  H      2.999343   -1.245348   -1.878530
  H      2.240986   -0.186237   -3.108943
  H      4.989222    0.362161    2.071176
  H      3.441024    1.105185    2.573315
  H      2.467698   -1.099271    3.018973
  H      3.915029   -1.912157    2.405744
  H      3.992800   -0.964953    3.903676
  H     -0.235411   -3.025088   -0.759060
  H     -0.079628   -1.304952   -1.285596
  H     -2.079793    2.952419    0.011288
  H     -3.734231    2.573053    0.564342
  H     -2.628554    4.253245    2.066475
  H     -2.962340    2.741503    2.935758
  H     -1.322498    3.093075    2.378672
  H     -5.231175   -0.539009   -1.835523
  H     -3.748402   -0.023003   -2.695314
  H     -4.007133   -2.657682   -1.163895
  H     -4.181938   -2.498222   -2.922034
  H     -2.632749   -2.130866   -2.149757

 Total Charge           Charge          ....    0
 Multiplicity           Mult            ....    1
 Number of Electrons    NEL             ....  202
 Basis Dimension        Dim             ....  334

ORBITAL ENERGIES
----------------

  NO   OCC          E(Eh)            E(eV)
   0   2.0000     -88.041811     -2395.7395
   1   2.0000     -88.038268     -2395.6431
   2   2.0000     -87.982721     -2394.1316
   3   2.0000     -87.976311     -2393.9571
   4   2.0000     -76.421059     -2079.5227
   5   2.0000     -76.418922     -2079.4646
   6   2.0000     -18.790567      -511.3173
   7   2.0000     -18.786759      -511.2137
   8   2.0000     -18.780627      -511.0468
   9   2.0000     -18.780209      -511.0355
  10   2.0000      -9.956275      -270.9240
  11   2.0000      -9.951830      -270.8031
  12   2.0000      -9.951351      -270.7900
  13   2.0000      -9.946627      -270.6615
  14   2.0000      -9.943707      -270.5820
  15   2.0000      -9.883557      -268.9453
  16   2.0000      -9.883320      -268.9388
  17   2.0000      -9.883097      -268.9327
  18   2.0000      -9.876535      -268.7542
  19   2.0000      -7.686747      -209.1670
  20   2.0000      -7.683776      -209.0862
  21   2.0000      -7.627593      -207.5574
  22   2.0000      -7.621313      -207.3865
  23   2.0000      -6.418547      -174.6575
  24   2.0000      -6.416596      -174.6044
  25   2.0000      -5.714491      -155.4992
  26   2.0000      -5.711640      -155.4216
  27   2.0000      -5.711132      -155.4078
  28   2.0000      -5.708424      -155.3341
  29   2.0000      -5.703984      -155.2133
  30   2.0000      -5.700521      -155.1191
  31   2.0000      -5.656311      -153.9160
  32   2.0000      -5.650317      -153.7529
  33   2.0000      -5.648776      -153.7110
  34   2.0000      -5.647377      -153.6729
  35   2.0000      -5.641811      -153.5215
  36   2.0000      -5.641501      -153.5130
  37   2.0000      -4.641594      -126.3042
  38   2.0000      -4.640383      -126.2712
  39   2.0000      -4.638872      -126.2301
  40   2.0000      -4.638508      -126.2202
  41   2.0000      -4.638176      -126.2112
  42   2.0000      -4.637460      -126.1917
  43   2.0000      -0.984546       -26.7908
  44   2.0000      -0.978023       -26.6134
  45   2.0000      -0.942698       -25.6521
  46   2.0000      -0.934369       -25.4255
  47   2.0000      -0.759151       -20.6576
  48   2.0000      -0.717250       -19.5174
  49   2.0000      -0.706811       -19.2333
  50   2.0000      -0.688409       -18.7326
  51   2.0000      -0.682024       -18.5588
  52   2.0000      -0.672321       -18.2948
  53   2.0000      -0.647012       -17.6061
  54   2.0000      -0.631474       -17.1833
  55   2.0000      -0.595687       -16.2095
  56   2.0000      -0.586379       -15.9562
  57   2.0000      -0.573383       -15.6025
  58   2.0000      -0.566191       -15.4068
  59   2.0000      -0.553293       -15.0559
  60   2.0000      -0.498734       -13.5713
  61   2.0000      -0.496133       -13.5005
  62   2.0000      -0.472814       -12.8659
  63   2.0000      -0.465088       -12.6557
  64   2.0000      -0.450274       -12.2526
  65   2.0000      -0.445033       -12.1100
  66   2.0000      -0.435960       -11.8631
  67   2.0000      -0.430361       -11.7107
  68   2.0000      -0.425857       -11.5882
  69   2.0000      -0.421556       -11.4711
  70   2.0000      -0.411800       -11.2057
  71   2.0000      -0.391713       -10.6591
  72   2.0000      -0.388344       -10.5674
  73   2.0000      -0.382303       -10.4030
  74   2.0000      -0.379066       -10.3149
  75   2.0000      -0.366457        -9.9718
  76   2.0000      -0.360905        -9.8207
  77   2.0000      -0.354962        -9.6590
  78   2.0000      -0.350719        -9.5436
  79   2.0000      -0.348294        -9.4776
  80   2.0000      -0.346623        -9.4321
  81   2.0000      -0.344592        -9.3768
  82   2.0000      -0.337169        -9.1748
  83   2.0000      -0.332803        -9.0560
  84   2.0000      -0.326745        -8.8912
  85   2.0000      -0.314119        -8.5476
  86   2.0000      -0.307301        -8.3621
  87   2.0000      -0.293224        -7.9790
  88   2.0000      -0.290662        -7.9093
  89   2.0000      -0.288483        -7.8500
  90   2.0000      -0.283372        -7.7109
  91   2.0000      -0.267204        -7.2710
  92   2.0000      -0.265521        -7.2252
  93   2.0000      -0.258648        -7.0382
  94   2.0000      -0.256263        -6.9733
  95   2.0000      -0.236414        -6.4332
  96   2.0000      -0.216137        -5.8814
  97   2.0000      -0.204971        -5.5776
  98   2.0000      -0.202910        -5.5215
  99   2.0000      -0.188380        -5.1261
 100   2.0000      -0.184644        -5.0244
 101   0.0000      -0.037119        -1.0101
 102   0.0000      -0.028370        -0.7720
 103   0.0000      -0.013626        -0.3708
 104   0.0000       0.005548         0.1510
 105   0.0000       0.025289         0.6881

MULLIKEN ATOMIC CHARGES
-----------------------
   0 C :   -0.287399
   1 C :   -0.016019
   2 O :   -0.345736
   3 P :    0.606123
   4 S :   -0.307343
   5 O :   -0.382381
   6 C :    0.000777
   7 C :   -0.327193
   8 S :   -0.100329
   9 C :   -0.372760
  10 S :   -0.063918
  11 P :    0.618500
  12 S :   -0.322063
  13 O :   -0.362307
  14 C :   -0.004611
  15 C :   -0.284356
  16 O :   -0.380066
  17 C :    0.002319
  18 C :   -0.317495
  19 H :    0.121470
  20 H :    0.107198
  21 H :    0.121351
  22 H :    0.097925
  23 H :    0.109710
  24 H :    0.103245
  25 H :    0.112481
  26 H :    0.135773
  27 H :    0.118065
  28 H :    0.115377
  29 H :    0.183350
  30 H :    0.200351
  31 H :    0.109852
  32 H :    0.099136
  33 H :    0.106698
  34 H :    0.113477
  35 H :    0.134534
  36 H :    0.101933
  37 H :    0.106408
  38 H :    0.120029
  39 H :    0.110739
  40 H :    0.117158
Sum of atomic charges:   -0.0000000

LOEWDIN ATOMIC CHARGES
----------------------
   0 C :   -0.359348
   1 C :   -0.116964
   2 O :   -0.226808
   3 P :    0.565732
   4 S :   -0.301865
   5 O :   -0.248572
   6 C :   -0.118608
   7 C :   -0.373157
   8 S :    0.076334
   9 C :   -0.485089
  10 S :    0.092997
  11 P :    0.569904
  12 S :   -0.305297
  13 O :   -0.234605
  14 C :   -0.113540
  15 C :   -0.351147
  16 O :   -0.253963
  17 C :   -0.120709
  18 C :   -0.368879
  19 H :    0.125863
  20 H :    0.128504
  21 H :    0.129476
  22 H :    0.101284
  23 H :    0.120092
  24 H :    0.117532
  25 H :    0.112350
  26 H :    0.124615
  27 H :    0.122929
  28 H :    0.132469
  29 H :    0.135740
  30 H :    0.120954
  31 H :    0.112000
  32 H :    0.109851
  33 H :    0.128585
  34 H :    0.126064
  35 H :    0.128658
  36 H :    0.117306
  37 H :    0.107354
  38 H :    0.125363
  39 H :    0.129438
  40 H :    0.117160

  Mayer bond orders larger than 0.100000
B(  0-C ,  1-C ) :   1.1681 B(  0-C , 19-H ) :   0.9416 B(  0-C , 20-H ) :   0.9396
B(  0-C , 21-H ) :   0.9474 B(  1-C ,  2-O ) :   0.8966 B(  1-C , 22-H ) :   0.9078
B(  1-C , 23-H ) :   0.9323 B(  2-O ,  3-P ) :   1.1366 B(  3-P ,  4-S ) :   1.6669
B(  3-P ,  5-O ) :   1.0737 B(  3-P ,  8-S ) :   0.9454 B(  4-S ,  8-S ) :   0.1103
B(  5-O ,  6-C ) :   0.9074 B(  6-C ,  7-C ) :   1.1656 B(  6-C , 24-H ) :   0.9334
B(  6-C , 25-H ) :   0.9153 B(  7-C , 26-H ) :   0.9330 B(  7-C , 27-H ) :   0.9428
B(  7-C , 28-H ) :   0.9374 B(  8-S ,  9-C ) :   0.9965 B(  9-C , 10-S ) :   1.0028
B(  9-C , 29-H ) :   0.9092 B(  9-C , 30-H ) :   0.8463 B( 10-S , 11-P ) :   0.9678
B( 10-S , 12-S ) :   0.1189 B( 11-P , 12-S ) :   1.5945 B( 11-P , 13-O ) :   1.1476
B( 11-P , 16-O ) :   1.0814 B( 12-S , 30-H ) :   0.1107 B( 13-O , 14-C ) :   0.8946
B( 14-C , 15-C ) :   1.1635 B( 14-C , 31-H ) :   0.9153 B( 14-C , 32-H ) :   0.9301
B( 15-C , 33-H ) :   0.9412 B( 15-C , 34-H ) :   0.9497 B( 15-C , 35-H ) :   0.9458
B( 16-O , 17-C ) :   0.9251 B( 17-C , 18-C ) :   1.1624 B( 17-C , 36-H ) :   0.9339
B( 17-C , 37-H ) :   0.9134 B( 18-C , 38-H ) :   0.9432 B( 18-C , 39-H ) :   0.9383
B( 18-C , 40-H ) :   0.9381

Dispersion correction           -0.066552242
FINAL SINGLE POINT ENERGY     -2929.516591076712

DIPOLE MOMENT
-------------

Method             : SCF
Type of density    : Electron Density
Multiplicity       :   1
Irrep              :   0
Energy             : -2929.6346002565501294 Eh
Relativity type    :
Basis              : AO
                                X                 Y                 Z
Electronic contribution:     -4.204293778      -1.907129572       2.578439163
Nuclear contribution   :      4.533227545       1.244994431      -3.018252588
                        -----------------------------------------
Total Dipole Moment    :      0.328933767      -0.662135141      -0.439813425
                        -----------------------------------------
Magnitude (a.u.)       :      0.860265201
Magnitude (Debye)      :      2.186620368

Rotational constants in cm-1:             0.011445             0.005423             0.004924
Rotational constants in MHz :           343.123291           162.579001           147.622866

                             ****ORCA TERMINATED NORMALLY****
TOTAL RUN TIME: 0 days 0 hours 0 minutes 20 seconds 810 msec
