                         Program Version 6.0.0  -   RELEASE  -
|  1> ! pbe def2-sv(p) def2/J RI DEFGRID1 loosescf d4 GCP(DFT/SV(P)) printgap
|  2> %output
|  3>     printlevel normal
|  4> end
|  5> * xyz 0 1
|  6> C 5.1579373079 1.1762805988 -0.818084721
|  7> C 4.7546544967 -0.2848971178 -0.8061853406
|  8> O 3.5612399603 -0.4995572962 -0.0309241999
|  9> P 2.1164606618 -0.0589824382 -0.5628829247
| 10> S 1.9124248611 -0.0637016865 -2.5028219375
| 11> O 1.8305610658 1.3601307888 0.0906709448
| 12> C 2.0371529684 1.6004197156 1.5027330049
| 13> C 1.1967588769 2.7951887208 1.9011873118
| 14> S 1.034605796 -1.4767657188 0.5712917905
| 15> C -0.2034531944 -2.009763292 -0.6634530745
| 16> S -1.8853849902 -1.9358936069 -0.0193868029
| 17> P -1.9934747204 0.1756158439 0.242700999
| 18> S -1.1717562166 1.2652713483 -1.1651138866
| 19> O -1.3558548136 0.4857348062 1.6508158788
| 20> C -1.4629115302 -0.3187432535 2.8535222762
| 21> C -2.8946509964 -0.615029393 3.2404286558
| 22> O -3.5363477418 0.4632430643 0.4841591684
| 23> C -4.4585692737 0.7171072485 -0.5882938151
| 24> C -4.6751889223 -0.5015039139 -1.4622977799
| 25> H 6.0628181105 1.2956179678 -1.4055982643
| 26> H 4.3633602708 1.7720233662 -1.2686490438
| 27> H 5.3379585797 1.5313936969 0.1934327476
| 28> H 5.5034776478 -0.9109158657 -0.3192718695
| 29> H 4.5750342157 -0.6412314498 -1.8252984542
| 30> H 1.7470587534 0.7018529326 2.057809717
| 31> H 3.1021981719 1.78817381 1.6571874508
| 32> H 0.1448453161 2.5847172344 1.7231983792
| 33> H 1.351582482 3.0072608411 2.9540412843
| 34> H 1.4794705909 3.6611749812 1.3093132863
| 35> H -0.0150715093 -3.0510987878 -0.911634967
| 36> H -0.1084272837 -1.3701062729 -1.5454329528
| 37> H -0.8979225942 -1.2420119311 2.6943355232
| 38> H -0.9616979944 0.2942760075 3.6041683743
| 39> H -3.3631162923 -1.2542438976 2.4951976911
| 40> H -2.9008152424 -1.1255865987 4.1984891445
| 41> H -3.462553796 0.3080891364 3.3198363388
| 42> H -5.3752166877 1.0135660792 -0.0764817431
| 43> H -4.0766644909 1.553115372 -1.1828216463
| 44> H -3.7682301956 -0.7245049579 -2.0222470235
| 45> H -4.9337741554 -1.3641503179 -0.8537316966
| 46> H -5.4782839394 -0.3005118359 -2.164111383
| 47> *
| 48>
| 49>                          ****END OF INPUT****

CARTESIAN COORDINATES (ANGSTROEM)
---------------------------------
  C      5.157937    1.176281   -0.818085
  C      4.754654   -0.284897   -0.806185
  O      3.561240   -0.499557   -0.030924
  P      2.116461   -0.058982   -0.562883
  S      1.912425   -0.063702   -2.502822
  O      1.830561    1.360131    0.090671
  C      2.037153    1.600420    1.502733
  C      1.196759    2.795189    1.901187
  S      1.034606   -1.476766    0.571292
  C     -0.203453   -2.009763   -0.663453
  S     -1.885385   -1.935894   -0.019387
  P     -1.993475    0.175616    0.242701
  S     -1.171756    1.265271   -1.165114
  O     -1.355855    0.485735    1.650816
  C     -1.462912   -0.318743    2.853522
  C     -2.894651   -0.615029    3.240429
  O     -3.536348    0.463243    0.484159
  C     -4.458569    0.717107   -0.588294
  C     -4.675189   -0.501504   -1.462298
  H      6.062818    1.295618   -1.405598
  H      4.363360    1.772023   -1.268649
  H      5.337959    1.531394    0.193433
  H      5.503478   -0.910916   -0.319272
  H      4.575034   -0.641231   -1.825298
  H      1.747059    0.701853    2.057810
  H      3.102198    1.788174    1.657187
  H      0.144845    2.584717    1.723198
  H      1.351582    3.007261    2.954041
  H      1.479471    3.661175    1.309313
  H     -0.015072   -3.051099   -0.911635
  H     -0.108427   -1.370106   -1.545433
  H     -0.897923   -1.242012    2.694336
  H     -0.961698    0.294276    3.604168
  H     -3.363116   -1.254244    2.495198
  H     -2.900815   -1.125587    4.198489
  H     -3.462554    0.308089    3.319836
  H     -5.375217    1.013566   -0.076482
  H     -4.076664    1.553115   -1.182822
  H     -3.768230   -0.724505   -2.022247
  H     -4.933774   -1.364150   -0.853732
  H     -5.478284   -0.300512   -2.164111

 Total Charge           Charge          ....    0
 Multiplicity           Mult            ....    1
 Number of Electrons    NEL             ....  202
 Basis Dimension        Dim             ....  334

ORBITAL ENERGIES
----------------

  NO   OCC          E(Eh)            E(eV)
   0   2.0000     -88.046073     -2395.8554
   1   2.0000     -88.039075     -2395.6650
   2   2.0000     -87.982196     -2394.1173
   3   2.0000     -87.978903     -2394.0277
   4   2.0000     -76.424944     -2079.6284
   5   2.0000     -76.419226     -2079.4729
   6   2.0000     -18.792350      -511.3659
   7   2.0000     -18.792027      -511.3570
   8   2.0000     -18.783634      -511.1287
   9   2.0000     -18.783257      -511.1184
  10   2.0000      -9.957253      -270.9506
  11   2.0000      -9.954416      -270.8734
  12   2.0000      -9.952255      -270.8146
  13   2.0000      -9.950000      -270.7533
  14   2.0000      -9.947510      -270.6855
  15   2.0000      -9.889248      -269.1001
  16   2.0000      -9.883605      -268.9466
  17   2.0000      -9.882803      -268.9248
  18   2.0000      -9.877280      -268.7745
  19   2.0000      -7.690852      -209.2787
  20   2.0000      -7.684021      -209.0929
  21   2.0000      -7.627450      -207.5535
  22   2.0000      -7.623762      -207.4531
  23   2.0000      -6.422072      -174.7535
  24   2.0000      -6.417230      -174.6217
  25   2.0000      -5.718720      -155.6143
  26   2.0000      -5.715202      -155.5186
  27   2.0000      -5.711901      -155.4287
  28   2.0000      -5.708675      -155.3409
  29   2.0000      -5.708049      -155.3239
  30   2.0000      -5.700794      -155.1265
  31   2.0000      -5.656530      -153.9220
  32   2.0000      -5.652796      -153.8204
  33   2.0000      -5.648271      -153.6973
  34   2.0000      -5.647178      -153.6675
  35   2.0000      -5.644294      -153.5891
  36   2.0000      -5.643911      -153.5786
  37   2.0000      -4.644851      -126.3928
  38   2.0000      -4.643975      -126.3690
  39   2.0000      -4.642234      -126.3216
  40   2.0000      -4.640038      -126.2619
  41   2.0000      -4.638636      -126.2237
  42   2.0000      -4.637823      -126.2016
  43   2.0000      -0.987091       -26.8601
  44   2.0000      -0.977653       -26.6033
  45   2.0000      -0.945961       -25.7409
  46   2.0000      -0.935939       -25.4682
  47   2.0000      -0.762020       -20.7356
  48   2.0000      -0.719222       -19.5710
  49   2.0000      -0.709203       -19.2984
  50   2.0000      -0.691077       -18.8052
  51   2.0000      -0.686098       -18.6697
  52   2.0000      -0.673445       -18.3254
  53   2.0000      -0.648377       -17.6432
  54   2.0000      -0.632675       -17.2160
  55   2.0000      -0.597797       -16.2669
  56   2.0000      -0.587871       -15.9968
  57   2.0000      -0.577079       -15.7031
  58   2.0000      -0.564170       -15.3518
  59   2.0000      -0.560063       -15.2401
  60   2.0000      -0.500696       -13.6246
  61   2.0000      -0.491769       -13.3817
  62   2.0000      -0.475196       -12.9308
  63   2.0000      -0.471279       -12.8242
  64   2.0000      -0.450582       -12.2609
  65   2.0000      -0.449188       -12.2230
  66   2.0000      -0.442063       -12.0291
  67   2.0000      -0.434219       -11.8157
  68   2.0000      -0.430261       -11.7080
  69   2.0000      -0.414195       -11.2708
  70   2.0000      -0.404206       -10.9990
  71   2.0000      -0.398379       -10.8404
  72   2.0000      -0.396857       -10.7990
  73   2.0000      -0.382542       -10.4095
  74   2.0000      -0.379277       -10.3207
  75   2.0000      -0.366244        -9.9660
  76   2.0000      -0.362424        -9.8621
  77   2.0000      -0.360991        -9.8231
  78   2.0000      -0.354453        -9.6452
  79   2.0000      -0.350522        -9.5382
  80   2.0000      -0.347394        -9.4531
  81   2.0000      -0.344164        -9.3652
  82   2.0000      -0.336211        -9.1488
  83   2.0000      -0.334231        -9.0949
  84   2.0000      -0.330924        -9.0049
  85   2.0000      -0.313070        -8.5191
  86   2.0000      -0.310001        -8.4355
  87   2.0000      -0.307101        -8.3566
  88   2.0000      -0.295164        -8.0318
  89   2.0000      -0.290685        -7.9099
  90   2.0000      -0.277691        -7.5564
  91   2.0000      -0.274953        -7.4818
  92   2.0000      -0.263548        -7.1715
  93   2.0000      -0.260177        -7.0798
  94   2.0000      -0.259323        -7.0565
  95   2.0000      -0.234861        -6.3909
  96   2.0000      -0.216040        -5.8787
  97   2.0000      -0.213626        -5.8131
  98   2.0000      -0.199423        -5.4266
  99   2.0000      -0.192000        -5.2246
 100   2.0000      -0.184672        -5.0252
 101   0.0000      -0.043207        -1.1757
 102   0.0000      -0.032240        -0.8773
 103   0.0000      -0.008216        -0.2236
 104   0.0000       0.009204         0.2504
 105   0.0000       0.024381         0.6634

MULLIKEN ATOMIC CHARGES
-----------------------
   0 C :   -0.318564
   1 C :   -0.006010
   2 O :   -0.397948
   3 P :    0.634387
   4 S :   -0.291957
   5 O :   -0.357234
   6 C :   -0.028482
   7 C :   -0.285556
   8 S :   -0.121548
   9 C :   -0.338596
  10 S :   -0.116886
  11 P :    0.589182
  12 S :   -0.281760
  13 O :   -0.356090
  14 C :   -0.007036
  15 C :   -0.300656
  16 O :   -0.374616
  17 C :   -0.000213
  18 C :   -0.319252
  19 H :    0.112349
  20 H :    0.132966
  21 H :    0.115676
  22 H :    0.102581
  23 H :    0.111558
  24 H :    0.103119
  25 H :    0.101387
  26 H :    0.140824
  27 H :    0.098894
  28 H :    0.116607
  29 H :    0.182663
  30 H :    0.208452
  31 H :    0.113477
  32 H :    0.105663
  33 H :    0.119385
  34 H :    0.113114
  35 H :    0.122098
  36 H :    0.103622
  37 H :    0.113751
  38 H :    0.131518
  39 H :    0.114730
  40 H :    0.114401
Sum of atomic charges:   -0.0000000

LOEWDIN ATOMIC CHARGES
----------------------
   0 C :   -0.365420
   1 C :   -0.119467
   2 O :   -0.264148
   3 P :    0.575093
   4 S :   -0.288898
   5 O :   -0.235829
   6 C :   -0.116630
   7 C :   -0.355248
   8 S :    0.074645
   9 C :   -0.475832
  10 S :    0.073115
  11 P :    0.563510
  12 S :   -0.288663
  13 O :   -0.232479
  14 C :   -0.116955
  15 C :   -0.366003
  16 O :   -0.243197
  17 C :   -0.117934
  18 C :   -0.371095
  19 H :    0.130977
  20 H :    0.127297
  21 H :    0.121356
  22 H :    0.117199
  23 H :    0.109204
  24 H :    0.101213
  25 H :    0.108340
  26 H :    0.131085
  27 H :    0.124584
  28 H :    0.128701
  29 H :    0.137067
  30 H :    0.125619
  31 H :    0.102788
  32 H :    0.119422
  33 H :    0.118124
  34 H :    0.131479
  35 H :    0.128835
  36 H :    0.118059
  37 H :    0.113138
  38 H :    0.123041
  39 H :    0.122141
  40 H :    0.131766

  Mayer bond orders larger than 0.100000
B(  0-C ,  1-C ) :   1.1594 B(  0-C , 19-H ) :   0.9389 B(  0-C , 20-H ) :   0.9365
B(  0-C , 21-H ) :   0.9429 B(  1-C ,  2-O ) :   0.9183 B(  1-C , 22-H ) :   0.9345
B(  1-C , 23-H ) :   0.9128 B(  2-O ,  3-P ) :   1.0620 B(  3-P ,  4-S ) :   1.6392
B(  3-P ,  5-O ) :   1.1103 B(  3-P ,  8-S ) :   0.9497 B(  4-S ,  8-S ) :   0.1065
B(  5-O ,  6-C ) :   0.9025 B(  6-C ,  7-C ) :   1.1650 B(  6-C , 24-H ) :   0.9121
B(  6-C , 25-H ) :   0.9267 B(  7-C , 26-H ) :   0.9334 B(  7-C , 27-H ) :   0.9400
B(  7-C , 28-H ) :   0.9477 B(  8-S ,  9-C ) :   1.0000 B(  9-C , 10-S ) :   1.0036
B(  9-C , 29-H ) :   0.9105 B(  9-C , 30-H ) :   0.8482 B( 10-S , 11-P ) :   0.9270
B( 10-S , 12-S ) :   0.1065 B( 11-P , 12-S ) :   1.6555 B( 11-P , 13-O ) :   1.1223
B( 11-P , 16-O ) :   1.0898 B( 13-O , 14-C ) :   0.8974 B( 14-C , 15-C ) :   1.1730
B( 14-C , 31-H ) :   0.9109 B( 14-C , 32-H ) :   0.9325 B( 15-C , 33-H ) :   0.9375
B( 15-C , 34-H ) :   0.9355 B( 15-C , 35-H ) :   0.9428 B( 16-O , 17-C ) :   0.9058
B( 17-C , 18-C ) :   1.1656 B( 17-C , 36-H ) :   0.9340 B( 17-C , 37-H ) :   0.9150
B( 18-C , 38-H ) :   0.9344 B( 18-C , 39-H ) :   0.9448 B( 18-C , 40-H ) :   0.9376

Dispersion correction           -0.068168233
FINAL SINGLE POINT ENERGY     -2929.516091449159

DIPOLE MOMENT
-------------

Method             : SCF
Type of density    : Electron Density
Multiplicity       :   1
Irrep              :   0
Energy             : -2929.6346769224078344 Eh
Relativity type    :
Basis              : AO
                                X                 Y                 Z
Electronic contribution:      1.451734207      -7.387678878     -10.734188226
Nuclear contribution   :     -1.669773557       7.048117009      12.259522719
                        -----------------------------------------
Total Dipole Moment    :     -0.218039350      -0.339561869       1.525334493
                        -----------------------------------------
Magnitude (a.u.)       :      1.577811375
Magnitude (Debye)      :      4.010477798

Rotational constants in cm-1:             0.013489             0.005231             0.004904
Rotational constants in MHz :           404.392053           156.807497           147.016419

                             ****ORCA TERMINATED NORMALLY****
TOTAL RUN TIME: 0 days 0 hours 0 minutes 21 seconds 884 msec
