                         Program Version 6.0.0  -   RELEASE  -
|  1> ! pbe def2-sv(p) def2/J RI DEFGRID1 loosescf d4 GCP(DFT/SV(P)) printgap
|  2> %output
|  3>     printlevel normal
|  4> end
|  5> * xyz 0 1
|  6> C 4.0237043395 0.0788748769 -2.6341018289
|  7> C 4.3027156148 0.7693284003 -1.3146547695
|  8> O 3.7598150199 0.0401741855 -0.2017218545
|  9> P 2.1978880622 -0.1118000646 0.0425120938
| 10> S 1.1830355626 1.5283858438 -0.3500879398
| 11> O 2.129554012 -0.6462038693 1.5295757631
| 12> C 2.0784307101 0.2215008675 2.6792999115
| 13> C 3.3358872955 1.0510414949 2.8223346152
| 14> S 1.7505429213 -1.9064192894 -0.9630239493
| 15> C 0.0136393284 -2.1379174315 -0.5018906163
| 16> S -1.1637802313 -1.1949204503 -1.5354515218
| 17> P -2.0308881328 0.0828135244 -0.0938143007
| 18> S -1.3553500814 -0.0658274755 1.7461565666
| 19> O -3.5870428791 -0.2406384012 -0.2078918931
| 20> C -4.1466191671 -1.4503744646 0.3349928433
| 21> C -5.6558863467 -1.3167910161 0.3120106391
| 22> O -1.9797181273 1.4743924587 -0.8285864657
| 23> C -2.0693604107 2.7354558387 -0.135117587
| 24> C -3.4147918682 2.9184587641 0.5332849112
| 25> H 4.3546916287 -0.9559041945 -2.5960068431
| 26> H 2.9542431618 0.0952988107 -2.8432278097
| 27> H 4.5458195776 0.5982256909 -3.4313017144
| 28> H 3.875068737 1.7774837021 -1.3104387479
| 29> H 5.3712503738 0.8168210515 -1.1009754179
| 30> H 1.1935914036 0.8602284305 2.5929265856
| 31> H 1.9440793806 -0.4672349802 3.5144567343
| 32> H 3.2960389904 1.603511178 3.7558766536
| 33> H 4.2116078871 0.4073623526 2.8162099659
| 34> H 3.4098338348 1.7568617985 1.9956758131
| 35> H -0.1293493074 -1.8560340914 0.5447840408
| 36> H -0.1905156811 -3.1929279067 -0.6615117481
| 37> H -3.8118264829 -2.290523756 -0.2809290955
| 38> H -3.7696848238 -1.5817078691 1.3552092276
| 39> H -6.1001874958 -2.2303342953 0.6930550713
| 40> H -5.9673365395 -0.4803488428 0.9310302693
| 41> H -5.995120582 -1.1468887297 -0.7055956364
| 42> H -1.2531254379 2.7877914258 0.5927078057
| 43> H -1.8959877687 3.4715592274 -0.9211387369
| 44> H -4.2127469538 2.7962201961 -0.1943725551
| 45> H -3.5395722197 2.1769324287 1.3219673795
| 46> H -3.4670171472 3.9110805887 0.9693966929
| 47> *
| 48>
| 49>                          ****END OF INPUT****

CARTESIAN COORDINATES (ANGSTROEM)
---------------------------------
  C      4.023704    0.078875   -2.634102
  C      4.302716    0.769328   -1.314655
  O      3.759815    0.040174   -0.201722
  P      2.197888   -0.111800    0.042512
  S      1.183036    1.528386   -0.350088
  O      2.129554   -0.646204    1.529576
  C      2.078431    0.221501    2.679300
  C      3.335887    1.051041    2.822335
  S      1.750543   -1.906419   -0.963024
  C      0.013639   -2.137917   -0.501891
  S     -1.163780   -1.194920   -1.535452
  P     -2.030888    0.082814   -0.093814
  S     -1.355350   -0.065827    1.746157
  O     -3.587043   -0.240638   -0.207892
  C     -4.146619   -1.450374    0.334993
  C     -5.655886   -1.316791    0.312011
  O     -1.979718    1.474392   -0.828586
  C     -2.069360    2.735456   -0.135118
  C     -3.414792    2.918459    0.533285
  H      4.354692   -0.955904   -2.596007
  H      2.954243    0.095299   -2.843228
  H      4.545820    0.598226   -3.431302
  H      3.875069    1.777484   -1.310439
  H      5.371250    0.816821   -1.100975
  H      1.193591    0.860228    2.592927
  H      1.944079   -0.467235    3.514457
  H      3.296039    1.603511    3.755877
  H      4.211608    0.407362    2.816210
  H      3.409834    1.756862    1.995676
  H     -0.129349   -1.856034    0.544784
  H     -0.190516   -3.192928   -0.661512
  H     -3.811826   -2.290524   -0.280929
  H     -3.769685   -1.581708    1.355209
  H     -6.100187   -2.230334    0.693055
  H     -5.967337   -0.480349    0.931030
  H     -5.995121   -1.146889   -0.705596
  H     -1.253125    2.787791    0.592708
  H     -1.895988    3.471559   -0.921139
  H     -4.212747    2.796220   -0.194373
  H     -3.539572    2.176932    1.321967
  H     -3.467017    3.911081    0.969397

 Total Charge           Charge          ....    0
 Multiplicity           Mult            ....    1
 Number of Electrons    NEL             ....  202
 Basis Dimension        Dim             ....  334

ORBITAL ENERGIES
----------------

  NO   OCC          E(Eh)            E(eV)
   0   2.0000     -88.039329     -2395.6719
   1   2.0000     -88.038404     -2395.6468
   2   2.0000     -87.987561     -2394.2633
   3   2.0000     -87.980814     -2394.0797
   4   2.0000     -76.423840     -2079.5984
   5   2.0000     -76.422010     -2079.5486
   6   2.0000     -18.789495      -511.2881
   7   2.0000     -18.786865      -511.2166
   8   2.0000     -18.785271      -511.1732
   9   2.0000     -18.784762      -511.1594
  10   2.0000      -9.954503      -270.8758
  11   2.0000      -9.949737      -270.7461
  12   2.0000      -9.948718      -270.7184
  13   2.0000      -9.947741      -270.6918
  14   2.0000      -9.942707      -270.5548
  15   2.0000      -9.886383      -269.0222
  16   2.0000      -9.881984      -268.9025
  17   2.0000      -9.880119      -268.8517
  18   2.0000      -9.878210      -268.7998
  19   2.0000      -7.684988      -209.1191
  20   2.0000      -7.683856      -209.0884
  21   2.0000      -7.632270      -207.6846
  22   2.0000      -7.625434      -207.4986
  23   2.0000      -6.421296      -174.7324
  24   2.0000      -6.419558      -174.6850
  25   2.0000      -5.712911      -155.4562
  26   2.0000      -5.711726      -155.4240
  27   2.0000      -5.709446      -155.3619
  28   2.0000      -5.708413      -155.3338
  29   2.0000      -5.701840      -155.1550
  30   2.0000      -5.700731      -155.1248
  31   2.0000      -5.660960      -154.0425
  32   2.0000      -5.654251      -153.8600
  33   2.0000      -5.653424      -153.8375
  34   2.0000      -5.652097      -153.8014
  35   2.0000      -5.646110      -153.6385
  36   2.0000      -5.645696      -153.6272
  37   2.0000      -4.643510      -126.3563
  38   2.0000      -4.642967      -126.3416
  39   2.0000      -4.642167      -126.3198
  40   2.0000      -4.642061      -126.3169
  41   2.0000      -4.641369      -126.2981
  42   2.0000      -4.640042      -126.2620
  43   2.0000      -0.983283       -26.7565
  44   2.0000      -0.982792       -26.7431
  45   2.0000      -0.942150       -25.6372
  46   2.0000      -0.940525       -25.5930
  47   2.0000      -0.758479       -20.6393
  48   2.0000      -0.719332       -19.5740
  49   2.0000      -0.705165       -19.1885
  50   2.0000      -0.685647       -18.6574
  51   2.0000      -0.683650       -18.6031
  52   2.0000      -0.670269       -18.2389
  53   2.0000      -0.650228       -17.6936
  54   2.0000      -0.633270       -17.2321
  55   2.0000      -0.601221       -16.3600
  56   2.0000      -0.591232       -16.0882
  57   2.0000      -0.569276       -15.4908
  58   2.0000      -0.562610       -15.3094
  59   2.0000      -0.558115       -15.1871
  60   2.0000      -0.500588       -13.6217
  61   2.0000      -0.488157       -13.2834
  62   2.0000      -0.472503       -12.8575
  63   2.0000      -0.469167       -12.7667
  64   2.0000      -0.449856       -12.2412
  65   2.0000      -0.444131       -12.0854
  66   2.0000      -0.435874       -11.8607
  67   2.0000      -0.431537       -11.7427
  68   2.0000      -0.425560       -11.5801
  69   2.0000      -0.414994       -11.2926
  70   2.0000      -0.408721       -11.1219
  71   2.0000      -0.394694       -10.7402
  72   2.0000      -0.389987       -10.6121
  73   2.0000      -0.383449       -10.4342
  74   2.0000      -0.379673       -10.3314
  75   2.0000      -0.372129       -10.1261
  76   2.0000      -0.369881       -10.0650
  77   2.0000      -0.355017        -9.6605
  78   2.0000      -0.351964        -9.5774
  79   2.0000      -0.345575        -9.4036
  80   2.0000      -0.343437        -9.3454
  81   2.0000      -0.340828        -9.2744
  82   2.0000      -0.339797        -9.2464
  83   2.0000      -0.334049        -9.0899
  84   2.0000      -0.329505        -8.9663
  85   2.0000      -0.310781        -8.4568
  86   2.0000      -0.309106        -8.4112
  87   2.0000      -0.297286        -8.0896
  88   2.0000      -0.292027        -7.9465
  89   2.0000      -0.283707        -7.7201
  90   2.0000      -0.277339        -7.5468
  91   2.0000      -0.271360        -7.3841
  92   2.0000      -0.268113        -7.2957
  93   2.0000      -0.260728        -7.0948
  94   2.0000      -0.255642        -6.9564
  95   2.0000      -0.235235        -6.4011
  96   2.0000      -0.222584        -6.0568
  97   2.0000      -0.210221        -5.7204
  98   2.0000      -0.205177        -5.5831
  99   2.0000      -0.194372        -5.2891
 100   2.0000      -0.185223        -5.0402
 101   0.0000      -0.036430        -0.9913
 102   0.0000      -0.028446        -0.7741
 103   0.0000      -0.011142        -0.3032
 104   0.0000       0.004580         0.1246
 105   0.0000       0.024228         0.6593

MULLIKEN ATOMIC CHARGES
-----------------------
   0 C :   -0.323906
   1 C :   -0.002674
   2 O :   -0.372671
   3 P :    0.615998
   4 S :   -0.331561
   5 O :   -0.367237
   6 C :   -0.008268
   7 C :   -0.306527
   8 S :   -0.082271
   9 C :   -0.358619
  10 S :   -0.077759
  11 P :    0.624889
  12 S :   -0.332690
  13 O :   -0.373996
  14 C :   -0.007005
  15 C :   -0.279730
  16 O :   -0.360075
  17 C :   -0.003630
  18 C :   -0.306118
  19 H :    0.119541
  20 H :    0.133766
  21 H :    0.113899
  22 H :    0.109978
  23 H :    0.104387
  24 H :    0.126224
  25 H :    0.102303
  26 H :    0.109795
  27 H :    0.115025
  28 H :    0.120348
  29 H :    0.200671
  30 H :    0.181546
  31 H :    0.092168
  32 H :    0.100057
  33 H :    0.109937
  34 H :    0.118145
  35 H :    0.117214
  36 H :    0.120802
  37 H :    0.107211
  38 H :    0.116815
  39 H :    0.123596
  40 H :    0.110422
Sum of atomic charges:   -0.0000000

LOEWDIN ATOMIC CHARGES
----------------------
   0 C :   -0.371284
   1 C :   -0.120629
   2 O :   -0.242452
   3 P :    0.570229
   4 S :   -0.316652
   5 O :   -0.238014
   6 C :   -0.119095
   7 C :   -0.366330
   8 S :    0.091865
   9 C :   -0.480291
  10 S :    0.082991
  11 P :    0.575982
  12 S :   -0.305963
  13 O :   -0.250466
  14 C :   -0.124578
  15 C :   -0.350069
  16 O :   -0.229444
  17 C :   -0.113798
  18 C :   -0.366495
  19 H :    0.124347
  20 H :    0.124136
  21 H :    0.131665
  22 H :    0.109497
  23 H :    0.118293
  24 H :    0.108673
  25 H :    0.118514
  26 H :    0.129479
  27 H :    0.125242
  28 H :    0.121197
  29 H :    0.123620
  30 H :    0.137014
  31 H :    0.104193
  32 H :    0.104877
  33 H :    0.129713
  34 H :    0.127349
  35 H :    0.127246
  36 H :    0.110513
  37 H :    0.121013
  38 H :    0.126295
  39 H :    0.121596
  40 H :    0.130022

  Mayer bond orders larger than 0.100000
B(  0-C ,  1-C ) :   1.1661 B(  0-C , 19-H ) :   0.9439 B(  0-C , 20-H ) :   0.9337
B(  0-C , 21-H ) :   0.9380 B(  1-C ,  2-O ) :   0.9083 B(  1-C , 22-H ) :   0.9132
B(  1-C , 23-H ) :   0.9330 B(  2-O ,  3-P ) :   1.1009 B(  3-P ,  4-S ) :   1.6073
B(  3-P ,  5-O ) :   1.1293 B(  3-P ,  8-S ) :   0.9673 B(  4-S ,  8-S ) :   0.1138
B(  5-O ,  6-C ) :   0.8997 B(  6-C ,  7-C ) :   1.1626 B(  6-C , 24-H ) :   0.9093
B(  6-C , 25-H ) :   0.9364 B(  7-C , 26-H ) :   0.9389 B(  7-C , 27-H ) :   0.9448
B(  7-C , 28-H ) :   0.9360 B(  8-S ,  9-C ) :   0.9988 B(  9-C , 10-S ) :   1.0006
B(  9-C , 29-H ) :   0.8495 B(  9-C , 30-H ) :   0.9122 B( 10-S , 11-P ) :   0.9622
B( 10-S , 12-S ) :   0.1175 B( 11-P , 12-S ) :   1.5741 B( 11-P , 13-O ) :   1.0904
B( 11-P , 16-O ) :   1.1587 B( 12-S , 29-H ) :   0.1049 B( 13-O , 14-C ) :   0.9144
B( 14-C , 15-C ) :   1.1611 B( 14-C , 31-H ) :   0.9219 B( 14-C , 32-H ) :   0.9106
B( 15-C , 33-H ) :   0.9424 B( 15-C , 34-H ) :   0.9523 B( 15-C , 35-H ) :   0.9505
B( 16-O , 17-C ) :   0.8958 B( 17-C , 18-C ) :   1.1644 B( 17-C , 36-H ) :   0.9156
B( 17-C , 37-H ) :   0.9356 B( 18-C , 38-H ) :   0.9448 B( 18-C , 39-H ) :   0.9341
B( 18-C , 40-H ) :   0.9380

Dispersion correction           -0.066492353
FINAL SINGLE POINT ENERGY     -2929.522295497861

DIPOLE MOMENT
-------------

Method             : SCF
Type of density    : Electron Density
Multiplicity       :   1
Irrep              :   0
Energy             : -2929.6403647484580688 Eh
Relativity type    :
Basis              : AO
                                X                 Y                 Z
Electronic contribution:      4.884604964      -8.446237121      -6.499110917
Nuclear contribution   :     -5.012641998       8.392465266       6.684729251
                        -----------------------------------------
Total Dipole Moment    :     -0.128037034      -0.053771856       0.185618334
                        -----------------------------------------
Magnitude (a.u.)       :      0.231816868
Magnitude (Debye)      :      0.589231652

Rotational constants in cm-1:             0.012822             0.005047             0.004706
Rotational constants in MHz :           384.401416           151.290656           141.084332

                             ****ORCA TERMINATED NORMALLY****
TOTAL RUN TIME: 0 days 0 hours 0 minutes 20 seconds 948 msec
