                         Program Version 6.0.0  -   RELEASE  -
|  1> ! r2scan-3c def2/J RI DEFGRID2 scfconv6 printgap
|  2> %output
|  3>     printlevel normal
|  4> end
|  5> * xyz 0 1
|  6> C 4.6894708035 0.1369371487 -1.872194487
|  7> C 4.4725716214 1.0511788637 -0.6840223385
|  8> O 3.5734517493 0.4852045854 0.2867574175
|  9> P 2.026833943 0.2622367954 -0.0012999205
| 10> S 1.1474526742 1.7024944298 -0.9903324424
| 11> O 1.418999992 0.089146902 1.4426689757
| 12> C 1.8204607463 -0.9254036624 2.3969857544
| 13> C 2.9286083178 -0.4215043176 3.2975566091
| 14> S 1.9617060378 -1.6671880654 -0.89251122
| 15> C 0.2070557361 -1.6859655817 -1.3150928785
| 16> S -0.8744206633 -1.8393339256 0.1490680431
| 17> P -2.0168333732 -0.0782355395 -0.0060515381
| 18> S -2.2499997824 0.6402754973 -1.8192143133
| 19> O -1.3584787254 0.8661912341 1.0771029472
| 20> C -1.5805895504 2.2893559942 1.0952270645
| 21> C -3.0200405804 2.6292121284 1.4140872925
| 22> O -3.3461953828 -0.5066670058 0.7567090329
| 23> C -4.3172128973 -1.3973208321 0.1724218563
| 24> C -5.4341203398 -0.6178491696 -0.4945150476
| 25> H 4.9648621304 -0.8600856561 -1.5378351391
| 26> H 3.7783356337 0.0699669845 -2.464413212
| 27> H 5.4818288054 0.5416058594 -2.4937255142
| 28> H 4.0672460855 2.0147701119 -1.0078117276
| 29> H 5.3947900659 1.2069428667 -0.1224446849
| 30> H 0.9077441818 -1.1344240499 2.9589505328
| 31> H 2.1290605823 -1.8223824687 1.8523386112
| 32> H 3.8280185306 -0.2295895744 2.7189739537
| 33> H 2.6226678464 0.4988998571 3.787506736
| 34> H 3.1397512457 -1.1750561342 4.0499194483
| 35> H 0.0557521518 -2.564487212 -1.9368154432
| 36> H -0.0611978308 -0.7717100194 -1.8527373643
| 37> H -0.8912854531 2.6481188578 1.86121969
| 38> H -1.285586097 2.6992875747 0.1231091616
| 39> H -3.3223513678 2.1481172431 2.3406315069
| 40> H -3.1217184153 3.7056498962 1.5102462206
| 41> H -3.6655136943 2.2821108412 0.6079019259
| 42> H -3.8184468493 -2.0566143461 -0.5438649499
| 43> H -4.6892018841 -1.9873302452 1.0120029984
| 44> H -5.9018380794 0.0524808874 0.2211937983
| 45> H -5.0405308487 -0.0314668613 -1.322064676
| 46> H -6.176323698 -1.311897977 -0.8751674507
| 47> *
| 48>
| 49>                          ****END OF INPUT****

CARTESIAN COORDINATES (ANGSTROEM)
---------------------------------
  C      4.689471    0.136937   -1.872194
  C      4.472572    1.051179   -0.684022
  O      3.573452    0.485205    0.286757
  P      2.026834    0.262237   -0.001300
  S      1.147453    1.702494   -0.990332
  O      1.419000    0.089147    1.442669
  C      1.820461   -0.925404    2.396986
  C      2.928608   -0.421504    3.297557
  S      1.961706   -1.667188   -0.892511
  C      0.207056   -1.685966   -1.315093
  S     -0.874421   -1.839334    0.149068
  P     -2.016833   -0.078236   -0.006052
  S     -2.250000    0.640275   -1.819214
  O     -1.358479    0.866191    1.077103
  C     -1.580590    2.289356    1.095227
  C     -3.020041    2.629212    1.414087
  O     -3.346195   -0.506667    0.756709
  C     -4.317213   -1.397321    0.172422
  C     -5.434120   -0.617849   -0.494515
  H      4.964862   -0.860086   -1.537835
  H      3.778336    0.069967   -2.464413
  H      5.481829    0.541606   -2.493726
  H      4.067246    2.014770   -1.007812
  H      5.394790    1.206943   -0.122445
  H      0.907744   -1.134424    2.958951
  H      2.129061   -1.822382    1.852339
  H      3.828019   -0.229590    2.718974
  H      2.622668    0.498900    3.787507
  H      3.139751   -1.175056    4.049919
  H      0.055752   -2.564487   -1.936815
  H     -0.061198   -0.771710   -1.852737
  H     -0.891285    2.648119    1.861220
  H     -1.285586    2.699288    0.123109
  H     -3.322351    2.148117    2.340632
  H     -3.121718    3.705650    1.510246
  H     -3.665514    2.282111    0.607902
  H     -3.818447   -2.056614   -0.543865
  H     -4.689202   -1.987330    1.012003
  H     -5.901838    0.052481    0.221194
  H     -5.040531   -0.031467   -1.322065
  H     -6.176324   -1.311898   -0.875167

 Total Charge           Charge          ....    0
 Multiplicity           Mult            ....    1
 Number of Electrons    NEL             ....  202
 Basis Dimension        Dim             ....  539

ORBITAL ENERGIES
----------------

  NO   OCC          E(Eh)            E(eV)
   0   2.0000     -88.575590     -2410.2643
   1   2.0000     -88.572616     -2410.1834
   2   2.0000     -88.513895     -2408.5855
   3   2.0000     -88.513451     -2408.5735
   4   2.0000     -76.911491     -2092.8681
   5   2.0000     -76.908198     -2092.7785
   6   2.0000     -18.993422      -516.8373
   7   2.0000     -18.986955      -516.6613
   8   2.0000     -18.986011      -516.6356
   9   2.0000     -18.979358      -516.4546
  10   2.0000     -10.104968      -274.9702
  11   2.0000     -10.099483      -274.8209
  12   2.0000     -10.097304      -274.7616
  13   2.0000     -10.095981      -274.7256
  14   2.0000     -10.084790      -274.4211
  15   2.0000     -10.029400      -272.9139
  16   2.0000     -10.028916      -272.9007
  17   2.0000     -10.022453      -272.7248
  18   2.0000     -10.019780      -272.6521
  19   2.0000      -7.870166      -214.1581
  20   2.0000      -7.867169      -214.0766
  21   2.0000      -7.808738      -212.4866
  22   2.0000      -7.808237      -212.4729
  23   2.0000      -6.589850      -179.3189
  24   2.0000      -6.586529      -179.2286
  25   2.0000      -5.817014      -158.2890
  26   2.0000      -5.813960      -158.2059
  27   2.0000      -5.813826      -158.2022
  28   2.0000      -5.810989      -158.1250
  29   2.0000      -5.807444      -158.0286
  30   2.0000      -5.804350      -157.9444
  31   2.0000      -5.756517      -156.6428
  32   2.0000      -5.755883      -156.6255
  33   2.0000      -5.748880      -156.4350
  34   2.0000      -5.748741      -156.4312
  35   2.0000      -5.748703      -156.4302
  36   2.0000      -5.748061      -156.4127
  37   2.0000      -4.735715      -128.8654
  38   2.0000      -4.734854      -128.8419
  39   2.0000      -4.733192      -128.7967
  40   2.0000      -4.731908      -128.7618
  41   2.0000      -4.731391      -128.7477
  42   2.0000      -4.730462      -128.7224
  43   2.0000      -1.049082       -28.5470
  44   2.0000      -1.042641       -28.3717
  45   2.0000      -1.008942       -27.4547
  46   2.0000      -1.002164       -27.2703
  47   2.0000      -0.798393       -21.7254
  48   2.0000      -0.755418       -20.5560
  49   2.0000      -0.745645       -20.2900
  50   2.0000      -0.733842       -19.9688
  51   2.0000      -0.724029       -19.7018
  52   2.0000      -0.708995       -19.2927
  53   2.0000      -0.683840       -18.6082
  54   2.0000      -0.662747       -18.0343
  55   2.0000      -0.627994       -17.0886
  56   2.0000      -0.619997       -16.8710
  57   2.0000      -0.607125       -16.5207
  58   2.0000      -0.597194       -16.2505
  59   2.0000      -0.589727       -16.0473
  60   2.0000      -0.524700       -14.2778
  61   2.0000      -0.515925       -14.0390
  62   2.0000      -0.493037       -13.4162
  63   2.0000      -0.485714       -13.2169
  64   2.0000      -0.467922       -12.7328
  65   2.0000      -0.460800       -12.5390
  66   2.0000      -0.456287       -12.4162
  67   2.0000      -0.451689       -12.2911
  68   2.0000      -0.444047       -12.0831
  69   2.0000      -0.432372       -11.7654
  70   2.0000      -0.423311       -11.5189
  71   2.0000      -0.413250       -11.2451
  72   2.0000      -0.405878       -11.0445
  73   2.0000      -0.399035       -10.8583
  74   2.0000      -0.393916       -10.7190
  75   2.0000      -0.384142       -10.4530
  76   2.0000      -0.381675       -10.3859
  77   2.0000      -0.373135       -10.1535
  78   2.0000      -0.366886        -9.9835
  79   2.0000      -0.365505        -9.9459
  80   2.0000      -0.360786        -9.8175
  81   2.0000      -0.355816        -9.6822
  82   2.0000      -0.350858        -9.5473
  83   2.0000      -0.347944        -9.4680
  84   2.0000      -0.342964        -9.3325
  85   2.0000      -0.327571        -8.9137
  86   2.0000      -0.322115        -8.7652
  87   2.0000      -0.309928        -8.4336
  88   2.0000      -0.305723        -8.3191
  89   2.0000      -0.304239        -8.2788
  90   2.0000      -0.292254        -7.9526
  91   2.0000      -0.285035        -7.7562
  92   2.0000      -0.277756        -7.5581
  93   2.0000      -0.275831        -7.5057
  94   2.0000      -0.271735        -7.3943
  95   2.0000      -0.247996        -6.7483
  96   2.0000      -0.233105        -6.3431
  97   2.0000      -0.225894        -6.1469
  98   2.0000      -0.215535        -5.8650
  99   2.0000      -0.205521        -5.5925
 100   2.0000      -0.197119        -5.3639
 101   0.0000      -0.039811        -1.0833
 102   0.0000      -0.028844        -0.7849
 103   0.0000      -0.007908        -0.2152
 104   0.0000       0.015460         0.4207
 105   0.0000       0.020422         0.5557

MULLIKEN ATOMIC CHARGES
-----------------------
   0 C :   -0.459784
   1 C :   -0.163940
   2 O :   -0.303469
   3 P :    0.653513
   4 S :   -0.416092
   5 O :   -0.252824
   6 C :   -0.122057
   7 C :   -0.457967
   8 S :   -0.157595
   9 C :   -0.215129
  10 S :   -0.143447
  11 P :    0.639581
  12 S :   -0.458592
  13 O :   -0.265769
  14 C :   -0.146503
  15 C :   -0.453642
  16 O :   -0.289682
  17 C :   -0.130934
  18 C :   -0.461097
  19 H :    0.153807
  20 H :    0.183854
  21 H :    0.149008
  22 H :    0.176902
  23 H :    0.147163
  24 H :    0.163680
  25 H :    0.165705
  26 H :    0.163510
  27 H :    0.156240
  28 H :    0.145887
  29 H :    0.196024
  30 H :    0.217982
  31 H :    0.154633
  32 H :    0.181296
  33 H :    0.155407
  34 H :    0.146074
  35 H :    0.167383
  36 H :    0.153110
  37 H :    0.148806
  38 H :    0.150732
  39 H :    0.184572
  40 H :    0.143652
Sum of atomic charges:    0.0000000

LOEWDIN ATOMIC CHARGES
----------------------
   0 C :   -0.408923
   1 C :    0.020759
   2 O :   -0.671903
   3 P :    0.380464
   4 S :   -0.073308
   5 O :   -0.656829
   6 C :    0.015315
   7 C :   -0.394860
   8 S :    0.125812
   9 C :   -0.413717
  10 S :    0.168528
  11 P :    0.370501
  12 S :   -0.126446
  13 O :   -0.660385
  14 C :    0.013539
  15 C :   -0.401406
  16 O :   -0.666880
  17 C :    0.018622
  18 C :   -0.403374
  19 H :    0.159299
  20 H :    0.167279
  21 H :    0.159936
  22 H :    0.181499
  23 H :    0.178839
  24 H :    0.183542
  25 H :    0.177171
  26 H :    0.165937
  27 H :    0.161152
  28 H :    0.158164
  29 H :    0.180554
  30 H :    0.202635
  31 H :    0.182688
  32 H :    0.184588
  33 H :    0.160111
  34 H :    0.158724
  35 H :    0.164875
  36 H :    0.175912
  37 H :    0.177602
  38 H :    0.157275
  39 H :    0.169282
  40 H :    0.157427

  Mayer bond orders larger than 0.100000
B(  0-C ,  1-C ) :   0.9120 B(  0-C , 19-H ) :   0.9682 B(  0-C , 20-H ) :   0.9629
B(  0-C , 21-H ) :   0.9571 B(  1-C ,  2-O ) :   0.8211 B(  1-C , 22-H ) :   0.9675
B(  1-C , 23-H ) :   0.9614 B(  2-O ,  3-P ) :   1.0474 B(  3-P ,  4-S ) :   1.8407
B(  3-P ,  5-O ) :   1.1273 B(  3-P ,  8-S ) :   1.0218 B(  5-O ,  6-C ) :   0.7455
B(  6-C ,  7-C ) :   0.9348 B(  6-C , 24-H ) :   0.9630 B(  6-C , 25-H ) :   0.9616
B(  7-C , 26-H ) :   0.9653 B(  7-C , 27-H ) :   0.9747 B(  7-C , 28-H ) :   0.9662
B(  8-S ,  9-C ) :   0.9114 B(  9-C , 10-S ) :   0.8929 B(  9-C , 29-H ) :   0.9137
B(  9-C , 30-H ) :   0.9046 B( 10-S , 11-P ) :   1.1225 B( 11-P , 12-S ) :   1.7605
B( 11-P , 13-O ) :   1.1850 B( 11-P , 16-O ) :   1.0508 B( 13-O , 14-C ) :   0.8019
B( 14-C , 15-C ) :   0.9108 B( 14-C , 31-H ) :   0.9619 B( 14-C , 32-H ) :   0.9623
B( 15-C , 33-H ) :   0.9728 B( 15-C , 34-H ) :   0.9617 B( 15-C , 35-H ) :   0.9609
B( 16-O , 17-C ) :   0.7858 B( 17-C , 18-C ) :   0.9492 B( 17-C , 36-H ) :   0.9650
B( 17-C , 37-H ) :   0.9647 B( 18-C , 38-H ) :   0.9742 B( 18-C , 39-H ) :   0.9583
B( 18-C , 40-H ) :   0.9646

Dispersion correction           -0.022165514
FINAL SINGLE POINT ENERGY     -2932.459198332273

DIPOLE MOMENT
-------------

Method             : SCF
Type of density    : Electron Density
Multiplicity       :   1
Irrep              :   0
Energy             : -2932.4836833954491340 Eh
Relativity type    :
Basis              : AO
                                X                 Y                 Z
Electronic contribution:      2.041946235      -4.311349133      -7.536848020
Nuclear contribution   :     -1.509000078       3.563472366       8.499830200
                        -----------------------------------------
Total Dipole Moment    :      0.532946157      -0.747876767       0.962982180
                        -----------------------------------------
Magnitude (a.u.)       :      1.330671238
Magnitude (Debye)      :      3.382297492

Rotational constants in cm-1:             0.013448             0.005032             0.004975
Rotational constants in MHz :           403.173701           150.865021           149.143789

                             ****ORCA TERMINATED NORMALLY****
TOTAL RUN TIME: 0 days 0 hours 1 minutes 20 seconds 505 msec
