                         Program Version 6.0.0  -   RELEASE  -
|  1> ! r2scan-3c def2/J RI DEFGRID2 scfconv6 printgap
|  2> %output
|  3>     printlevel normal
|  4> end
|  5> %cpcm
|  6>     smd true
|  7>     smdsolvent "water"
|  8> end
|  9> * xyz 0 1
| 10> C 4.6894708035 0.1369371487 -1.872194487
| 11> C 4.4725716214 1.0511788637 -0.6840223385
| 12> O 3.5734517493 0.4852045854 0.2867574175
| 13> P 2.026833943 0.2622367954 -0.0012999205
| 14> S 1.1474526742 1.7024944298 -0.9903324424
| 15> O 1.418999992 0.089146902 1.4426689757
| 16> C 1.8204607463 -0.9254036624 2.3969857544
| 17> C 2.9286083178 -0.4215043176 3.2975566091
| 18> S 1.9617060378 -1.6671880654 -0.89251122
| 19> C 0.2070557361 -1.6859655817 -1.3150928785
| 20> S -0.8744206633 -1.8393339256 0.1490680431
| 21> P -2.0168333732 -0.0782355395 -0.0060515381
| 22> S -2.2499997824 0.6402754973 -1.8192143133
| 23> O -1.3584787254 0.8661912341 1.0771029472
| 24> C -1.5805895504 2.2893559942 1.0952270645
| 25> C -3.0200405804 2.6292121284 1.4140872925
| 26> O -3.3461953828 -0.5066670058 0.7567090329
| 27> C -4.3172128973 -1.3973208321 0.1724218563
| 28> C -5.4341203398 -0.6178491696 -0.4945150476
| 29> H 4.9648621304 -0.8600856561 -1.5378351391
| 30> H 3.7783356337 0.0699669845 -2.464413212
| 31> H 5.4818288054 0.5416058594 -2.4937255142
| 32> H 4.0672460855 2.0147701119 -1.0078117276
| 33> H 5.3947900659 1.2069428667 -0.1224446849
| 34> H 0.9077441818 -1.1344240499 2.9589505328
| 35> H 2.1290605823 -1.8223824687 1.8523386112
| 36> H 3.8280185306 -0.2295895744 2.7189739537
| 37> H 2.6226678464 0.4988998571 3.787506736
| 38> H 3.1397512457 -1.1750561342 4.0499194483
| 39> H 0.0557521518 -2.564487212 -1.9368154432
| 40> H -0.0611978308 -0.7717100194 -1.8527373643
| 41> H -0.8912854531 2.6481188578 1.86121969
| 42> H -1.285586097 2.6992875747 0.1231091616
| 43> H -3.3223513678 2.1481172431 2.3406315069
| 44> H -3.1217184153 3.7056498962 1.5102462206
| 45> H -3.6655136943 2.2821108412 0.6079019259
| 46> H -3.8184468493 -2.0566143461 -0.5438649499
| 47> H -4.6892018841 -1.9873302452 1.0120029984
| 48> H -5.9018380794 0.0524808874 0.2211937983
| 49> H -5.0405308487 -0.0314668613 -1.322064676
| 50> H -6.176323698 -1.311897977 -0.8751674507
| 51> *
| 52>
| 53>                          ****END OF INPUT****

CARTESIAN COORDINATES (ANGSTROEM)
---------------------------------
  C      4.689471    0.136937   -1.872194
  C      4.472572    1.051179   -0.684022
  O      3.573452    0.485205    0.286757
  P      2.026834    0.262237   -0.001300
  S      1.147453    1.702494   -0.990332
  O      1.419000    0.089147    1.442669
  C      1.820461   -0.925404    2.396986
  C      2.928608   -0.421504    3.297557
  S      1.961706   -1.667188   -0.892511
  C      0.207056   -1.685966   -1.315093
  S     -0.874421   -1.839334    0.149068
  P     -2.016833   -0.078236   -0.006052
  S     -2.250000    0.640275   -1.819214
  O     -1.358479    0.866191    1.077103
  C     -1.580590    2.289356    1.095227
  C     -3.020041    2.629212    1.414087
  O     -3.346195   -0.506667    0.756709
  C     -4.317213   -1.397321    0.172422
  C     -5.434120   -0.617849   -0.494515
  H      4.964862   -0.860086   -1.537835
  H      3.778336    0.069967   -2.464413
  H      5.481829    0.541606   -2.493726
  H      4.067246    2.014770   -1.007812
  H      5.394790    1.206943   -0.122445
  H      0.907744   -1.134424    2.958951
  H      2.129061   -1.822382    1.852339
  H      3.828019   -0.229590    2.718974
  H      2.622668    0.498900    3.787507
  H      3.139751   -1.175056    4.049919
  H      0.055752   -2.564487   -1.936815
  H     -0.061198   -0.771710   -1.852737
  H     -0.891285    2.648119    1.861220
  H     -1.285586    2.699288    0.123109
  H     -3.322351    2.148117    2.340632
  H     -3.121718    3.705650    1.510246
  H     -3.665514    2.282111    0.607902
  H     -3.818447   -2.056614   -0.543865
  H     -4.689202   -1.987330    1.012003
  H     -5.901838    0.052481    0.221194
  H     -5.040531   -0.031467   -1.322065
  H     -6.176324   -1.311898   -0.875167

 Total Charge           Charge          ....    0
 Multiplicity           Mult            ....    1
 Number of Electrons    NEL             ....  202
 Basis Dimension        Dim             ....  539

ORBITAL ENERGIES
----------------

  NO   OCC          E(Eh)            E(eV)
   0   2.0000     -88.578366     -2410.3399
   1   2.0000     -88.577697     -2410.3217
   2   2.0000     -88.524554     -2408.8756
   3   2.0000     -88.523597     -2408.8495
   4   2.0000     -76.917506     -2093.0318
   5   2.0000     -76.917447     -2093.0301
   6   2.0000     -18.994649      -516.8707
   7   2.0000     -18.992246      -516.8053
   8   2.0000     -18.992022      -516.7992
   9   2.0000     -18.989726      -516.7367
  10   2.0000     -10.104456      -274.9562
  11   2.0000     -10.090094      -274.5654
  12   2.0000     -10.089877      -274.5595
  13   2.0000     -10.089709      -274.5549
  14   2.0000     -10.086530      -274.4684
  15   2.0000     -10.018639      -272.6210
  16   2.0000     -10.017582      -272.5923
  17   2.0000     -10.017479      -272.5895
  18   2.0000     -10.015956      -272.5480
  19   2.0000      -7.872856      -214.2313
  20   2.0000      -7.872203      -214.2135
  21   2.0000      -7.819650      -212.7835
  22   2.0000      -7.818785      -212.7599
  23   2.0000      -6.595913      -179.4839
  24   2.0000      -6.595827      -179.4816
  25   2.0000      -5.819730      -158.3629
  26   2.0000      -5.819003      -158.3431
  27   2.0000      -5.816540      -158.2761
  28   2.0000      -5.816033      -158.2623
  29   2.0000      -5.810099      -158.1008
  30   2.0000      -5.809379      -158.0812
  31   2.0000      -5.767232      -156.9344
  32   2.0000      -5.766457      -156.9133
  33   2.0000      -5.760113      -156.7407
  34   2.0000      -5.759481      -156.7234
  35   2.0000      -5.759004      -156.7105
  36   2.0000      -5.758750      -156.7035
  37   2.0000      -4.741732      -129.0291
  38   2.0000      -4.741175      -129.0139
  39   2.0000      -4.740879      -129.0059
  40   2.0000      -4.740696      -129.0009
  41   2.0000      -4.739807      -128.9767
  42   2.0000      -4.739373      -128.9649
  43   2.0000      -1.052076       -28.6284
  44   2.0000      -1.050324       -28.5808
  45   2.0000      -1.011700       -27.5298
  46   2.0000      -1.009585       -27.4722
  47   2.0000      -0.800645       -21.7867
  48   2.0000      -0.754959       -20.5435
  49   2.0000      -0.743651       -20.2358
  50   2.0000      -0.725450       -19.7405
  51   2.0000      -0.721802       -19.6412
  52   2.0000      -0.710300       -19.3282
  53   2.0000      -0.689034       -18.7496
  54   2.0000      -0.670004       -18.2317
  55   2.0000      -0.629788       -17.1374
  56   2.0000      -0.619699       -16.8629
  57   2.0000      -0.602807       -16.4032
  58   2.0000      -0.595042       -16.1919
  59   2.0000      -0.589786       -16.0489
  60   2.0000      -0.523845       -14.2545
  61   2.0000      -0.515091       -14.0163
  62   2.0000      -0.491186       -13.3658
  63   2.0000      -0.488046       -13.2804
  64   2.0000      -0.469148       -12.7662
  65   2.0000      -0.459195       -12.4953
  66   2.0000      -0.458541       -12.4775
  67   2.0000      -0.451678       -12.2908
  68   2.0000      -0.438186       -11.9236
  69   2.0000      -0.431700       -11.7472
  70   2.0000      -0.421962       -11.4822
  71   2.0000      -0.414436       -11.2774
  72   2.0000      -0.404062       -10.9951
  73   2.0000      -0.399705       -10.8765
  74   2.0000      -0.391970       -10.6660
  75   2.0000      -0.385368       -10.4864
  76   2.0000      -0.380690       -10.3591
  77   2.0000      -0.369288       -10.0488
  78   2.0000      -0.363045        -9.8790
  79   2.0000      -0.361620        -9.8402
  80   2.0000      -0.353305        -9.6139
  81   2.0000      -0.351800        -9.5730
  82   2.0000      -0.350608        -9.5405
  83   2.0000      -0.344739        -9.3808
  84   2.0000      -0.342850        -9.3294
  85   2.0000      -0.325225        -8.8498
  86   2.0000      -0.324483        -8.8296
  87   2.0000      -0.306600        -8.3430
  88   2.0000      -0.304250        -8.2791
  89   2.0000      -0.301189        -8.1958
  90   2.0000      -0.296705        -8.0737
  91   2.0000      -0.288207        -7.8425
  92   2.0000      -0.281404        -7.6574
  93   2.0000      -0.278343        -7.5741
  94   2.0000      -0.275633        -7.5004
  95   2.0000      -0.251959        -6.8561
  96   2.0000      -0.240717        -6.5502
  97   2.0000      -0.235840        -6.4175
  98   2.0000      -0.226377        -6.1600
  99   2.0000      -0.214544        -5.8380
 100   2.0000      -0.208190        -5.6651
 101   0.0000      -0.044574        -1.2129
 102   0.0000      -0.035403        -0.9634
 103   0.0000      -0.011706        -0.3185
 104   0.0000       0.009082         0.2471
 105   0.0000       0.014797         0.4027

MULLIKEN ATOMIC CHARGES
-----------------------
   0 C :   -0.494402
   1 C :   -0.158290
   2 O :   -0.323251
   3 P :    0.668729
   4 S :   -0.469309
   5 O :   -0.286437
   6 C :   -0.105081
   7 C :   -0.502534
   8 S :   -0.154934
   9 C :   -0.216390
  10 S :   -0.142539
  11 P :    0.671316
  12 S :   -0.510858
  13 O :   -0.295644
  14 C :   -0.144440
  15 C :   -0.496240
  16 O :   -0.317644
  17 C :   -0.129168
  18 C :   -0.495846
  19 H :    0.170027
  20 H :    0.176144
  21 H :    0.173469
  22 H :    0.179188
  23 H :    0.175206
  24 H :    0.179808
  25 H :    0.176777
  26 H :    0.168747
  27 H :    0.167954
  28 H :    0.170548
  29 H :    0.237063
  30 H :    0.211350
  31 H :    0.177150
  32 H :    0.180319
  33 H :    0.170656
  34 H :    0.171608
  35 H :    0.168357
  36 H :    0.164648
  37 H :    0.175705
  38 H :    0.166097
  39 H :    0.173156
  40 H :    0.168986
Sum of atomic charges:   -0.0000000

LOEWDIN ATOMIC CHARGES
----------------------
   0 C :   -0.411451
   1 C :    0.025929
   2 O :   -0.677692
   3 P :    0.382853
   4 S :   -0.111755
   5 O :   -0.678656
   6 C :    0.021658
   7 C :   -0.397356
   8 S :    0.135626
   9 C :   -0.408255
  10 S :    0.172331
  11 P :    0.374353
  12 S :   -0.158919
  13 O :   -0.680161
  14 C :    0.014134
  15 C :   -0.403494
  16 O :   -0.680515
  17 C :    0.023989
  18 C :   -0.406874
  19 H :    0.163814
  20 H :    0.162018
  21 H :    0.168807
  22 H :    0.181600
  23 H :    0.190797
  24 H :    0.189959
  25 H :    0.182477
  26 H :    0.165980
  27 H :    0.163616
  28 H :    0.168230
  29 H :    0.196896
  30 H :    0.199655
  31 H :    0.190514
  32 H :    0.183399
  33 H :    0.164194
  34 H :    0.168449
  35 H :    0.163048
  36 H :    0.180071
  37 H :    0.189144
  38 H :    0.161741
  39 H :    0.162926
  40 H :    0.166920

  Mayer bond orders larger than 0.100000
B(  0-C ,  1-C ) :   0.9007 B(  0-C , 19-H ) :   0.9650 B(  0-C , 20-H ) :   0.9650
B(  0-C , 21-H ) :   0.9517 B(  1-C ,  2-O ) :   0.8103 B(  1-C , 22-H ) :   0.9664
B(  1-C , 23-H ) :   0.9509 B(  2-O ,  3-P ) :   1.0573 B(  3-P ,  4-S ) :   1.8140
B(  3-P ,  5-O ) :   1.1288 B(  3-P ,  8-S ) :   1.0388 B(  5-O ,  6-C ) :   0.7351
B(  6-C ,  7-C ) :   0.9271 B(  6-C , 24-H ) :   0.9544 B(  6-C , 25-H ) :   0.9526
B(  7-C , 26-H ) :   0.9648 B(  7-C , 27-H ) :   0.9730 B(  7-C , 28-H ) :   0.9592
B(  8-S ,  9-C ) :   0.9063 B(  9-C , 10-S ) :   0.8869 B(  9-C , 29-H ) :   0.8977
B(  9-C , 30-H ) :   0.9092 B( 10-S , 11-P ) :   1.1478 B( 11-P , 12-S ) :   1.7119
B( 11-P , 13-O ) :   1.1813 B( 11-P , 16-O ) :   1.0577 B( 13-O , 14-C ) :   0.7867
B( 14-C , 15-C ) :   0.9070 B( 14-C , 31-H ) :   0.9504 B( 14-C , 32-H ) :   0.9587
B( 15-C , 33-H ) :   0.9710 B( 15-C , 34-H ) :   0.9549 B( 15-C , 35-H ) :   0.9604
B( 16-O , 17-C ) :   0.7720 B( 17-C , 18-C ) :   0.9407 B( 17-C , 36-H ) :   0.9583
B( 17-C , 37-H ) :   0.9541 B( 18-C , 38-H ) :   0.9710 B( 18-C , 39-H ) :   0.9628
B( 18-C , 40-H ) :   0.9593

Dispersion correction           -0.022165514
FINAL SINGLE POINT ENERGY     -2932.467955221591

DIPOLE MOMENT
-------------

Method             : SCF
Type of density    : Electron Density
Multiplicity       :   1
Irrep              :   0
Energy             : -2932.4924402847664169 Eh
Relativity type    :
Basis              : AO
                                X                 Y                 Z
Electronic contribution:      2.259623064      -4.876681510      -7.268543252
Nuclear contribution   :     -1.509000078       3.563472366       8.499830200
                        -----------------------------------------
Total Dipole Moment    :      0.750622986      -1.313209144       1.231286947
                        -----------------------------------------
Magnitude (a.u.)       :      1.950389876
Magnitude (Debye)      :      4.957497086

Rotational constants in cm-1:             0.013448             0.005032             0.004975
Rotational constants in MHz :           403.173701           150.865021           149.143789

                             ****ORCA TERMINATED NORMALLY****
TOTAL RUN TIME: 0 days 0 hours 1 minutes 58 seconds 257 msec
