                         Program Version 6.0.0  -   RELEASE  -
|  1> ! pbe def2-sv(p) def2/J RI DEFGRID1 loosescf d4 GCP(DFT/SV(P)) printgap
|  2> %output
|  3>     printlevel normal
|  4> end
|  5> * xyz 0 1
|  6> C 3.4083378326 -2.1982026001 1.8162541032
|  7> C 2.0307110214 -2.099445594 1.1936120525
|  8> O 1.6771386159 -0.7287225873 0.9254577783
|  9> P 2.3543480801 0.0981279012 -0.2656031896
| 10> S 3.042118815 -0.9645761062 -1.7514402514
| 11> O 3.47990827 1.0019403464 0.3838116316
| 12> C 3.2301154758 1.8657913429 1.5213576022
| 13> C 4.5246776794 2.5824867816 1.8421008392
| 14> S 0.7911806272 1.468229186 -0.6947816561
| 15> C -0.0595477864 0.3950299224 -1.8780328083
| 16> S -0.9094471367 -0.9872485162 -1.0863696157
| 17> P -2.4850142093 0.181172662 -0.2317736018
| 18> S -3.1120987911 1.6595371228 -1.3453628325
| 19> O -1.9991123261 0.6575536841 1.184085999
| 20> C -1.5962991298 -0.2642685674 2.2316625721
| 21> C -0.6123437665 0.4567008595 3.1282827667
| 22> O -3.5624954112 -0.9243762702 0.1407716827
| 23> C -4.3455554299 -1.5839142048 -0.8769319013
| 24> C -5.5096941209 -2.2697309841 -0.19147109
| 25> H 4.1515668023 -1.8052159267 1.1223939743
| 26> H 3.4512545366 -1.6290472199 2.7411621192
| 27> H 3.6369150777 -3.238671618 2.0240196496
| 28> H 1.2513049839 -2.4504746604 1.8710933577
| 29> H 1.9879278469 -2.6607285464 0.2552727055
| 30> H 2.4375231411 2.5693646172 1.2511058083
| 31> H 2.8955640741 1.2476095725 2.3579804233
| 32> H 4.367263521 3.2386565255 2.6919695511
| 33> H 5.3017509396 1.8620415469 2.0804774208
| 34> H 4.8454944056 3.171130889 0.9875684032
| 35> H 0.6673165555 -0.0303706283 -2.5705645102
| 36> H -0.7918896493 1.0166373464 -2.3947983284
| 37> H -2.4982235264 -0.558164427 2.771003458
| 38> H -1.147475324 -1.1468162556 1.7661300601
| 39> H -1.0598171407 1.3695673465 3.5102605407
| 40> H -0.3439610199 -0.1897971617 3.9575792032
| 41> H 0.281282505 0.7148137589 2.5659780748
| 42> H -4.6866758629 -0.8315574392 -1.5953329098
| 43> H -3.7009432285 -2.3027660101 -1.3897270153
| 44> H -6.1249749861 -1.5359608469 0.321473364
| 45> H -6.1094343871 -2.7815709722 -0.9367629156
| 46> H -5.1422198919 -2.990968203 0.5324718111
| 47> *
| 48>
| 49>                          ****END OF INPUT****

CARTESIAN COORDINATES (ANGSTROEM)
---------------------------------
  C      3.408338   -2.198203    1.816254
  C      2.030711   -2.099446    1.193612
  O      1.677139   -0.728723    0.925458
  P      2.354348    0.098128   -0.265603
  S      3.042119   -0.964576   -1.751440
  O      3.479908    1.001940    0.383812
  C      3.230115    1.865791    1.521358
  C      4.524678    2.582487    1.842101
  S      0.791181    1.468229   -0.694782
  C     -0.059548    0.395030   -1.878033
  S     -0.909447   -0.987249   -1.086370
  P     -2.485014    0.181173   -0.231774
  S     -3.112099    1.659537   -1.345363
  O     -1.999112    0.657554    1.184086
  C     -1.596299   -0.264269    2.231663
  C     -0.612344    0.456701    3.128283
  O     -3.562495   -0.924376    0.140772
  C     -4.345555   -1.583914   -0.876932
  C     -5.509694   -2.269731   -0.191471
  H      4.151567   -1.805216    1.122394
  H      3.451255   -1.629047    2.741162
  H      3.636915   -3.238672    2.024020
  H      1.251305   -2.450475    1.871093
  H      1.987928   -2.660729    0.255273
  H      2.437523    2.569365    1.251106
  H      2.895564    1.247610    2.357980
  H      4.367264    3.238657    2.691970
  H      5.301751    1.862042    2.080477
  H      4.845494    3.171131    0.987568
  H      0.667317   -0.030371   -2.570565
  H     -0.791890    1.016637   -2.394798
  H     -2.498224   -0.558164    2.771003
  H     -1.147475   -1.146816    1.766130
  H     -1.059817    1.369567    3.510261
  H     -0.343961   -0.189797    3.957579
  H      0.281283    0.714814    2.565978
  H     -4.686676   -0.831557   -1.595333
  H     -3.700943   -2.302766   -1.389727
  H     -6.124975   -1.535961    0.321473
  H     -6.109434   -2.781571   -0.936763
  H     -5.142220   -2.990968    0.532472

 Total Charge           Charge          ....    0
 Multiplicity           Mult            ....    1
 Number of Electrons    NEL             ....  202
 Basis Dimension        Dim             ....  334

ORBITAL ENERGIES
----------------

  NO   OCC          E(Eh)            E(eV)
   0   2.0000     -88.040717     -2395.7097
   1   2.0000     -88.040169     -2395.6948
   2   2.0000     -87.990079     -2394.3318
   3   2.0000     -87.984588     -2394.1824
   4   2.0000     -76.427992     -2079.7114
   5   2.0000     -76.424964     -2079.6290
   6   2.0000     -18.799296      -511.5549
   7   2.0000     -18.795740      -511.4581
   8   2.0000     -18.795559      -511.4532
   9   2.0000     -18.792131      -511.3599
  10   2.0000      -9.965163      -271.1659
  11   2.0000      -9.956558      -270.9317
  12   2.0000      -9.955771      -270.9103
  13   2.0000      -9.955444      -270.9014
  14   2.0000      -9.950142      -270.7571
  15   2.0000      -9.895559      -269.2718
  16   2.0000      -9.890928      -269.1458
  17   2.0000      -9.890417      -269.1319
  18   2.0000      -9.887762      -269.0597
  19   2.0000      -7.685946      -209.1452
  20   2.0000      -7.685081      -209.1217
  21   2.0000      -7.635331      -207.7679
  22   2.0000      -7.629933      -207.6210
  23   2.0000      -6.426020      -174.8609
  24   2.0000      -6.422722      -174.7712
  25   2.0000      -5.713669      -155.4768
  26   2.0000      -5.712747      -155.4517
  27   2.0000      -5.710716      -155.3965
  28   2.0000      -5.709659      -155.3677
  29   2.0000      -5.702796      -155.1810
  30   2.0000      -5.702254      -155.1662
  31   2.0000      -5.664350      -154.1348
  32   2.0000      -5.658886      -153.9861
  33   2.0000      -5.655992      -153.9074
  34   2.0000      -5.655280      -153.8880
  35   2.0000      -5.650452      -153.7566
  36   2.0000      -5.650108      -153.7473
  37   2.0000      -4.648951      -126.5044
  38   2.0000      -4.647391      -126.4619
  39   2.0000      -4.646487      -126.4373
  40   2.0000      -4.645621      -126.4138
  41   2.0000      -4.644465      -126.3823
  42   2.0000      -4.642861      -126.3387
  43   2.0000      -0.990558       -26.9545
  44   2.0000      -0.990205       -26.9448
  45   2.0000      -0.950015       -25.8512
  46   2.0000      -0.946388       -25.7525
  47   2.0000      -0.764107       -20.7924
  48   2.0000      -0.726282       -19.7631
  49   2.0000      -0.715796       -19.4778
  50   2.0000      -0.696932       -18.9645
  51   2.0000      -0.693685       -18.8761
  52   2.0000      -0.675176       -18.3725
  53   2.0000      -0.650716       -17.7069
  54   2.0000      -0.638740       -17.3810
  55   2.0000      -0.595746       -16.2111
  56   2.0000      -0.584975       -15.9180
  57   2.0000      -0.579049       -15.7567
  58   2.0000      -0.571917       -15.5626
  59   2.0000      -0.564178       -15.3521
  60   2.0000      -0.515813       -14.0360
  61   2.0000      -0.506992       -13.7960
  62   2.0000      -0.485660       -13.2155
  63   2.0000      -0.484669       -13.1885
  64   2.0000      -0.461965       -12.5707
  65   2.0000      -0.449119       -12.2211
  66   2.0000      -0.447464       -12.1761
  67   2.0000      -0.440150       -11.9771
  68   2.0000      -0.432276       -11.7628
  69   2.0000      -0.412558       -11.2263
  70   2.0000      -0.408893       -11.1265
  71   2.0000      -0.398149       -10.8342
  72   2.0000      -0.395771       -10.7695
  73   2.0000      -0.387118       -10.5340
  74   2.0000      -0.378570       -10.3014
  75   2.0000      -0.373358       -10.1596
  76   2.0000      -0.368112       -10.0168
  77   2.0000      -0.362430        -9.8622
  78   2.0000      -0.360535        -9.8106
  79   2.0000      -0.355023        -9.6607
  80   2.0000      -0.351892        -9.5755
  81   2.0000      -0.349416        -9.5081
  82   2.0000      -0.345210        -9.3936
  83   2.0000      -0.340959        -9.2780
  84   2.0000      -0.337204        -9.1758
  85   2.0000      -0.323999        -8.8165
  86   2.0000      -0.319972        -8.7069
  87   2.0000      -0.314149        -8.5484
  88   2.0000      -0.303607        -8.2616
  89   2.0000      -0.300907        -8.1881
  90   2.0000      -0.286482        -7.7956
  91   2.0000      -0.276247        -7.5171
  92   2.0000      -0.275919        -7.5081
  93   2.0000      -0.269319        -7.3285
  94   2.0000      -0.257803        -7.0152
  95   2.0000      -0.233045        -6.3415
  96   2.0000      -0.218321        -5.9408
  97   2.0000      -0.213790        -5.8175
  98   2.0000      -0.204073        -5.5531
  99   2.0000      -0.203314        -5.5324
 100   2.0000      -0.199180        -5.4200
 101   0.0000      -0.044247        -1.2040
 102   0.0000      -0.022980        -0.6253
 103   0.0000      -0.002258        -0.0614
 104   0.0000       0.003288         0.0895
 105   0.0000       0.010462         0.2847

MULLIKEN ATOMIC CHARGES
-----------------------
   0 C :   -0.312617
   1 C :   -0.010433
   2 O :   -0.383911
   3 P :    0.620146
   4 S :   -0.308935
   5 O :   -0.370227
   6 C :   -0.057209
   7 C :   -0.266738
   8 S :   -0.085660
   9 C :   -0.370206
  10 S :   -0.101500
  11 P :    0.600088
  12 S :   -0.312735
  13 O :   -0.352061
  14 C :   -0.011207
  15 C :   -0.298450
  16 O :   -0.388899
  17 C :   -0.011123
  18 C :   -0.280113
  19 H :    0.131278
  20 H :    0.110660
  21 H :    0.114832
  22 H :    0.103424
  23 H :    0.115804
  24 H :    0.123644
  25 H :    0.118873
  26 H :    0.113324
  27 H :    0.120589
  28 H :    0.126075
  29 H :    0.194016
  30 H :    0.197369
  31 H :    0.107704
  32 H :    0.107700
  33 H :    0.118202
  34 H :    0.102133
  35 H :    0.134193
  36 H :    0.108015
  37 H :    0.104915
  38 H :    0.121632
  39 H :    0.113950
  40 H :    0.113460
Sum of atomic charges:    0.0000000

LOEWDIN ATOMIC CHARGES
----------------------
   0 C :   -0.365343
   1 C :   -0.121740
   2 O :   -0.250509
   3 P :    0.571907
   4 S :   -0.302659
   5 O :   -0.244520
   6 C :   -0.118763
   7 C :   -0.347820
   8 S :    0.082945
   9 C :   -0.487624
  10 S :    0.063066
  11 P :    0.566906
  12 S :   -0.308834
  13 O :   -0.231849
  14 C :   -0.110431
  15 C :   -0.356409
  16 O :   -0.252808
  17 C :   -0.118952
  18 C :   -0.350265
  19 H :    0.126112
  20 H :    0.121180
  21 H :    0.132171
  22 H :    0.113674
  23 H :    0.111279
  24 H :    0.111557
  25 H :    0.110959
  26 H :    0.131910
  27 H :    0.129694
  28 H :    0.132592
  29 H :    0.128744
  30 H :    0.128704
  31 H :    0.115319
  32 H :    0.104251
  33 H :    0.128861
  34 H :    0.126385
  35 H :    0.122975
  36 H :    0.111150
  37 H :    0.109331
  38 H :    0.129538
  39 H :    0.131841
  40 H :    0.125472

  Mayer bond orders larger than 0.100000
B(  0-C ,  1-C ) :   1.1628 B(  0-C , 19-H ) :   0.9340 B(  0-C , 20-H ) :   0.9459
B(  0-C , 21-H ) :   0.9396 B(  1-C ,  2-O ) :   0.9056 B(  1-C , 22-H ) :   0.9294
B(  1-C , 23-H ) :   0.9121 B(  2-O ,  3-P ) :   1.0617 B(  3-P ,  4-S ) :   1.6350
B(  3-P ,  5-O ) :   1.1199 B(  3-P ,  8-S ) :   0.9673 B(  4-S ,  8-S ) :   0.1033
B(  5-O ,  6-C ) :   0.9011 B(  6-C ,  7-C ) :   1.1621 B(  6-C , 24-H ) :   0.9206
B(  6-C , 25-H ) :   0.9172 B(  7-C , 26-H ) :   0.9401 B(  7-C , 27-H ) :   0.9499
B(  7-C , 28-H ) :   0.9486 B(  8-S ,  9-C ) :   1.0083 B(  9-C , 10-S ) :   1.0077
B(  9-C , 29-H ) :   0.8717 B(  9-C , 30-H ) :   0.8677 B( 10-S , 11-P ) :   0.9446
B( 10-S , 12-S ) :   0.1098 B( 11-P , 12-S ) :   1.6541 B( 11-P , 13-O ) :   1.1485
B( 11-P , 16-O ) :   1.0836 B( 13-O , 14-C ) :   0.8860 B( 14-C , 15-C ) :   1.1685
B( 14-C , 31-H ) :   0.9324 B( 14-C , 32-H ) :   0.9089 B( 15-C , 33-H ) :   0.9464
B( 15-C , 34-H ) :   0.9403 B( 15-C , 35-H ) :   0.9314 B( 16-O , 17-C ) :   0.9032
B( 17-C , 18-C ) :   1.1600 B( 17-C , 36-H ) :   0.9122 B( 17-C , 37-H ) :   0.9281
B( 18-C , 38-H ) :   0.9507 B( 18-C , 39-H ) :   0.9418 B( 18-C , 40-H ) :   0.9512

Dispersion correction           -0.063829419
FINAL SINGLE POINT ENERGY     -2929.522678084010

DIPOLE MOMENT
-------------

Method             : SCF
Type of density    : Electron Density
Multiplicity       :   1
Irrep              :   0
Energy             : -2929.6440160536399162 Eh
Relativity type    :
Basis              : AO
                                X                 Y                 Z
Electronic contribution:     -3.525662354       7.736187027     -21.181290746
Nuclear contribution   :      3.558876171      -8.691668270      23.066401080
                        -----------------------------------------
Total Dipole Moment    :      0.033213817      -0.955481243       1.885110335
                        -----------------------------------------
Magnitude (a.u.)       :      2.113690739
Magnitude (Debye)      :      5.372574892

Rotational constants in cm-1:             0.012660             0.004536             0.004526
Rotational constants in MHz :           379.538031           135.991218           135.678813

                             ****ORCA TERMINATED NORMALLY****
TOTAL RUN TIME: 0 days 0 hours 0 minutes 21 seconds 95 msec
