                         Program Version 6.0.0  -   RELEASE  -
|  1> ! pbe def2-sv(p) def2/J RI DEFGRID1 loosescf d4 GCP(DFT/SV(P)) printgap
|  2> %output
|  3>     printlevel normal
|  4> end
|  5> * xyz 0 1
|  6> C 4.2596999074 -0.5847996402 -2.5890027428
|  7> C 4.5921923919 -1.2393580435 -1.26364646
|  8> O 3.4119602115 -1.5827402118 -0.5169596717
|  9> P 2.4441048911 -0.485441507 0.101300312
| 10> S 3.3396421892 1.0900513975 0.861042329
| 11> O 1.5753129711 -1.3466730143 1.1061819969
| 12> C 1.9259706646 -1.487026971 2.4973322642
| 13> C 3.1969045112 -2.2900089965 2.6787057349
| 14> S 1.0027945999 -0.1375047043 -1.402673868
| 15> C 0.3259365484 1.3788959707 -0.6734434002
| 16> S -0.6485048106 1.0781590888 0.8311132626
| 17> P -2.5292232442 0.7203582748 -0.0755806974
| 18> S -2.6028457231 0.5091734493 -2.026749735
| 19> O -3.2876481301 1.9825501134 0.5067562217
| 20> C -4.5253171547 2.4671640842 -0.0550042871
| 21> C -5.6738773863 1.5099800852 0.1859618098
| 22> O -3.1856462764 -0.4683467217 0.7534740134
| 23> C -3.0659794773 -1.8446569104 0.359098506
| 24> C -1.6842854094 -2.3968030505 0.6445379721
| 25> H 3.5592564743 -1.1991920559 -3.1492434755
| 26> H 3.8086353525 0.3921983033 -2.4195580564
| 27> H 5.1700548305 -0.45641361 -3.1657752246
| 28> H 5.2071774712 -0.5724872077 -0.6506513012
| 29> H 5.1014919249 -2.1939726389 -1.4019063533
| 30> H 2.0306880195 -0.4869521589 2.9301937519
| 31> H 1.0632727584 -1.9896054979 2.9360738135
| 32> H 3.1146315266 -3.2430043014 2.1627480204
| 33> H 4.0433165017 -1.7396474512 2.269377789
| 34> H 3.3672276696 -2.4624799871 3.7367842917
| 35> H -0.3017084641 1.8356024129 -1.4361784058
| 36> H 1.1486036783 2.0332225352 -0.3857892649
| 37> H -4.6813046764 3.4222732538 0.4482051302
| 38> H -4.376874793 2.6298645876 -1.1273486913
| 39> H -5.7461626412 1.2698788903 1.2434349702
| 40> H -6.5996845732 1.9697839703 -0.1455390552
| 41> H -5.5151628025 0.5900365586 -0.3747602427
| 42> H -3.8300478387 -2.3556286551 0.946864568
| 43> H -3.3003390294 -1.9235130389 -0.7078205809
| 44> H -1.4152706257 -2.2146267226 1.6820255246
| 45> H -1.6738319507 -3.4645207101 0.4507277815
| 46> H -0.9440261397 -1.9189602471 0.003700332
| 47> *
| 48>
| 49>                          ****END OF INPUT****

CARTESIAN COORDINATES (ANGSTROEM)
---------------------------------
  C      4.259700   -0.584800   -2.589003
  C      4.592192   -1.239358   -1.263646
  O      3.411960   -1.582740   -0.516960
  P      2.444105   -0.485442    0.101300
  S      3.339642    1.090051    0.861042
  O      1.575313   -1.346673    1.106182
  C      1.925971   -1.487027    2.497332
  C      3.196905   -2.290009    2.678706
  S      1.002795   -0.137505   -1.402674
  C      0.325937    1.378896   -0.673443
  S     -0.648505    1.078159    0.831113
  P     -2.529223    0.720358   -0.075581
  S     -2.602846    0.509173   -2.026750
  O     -3.287648    1.982550    0.506756
  C     -4.525317    2.467164   -0.055004
  C     -5.673877    1.509980    0.185962
  O     -3.185646   -0.468347    0.753474
  C     -3.065979   -1.844657    0.359099
  C     -1.684285   -2.396803    0.644538
  H      3.559256   -1.199192   -3.149243
  H      3.808635    0.392198   -2.419558
  H      5.170055   -0.456414   -3.165775
  H      5.207177   -0.572487   -0.650651
  H      5.101492   -2.193973   -1.401906
  H      2.030688   -0.486952    2.930194
  H      1.063273   -1.989605    2.936074
  H      3.114632   -3.243004    2.162748
  H      4.043317   -1.739647    2.269378
  H      3.367228   -2.462480    3.736784
  H     -0.301708    1.835602   -1.436178
  H      1.148604    2.033223   -0.385789
  H     -4.681305    3.422273    0.448205
  H     -4.376875    2.629865   -1.127349
  H     -5.746163    1.269879    1.243435
  H     -6.599685    1.969784   -0.145539
  H     -5.515163    0.590037   -0.374760
  H     -3.830048   -2.355629    0.946865
  H     -3.300339   -1.923513   -0.707821
  H     -1.415271   -2.214627    1.682026
  H     -1.673832   -3.464521    0.450728
  H     -0.944026   -1.918960    0.003700

 Total Charge           Charge          ....    0
 Multiplicity           Mult            ....    1
 Number of Electrons    NEL             ....  202
 Basis Dimension        Dim             ....  334

ORBITAL ENERGIES
----------------

  NO   OCC          E(Eh)            E(eV)
   0   2.0000     -88.042394     -2395.7553
   1   2.0000     -88.039182     -2395.6679
   2   2.0000     -87.992270     -2394.3914
   3   2.0000     -87.991570     -2394.3723
   4   2.0000     -76.427373     -2079.6945
   5   2.0000     -76.426053     -2079.6586
   6   2.0000     -18.796082      -511.4674
   7   2.0000     -18.792330      -511.3653
   8   2.0000     -18.790946      -511.3276
   9   2.0000     -18.788540      -511.2622
  10   2.0000      -9.954732      -270.8820
  11   2.0000      -9.952318      -270.8163
  12   2.0000      -9.951500      -270.7941
  13   2.0000      -9.951306      -270.7888
  14   2.0000      -9.949733      -270.7460
  15   2.0000      -9.885086      -268.9869
  16   2.0000      -9.884562      -268.9726
  17   2.0000      -9.883988      -268.9570
  18   2.0000      -9.877510      -268.7807
  19   2.0000      -7.687145      -209.1779
  20   2.0000      -7.684450      -209.1045
  21   2.0000      -7.637131      -207.8169
  22   2.0000      -7.636425      -207.7977
  23   2.0000      -6.425145      -174.8371
  24   2.0000      -6.423933      -174.8041
  25   2.0000      -5.714903      -155.5104
  26   2.0000      -5.712351      -155.4410
  27   2.0000      -5.711815      -155.4264
  28   2.0000      -5.709138      -155.3535
  29   2.0000      -5.704088      -155.2161
  30   2.0000      -5.701153      -155.1363
  31   2.0000      -5.665875      -154.1763
  32   2.0000      -5.665158      -154.1568
  33   2.0000      -5.657835      -153.9575
  34   2.0000      -5.657424      -153.9463
  35   2.0000      -5.657082      -153.9370
  36   2.0000      -5.656778      -153.9287
  37   2.0000      -4.647548      -126.4662
  38   2.0000      -4.646864      -126.4476
  39   2.0000      -4.646191      -126.4293
  40   2.0000      -4.645747      -126.4172
  41   2.0000      -4.645656      -126.4147
  42   2.0000      -4.644672      -126.3880
  43   2.0000      -0.989061       -26.9137
  44   2.0000      -0.985874       -26.8270
  45   2.0000      -0.948217       -25.8023
  46   2.0000      -0.944885       -25.7116
  47   2.0000      -0.762652       -20.7528
  48   2.0000      -0.721927       -19.6446
  49   2.0000      -0.707145       -19.2424
  50   2.0000      -0.688273       -18.7289
  51   2.0000      -0.684987       -18.6395
  52   2.0000      -0.674142       -18.3443
  53   2.0000      -0.652784       -17.7631
  54   2.0000      -0.640144       -17.4192
  55   2.0000      -0.605810       -16.4849
  56   2.0000      -0.596646       -16.2356
  57   2.0000      -0.573830       -15.6147
  58   2.0000      -0.570358       -15.5202
  59   2.0000      -0.557265       -15.1639
  60   2.0000      -0.495629       -13.4867
  61   2.0000      -0.491506       -13.3746
  62   2.0000      -0.475689       -12.9442
  63   2.0000      -0.472133       -12.8474
  64   2.0000      -0.457778       -12.4568
  65   2.0000      -0.442690       -12.0462
  66   2.0000      -0.441509       -12.0141
  67   2.0000      -0.437432       -11.9031
  68   2.0000      -0.429742       -11.6939
  69   2.0000      -0.415303       -11.3010
  70   2.0000      -0.404833       -11.0161
  71   2.0000      -0.395132       -10.7521
  72   2.0000      -0.392728       -10.6867
  73   2.0000      -0.389792       -10.6068
  74   2.0000      -0.384952       -10.4751
  75   2.0000      -0.379267       -10.3204
  76   2.0000      -0.368628       -10.0309
  77   2.0000      -0.356721        -9.7069
  78   2.0000      -0.352903        -9.6030
  79   2.0000      -0.350502        -9.5376
  80   2.0000      -0.348297        -9.4776
  81   2.0000      -0.345295        -9.3959
  82   2.0000      -0.341535        -9.2936
  83   2.0000      -0.338188        -9.2026
  84   2.0000      -0.333541        -9.0761
  85   2.0000      -0.319603        -8.6969
  86   2.0000      -0.310259        -8.4426
  87   2.0000      -0.298064        -8.1107
  88   2.0000      -0.293798        -7.9947
  89   2.0000      -0.284478        -7.7410
  90   2.0000      -0.283901        -7.7253
  91   2.0000      -0.275581        -7.4989
  92   2.0000      -0.272287        -7.4093
  93   2.0000      -0.266200        -7.2437
  94   2.0000      -0.261901        -7.1267
  95   2.0000      -0.230953        -6.2846
  96   2.0000      -0.219224        -5.9654
  97   2.0000      -0.214490        -5.8366
  98   2.0000      -0.208420        -5.6714
  99   2.0000      -0.205965        -5.6046
 100   2.0000      -0.204079        -5.5533
 101   0.0000      -0.042863        -1.1664
 102   0.0000      -0.028423        -0.7734
 103   0.0000      -0.005151        -0.1402
 104   0.0000       0.005454         0.1484
 105   0.0000       0.016009         0.4356

MULLIKEN ATOMIC CHARGES
-----------------------
   0 C :   -0.316580
   1 C :   -0.005172
   2 O :   -0.370760
   3 P :    0.608100
   4 S :   -0.337791
   5 O :   -0.354291
   6 C :   -0.007192
   7 C :   -0.306928
   8 S :   -0.059417
   9 C :   -0.366710
  10 S :   -0.069586
  11 P :    0.613903
  12 S :   -0.336999
  13 O :   -0.365472
  14 C :   -0.003446
  15 C :   -0.306862
  16 O :   -0.371526
  17 C :   -0.006752
  18 C :   -0.332323
  19 H :    0.120798
  20 H :    0.127502
  21 H :    0.114296
  22 H :    0.111602
  23 H :    0.106734
  24 H :    0.113038
  25 H :    0.108995
  26 H :    0.117301
  27 H :    0.121991
  28 H :    0.112337
  29 H :    0.190632
  30 H :    0.194831
  31 H :    0.107043
  32 H :    0.110464
  33 H :    0.118310
  34 H :    0.111722
  35 H :    0.122103
  36 H :    0.102069
  37 H :    0.109980
  38 H :    0.116074
  39 H :    0.107302
  40 H :    0.150682
Sum of atomic charges:    0.0000000

LOEWDIN ATOMIC CHARGES
----------------------
   0 C :   -0.369548
   1 C :   -0.118646
   2 O :   -0.242466
   3 P :    0.572575
   4 S :   -0.324128
   5 O :   -0.234069
   6 C :   -0.116845
   7 C :   -0.364912
   8 S :    0.107375
   9 C :   -0.483662
  10 S :    0.093571
  11 P :    0.573366
  12 S :   -0.318179
  13 O :   -0.244557
  14 C :   -0.116045
  15 C :   -0.364315
  16 O :   -0.243078
  17 C :   -0.120263
  18 C :   -0.369723
  19 H :    0.125652
  20 H :    0.121589
  21 H :    0.131746
  22 H :    0.110859
  23 H :    0.119455
  24 H :    0.111299
  25 H :    0.117919
  26 H :    0.126680
  27 H :    0.122106
  28 H :    0.130495
  29 H :    0.129951
  30 H :    0.128813
  31 H :    0.119869
  32 H :    0.110557
  33 H :    0.127211
  34 H :    0.130141
  35 H :    0.122804
  36 H :    0.116860
  37 H :    0.108752
  38 H :    0.122494
  39 H :    0.129038
  40 H :    0.119258

  Mayer bond orders larger than 0.100000
B(  0-C ,  1-C ) :   1.1663 B(  0-C , 19-H ) :   0.9444 B(  0-C , 20-H ) :   0.9353
B(  0-C , 21-H ) :   0.9376 B(  1-C ,  2-O ) :   0.9070 B(  1-C , 22-H ) :   0.9166
B(  1-C , 23-H ) :   0.9338 B(  2-O ,  3-P ) :   1.1113 B(  3-P ,  4-S ) :   1.5836
B(  3-P ,  5-O ) :   1.1326 B(  3-P ,  8-S ) :   0.9649 B(  4-S ,  8-S ) :   0.1081
B(  5-O ,  6-C ) :   0.9080 B(  6-C ,  7-C ) :   1.1633 B(  6-C , 24-H ) :   0.9176
B(  6-C , 25-H ) :   0.9305 B(  7-C , 26-H ) :   0.9457 B(  7-C , 27-H ) :   0.9364
B(  7-C , 28-H ) :   0.9391 B(  8-S ,  9-C ) :   1.0056 B(  9-C , 10-S ) :   1.0059
B(  9-C , 29-H ) :   0.8802 B(  9-C , 30-H ) :   0.8732 B( 10-S , 11-P ) :   0.9639
B( 10-S , 12-S ) :   0.1139 B( 11-P , 12-S ) :   1.5897 B( 11-P , 13-O ) :   1.1342
B( 11-P , 16-O ) :   1.1075 B( 13-O , 14-C ) :   0.9117 B( 14-C , 15-C ) :   1.1627
B( 14-C , 31-H ) :   0.9354 B( 14-C , 32-H ) :   0.9179 B( 15-C , 33-H ) :   0.9461
B( 15-C , 34-H ) :   0.9385 B( 15-C , 35-H ) :   0.9388 B( 16-O , 17-C ) :   0.9096
B( 17-C , 18-C ) :   1.1618 B( 17-C , 36-H ) :   0.9331 B( 17-C , 37-H ) :   0.9136
B( 18-C , 38-H ) :   0.9422 B( 18-C , 39-H ) :   0.9379 B( 18-C , 40-H ) :   0.9250

Dispersion correction           -0.064963413
FINAL SINGLE POINT ENERGY     -2929.526950553075

DIPOLE MOMENT
-------------

Method             : SCF
Type of density    : Electron Density
Multiplicity       :   1
Irrep              :   0
Energy             : -2929.6467118687914990 Eh
Relativity type    :
Basis              : AO
                                X                 Y                 Z
Electronic contribution:      0.536978739      10.843548652      -3.337818671
Nuclear contribution   :     -0.699984549     -11.635755304       3.662500174
                        -----------------------------------------
Total Dipole Moment    :     -0.163005811      -0.792206652       0.324681503
                        -----------------------------------------
Magnitude (a.u.)       :      0.871539071
Magnitude (Debye)      :      2.215276268

Rotational constants in cm-1:             0.014565             0.004283             0.004046
Rotational constants in MHz :           436.654404           128.393371           121.285533

                             ****ORCA TERMINATED NORMALLY****
TOTAL RUN TIME: 0 days 0 hours 0 minutes 20 seconds 963 msec
