                         Program Version 6.0.0  -   RELEASE  -
|  1> ! pbe def2-sv(p) def2/J RI DEFGRID1 loosescf d4 GCP(DFT/SV(P)) printgap
|  2> %output
|  3>     printlevel normal
|  4> end
|  5> * xyz 0 1
|  6> C 4.3651618494 -1.5990134721 -1.1715641194
|  7> C 4.6223106011 -0.1174986429 -0.9823964173
|  8> O 3.6617376369 0.5009443999 -0.1121032616
|  9> P 2.1151792343 0.620949088 -0.4788517601
| 10> S 1.794559642 0.9983244816 -2.371412631
| 11> O 1.671277344 1.7981589473 0.4702483845
| 12> C 1.3821123558 1.6982032898 1.8818535448
| 13> C 2.5477735273 1.15909884 2.681855583
| 14> S 1.2613096467 -1.1662189005 0.3162750023
| 15> C 0.2190495947 -1.6783219712 -1.0846409907
| 16> S -1.4502929935 -2.1348984222 -0.5662863071
| 17> P -2.0501742664 -0.2912081538 0.2858362743
| 18> S -1.3891744198 1.3278954802 -0.6241509491
| 19> O -1.592861853 -0.4814293046 1.7917627512
| 20> C -2.376393358 -0.1026453859 2.9476029357
| 21> C -2.5617837059 1.3980902275 3.0398177395
| 22> O -3.6290300464 -0.3992420516 0.400815654
| 23> C -4.5074578729 0.0155781562 -0.6597816051
| 24> C -4.4252500159 -0.90202932 -1.8619725167
| 25> H 4.2715284224 -2.0951306333 -0.2089639428
| 26> H 3.4460477677 -1.7431081921 -1.7379889583
| 27> H 5.1894875028 -2.0366688969 -1.7252868018
| 28> H 4.5972355893 0.4004159956 -1.9464170854
| 29> H 5.5765266194 0.0662371155 -0.4866309079
| 30> H 1.1371503902 2.7257925801 2.1563847
| 31> H 0.4988985022 1.0635248935 2.0026083457
| 32> H 2.3028825192 1.2003049436 3.7387124333
| 33> H 2.746341741 0.1255235202 2.4026969645
| 34> H 3.4380753697 1.752695602 2.4920027189
| 35> H 0.6432515434 -2.5733009529 -1.5332968245
| 36> H 0.184056851 -0.8556570283 -1.8052064678
| 37> H -3.3395016551 -0.6126401718 2.8927190544
| 38> H -1.7943260594 -0.4907884086 3.7846495869
| 39> H -1.6006179576 1.9009517778 3.1131497136
| 40> H -3.0740603607 1.7647431826 2.1507951949
| 41> H -3.1577791809 1.6345318033 3.9156857818
| 42> H -5.4972557394 -0.0081641827 -0.2017813435
| 43> H -4.2496798027 1.0418745029 -0.9409915058
| 44> H -4.5538941461 -1.9374060824 -1.5570984047
| 45> H -5.201435281 -0.6340516632 -2.5716017306
| 46> H -3.4553738436 -0.7971255874 -2.3461736921
| 47> *
| 48>
| 49>                          ****END OF INPUT****

CARTESIAN COORDINATES (ANGSTROEM)
---------------------------------
  C      4.365162   -1.599013   -1.171564
  C      4.622311   -0.117499   -0.982396
  O      3.661738    0.500944   -0.112103
  P      2.115179    0.620949   -0.478852
  S      1.794560    0.998324   -2.371413
  O      1.671277    1.798159    0.470248
  C      1.382112    1.698203    1.881854
  C      2.547774    1.159099    2.681856
  S      1.261310   -1.166219    0.316275
  C      0.219050   -1.678322   -1.084641
  S     -1.450293   -2.134898   -0.566286
  P     -2.050174   -0.291208    0.285836
  S     -1.389174    1.327895   -0.624151
  O     -1.592862   -0.481429    1.791763
  C     -2.376393   -0.102645    2.947603
  C     -2.561784    1.398090    3.039818
  O     -3.629030   -0.399242    0.400816
  C     -4.507458    0.015578   -0.659782
  C     -4.425250   -0.902029   -1.861973
  H      4.271528   -2.095131   -0.208964
  H      3.446048   -1.743108   -1.737989
  H      5.189488   -2.036669   -1.725287
  H      4.597236    0.400416   -1.946417
  H      5.576527    0.066237   -0.486631
  H      1.137150    2.725793    2.156385
  H      0.498899    1.063525    2.002608
  H      2.302883    1.200305    3.738712
  H      2.746342    0.125524    2.402697
  H      3.438075    1.752696    2.492003
  H      0.643252   -2.573301   -1.533297
  H      0.184057   -0.855657   -1.805206
  H     -3.339502   -0.612640    2.892719
  H     -1.794326   -0.490788    3.784650
  H     -1.600618    1.900952    3.113150
  H     -3.074060    1.764743    2.150795
  H     -3.157779    1.634532    3.915686
  H     -5.497256   -0.008164   -0.201781
  H     -4.249680    1.041875   -0.940992
  H     -4.553894   -1.937406   -1.557098
  H     -5.201435   -0.634052   -2.571602
  H     -3.455374   -0.797126   -2.346174

 Total Charge           Charge          ....    0
 Multiplicity           Mult            ....    1
 Number of Electrons    NEL             ....  202
 Basis Dimension        Dim             ....  334

ORBITAL ENERGIES
----------------

  NO   OCC          E(Eh)            E(eV)
   0   2.0000     -88.041580     -2395.7332
   1   2.0000     -88.038554     -2395.6508
   2   2.0000     -87.983405     -2394.1502
   3   2.0000     -87.977097     -2393.9785
   4   2.0000     -76.427518     -2079.6985
   5   2.0000     -76.419343     -2079.4760
   6   2.0000     -18.799159      -511.5511
   7   2.0000     -18.788983      -511.2742
   8   2.0000     -18.782280      -511.0918
   9   2.0000     -18.782134      -511.0878
  10   2.0000      -9.959143      -271.0021
  11   2.0000      -9.956273      -270.9240
  12   2.0000      -9.951407      -270.7916
  13   2.0000      -9.947566      -270.6870
  14   2.0000      -9.945695      -270.6361
  15   2.0000      -9.889388      -269.1039
  16   2.0000      -9.885531      -268.9990
  17   2.0000      -9.883940      -268.9557
  18   2.0000      -9.879848      -268.8443
  19   2.0000      -7.686988      -209.1736
  20   2.0000      -7.682850      -209.0610
  21   2.0000      -7.627852      -207.5644
  22   2.0000      -7.622348      -207.4146
  23   2.0000      -6.424523      -174.8202
  24   2.0000      -6.416437      -174.6001
  25   2.0000      -5.715017      -155.5135
  26   2.0000      -5.711440      -155.4162
  27   2.0000      -5.710713      -155.3964
  28   2.0000      -5.707403      -155.3063
  29   2.0000      -5.703826      -155.2090
  30   2.0000      -5.699877      -155.1016
  31   2.0000      -5.656747      -153.9279
  32   2.0000      -5.651351      -153.7811
  33   2.0000      -5.648603      -153.7063
  34   2.0000      -5.648036      -153.6909
  35   2.0000      -5.643022      -153.5544
  36   2.0000      -5.642304      -153.5349
  37   2.0000      -4.647712      -126.4707
  38   2.0000      -4.646046      -126.4253
  39   2.0000      -4.644677      -126.3881
  40   2.0000      -4.639082      -126.2358
  41   2.0000      -4.638185      -126.2114
  42   2.0000      -4.636932      -126.1773
  43   2.0000      -0.991417       -26.9778
  44   2.0000      -0.978059       -26.6143
  45   2.0000      -0.946570       -25.7575
  46   2.0000      -0.935892       -25.4669
  47   2.0000      -0.760462       -20.6932
  48   2.0000      -0.718053       -19.5392
  49   2.0000      -0.707325       -19.2473
  50   2.0000      -0.692723       -18.8499
  51   2.0000      -0.684041       -18.6137
  52   2.0000      -0.675088       -18.3701
  53   2.0000      -0.650005       -17.6875
  54   2.0000      -0.630804       -17.1651
  55   2.0000      -0.598383       -16.2828
  56   2.0000      -0.590043       -16.0559
  57   2.0000      -0.582001       -15.8371
  58   2.0000      -0.569030       -15.4841
  59   2.0000      -0.558613       -15.2006
  60   2.0000      -0.500387       -13.6162
  61   2.0000      -0.486418       -13.2361
  62   2.0000      -0.474513       -12.9121
  63   2.0000      -0.463598       -12.6151
  64   2.0000      -0.456296       -12.4164
  65   2.0000      -0.446620       -12.1531
  66   2.0000      -0.435584       -11.8528
  67   2.0000      -0.433544       -11.7973
  68   2.0000      -0.429579       -11.6894
  69   2.0000      -0.417738       -11.3672
  70   2.0000      -0.413676       -11.2567
  71   2.0000      -0.408339       -11.1115
  72   2.0000      -0.391411       -10.6508
  73   2.0000      -0.384805       -10.4711
  74   2.0000      -0.378455       -10.2983
  75   2.0000      -0.369975       -10.0675
  76   2.0000      -0.362260        -9.8576
  77   2.0000      -0.356338        -9.6965
  78   2.0000      -0.354934        -9.6582
  79   2.0000      -0.349882        -9.5208
  80   2.0000      -0.347788        -9.4638
  81   2.0000      -0.342714        -9.3257
  82   2.0000      -0.341255        -9.2860
  83   2.0000      -0.339679        -9.2431
  84   2.0000      -0.332842        -9.0571
  85   2.0000      -0.319738        -8.7005
  86   2.0000      -0.305966        -8.3258
  87   2.0000      -0.298743        -8.1292
  88   2.0000      -0.293833        -7.9956
  89   2.0000      -0.287042        -7.8108
  90   2.0000      -0.283336        -7.7100
  91   2.0000      -0.278414        -7.5760
  92   2.0000      -0.264647        -7.2014
  93   2.0000      -0.258010        -7.0208
  94   2.0000      -0.254845        -6.9347
  95   2.0000      -0.234955        -6.3934
  96   2.0000      -0.215521        -5.8646
  97   2.0000      -0.208364        -5.6699
  98   2.0000      -0.197014        -5.3610
  99   2.0000      -0.193284        -5.2595
 100   2.0000      -0.183667        -4.9978
 101   0.0000      -0.046000        -1.2517
 102   0.0000      -0.030928        -0.8416
 103   0.0000      -0.008046        -0.2189
 104   0.0000       0.011681         0.3178
 105   0.0000       0.017586         0.4785

MULLIKEN ATOMIC CHARGES
-----------------------
   0 C :   -0.313772
   1 C :    0.002905
   2 O :   -0.375412
   3 P :    0.609271
   4 S :   -0.300706
   5 O :   -0.350714
   6 C :   -0.040741
   7 C :   -0.306348
   8 S :   -0.124293
   9 C :   -0.344628
  10 S :   -0.096013
  11 P :    0.619346
  12 S :   -0.297625
  13 O :   -0.372842
  14 C :    0.001734
  15 C :   -0.316243
  16 O :   -0.385374
  17 C :   -0.003622
  18 C :   -0.316782
  19 H :    0.116450
  20 H :    0.117676
  21 H :    0.110148
  22 H :    0.110986
  23 H :    0.101152
  24 H :    0.110617
  25 H :    0.141467
  26 H :    0.108549
  27 H :    0.121502
  28 H :    0.122018
  29 H :    0.180243
  30 H :    0.207245
  31 H :    0.112128
  32 H :    0.107666
  33 H :    0.121501
  34 H :    0.128440
  35 H :    0.110951
  36 H :    0.103630
  37 H :    0.113435
  38 H :    0.117540
  39 H :    0.115192
  40 H :    0.133324
Sum of atomic charges:    0.0000000

LOEWDIN ATOMIC CHARGES
----------------------
   0 C :   -0.370841
   1 C :   -0.118528
   2 O :   -0.248366
   3 P :    0.576098
   4 S :   -0.297712
   5 O :   -0.226839
   6 C :   -0.122618
   7 C :   -0.365336
   8 S :    0.069550
   9 C :   -0.480256
  10 S :    0.082276
  11 P :    0.565801
  12 S :   -0.295529
  13 O :   -0.247130
  14 C :   -0.109462
  15 C :   -0.363821
  16 O :   -0.245121
  17 C :   -0.119161
  18 C :   -0.369499
  19 H :    0.122458
  20 H :    0.117970
  21 H :    0.129093
  22 H :    0.111027
  23 H :    0.116944
  24 H :    0.121620
  25 H :    0.108476
  26 H :    0.129034
  27 H :    0.116643
  28 H :    0.128830
  29 H :    0.134032
  30 H :    0.124196
  31 H :    0.114263
  32 H :    0.120422
  33 H :    0.126550
  34 H :    0.125011
  35 H :    0.129744
  36 H :    0.117665
  37 H :    0.111823
  38 H :    0.124306
  39 H :    0.132364
  40 H :    0.124022

  Mayer bond orders larger than 0.100000
B(  0-C ,  1-C ) :   1.1639 B(  0-C , 19-H ) :   0.9429 B(  0-C , 20-H ) :   0.9364
B(  0-C , 21-H ) :   0.9377 B(  1-C ,  2-O ) :   0.9178 B(  1-C , 22-H ) :   0.9162
B(  1-C , 23-H ) :   0.9345 B(  2-O ,  3-P ) :   1.0811 B(  3-P ,  4-S ) :   1.6157
B(  3-P ,  5-O ) :   1.1466 B(  3-P ,  8-S ) :   0.9363 B(  4-S ,  8-S ) :   0.1158
B(  4-S , 30-H ) :   0.1020 B(  5-O ,  6-C ) :   0.9010 B(  6-C ,  7-C ) :   1.1629
B(  6-C , 24-H ) :   0.9323 B(  6-C , 25-H ) :   0.8983 B(  7-C , 26-H ) :   0.9369
B(  7-C , 27-H ) :   0.9374 B(  7-C , 28-H ) :   0.9426 B(  8-S ,  9-C ) :   0.9983
B(  9-C , 10-S ) :   1.0038 B(  9-C , 29-H ) :   0.9077 B(  9-C , 30-H ) :   0.8456
B( 10-S , 11-P ) :   0.9435 B( 10-S , 12-S ) :   0.1220 B( 11-P , 12-S ) :   1.6465
B( 11-P , 13-O ) :   1.0912 B( 11-P , 16-O ) :   1.0773 B( 13-O , 14-C ) :   0.9009
B( 14-C , 15-C ) :   1.1659 B( 14-C , 31-H ) :   0.9278 B( 14-C , 32-H ) :   0.9352
B( 15-C , 33-H ) :   0.9457 B( 15-C , 34-H ) :   0.9351 B( 15-C , 35-H ) :   0.9373
B( 16-O , 17-C ) :   0.9019 B( 17-C , 18-C ) :   1.1690 B( 17-C , 36-H ) :   0.9332
B( 17-C , 37-H ) :   0.9133 B( 18-C , 38-H ) :   0.9445 B( 18-C , 39-H ) :   0.9374
B( 18-C , 40-H ) :   0.9348

Dispersion correction           -0.068149171
FINAL SINGLE POINT ENERGY     -2929.513111049107

DIPOLE MOMENT
-------------

Method             : SCF
Type of density    : Electron Density
Multiplicity       :   1
Irrep              :   0
Energy             : -2929.6313124754392447 Eh
Relativity type    :
Basis              : AO
                                X                 Y                 Z
Electronic contribution:      1.220209630      -0.377088102      -9.793815302
Nuclear contribution   :     -1.838135830      -0.346200122      11.175691250
                        -----------------------------------------
Total Dipole Moment    :     -0.617926200      -0.723288225       1.381875948
                        -----------------------------------------
Magnitude (a.u.)       :      1.677664978
Magnitude (Debye)      :      4.264285487

Rotational constants in cm-1:             0.012652             0.005510             0.004843
Rotational constants in MHz :           379.284244           165.200584           145.181913

                             ****ORCA TERMINATED NORMALLY****
TOTAL RUN TIME: 0 days 0 hours 0 minutes 21 seconds 869 msec
