                         Program Version 6.0.0  -   RELEASE  -
|  1> ! pbe def2-sv(p) def2/J RI DEFGRID1 loosescf d4 GCP(DFT/SV(P)) printgap
|  2> %output
|  3>     printlevel normal
|  4> end
|  5> * xyz 0 1
|  6> C 0.8004483719 1.3393488299 -0.991315408
|  7> C 1.4339535726 0.3387064394 -0.0130119135
|  8> H 2.4439319711 0.1040421901 -0.3664252328
|  9> C 0.614888219 -0.9771092758 0.0475176028
| 10> H 0.5518672611 -1.2870482044 1.0964215032
| 11> C -0.8142803371 -0.7534488674 -0.4768212591
| 12> H -0.8026809698 -0.7669111551 -1.5803115625
| 13> C -1.2964320534 0.6382197868 -0.0532426229
| 14> H -2.3398896797 0.7670317989 -0.3689592937
| 15> O -0.5669834357 1.6435332367 -0.7071482969
| 16> O -1.1847763098 0.7589648034 1.3361727473
| 17> O -1.7268189151 -1.7050034946 -0.0005487565
| 18> O 1.238249923 -2.0495904921 -0.6155396177
| 19> O 1.6169244618 0.9008631584 1.2608791882
| 20> H 0.8707765575 0.9526667011 -2.0148306755
| 21> H 1.3281454615 2.292967384 -0.9313247457
| 22> H -1.7230772303 1.5009555906 1.6500188969
| 23> H -1.3336637553 -2.5869732782 -0.0884171159
| 24> H 1.362031181 -1.8397541133 -1.5524793919
| 25> H 0.7369502537 1.0459857123 1.6546297513
| 26> *
| 27>
| 28>                          ****END OF INPUT****

CARTESIAN COORDINATES (ANGSTROEM)
---------------------------------
  C      0.800448    1.339349   -0.991315
  C      1.433954    0.338706   -0.013012
  H      2.443932    0.104042   -0.366425
  C      0.614888   -0.977109    0.047518
  H      0.551867   -1.287048    1.096422
  C     -0.814280   -0.753449   -0.476821
  H     -0.802681   -0.766911   -1.580312
  C     -1.296432    0.638220   -0.053243
  H     -2.339890    0.767032   -0.368959
  O     -0.566983    1.643533   -0.707148
  O     -1.184776    0.758965    1.336173
  O     -1.726819   -1.705003   -0.000549
  O      1.238250   -2.049590   -0.615540
  O      1.616924    0.900863    1.260879
  H      0.870777    0.952667   -2.014831
  H      1.328145    2.292967   -0.931325
  H     -1.723077    1.500956    1.650019
  H     -1.333664   -2.586973   -0.088417
  H      1.362031   -1.839754   -1.552479
  H      0.736950    1.045986    1.654630

 Total Charge           Charge          ....    0
 Multiplicity           Mult            ....    1
 Number of Electrons    NEL             ....   80
 Basis Dimension        Dim             ....  160

ORBITAL ENERGIES
----------------

  NO   OCC          E(Eh)            E(eV)
   0   2.0000     -18.782204      -511.0898
   1   2.0000     -18.768839      -510.7261
   2   2.0000     -18.761506      -510.5265
   3   2.0000     -18.754027      -510.3230
   4   2.0000     -18.733061      -509.7525
   5   2.0000      -9.994488      -271.9639
   6   2.0000      -9.948898      -270.7233
   7   2.0000      -9.942034      -270.5365
   8   2.0000      -9.940637      -270.4985
   9   2.0000      -9.938065      -270.4285
  10   2.0000      -0.988678       -26.9033
  11   2.0000      -0.945153       -25.7189
  12   2.0000      -0.928285       -25.2599
  13   2.0000      -0.920803       -25.0563
  14   2.0000      -0.910720       -24.7820
  15   2.0000      -0.699296       -19.0288
  16   2.0000      -0.682244       -18.5648
  17   2.0000      -0.598280       -16.2800
  18   2.0000      -0.584570       -15.9070
  19   2.0000      -0.535673       -14.5764
  20   2.0000      -0.508340       -13.8326
  21   2.0000      -0.493815       -13.4374
  22   2.0000      -0.456967       -12.4347
  23   2.0000      -0.442948       -12.0532
  24   2.0000      -0.433213       -11.7883
  25   2.0000      -0.421363       -11.4659
  26   2.0000      -0.408919       -11.1273
  27   2.0000      -0.382030       -10.3956
  28   2.0000      -0.375894       -10.2286
  29   2.0000      -0.351081        -9.5534
  30   2.0000      -0.344961        -9.3869
  31   2.0000      -0.307449        -8.3661
  32   2.0000      -0.303315        -8.2536
  33   2.0000      -0.284886        -7.7522
  34   2.0000      -0.268936        -7.3181
  35   2.0000      -0.262070        -7.1313
  36   2.0000      -0.242521        -6.5993
  37   2.0000      -0.237277        -6.4566
  38   2.0000      -0.219113        -5.9624
  39   2.0000      -0.197815        -5.3828
  40   0.0000       0.008559         0.2329
  41   0.0000       0.014642         0.3984
  42   0.0000       0.040856         1.1117
  43   0.0000       0.058068         1.5801
  44   0.0000       0.070604         1.9212

MULLIKEN ATOMIC CHARGES
-----------------------
   0 C :    0.060435
   1 C :    0.021291
   2 H :    0.070800
   3 C :    0.025429
   4 H :    0.083584
   5 C :    0.065931
   6 H :    0.051209
   7 C :    0.149225
   8 H :    0.079405
   9 O :   -0.316304
  10 O :   -0.395798
  11 O :   -0.409987
  12 O :   -0.419114
  13 O :   -0.439786
  14 H :    0.060646
  15 H :    0.099684
  16 H :    0.317221
  17 H :    0.305583
  18 H :    0.295478
  19 H :    0.295067
Sum of atomic charges:    0.0000000

LOEWDIN ATOMIC CHARGES
----------------------
   0 C :   -0.121604
   1 C :   -0.086406
   2 H :    0.119989
   3 C :   -0.082698
   4 H :    0.126356
   5 C :   -0.087660
   6 H :    0.101368
   7 C :   -0.004793
   8 H :    0.107567
   9 O :   -0.163081
  10 O :   -0.298588
  11 O :   -0.315849
  12 O :   -0.313848
  13 O :   -0.328144
  14 H :    0.095716
  15 H :    0.121724
  16 H :    0.295597
  17 H :    0.288704
  18 H :    0.280794
  19 H :    0.264855

  Mayer bond orders larger than 0.100000
B(  0-C ,  1-C ) :   1.0962 B(  0-C ,  9-O ) :   0.9986 B(  0-C , 14-H ) :   0.9052
B(  0-C , 15-H ) :   0.9103 B(  1-C ,  2-H ) :   0.8855 B(  1-C ,  3-C ) :   0.9833
B(  1-C , 13-O ) :   1.0514 B(  3-C ,  4-H ) :   0.8628 B(  3-C ,  5-C ) :   1.0328
B(  3-C , 12-O ) :   1.0299 B(  5-C ,  6-H ) :   0.8572 B(  5-C ,  7-C ) :   1.0254
B(  5-C , 11-O ) :   1.1008 B(  7-C ,  8-H ) :   0.8959 B(  7-C ,  9-O ) :   1.0909
B(  7-C , 10-O ) :   1.0974 B( 10-O , 16-H ) :   0.8361 B( 10-O , 19-H ) :   0.1087
B( 11-O , 17-H ) :   0.8392 B( 12-O , 18-H ) :   0.8491 B( 13-O , 19-H ) :   0.8085

Dispersion correction           -0.019822544
FINAL SINGLE POINT ENERGY      -571.409738994767

DIPOLE MOMENT
-------------

Method             : SCF
Type of density    : Electron Density
Multiplicity       :   1
Irrep              :   0
Energy             :  -571.5189695159878056 Eh
Relativity type    :
Basis              : AO
                                X                 Y                 Z
Electronic contribution:     -1.444331749      -0.070384019       1.629178957
Nuclear contribution   :      1.017489564       0.164965284      -2.328128494
                        -----------------------------------------
Total Dipole Moment    :     -0.426842185       0.094581265      -0.698949537
                        -----------------------------------------
Magnitude (a.u.)       :      0.824421205
Magnitude (Debye)      :      2.095512169

Rotational constants in cm-1:             0.052565             0.048133             0.034982
Rotational constants in MHz :          1575.858532          1442.992802          1048.735629

                             ****ORCA TERMINATED NORMALLY****
TOTAL RUN TIME: 0 days 0 hours 0 minutes 14 seconds 727 msec
