                         Program Version 6.0.0  -   RELEASE  -
|  1> ! pbe def2-sv(p) def2/J RI DEFGRID1 loosescf d4 GCP(DFT/SV(P)) printgap
|  2> %output
|  3>     printlevel normal
|  4> end
|  5> * xyz 0 1
|  6> C 2.8611813742 2.2116805601 -1.6476356726
|  7> C 3.609927561 1.8682003057 -0.3753534662
|  8> O 3.485586403 0.4755547607 -0.0469128073
|  9> P 2.1476165221 -0.132169612 0.5613935376
| 10> S 1.3097954155 1.0208084372 1.9113955122
| 11> O 2.6052448069 -1.559834908 1.0694190006
| 12> C 3.05403658 -1.7793080671 2.4244288044
| 13> C 4.3979367211 -1.1314562184 2.6809888888
| 14> S 1.0793653989 -0.7324629699 -1.167620331
| 15> C -0.0776429123 -1.9080955622 -0.4111909431
| 16> S -1.2963350941 -1.1367912022 0.6838588385
| 17> P -2.258676605 0.0357418647 -0.8218898734
| 18> S -2.2792346016 -0.7324463315 -2.617963236
| 19> O -1.5561865554 1.4477827939 -0.7749576422
| 20> C -1.6759165124 2.3474056821 0.3587122004
| 21> C -0.8016744044 3.551314327 0.0830000789
| 22> O -3.6816872502 0.3611232853 -0.1910461213
| 23> C -4.8234343083 -0.4971803904 -0.3750573306
| 24> C -4.6532428185 -1.8390483646 0.3065726665
| 25> H 3.027060332 3.2550869676 -1.8961967084
| 26> H 3.2030653222 1.5851373088 -2.4674380058
| 27> H 1.7921256037 2.0443249483 -1.5131319494
| 28> H 3.2362599365 2.4589387297 0.4685523157
| 29> H 4.6838015888 2.0220946236 -0.4885663104
| 30> H 2.2963578401 -1.3847396463 3.1092328285
| 31> H 3.1048152847 -2.8654738335 2.5105396449
| 32> H 4.7480619372 -1.4086681437 3.6703590424
| 33> H 5.1194145578 -1.455923821 1.9358050264
| 34> H 4.302461708 -0.0477395418 2.6298508356
| 35> H 0.4683039039 -2.6384469121 0.1799494339
| 36> H -0.5952511037 -2.3783331778 -1.2477888003
| 37> H -2.7262208596 2.6250790246 0.4599646093
| 38> H -1.3508154075 1.819612203 1.2602937702
| 39> H 0.2444374521 3.2578873829 0.0678555727
| 40> H -1.0623482216 3.9906409331 -0.875533267
| 41> H -0.9487964796 4.281066968 0.8722992735
| 42> H -5.6463824679 0.0733961965 0.0577258521
| 43> H -4.9837231617 -0.6289116484 -1.4494288501
| 44> H -4.372619521 -1.7024963721 1.3480492141
| 45> H -5.5881192421 -2.387524224 0.2530331285
| 46> H -3.8774251239 -2.4156493834 -0.1946549067
| 47> *
| 48>
| 49>                          ****END OF INPUT****

CARTESIAN COORDINATES (ANGSTROEM)
---------------------------------
  C      2.861181    2.211681   -1.647636
  C      3.609928    1.868200   -0.375353
  O      3.485586    0.475555   -0.046913
  P      2.147617   -0.132170    0.561394
  S      1.309795    1.020808    1.911396
  O      2.605245   -1.559835    1.069419
  C      3.054037   -1.779308    2.424429
  C      4.397937   -1.131456    2.680989
  S      1.079365   -0.732463   -1.167620
  C     -0.077643   -1.908096   -0.411191
  S     -1.296335   -1.136791    0.683859
  P     -2.258677    0.035742   -0.821890
  S     -2.279235   -0.732446   -2.617963
  O     -1.556187    1.447783   -0.774958
  C     -1.675917    2.347406    0.358712
  C     -0.801674    3.551314    0.083000
  O     -3.681687    0.361123   -0.191046
  C     -4.823434   -0.497180   -0.375057
  C     -4.653243   -1.839048    0.306573
  H      3.027060    3.255087   -1.896197
  H      3.203065    1.585137   -2.467438
  H      1.792126    2.044325   -1.513132
  H      3.236260    2.458939    0.468552
  H      4.683802    2.022095   -0.488566
  H      2.296358   -1.384740    3.109233
  H      3.104815   -2.865474    2.510540
  H      4.748062   -1.408668    3.670359
  H      5.119415   -1.455924    1.935805
  H      4.302462   -0.047740    2.629851
  H      0.468304   -2.638447    0.179949
  H     -0.595251   -2.378333   -1.247789
  H     -2.726221    2.625079    0.459965
  H     -1.350815    1.819612    1.260294
  H      0.244437    3.257887    0.067856
  H     -1.062348    3.990641   -0.875533
  H     -0.948796    4.281067    0.872299
  H     -5.646382    0.073396    0.057726
  H     -4.983723   -0.628912   -1.449429
  H     -4.372620   -1.702496    1.348049
  H     -5.588119   -2.387524    0.253033
  H     -3.877425   -2.415649   -0.194655

 Total Charge           Charge          ....    0
 Multiplicity           Mult            ....    1
 Number of Electrons    NEL             ....  202
 Basis Dimension        Dim             ....  334

ORBITAL ENERGIES
----------------

  NO   OCC          E(Eh)            E(eV)
   0   2.0000     -88.039684     -2395.6816
   1   2.0000     -88.036796     -2395.6030
   2   2.0000     -87.989602     -2394.3188
   3   2.0000     -87.984490     -2394.1797
   4   2.0000     -76.427591     -2079.7005
   5   2.0000     -76.422967     -2079.5746
   6   2.0000     -18.796414      -511.4764
   7   2.0000     -18.794417      -511.4221
   8   2.0000     -18.792676      -511.3747
   9   2.0000     -18.784514      -511.1526
  10   2.0000      -9.955299      -270.8975
  11   2.0000      -9.953832      -270.8575
  12   2.0000      -9.953329      -270.8439
  13   2.0000      -9.952702      -270.8268
  14   2.0000      -9.943455      -270.5752
  15   2.0000      -9.886578      -269.0275
  16   2.0000      -9.885277      -268.9921
  17   2.0000      -9.883141      -268.9339
  18   2.0000      -9.878119      -268.7973
  19   2.0000      -7.684625      -209.1093
  20   2.0000      -7.681779      -209.0318
  21   2.0000      -7.634350      -207.7412
  22   2.0000      -7.629758      -207.6163
  23   2.0000      -6.425409      -174.8443
  24   2.0000      -6.420409      -174.7082
  25   2.0000      -5.712631      -155.4486
  26   2.0000      -5.709564      -155.3651
  27   2.0000      -5.709248      -155.3565
  28   2.0000      -5.706404      -155.2791
  29   2.0000      -5.701364      -155.1420
  30   2.0000      -5.698713      -155.0699
  31   2.0000      -5.663003      -154.0982
  32   2.0000      -5.658716      -153.9815
  33   2.0000      -5.655000      -153.8804
  34   2.0000      -5.654749      -153.8735
  35   2.0000      -5.650254      -153.7512
  36   2.0000      -5.649979      -153.7438
  37   2.0000      -4.648043      -126.4797
  38   2.0000      -4.647227      -126.4575
  39   2.0000      -4.645725      -126.4166
  40   2.0000      -4.643348      -126.3519
  41   2.0000      -4.641968      -126.3144
  42   2.0000      -4.640766      -126.2817
  43   2.0000      -0.990190       -26.9444
  44   2.0000      -0.984632       -26.7932
  45   2.0000      -0.950708       -25.8701
  46   2.0000      -0.939501       -25.5651
  47   2.0000      -0.761370       -20.7179
  48   2.0000      -0.719817       -19.5872
  49   2.0000      -0.707222       -19.2445
  50   2.0000      -0.689630       -18.7658
  51   2.0000      -0.686133       -18.6706
  52   2.0000      -0.671175       -18.2636
  53   2.0000      -0.652483       -17.7550
  54   2.0000      -0.637558       -17.3488
  55   2.0000      -0.601990       -16.3810
  56   2.0000      -0.589796       -16.0492
  57   2.0000      -0.575112       -15.6496
  58   2.0000      -0.564275       -15.3547
  59   2.0000      -0.558589       -15.2000
  60   2.0000      -0.501639       -13.6503
  61   2.0000      -0.495666       -13.4878
  62   2.0000      -0.477951       -13.0057
  63   2.0000      -0.471312       -12.8251
  64   2.0000      -0.460304       -12.5255
  65   2.0000      -0.444175       -12.0866
  66   2.0000      -0.440754       -11.9935
  67   2.0000      -0.435288       -11.8448
  68   2.0000      -0.424927       -11.5629
  69   2.0000      -0.414144       -11.2694
  70   2.0000      -0.410195       -11.1620
  71   2.0000      -0.396578       -10.7914
  72   2.0000      -0.391769       -10.6606
  73   2.0000      -0.386585       -10.5195
  74   2.0000      -0.376482       -10.2446
  75   2.0000      -0.375203       -10.2098
  76   2.0000      -0.362224        -9.8566
  77   2.0000      -0.359247        -9.7756
  78   2.0000      -0.356618        -9.7041
  79   2.0000      -0.351202        -9.5567
  80   2.0000      -0.349070        -9.4987
  81   2.0000      -0.345985        -9.4147
  82   2.0000      -0.338687        -9.2161
  83   2.0000      -0.335035        -9.1168
  84   2.0000      -0.331345        -9.0163
  85   2.0000      -0.318578        -8.6689
  86   2.0000      -0.307055        -8.3554
  87   2.0000      -0.298690        -8.1278
  88   2.0000      -0.296685        -8.0732
  89   2.0000      -0.292872        -7.9694
  90   2.0000      -0.287188        -7.8148
  91   2.0000      -0.277166        -7.5421
  92   2.0000      -0.266644        -7.2557
  93   2.0000      -0.263627        -7.1737
  94   2.0000      -0.255881        -6.9629
  95   2.0000      -0.239798        -6.5252
  96   2.0000      -0.217274        -5.9123
  97   2.0000      -0.208161        -5.6643
  98   2.0000      -0.205581        -5.5941
  99   2.0000      -0.200279        -5.4499
 100   2.0000      -0.192394        -5.2353
 101   0.0000      -0.043999        -1.1973
 102   0.0000      -0.022916        -0.6236
 103   0.0000      -0.010605        -0.2886
 104   0.0000       0.003534         0.0962
 105   0.0000       0.016355         0.4450

MULLIKEN ATOMIC CHARGES
-----------------------
   0 C :   -0.337802
   1 C :   -0.012656
   2 O :   -0.369578
   3 P :    0.613734
   4 S :   -0.326246
   5 O :   -0.372905
   6 C :   -0.006890
   7 C :   -0.305602
   8 S :   -0.065803
   9 C :   -0.358018
  10 S :   -0.093087
  11 P :    0.618066
  12 S :   -0.318807
  13 O :   -0.358492
  14 C :   -0.022123
  15 C :   -0.290829
  16 O :   -0.387512
  17 C :   -0.000075
  18 C :   -0.314883
  19 H :    0.115226
  20 H :    0.123011
  21 H :    0.154729
  22 H :    0.111373
  23 H :    0.106336
  24 H :    0.113293
  25 H :    0.105216
  26 H :    0.113253
  27 H :    0.119617
  28 H :    0.122613
  29 H :    0.184609
  30 H :    0.193460
  31 H :    0.103768
  32 H :    0.120480
  33 H :    0.129054
  34 H :    0.114741
  35 H :    0.105244
  36 H :    0.104270
  37 H :    0.112991
  38 H :    0.118193
  39 H :    0.112516
  40 H :    0.125516
Sum of atomic charges:    0.0000000

LOEWDIN ATOMIC CHARGES
----------------------
   0 C :   -0.370350
   1 C :   -0.122659
   2 O :   -0.241825
   3 P :    0.569784
   4 S :   -0.309587
   5 O :   -0.241409
   6 C :   -0.118499
   7 C :   -0.364139
   8 S :    0.101865
   9 C :   -0.482017
  10 S :    0.073077
  11 P :    0.574829
  12 S :   -0.312515
  13 O :   -0.237010
  14 C :   -0.117865
  15 C :   -0.353643
  16 O :   -0.247700
  17 C :   -0.115902
  18 C :   -0.370618
  19 H :    0.132478
  20 H :    0.128321
  21 H :    0.124842
  22 H :    0.106848
  23 H :    0.119302
  24 H :    0.111272
  25 H :    0.118403
  26 H :    0.131113
  27 H :    0.127921
  28 H :    0.123061
  29 H :    0.132540
  30 H :    0.130278
  31 H :    0.110029
  32 H :    0.106207
  33 H :    0.121277
  34 H :    0.126389
  35 H :    0.129547
  36 H :    0.118355
  37 H :    0.112729
  38 H :    0.123889
  39 H :    0.130761
  40 H :    0.120620

  Mayer bond orders larger than 0.100000
B(  0-C ,  1-C ) :   1.1659 B(  0-C , 19-H ) :   0.9392 B(  0-C , 20-H ) :   0.9431
B(  0-C , 21-H ) :   0.9226 B(  1-C ,  2-O ) :   0.9094 B(  1-C , 22-H ) :   0.9109
B(  1-C , 23-H ) :   0.9318 B(  2-O ,  3-P ) :   1.1034 B(  3-P ,  4-S ) :   1.6057
B(  3-P ,  5-O ) :   1.1113 B(  3-P ,  8-S ) :   0.9710 B(  4-S ,  8-S ) :   0.1116
B(  5-O ,  6-C ) :   0.9012 B(  6-C ,  7-C ) :   1.1665 B(  6-C , 24-H ) :   0.9150
B(  6-C , 25-H ) :   0.9338 B(  7-C , 26-H ) :   0.9388 B(  7-C , 27-H ) :   0.9459
B(  7-C , 28-H ) :   0.9367 B(  8-S ,  9-C ) :   1.0000 B(  9-C , 10-S ) :   1.0083
B(  9-C , 29-H ) :   0.8978 B(  9-C , 30-H ) :   0.8801 B( 10-S , 11-P ) :   0.9461
B( 10-S , 12-S ) :   0.1108 B( 11-P , 12-S ) :   1.6258 B( 11-P , 13-O ) :   1.1422
B( 11-P , 16-O ) :   1.0834 B( 13-O , 14-C ) :   0.8894 B( 14-C , 15-C ) :   1.1700
B( 14-C , 31-H ) :   0.9273 B( 14-C , 32-H ) :   0.9063 B( 15-C , 33-H ) :   0.9327
B( 15-C , 34-H ) :   0.9492 B( 15-C , 35-H ) :   0.9396 B( 16-O , 17-C ) :   0.9078
B( 17-C , 18-C ) :   1.1664 B( 17-C , 36-H ) :   0.9343 B( 17-C , 37-H ) :   0.9185
B( 18-C , 38-H ) :   0.9436 B( 18-C , 39-H ) :   0.9369 B( 18-C , 40-H ) :   0.9351

Dispersion correction           -0.066295082
FINAL SINGLE POINT ENERGY     -2929.523427720225

DIPOLE MOMENT
-------------

Method             : SCF
Type of density    : Electron Density
Multiplicity       :   1
Irrep              :   0
Energy             : -2929.6419620991987358 Eh
Relativity type    :
Basis              : AO
                                X                 Y                 Z
Electronic contribution:     -4.595278259      -7.727306659      -7.428197961
Nuclear contribution   :      4.906927318       7.741242884       8.421485429
                        -----------------------------------------
Total Dipole Moment    :      0.311649059       0.013936225       0.993287469
                        -----------------------------------------
Magnitude (a.u.)       :      1.041124080
Magnitude (Debye)      :      2.646327104

Rotational constants in cm-1:             0.012674             0.005103             0.004693
Rotational constants in MHz :           379.968708           152.994419           140.704495

                             ****ORCA TERMINATED NORMALLY****
TOTAL RUN TIME: 0 days 0 hours 0 minutes 20 seconds 795 msec
