                         Program Version 6.0.1  -  RELEASE   -
|  1> ! pbe def2-sv(p) def2/J RI DEFGRID1 loosescf d4 GCP(DFT/SV(P)) printgap
|  2> %output
|  3>     printlevel normal
|  4> end
|  5> * xyz 0 1
|  6> C 4.193412732 -3.7230480444 -1.0505081233
|  7> C 3.1600229097 -2.9392888554 -1.843998713
|  8> O 2.8543894236 -1.6871709444 -1.2003671776
|  9> C 1.9396098259 -1.6737980964 -0.2542655785
| 10> O 1.3203076521 -2.6425057141 0.1252005626
| 11> C 1.71320769 -0.2672197881 0.2709144701
| 12> C 0.8974233888 0.5166701292 -0.7633959286
| 13> H 1.5024725049 0.6987993057 -1.6548635298
| 14> C 0.4094433313 1.8349831198 -0.1940872424
| 15> O -0.7727000276 2.1040476032 -0.0911213888
| 16> O 1.3846122245 2.6112056346 0.1712108954
| 17> C 1.0479917379 3.8779097214 0.7845682558
| 18> C 2.3423891375 4.5686771122 1.16146014
| 19> S -0.5628007335 -0.4056294822 -1.3613380418
| 20> P -1.9273910306 -0.1479569056 0.2454924953
| 21> S -1.3390710431 0.1787769504 2.0964599928
| 22> O -3.1611245441 0.6837930405 -0.2991357635
| 23> C -3.5626537979 1.9751886285 0.1641472437
| 24> O -2.682833409 -1.5582507942 0.1235059309
| 25> C -2.070125983 -2.7593008947 0.5984744702
| 26> H 5.0883695932 -3.124224246 -0.9063934741
| 27> H 3.7892352935 -3.9973642694 -0.0787046619
| 28> H 4.4507880996 -4.6272980058 -1.5919596702
| 29> H 2.2341884901 -3.5118997084 -1.948251894
| 30> H 3.5428160943 -2.6536401677 -2.8236616473
| 31> H 2.6690106969 0.2344190275 0.417696718
| 32> H 1.1713717416 -0.3327688625 1.2164241917
| 33> H 0.4672802033 4.4619530403 0.0649948902
| 34> H 0.4197084051 3.675469099 1.6571545113
| 35> H 2.9547899849 4.7209761168 0.2781242795
| 36> H 2.1148376717 5.5299119412 1.6097854441
| 37> H 2.8948435987 3.964895461 1.8745729736
| 38> H -3.1801226308 2.1549023317 1.1701208982
| 39> H -4.6504199662 1.9672590407 0.1661697715
| 40> H -3.1784794612 2.7342428102 -0.5145041254
| 41> H -1.0923524295 -2.913533919 0.1375694808
| 42> H -2.7500463387 -3.5619527809 0.3268067434
| 43> H -1.9485681146 -2.7088807854 1.6818230854
| 44> *
| 45>
| 46>                          ****END OF INPUT****

CARTESIAN COORDINATES (ANGSTROEM)
---------------------------------
  C      4.193413   -3.723048   -1.050508
  C      3.160023   -2.939289   -1.843999
  O      2.854389   -1.687171   -1.200367
  C      1.939610   -1.673798   -0.254266
  O      1.320308   -2.642506    0.125201
  C      1.713208   -0.267220    0.270914
  C      0.897423    0.516670   -0.763396
  H      1.502473    0.698799   -1.654864
  C      0.409443    1.834983   -0.194087
  O     -0.772700    2.104048   -0.091121
  O      1.384612    2.611206    0.171211
  C      1.047992    3.877910    0.784568
  C      2.342389    4.568677    1.161460
  S     -0.562801   -0.405629   -1.361338
  P     -1.927391   -0.147957    0.245492
  S     -1.339071    0.178777    2.096460
  O     -3.161125    0.683793   -0.299136
  C     -3.562654    1.975189    0.164147
  O     -2.682833   -1.558251    0.123506
  C     -2.070126   -2.759301    0.598474
  H      5.088370   -3.124224   -0.906393
  H      3.789235   -3.997364   -0.078705
  H      4.450788   -4.627298   -1.591960
  H      2.234188   -3.511900   -1.948252
  H      3.542816   -2.653640   -2.823662
  H      2.669011    0.234419    0.417697
  H      1.171372   -0.332769    1.216424
  H      0.467280    4.461953    0.064995
  H      0.419708    3.675469    1.657155
  H      2.954790    4.720976    0.278124
  H      2.114838    5.529912    1.609785
  H      2.894844    3.964895    1.874573
  H     -3.180123    2.154902    1.170121
  H     -4.650420    1.967259    0.166170
  H     -3.178479    2.734243   -0.514504
  H     -1.092352   -2.913534    0.137569
  H     -2.750046   -3.561953    0.326807
  H     -1.948568   -2.708881    1.681823

 Total Charge           Charge          ....    0
 Multiplicity           Mult            ....    1
 Number of Electrons    NEL             ....  174
 Basis Dimension        Dim             ....  316

ORBITAL ENERGIES
----------------

  NO   OCC          E(Eh)            E(eV)
   0   2.0000     -88.032061     -2395.4742
   1   2.0000     -87.970814     -2393.8075
   2   2.0000     -76.415781     -2079.3791
   3   2.0000     -18.827932      -512.3341
   4   2.0000     -18.807888      -511.7887
   5   2.0000     -18.775491      -510.9071
   6   2.0000     -18.765881      -510.6456
   7   2.0000     -18.760643      -510.5031
   8   2.0000     -18.740411      -509.9525
   9   2.0000     -10.031377      -272.9677
  10   2.0000     -10.012236      -272.4468
  11   2.0000      -9.963644      -271.1246
  12   2.0000      -9.955367      -270.8993
  13   2.0000      -9.952004      -270.8078
  14   2.0000      -9.929608      -270.1984
  15   2.0000      -9.916896      -269.8525
  16   2.0000      -9.907313      -269.5917
  17   2.0000      -9.900593      -269.4088
  18   2.0000      -9.890277      -269.1281
  19   2.0000      -7.677018      -208.9023
  20   2.0000      -7.615927      -207.2399
  21   2.0000      -6.411468      -174.4649
  22   2.0000      -5.705196      -155.2463
  23   2.0000      -5.701638      -155.1495
  24   2.0000      -5.693535      -154.9290
  25   2.0000      -5.645003      -153.6083
  26   2.0000      -5.636881      -153.3873
  27   2.0000      -5.635546      -153.3510
  28   2.0000      -4.633811      -126.0924
  29   2.0000      -4.633676      -126.0887
  30   2.0000      -4.632108      -126.0461
  31   2.0000      -1.037780       -28.2394
  32   2.0000      -1.015088       -27.6219
  33   2.0000      -0.967109       -26.3164
  34   2.0000      -0.939723       -25.5712
  35   2.0000      -0.920592       -25.0506
  36   2.0000      -0.917759       -24.9735
  37   2.0000      -0.768581       -20.9142
  38   2.0000      -0.723399       -19.6847
  39   2.0000      -0.710722       -19.3397
  40   2.0000      -0.683793       -18.6069
  41   2.0000      -0.651599       -17.7309
  42   2.0000      -0.627840       -17.0844
  43   2.0000      -0.619082       -16.8461
  44   2.0000      -0.602130       -16.3848
  45   2.0000      -0.596987       -16.2448
  46   2.0000      -0.566883       -15.4257
  47   2.0000      -0.525936       -14.3114
  48   2.0000      -0.507085       -13.7985
  49   2.0000      -0.496626       -13.5139
  50   2.0000      -0.484425       -13.1819
  51   2.0000      -0.465858       -12.6766
  52   2.0000      -0.457503       -12.4493
  53   2.0000      -0.451954       -12.2983
  54   2.0000      -0.444080       -12.0840
  55   2.0000      -0.436604       -11.8806
  56   2.0000      -0.424174       -11.5424
  57   2.0000      -0.410491       -11.1700
  58   2.0000      -0.407858       -11.0984
  59   2.0000      -0.404605       -11.0098
  60   2.0000      -0.394232       -10.7276
  61   2.0000      -0.391522       -10.6538
  62   2.0000      -0.384054       -10.4506
  63   2.0000      -0.379954       -10.3391
  64   2.0000      -0.377068       -10.2606
  65   2.0000      -0.372480       -10.1357
  66   2.0000      -0.371166       -10.0999
  67   2.0000      -0.360021        -9.7967
  68   2.0000      -0.350360        -9.5338
  69   2.0000      -0.341160        -9.2834
  70   2.0000      -0.337837        -9.1930
  71   2.0000      -0.331579        -9.0227
  72   2.0000      -0.327507        -8.9119
  73   2.0000      -0.320521        -8.7218
  74   2.0000      -0.303692        -8.2639
  75   2.0000      -0.298873        -8.1327
  76   2.0000      -0.289584        -7.8800
  77   2.0000      -0.284744        -7.7483
  78   2.0000      -0.273014        -7.4291
  79   2.0000      -0.265109        -7.2140
  80   2.0000      -0.258783        -7.0418
  81   2.0000      -0.243909        -6.6371
  82   2.0000      -0.239716        -6.5230
  83   2.0000      -0.223246        -6.0748
  84   2.0000      -0.211736        -5.7616
  85   2.0000      -0.191745        -5.2177
  86   2.0000      -0.183534        -4.9942
  87   0.0000      -0.049239        -1.3399
  88   0.0000      -0.035529        -0.9668
  89   0.0000      -0.020012        -0.5446
  90   0.0000       0.007912         0.2153
  91   0.0000       0.030446         0.8285

MULLIKEN ATOMIC CHARGES
-----------------------
   0 C :   -0.306939
   1 C :   -0.010585
   2 O :   -0.234347
   3 C :    0.126754
   4 O :   -0.186761
   5 C :   -0.049520
   6 C :   -0.345251
   7 H :    0.150253
   8 C :    0.232734
   9 O :   -0.193050
  10 O :   -0.218544
  11 C :   -0.033408
  12 C :   -0.274322
  13 S :   -0.081595
  14 P :    0.627006
  15 S :   -0.354350
  16 O :   -0.368018
  17 C :   -0.084170
  18 O :   -0.374992
  19 C :   -0.121686
  20 H :    0.113654
  21 H :    0.130197
  22 H :    0.114924
  23 H :    0.111308
  24 H :    0.102618
  25 H :    0.108544
  26 H :    0.120405
  27 H :    0.111266
  28 H :    0.123938
  29 H :    0.117959
  30 H :    0.117621
  31 H :    0.122331
  32 H :    0.114192
  33 H :    0.117971
  34 H :    0.113628
  35 H :    0.135873
  36 H :    0.112243
  37 H :    0.112120
Sum of atomic charges:    0.0000000

LOEWDIN ATOMIC CHARGES
----------------------
   0 C :   -0.356268
   1 C :   -0.110677
   2 O :   -0.061099
   3 C :    0.024807
   4 O :   -0.155692
   5 C :   -0.254442
   6 C :   -0.260918
   7 H :    0.148694
   8 C :    0.024262
   9 O :   -0.152545
  10 O :   -0.037693
  11 C :   -0.102410
  12 C :   -0.350086
  13 S :    0.110774
  14 P :    0.591079
  15 S :   -0.336877
  16 O :   -0.238871
  17 C :   -0.207407
  18 O :   -0.258963
  19 C :   -0.227277
  20 H :    0.124703
  21 H :    0.131884
  22 H :    0.131698
  23 H :    0.121686
  24 H :    0.117928
  25 H :    0.138528
  26 H :    0.134036
  27 H :    0.119857
  28 H :    0.126080
  29 H :    0.128239
  30 H :    0.134561
  31 H :    0.130195
  32 H :    0.108115
  33 H :    0.116813
  34 H :    0.111795
  35 H :    0.110352
  36 H :    0.116253
  37 H :    0.108883

  Mayer bond orders larger than 0.100000
B(  0-C ,  1-C ) :   1.1742 B(  0-C , 20-H ) :   0.9485 B(  0-C , 21-H ) :   0.9457
B(  0-C , 22-H ) :   0.9440 B(  1-C ,  2-O ) :   0.9132 B(  1-C , 23-H ) :   0.9144
B(  1-C , 24-H ) :   0.9369 B(  2-O ,  3-C ) :   1.2212 B(  3-C ,  4-O ) :   2.0096
B(  3-C ,  5-C ) :   1.0240 B(  5-C ,  6-C ) :   1.0419 B(  5-C , 25-H ) :   0.8773
B(  5-C , 26-H ) :   0.8691 B(  6-C ,  7-H ) :   0.8639 B(  6-C ,  8-C ) :   0.9229
B(  6-C , 13-S ) :   1.0415 B(  8-C ,  9-O ) :   1.9422 B(  8-C , 10-O ) :   1.2828
B(  9-O , 14-P ) :   0.1055 B( 10-O , 11-C ) :   0.8860 B( 11-C , 12-C ) :   1.1550
B( 11-C , 27-H ) :   0.9320 B( 11-C , 28-H ) :   0.9283 B( 12-C , 29-H ) :   0.9494
B( 12-C , 30-H ) :   0.9419 B( 12-C , 31-H ) :   0.9493 B( 13-S , 14-P ) :   0.9258
B( 13-S , 15-S ) :   0.1183 B( 14-P , 15-S ) :   1.5456 B( 14-P , 16-O ) :   1.1400
B( 14-P , 18-O ) :   1.0957 B( 16-O , 17-C ) :   0.9296 B( 17-C , 32-H ) :   0.9342
B( 17-C , 33-H ) :   0.9549 B( 17-C , 34-H ) :   0.9538 B( 18-O , 19-C ) :   0.9341
B( 19-C , 35-H ) :   0.9237 B( 19-C , 36-H ) :   0.9570 B( 19-C , 37-H ) :   0.9430

Dispersion correction           -0.051825935
FINAL SINGLE POINT ENERGY     -1979.014358653218

DIPOLE MOMENT
-------------

Method             : SCF
Type of density    : Electron Density
Multiplicity       :   1
Irrep              :   0
Energy             : -1979.1449939015660675 Eh
Relativity type    :
Basis              : AO
                                X                 Y                 Z
Electronic contribution:    -15.595975997      -1.586758213      -1.462712820
Nuclear contribution   :     17.241101106       2.675158735       0.757981139
                        -----------------------------------------
Total Dipole Moment    :      1.645125109       1.088400522      -0.704731680
                        -----------------------------------------
Magnitude (a.u.)       :      2.094683524
Magnitude (Debye)      :      5.324262391

Rotational constants in cm-1:             0.011077             0.007879             0.005354
Rotational constants in MHz :           332.077708           236.210926           160.509014

                             ****ORCA TERMINATED NORMALLY****
TOTAL RUN TIME: 0 days 0 hours 0 minutes 36 seconds 980 msec
