                         Program Version 6.0.0  -   RELEASE  -
|  1> ! pbe def2-sv(p) def2/J RI DEFGRID1 loosescf d4 GCP(DFT/SV(P)) printgap
|  2> %output
|  3>     printlevel normal
|  4> end
|  5> * xyz 0 1
|  6> C 4.5506102638 0.7610343972 -2.0424449232
|  7> C 4.5741227728 0.8234719121 -0.5290070462
|  8> O 3.6758160664 -0.1316166773 0.0593069257
|  9> P 2.0958712808 0.0047798519 -0.0534625473
| 10> S 1.4656811272 1.8559938338 0.1292410521
| 11> O 1.5764415942 -1.0205434058 1.0360969313
| 12> C 1.3638440822 -0.6438097913 2.4100345154
| 13> C 2.6598700507 -0.3034896483 3.1120969919
| 14> S 1.6793878537 -1.1013260368 -1.7981971915
| 15> C -0.0909162715 -1.4559863294 -1.6305098139
| 16> S -1.1592916297 0.010863815 -1.6590243894
| 17> P -2.0599410989 -0.1513582687 0.2747495962
| 18> S -1.7005075127 -1.8020646218 1.2610311897
| 19> O -3.5776811125 0.2178928536 -0.0234940157
| 20> C -4.3957704401 -0.3798695361 -1.046206857
| 21> C -4.4714656809 -1.8878435449 -0.9318746261
| 22> O -1.6062068012 1.0874987575 1.1353993642
| 23> C -1.8729389411 2.4592073712 0.7513815628
| 24> C -3.0513453528 3.0041298242 1.5297868832
| 25> H 5.3117283401 1.4226583491 -2.443288781
| 26> H 4.7364524495 -0.2548823174 -2.3816669281
| 27> H 3.5753472979 1.0785166237 -2.4111186536
| 28> H 4.2941513131 1.8234196436 -0.1808655869
| 29> H 5.5500473726 0.5487042374 -0.1269592986
| 30> H 0.6698399977 0.2041240326 2.4332483154
| 31> H 0.8761590857 -1.5181835195 2.8448233783
| 32> H 3.0846725545 0.6053807049 2.6875817704
| 33> H 2.4625861032 -0.1428143403 4.1673351944
| 34> H 3.3721905772 -1.1158175127 2.9941664036
| 35> H -0.2754327084 -2.0039975556 -0.7014605242
| 36> H -0.3344275581 -2.0596293954 -2.501764706
| 37> H -5.3734418105 0.0799369881 -0.8918111104
| 38> H -3.9963500703 -0.0840848445 -2.0202928524
| 39> H -5.1714540412 -2.269481127 -1.6680889026
| 40> H -3.4922860264 -2.3301963319 -1.1094940411
| 41> H -4.8011343608 -2.1771703715 0.0631609193
| 42> H -0.9507427486 2.9972070268 0.9816736097
| 43> H -2.0484686106 2.499357655 -0.3268793849
| 44> H -3.9510677836 2.4420822212 1.2933857959
| 45> H -2.8588379647 2.9263884163 2.5962339386
| 46> H -3.1962202625 4.0468456805 1.2657731773
| 47> *
| 48>
| 49>                          ****END OF INPUT****

CARTESIAN COORDINATES (ANGSTROEM)
---------------------------------
  C      4.550610    0.761034   -2.042445
  C      4.574123    0.823472   -0.529007
  O      3.675816   -0.131617    0.059307
  P      2.095871    0.004780   -0.053463
  S      1.465681    1.855994    0.129241
  O      1.576442   -1.020543    1.036097
  C      1.363844   -0.643810    2.410035
  C      2.659870   -0.303490    3.112097
  S      1.679388   -1.101326   -1.798197
  C     -0.090916   -1.455986   -1.630510
  S     -1.159292    0.010864   -1.659024
  P     -2.059941   -0.151358    0.274750
  S     -1.700508   -1.802065    1.261031
  O     -3.577681    0.217893   -0.023494
  C     -4.395770   -0.379870   -1.046207
  C     -4.471466   -1.887844   -0.931875
  O     -1.606207    1.087499    1.135399
  C     -1.872939    2.459207    0.751382
  C     -3.051345    3.004130    1.529787
  H      5.311728    1.422658   -2.443289
  H      4.736452   -0.254882   -2.381667
  H      3.575347    1.078517   -2.411119
  H      4.294151    1.823420   -0.180866
  H      5.550047    0.548704   -0.126959
  H      0.669840    0.204124    2.433248
  H      0.876159   -1.518184    2.844823
  H      3.084673    0.605381    2.687582
  H      2.462586   -0.142814    4.167335
  H      3.372191   -1.115818    2.994166
  H     -0.275433   -2.003998   -0.701461
  H     -0.334428   -2.059629   -2.501765
  H     -5.373442    0.079937   -0.891811
  H     -3.996350   -0.084085   -2.020293
  H     -5.171454   -2.269481   -1.668089
  H     -3.492286   -2.330196   -1.109494
  H     -4.801134   -2.177170    0.063161
  H     -0.950743    2.997207    0.981674
  H     -2.048469    2.499358   -0.326879
  H     -3.951068    2.442082    1.293386
  H     -2.858838    2.926388    2.596234
  H     -3.196220    4.046846    1.265773

 Total Charge           Charge          ....    0
 Multiplicity           Mult            ....    1
 Number of Electrons    NEL             ....  202
 Basis Dimension        Dim             ....  334

ORBITAL ENERGIES
----------------

  NO   OCC          E(Eh)            E(eV)
   0   2.0000     -88.043785     -2395.7932
   1   2.0000     -88.039386     -2395.6735
   2   2.0000     -87.986550     -2394.2358
   3   2.0000     -87.981777     -2394.1059
   4   2.0000     -76.426868     -2079.6808
   5   2.0000     -76.421678     -2079.5396
   6   2.0000     -18.796267      -511.4724
   7   2.0000     -18.788936      -511.2729
   8   2.0000     -18.788355      -511.2571
   9   2.0000     -18.782833      -511.1069
  10   2.0000      -9.958872      -270.9947
  11   2.0000      -9.954333      -270.8712
  12   2.0000      -9.949875      -270.7499
  13   2.0000      -9.949611      -270.7427
  14   2.0000      -9.936357      -270.3820
  15   2.0000      -9.885726      -269.0043
  16   2.0000      -9.883693      -268.9490
  17   2.0000      -9.882874      -268.9267
  18   2.0000      -9.874414      -268.6965
  19   2.0000      -7.688407      -209.2122
  20   2.0000      -7.685015      -209.1199
  21   2.0000      -7.631559      -207.6653
  22   2.0000      -7.626645      -207.5316
  23   2.0000      -6.424198      -174.8113
  24   2.0000      -6.419321      -174.6786
  25   2.0000      -5.716198      -155.5457
  26   2.0000      -5.713103      -155.4614
  27   2.0000      -5.712922      -155.4565
  28   2.0000      -5.709362      -155.3596
  29   2.0000      -5.705551      -155.2559
  30   2.0000      -5.701827      -155.1546
  31   2.0000      -5.660642      -154.0339
  32   2.0000      -5.655354      -153.8900
  33   2.0000      -5.652148      -153.8028
  34   2.0000      -5.651509      -153.7854
  35   2.0000      -5.647257      -153.6697
  36   2.0000      -5.647031      -153.6635
  37   2.0000      -4.646895      -126.4484
  38   2.0000      -4.646064      -126.4258
  39   2.0000      -4.644493      -126.3831
  40   2.0000      -4.641868      -126.3117
  41   2.0000      -4.641120      -126.2913
  42   2.0000      -4.639780      -126.2548
  43   2.0000      -0.989078       -26.9142
  44   2.0000      -0.981453       -26.7067
  45   2.0000      -0.943864       -25.6838
  46   2.0000      -0.940773       -25.5997
  47   2.0000      -0.759959       -20.6795
  48   2.0000      -0.719528       -19.5794
  49   2.0000      -0.705982       -19.2108
  50   2.0000      -0.691047       -18.8043
  51   2.0000      -0.683099       -18.5881
  52   2.0000      -0.670978       -18.2582
  53   2.0000      -0.650069       -17.6893
  54   2.0000      -0.638534       -17.3754
  55   2.0000      -0.597233       -16.2515
  56   2.0000      -0.589876       -16.0514
  57   2.0000      -0.572486       -15.5781
  58   2.0000      -0.566538       -15.4163
  59   2.0000      -0.563086       -15.3224
  60   2.0000      -0.503948       -13.7131
  61   2.0000      -0.485800       -13.2193
  62   2.0000      -0.473204       -12.8765
  63   2.0000      -0.466422       -12.6920
  64   2.0000      -0.454097       -12.3566
  65   2.0000      -0.445695       -12.1280
  66   2.0000      -0.435559       -11.8522
  67   2.0000      -0.433860       -11.8059
  68   2.0000      -0.427757       -11.6399
  69   2.0000      -0.413935       -11.2638
  70   2.0000      -0.411064       -11.1856
  71   2.0000      -0.406230       -11.0541
  72   2.0000      -0.386369       -10.5136
  73   2.0000      -0.383628       -10.4391
  74   2.0000      -0.381659       -10.3855
  75   2.0000      -0.373340       -10.1591
  76   2.0000      -0.359557        -9.7841
  77   2.0000      -0.355862        -9.6835
  78   2.0000      -0.352684        -9.5970
  79   2.0000      -0.349485        -9.5100
  80   2.0000      -0.345298        -9.3960
  81   2.0000      -0.343968        -9.3599
  82   2.0000      -0.340128        -9.2554
  83   2.0000      -0.335213        -9.1216
  84   2.0000      -0.327711        -8.9175
  85   2.0000      -0.317678        -8.6445
  86   2.0000      -0.308442        -8.3931
  87   2.0000      -0.298906        -8.1337
  88   2.0000      -0.291967        -7.9448
  89   2.0000      -0.288615        -7.8536
  90   2.0000      -0.277627        -7.5546
  91   2.0000      -0.273856        -7.4520
  92   2.0000      -0.265887        -7.2352
  93   2.0000      -0.260667        -7.0931
  94   2.0000      -0.258546        -7.0354
  95   2.0000      -0.239989        -6.5304
  96   2.0000      -0.222037        -6.0419
  97   2.0000      -0.203549        -5.5388
  98   2.0000      -0.202304        -5.5050
  99   2.0000      -0.196165        -5.3379
 100   2.0000      -0.193019        -5.2523
 101   0.0000      -0.041379        -1.1260
 102   0.0000      -0.032641        -0.8882
 103   0.0000      -0.014620        -0.3978
 104   0.0000       0.000321         0.0087
 105   0.0000       0.014652         0.3987

MULLIKEN ATOMIC CHARGES
-----------------------
   0 C :   -0.324516
   1 C :   -0.003227
   2 O :   -0.371095
   3 P :    0.618970
   4 S :   -0.337864
   5 O :   -0.365172
   6 C :   -0.016155
   7 C :   -0.298294
   8 S :   -0.093438
   9 C :   -0.348875
  10 S :   -0.105439
  11 P :    0.600686
  12 S :   -0.301267
  13 O :   -0.380145
  14 C :   -0.005643
  15 C :   -0.308117
  16 O :   -0.343940
  17 C :   -0.015396
  18 C :   -0.281145
  19 H :    0.114699
  20 H :    0.121416
  21 H :    0.130184
  22 H :    0.110149
  23 H :    0.105475
  24 H :    0.119799
  25 H :    0.110559
  26 H :    0.115848
  27 H :    0.109452
  28 H :    0.113827
  29 H :    0.207611
  30 H :    0.180108
  31 H :    0.107182
  32 H :    0.110100
  33 H :    0.111466
  34 H :    0.120420
  35 H :    0.127266
  36 H :    0.122398
  37 H :    0.097807
  38 H :    0.117383
  39 H :    0.118574
  40 H :    0.108352
Sum of atomic charges:    0.0000000

LOEWDIN ATOMIC CHARGES
----------------------
   0 C :   -0.371489
   1 C :   -0.121479
   2 O :   -0.241673
   3 P :    0.568192
   4 S :   -0.318870
   5 O :   -0.234583
   6 C :   -0.124848
   7 C :   -0.365952
   8 S :    0.087551
   9 C :   -0.482991
  10 S :    0.069778
  11 P :    0.569565
  12 S :   -0.282245
  13 O :   -0.244426
  14 C :   -0.118076
  15 C :   -0.368238
  16 O :   -0.225779
  17 C :   -0.116464
  18 C :   -0.357983
  19 H :    0.132115
  20 H :    0.125232
  21 H :    0.122284
  22 H :    0.109110
  23 H :    0.118911
  24 H :    0.111042
  25 H :    0.116874
  26 H :    0.119336
  27 H :    0.129373
  28 H :    0.125000
  29 H :    0.124258
  30 H :    0.136600
  31 H :    0.120005
  32 H :    0.106407
  33 H :    0.130054
  34 H :    0.119333
  35 H :    0.130708
  36 H :    0.116343
  37 H :    0.104841
  38 H :    0.124678
  39 H :    0.128511
  40 H :    0.128995

  Mayer bond orders larger than 0.100000
B(  0-C ,  1-C ) :   1.1657 B(  0-C , 19-H ) :   0.9382 B(  0-C , 20-H ) :   0.9437
B(  0-C , 21-H ) :   0.9332 B(  1-C ,  2-O ) :   0.9101 B(  1-C , 22-H ) :   0.9126
B(  1-C , 23-H ) :   0.9327 B(  2-O ,  3-P ) :   1.0977 B(  3-P ,  4-S ) :   1.6112
B(  3-P ,  5-O ) :   1.1381 B(  3-P ,  8-S ) :   0.9650 B(  4-S ,  8-S ) :   0.1109
B(  5-O ,  6-C ) :   0.8922 B(  6-C ,  7-C ) :   1.1569 B(  6-C , 24-H ) :   0.9153
B(  6-C , 25-H ) :   0.9288 B(  7-C , 26-H ) :   0.9363 B(  7-C , 27-H ) :   0.9398
B(  7-C , 28-H ) :   0.9448 B(  8-S ,  9-C ) :   1.0004 B(  9-C , 10-S ) :   1.0016
B(  9-C , 29-H ) :   0.8434 B(  9-C , 30-H ) :   0.9115 B( 10-S , 11-P ) :   0.9474
B( 10-S , 12-S ) :   0.1197 B( 11-P , 12-S ) :   1.6279 B( 11-P , 13-O ) :   1.0748
B( 11-P , 16-O ) :   1.1434 B( 12-S , 29-H ) :   0.1171 B( 13-O , 14-C ) :   0.9125
B( 14-C , 15-C ) :   1.1671 B( 14-C , 31-H ) :   0.9324 B( 14-C , 32-H ) :   0.9218
B( 15-C , 33-H ) :   0.9354 B( 15-C , 34-H ) :   0.9345 B( 15-C , 35-H ) :   0.9436
B( 16-O , 17-C ) :   0.8850 B( 17-C , 18-C ) :   1.1634 B( 17-C , 36-H ) :   0.9213
B( 17-C , 37-H ) :   0.9206 B( 18-C , 38-H ) :   0.9429 B( 18-C , 39-H ) :   0.9471
B( 18-C , 40-H ) :   0.9406

Dispersion correction           -0.067653485
FINAL SINGLE POINT ENERGY     -2929.518532544557

DIPOLE MOMENT
-------------

Method             : SCF
Type of density    : Electron Density
Multiplicity       :   1
Irrep              :   0
Energy             : -2929.6375483084484586 Eh
Relativity type    :
Basis              : AO
                                X                 Y                 Z
Electronic contribution:      2.015355257      -6.086546376      -4.738582412
Nuclear contribution   :     -2.400435519       6.466222748       4.176328810
                        -----------------------------------------
Total Dipole Moment    :     -0.385080262       0.379676372      -0.562253602
                        -----------------------------------------
Magnitude (a.u.)       :      0.780109011
Magnitude (Debye)      :      1.982879523

Rotational constants in cm-1:             0.012553             0.005332             0.005001
Rotational constants in MHz :           376.332805           159.840428           149.913639

                             ****ORCA TERMINATED NORMALLY****
TOTAL RUN TIME: 0 days 0 hours 0 minutes 21 seconds 531 msec
