                         Program Version 6.0.1  -  RELEASE   -
|  1> ! pbe def2-sv(p) def2/J RI DEFGRID1 loosescf d4 GCP(DFT/SV(P)) printgap
|  2> %output
|  3>     printlevel normal
|  4> end
|  5> * xyz 0 1
|  6> C 4.015252912 -1.1388604548 1.6672966383
|  7> C 2.8285192865 -1.9233094919 1.1327518928
|  8> O 2.4439551581 -1.4477602056 -0.1707673383
|  9> C 1.543888719 -0.5040041751 -0.2642783195
| 10> O 1.0181751473 0.0661576756 0.6780607048
| 11> C 1.2385243709 -0.1397002529 -1.6997223954
| 12> C 0.1822247875 0.9540613436 -1.7359594318
| 13> H 0.1630202553 1.4295900235 -2.7207391011
| 14> C 0.4432448623 2.0371506277 -0.69478849
| 15> O -0.4178316675 2.5231976806 0.0015322133
| 16> O 1.6949104722 2.4444793572 -0.7534648204
| 17> C 2.1202579059 3.4849045287 0.1510622086
| 18> C 2.7991909793 2.8841341599 1.3705391139
| 19> S -1.5318093745 0.358164459 -1.5555607925
| 20> P -1.6569230449 -0.9010709334 0.1511720213
| 21> S -0.6190724416 -2.5630822472 0.1729704022
| 22> O -1.5938213912 -0.1046495603 1.5114344714
| 23> C -2.459656558 0.9999879438 1.8384174638
| 24> O -3.2319908608 -1.19141684 0.0712755475
| 25> C -3.7871845393 -2.0322420318 -0.9453696119
| 26> H 4.8353847766 -1.175716433 0.9559247637
| 27> H 3.7340321731 -0.1022303865 1.8371591292
| 28> H 4.3353223001 -1.5745526712 2.6078420108
| 29> H 1.9652245379 -1.844333021 1.8003512579
| 30> H 3.0777832047 -2.9726955783 0.9740447976
| 31> H 0.9101097479 -1.0320042255 -2.2353690362
| 32> H 2.1621747822 0.2163070031 -2.1597147808
| 33> H 2.811341517 4.0944438785 -0.4321232048
| 34> H 1.2435792782 4.0705823461 0.44075242
| 35> H 3.0593282904 3.6742566144 2.0669317401
| 36> H 2.1220234875 2.1855817476 1.859945812
| 37> H 3.7006756142 2.35358182 1.0753897613
| 38> H -2.3630604281 1.1209627804 2.9141919317
| 39> H -3.4863448996 0.767775771 1.5633880228
| 40> H -2.1125357336 1.8934455179 1.3201899903
| 41> H -3.1782945899 -2.9305480204 -1.0599709784
| 42> H -3.8341324098 -1.4896041544 -1.8885866575
| 43> H -4.7843991826 -2.291199097 -0.598599711
| 44> *
| 45>
| 46>                          ****END OF INPUT****

CARTESIAN COORDINATES (ANGSTROEM)
---------------------------------
  C      4.015253   -1.138860    1.667297
  C      2.828519   -1.923309    1.132752
  O      2.443955   -1.447760   -0.170767
  C      1.543889   -0.504004   -0.264278
  O      1.018175    0.066158    0.678061
  C      1.238524   -0.139700   -1.699722
  C      0.182225    0.954061   -1.735959
  H      0.163020    1.429590   -2.720739
  C      0.443245    2.037151   -0.694788
  O     -0.417832    2.523198    0.001532
  O      1.694910    2.444479   -0.753465
  C      2.120258    3.484905    0.151062
  C      2.799191    2.884134    1.370539
  S     -1.531809    0.358164   -1.555561
  P     -1.656923   -0.901071    0.151172
  S     -0.619072   -2.563082    0.172970
  O     -1.593821   -0.104650    1.511434
  C     -2.459657    0.999988    1.838417
  O     -3.231991   -1.191417    0.071276
  C     -3.787185   -2.032242   -0.945370
  H      4.835385   -1.175716    0.955925
  H      3.734032   -0.102230    1.837159
  H      4.335322   -1.574553    2.607842
  H      1.965225   -1.844333    1.800351
  H      3.077783   -2.972696    0.974045
  H      0.910110   -1.032004   -2.235369
  H      2.162175    0.216307   -2.159715
  H      2.811342    4.094444   -0.432123
  H      1.243579    4.070582    0.440752
  H      3.059328    3.674257    2.066932
  H      2.122023    2.185582    1.859946
  H      3.700676    2.353582    1.075390
  H     -2.363060    1.120963    2.914192
  H     -3.486345    0.767776    1.563388
  H     -2.112536    1.893446    1.320190
  H     -3.178295   -2.930548   -1.059971
  H     -3.834132   -1.489604   -1.888587
  H     -4.784399   -2.291199   -0.598600

 Total Charge           Charge          ....    0
 Multiplicity           Mult            ....    1
 Number of Electrons    NEL             ....  174
 Basis Dimension        Dim             ....  316

ORBITAL ENERGIES
----------------

  NO   OCC          E(Eh)            E(eV)
   0   2.0000     -88.032352     -2395.4821
   1   2.0000     -87.971565     -2393.8280
   2   2.0000     -76.418543     -2079.4543
   3   2.0000     -18.804291      -511.6908
   4   2.0000     -18.803341      -511.6649
   5   2.0000     -18.784803      -511.1605
   6   2.0000     -18.779745      -511.0228
   7   2.0000     -18.741932      -509.9939
   8   2.0000     -18.736259      -509.8395
   9   2.0000     -10.014811      -272.5169
  10   2.0000     -10.014735      -272.5148
  11   2.0000      -9.948947      -270.7246
  12   2.0000      -9.948452      -270.7111
  13   2.0000      -9.942815      -270.5578
  14   2.0000      -9.938122      -270.4300
  15   2.0000      -9.927480      -270.1405
  16   2.0000      -9.911904      -269.7166
  17   2.0000      -9.886650      -269.0294
  18   2.0000      -9.885594      -269.0007
  19   2.0000      -7.677200      -208.9072
  20   2.0000      -7.616974      -207.2684
  21   2.0000      -6.415178      -174.5659
  22   2.0000      -5.705337      -155.2501
  23   2.0000      -5.701639      -155.1495
  24   2.0000      -5.693972      -154.9408
  25   2.0000      -5.646047      -153.6367
  26   2.0000      -5.637303      -153.3988
  27   2.0000      -5.637128      -153.3941
  28   2.0000      -4.638234      -126.2128
  29   2.0000      -4.637104      -126.1820
  30   2.0000      -4.635266      -126.1320
  31   2.0000      -1.015102       -27.6223
  32   2.0000      -1.009531       -27.4707
  33   2.0000      -0.976126       -26.5618
  34   2.0000      -0.931468       -25.3465
  35   2.0000      -0.919793       -25.0289
  36   2.0000      -0.915902       -24.9230
  37   2.0000      -0.761853       -20.7311
  38   2.0000      -0.709372       -19.3030
  39   2.0000      -0.704465       -19.1695
  40   2.0000      -0.686765       -18.6878
  41   2.0000      -0.654735       -17.8162
  42   2.0000      -0.628255       -17.0957
  43   2.0000      -0.620889       -16.8953
  44   2.0000      -0.607444       -16.5294
  45   2.0000      -0.594225       -16.1697
  46   2.0000      -0.564614       -15.3639
  47   2.0000      -0.508537       -13.8380
  48   2.0000      -0.501119       -13.6361
  49   2.0000      -0.492925       -13.4132
  50   2.0000      -0.484323       -13.1791
  51   2.0000      -0.464655       -12.6439
  52   2.0000      -0.451730       -12.2922
  53   2.0000      -0.439790       -11.9673
  54   2.0000      -0.434138       -11.8135
  55   2.0000      -0.431028       -11.7289
  56   2.0000      -0.422027       -11.4839
  57   2.0000      -0.419784       -11.4229
  58   2.0000      -0.413912       -11.2631
  59   2.0000      -0.402614       -10.9557
  60   2.0000      -0.393643       -10.7116
  61   2.0000      -0.392932       -10.6922
  62   2.0000      -0.389782       -10.6065
  63   2.0000      -0.382912       -10.4196
  64   2.0000      -0.378947       -10.3117
  65   2.0000      -0.370577       -10.0839
  66   2.0000      -0.358227        -9.7479
  67   2.0000      -0.354404        -9.6438
  68   2.0000      -0.339054        -9.2261
  69   2.0000      -0.334300        -9.0968
  70   2.0000      -0.328577        -8.9410
  71   2.0000      -0.327723        -8.9178
  72   2.0000      -0.321838        -8.7577
  73   2.0000      -0.308240        -8.3876
  74   2.0000      -0.296658        -8.0725
  75   2.0000      -0.295207        -8.0330
  76   2.0000      -0.291183        -7.9235
  77   2.0000      -0.285291        -7.7632
  78   2.0000      -0.263388        -7.1671
  79   2.0000      -0.259313        -7.0563
  80   2.0000      -0.253303        -6.8927
  81   2.0000      -0.249069        -6.7775
  82   2.0000      -0.231689        -6.3046
  83   2.0000      -0.228534        -6.2187
  84   2.0000      -0.218396        -5.9429
  85   2.0000      -0.191902        -5.2219
  86   2.0000      -0.184537        -5.0215
  87   0.0000      -0.034472        -0.9380
  88   0.0000      -0.021389        -0.5820
  89   0.0000      -0.019514        -0.5310
  90   0.0000      -0.005342        -0.1454
  91   0.0000       0.032260         0.8778

MULLIKEN ATOMIC CHARGES
-----------------------
   0 C :   -0.314002
   1 C :   -0.013694
   2 O :   -0.211577
   3 C :    0.125197
   4 O :   -0.213171
   5 C :   -0.074464
   6 C :   -0.293550
   7 H :    0.143993
   8 C :    0.214078
   9 O :   -0.179324
  10 O :   -0.247375
  11 C :   -0.014777
  12 C :   -0.322797
  13 S :   -0.100660
  14 P :    0.631847
  15 S :   -0.342798
  16 O :   -0.350284
  17 C :   -0.124241
  18 O :   -0.393453
  19 C :   -0.103361
  20 H :    0.111238
  21 H :    0.130561
  22 H :    0.113688
  23 H :    0.123908
  24 H :    0.105470
  25 H :    0.138688
  26 H :    0.124145
  27 H :    0.101343
  28 H :    0.111615
  29 H :    0.110799
  30 H :    0.149629
  31 H :    0.118895
  32 H :    0.119242
  33 H :    0.114997
  34 H :    0.151792
  35 H :    0.117821
  36 H :    0.117740
  37 H :    0.122843
Sum of atomic charges:    0.0000000

LOEWDIN ATOMIC CHARGES
----------------------
   0 C :   -0.357769
   1 C :   -0.109665
   2 O :   -0.037966
   3 C :    0.023034
   4 O :   -0.161743
   5 C :   -0.256415
   6 C :   -0.262365
   7 H :    0.151502
   8 C :    0.016609
   9 O :   -0.159250
  10 O :   -0.064037
  11 C :   -0.108404
  12 C :   -0.359460
  13 S :    0.101561
  14 P :    0.577335
  15 S :   -0.319007
  16 O :   -0.225307
  17 C :   -0.214720
  18 O :   -0.260829
  19 C :   -0.217643
  20 H :    0.123726
  21 H :    0.128259
  22 H :    0.131776
  23 H :    0.123597
  24 H :    0.119832
  25 H :    0.148303
  26 H :    0.148688
  27 H :    0.116216
  28 H :    0.120959
  29 H :    0.129517
  30 H :    0.136663
  31 H :    0.121988
  32 H :    0.121451
  33 H :    0.110383
  34 H :    0.123136
  35 H :    0.109928
  36 H :    0.108887
  37 H :    0.121229

  Mayer bond orders larger than 0.100000
B(  0-C ,  1-C ) :   1.1694 B(  0-C , 20-H ) :   0.9480 B(  0-C , 21-H ) :   0.9388
B(  0-C , 22-H ) :   0.9429 B(  1-C ,  2-O ) :   0.9048 B(  1-C , 23-H ) :   0.9093
B(  1-C , 24-H ) :   0.9380 B(  2-O ,  3-C ) :   1.2741 B(  3-C ,  4-O ) :   1.8962
B(  3-C ,  5-C ) :   1.0056 B(  5-C ,  6-C ) :   1.0365 B(  5-C , 25-H ) :   0.8862
B(  5-C , 26-H ) :   0.8738 B(  6-C ,  7-H ) :   0.8653 B(  6-C ,  8-C ) :   0.8656
B(  6-C , 13-S ) :   1.0577 B(  8-C ,  9-O ) :   2.0494 B(  8-C , 10-O ) :   1.2202
B( 10-O , 11-C ) :   0.9132 B( 11-C , 12-C ) :   1.1765 B( 11-C , 27-H ) :   0.9372
B( 11-C , 28-H ) :   0.9088 B( 12-C , 29-H ) :   0.9406 B( 12-C , 30-H ) :   0.9342
B( 12-C , 31-H ) :   0.9422 B( 13-S , 14-P ) :   0.9705 B( 13-S , 15-S ) :   0.1137
B( 14-P , 15-S ) :   1.6015 B( 14-P , 16-O ) :   1.1536 B( 14-P , 18-O ) :   1.0491
B( 16-O , 17-C ) :   0.9099 B( 17-C , 32-H ) :   0.9591 B( 17-C , 33-H ) :   0.9427
B( 17-C , 34-H ) :   0.9243 B( 18-O , 19-C ) :   0.9347 B( 19-C , 35-H ) :   0.9303
B( 19-C , 36-H ) :   0.9493 B( 19-C , 37-H ) :   0.9586

Dispersion correction           -0.055248222
FINAL SINGLE POINT ENERGY     -1979.014142057835

DIPOLE MOMENT
-------------

Method             : SCF
Type of density    : Electron Density
Multiplicity       :   1
Irrep              :   0
Energy             : -1979.1444127647037021 Eh
Relativity type    :
Basis              : AO
                                X                 Y                 Z
Electronic contribution:    -14.259958431      -6.168546028      -8.082104597
Nuclear contribution   :     15.014750955       6.901190947       7.731299345
                        -----------------------------------------
Total Dipole Moment    :      0.754792524       0.732644919      -0.350805252
                        -----------------------------------------
Magnitude (a.u.)       :      1.108848347
Magnitude (Debye)      :      2.818468510

Rotational constants in cm-1:             0.013483             0.008499             0.006703
Rotational constants in MHz :           404.217643           254.807971           200.961772

                             ****ORCA TERMINATED NORMALLY****
TOTAL RUN TIME: 0 days 0 hours 0 minutes 37 seconds 591 msec
