                         Program Version 6.0.0  -   RELEASE  -
|  1> ! pbe def2-sv(p) def2/J RI DEFGRID1 loosescf d4 GCP(DFT/SV(P)) printgap
|  2> %output
|  3>     printlevel normal
|  4> end
|  5> * xyz 0 1
|  6> C 3.8072923556 -2.3583335512 -2.0487862232
|  7> C 4.0330616602 -0.8827090016 -2.2939194912
|  8> O 4.0981784091 -0.1134354532 -1.06832199
|  9> P 3.0349882734 -0.1028701377 0.0935629902
| 10> S 3.2343213697 1.480431682 1.2290920276
| 11> O 3.3356858849 -1.4801855354 0.831262969
| 12> C 2.9066115682 -1.7641028975 2.1712935718
| 13> C 1.4326274939 -2.1121279185 2.2320882344
| 14> S 1.1503395796 -0.3168823741 -0.9003544467
| 15> C 0.274714562 1.1104749926 -0.2177957703
| 16> S -0.8940387471 0.6831244219 1.1090235632
| 17> P -2.6890907455 0.649242775 -0.0121964556
| 18> S -2.5749681903 0.9921827713 -1.9442876256
| 19> O -3.4840268161 1.7253364898 0.835020688
| 20> C -4.6735342398 2.3758802149 0.342797356
| 21> C -5.835025001 1.4146958218 0.1984243601
| 22> O -3.437747085 -0.6950414203 0.3876276215
| 23> C -3.2635465233 -1.9243239526 -0.3373951048
| 24> C -1.8858136305 -2.5182885333 -0.1268523629
| 25> H 2.8235224887 -2.5165178584 -1.6106004989
| 26> H 3.8611935893 -2.8872383835 -2.9953180489
| 27> H 4.5633306068 -2.7484091589 -1.3727138818
| 28> H 3.2359578019 -0.4655921369 -2.9146683199
| 29> H 5.0020257895 -0.6916353726 -2.7574261144
| 30> H 3.5292617526 -2.6084108423 2.4718599054
| 31> H 3.1290061436 -0.8976708275 2.8030992567
| 32> H 0.8265839067 -1.23290774 2.0184371091
| 33> H 1.2011683332 -2.889429822 1.5084571608
| 34> H 1.190183035 -2.4649511244 3.2292759187
| 35> H -0.2780109637 1.5697350739 -1.0377636072
| 36> H 1.0094261057 1.7958695746 0.209192175
| 37> H -4.8751459902 3.1446416752 1.0900922757
| 38> H -4.4377777833 2.8447789242 -0.6181503228
| 39> H -5.6299349323 0.6986744487 -0.5960465843
| 40> H -5.9914995955 0.8739645089 1.128129853
| 41> H -6.7323159408 1.9719999301 -0.0523303016
| 42> H -4.0464438446 -2.5736963357 0.0569858504
| 43> H -3.4409006293 -1.7286247429 -1.4000065046
| 44> H -1.8457646608 -3.5021181532 -0.5830406684
| 45> H -1.1293286057 -1.8862306343 -0.5918926245
| 46> H -1.6720203675 -2.6025526278 0.9357505055
| 47> *
| 48>
| 49>                          ****END OF INPUT****

CARTESIAN COORDINATES (ANGSTROEM)
---------------------------------
  C      3.807292   -2.358334   -2.048786
  C      4.033062   -0.882709   -2.293919
  O      4.098178   -0.113435   -1.068322
  P      3.034988   -0.102870    0.093563
  S      3.234321    1.480432    1.229092
  O      3.335686   -1.480186    0.831263
  C      2.906612   -1.764103    2.171294
  C      1.432627   -2.112128    2.232088
  S      1.150340   -0.316882   -0.900354
  C      0.274715    1.110475   -0.217796
  S     -0.894039    0.683124    1.109024
  P     -2.689091    0.649243   -0.012196
  S     -2.574968    0.992183   -1.944288
  O     -3.484027    1.725336    0.835021
  C     -4.673534    2.375880    0.342797
  C     -5.835025    1.414696    0.198424
  O     -3.437747   -0.695041    0.387628
  C     -3.263547   -1.924324   -0.337395
  C     -1.885814   -2.518289   -0.126852
  H      2.823522   -2.516518   -1.610600
  H      3.861194   -2.887238   -2.995318
  H      4.563331   -2.748409   -1.372714
  H      3.235958   -0.465592   -2.914668
  H      5.002026   -0.691635   -2.757426
  H      3.529262   -2.608411    2.471860
  H      3.129006   -0.897671    2.803099
  H      0.826584   -1.232908    2.018437
  H      1.201168   -2.889430    1.508457
  H      1.190183   -2.464951    3.229276
  H     -0.278011    1.569735   -1.037764
  H      1.009426    1.795870    0.209192
  H     -4.875146    3.144642    1.090092
  H     -4.437778    2.844779   -0.618150
  H     -5.629935    0.698674   -0.596047
  H     -5.991500    0.873965    1.128130
  H     -6.732316    1.972000   -0.052330
  H     -4.046444   -2.573696    0.056986
  H     -3.440901   -1.728625   -1.400007
  H     -1.845765   -3.502118   -0.583041
  H     -1.129329   -1.886231   -0.591893
  H     -1.672020   -2.602553    0.935751

 Total Charge           Charge          ....    0
 Multiplicity           Mult            ....    1
 Number of Electrons    NEL             ....  202
 Basis Dimension        Dim             ....  334

ORBITAL ENERGIES
----------------

  NO   OCC          E(Eh)            E(eV)
   0   2.0000     -88.046085     -2395.8558
   1   2.0000     -88.044417     -2395.8104
   2   2.0000     -87.996287     -2394.5007
   3   2.0000     -87.987566     -2394.2634
   4   2.0000     -76.429659     -2079.7567
   5   2.0000     -76.427667     -2079.7026
   6   2.0000     -18.795195      -511.4433
   7   2.0000     -18.792565      -511.3717
   8   2.0000     -18.791890      -511.3533
   9   2.0000     -18.791088      -511.3315
  10   2.0000      -9.959461      -271.0107
  11   2.0000      -9.955376      -270.8996
  12   2.0000      -9.954039      -270.8632
  13   2.0000      -9.951586      -270.7964
  14   2.0000      -9.950326      -270.7621
  15   2.0000      -9.891979      -269.1744
  16   2.0000      -9.886175      -269.0165
  17   2.0000      -9.885342      -268.9938
  18   2.0000      -9.882806      -268.9248
  19   2.0000      -7.690210      -209.2613
  20   2.0000      -7.689125      -209.2317
  21   2.0000      -7.641062      -207.9239
  22   2.0000      -7.632694      -207.6962
  23   2.0000      -6.427512      -174.9015
  24   2.0000      -6.425196      -174.8385
  25   2.0000      -5.717991      -155.5944
  26   2.0000      -5.716951      -155.5662
  27   2.0000      -5.714647      -155.5035
  28   2.0000      -5.713743      -155.4789
  29   2.0000      -5.707504      -155.3091
  30   2.0000      -5.706055      -155.2697
  31   2.0000      -5.669777      -154.2825
  32   2.0000      -5.661835      -154.0664
  33   2.0000      -5.661648      -154.0613
  34   2.0000      -5.661318      -154.0523
  35   2.0000      -5.653296      -153.8340
  36   2.0000      -5.652801      -153.8205
  37   2.0000      -4.649785      -126.5271
  38   2.0000      -4.649155      -126.5099
  39   2.0000      -4.648308      -126.4869
  40   2.0000      -4.647820      -126.4736
  41   2.0000      -4.646893      -126.4484
  42   2.0000      -4.645673      -126.4152
  43   2.0000      -0.989330       -26.9210
  44   2.0000      -0.987792       -26.8792
  45   2.0000      -0.948001       -25.7964
  46   2.0000      -0.946218       -25.7479
  47   2.0000      -0.761819       -20.7301
  48   2.0000      -0.724093       -19.7036
  49   2.0000      -0.712797       -19.3962
  50   2.0000      -0.691968       -18.8294
  51   2.0000      -0.689631       -18.7658
  52   2.0000      -0.678137       -18.4531
  53   2.0000      -0.653912       -17.7939
  54   2.0000      -0.640497       -17.4288
  55   2.0000      -0.606932       -16.5154
  56   2.0000      -0.598832       -16.2951
  57   2.0000      -0.576623       -15.6907
  58   2.0000      -0.574944       -15.6450
  59   2.0000      -0.558643       -15.2015
  60   2.0000      -0.496851       -13.5200
  61   2.0000      -0.494268       -13.4497
  62   2.0000      -0.475818       -12.9477
  63   2.0000      -0.474437       -12.9101
  64   2.0000      -0.459977       -12.5166
  65   2.0000      -0.450357       -12.2548
  66   2.0000      -0.442470       -12.0402
  67   2.0000      -0.441118       -12.0034
  68   2.0000      -0.434497       -11.8233
  69   2.0000      -0.420723       -11.4485
  70   2.0000      -0.407291       -11.0829
  71   2.0000      -0.401341       -10.9210
  72   2.0000      -0.395804       -10.7704
  73   2.0000      -0.391656       -10.6575
  74   2.0000      -0.386917       -10.5286
  75   2.0000      -0.374654       -10.1948
  76   2.0000      -0.368978       -10.0404
  77   2.0000      -0.357112        -9.7175
  78   2.0000      -0.356375        -9.6975
  79   2.0000      -0.355617        -9.6768
  80   2.0000      -0.351119        -9.5544
  81   2.0000      -0.346098        -9.4178
  82   2.0000      -0.343368        -9.3435
  83   2.0000      -0.341151        -9.2832
  84   2.0000      -0.339363        -9.2345
  85   2.0000      -0.320474        -8.7205
  86   2.0000      -0.311165        -8.4672
  87   2.0000      -0.299285        -8.1440
  88   2.0000      -0.296269        -8.0619
  89   2.0000      -0.291736        -7.9385
  90   2.0000      -0.287797        -7.8314
  91   2.0000      -0.276530        -7.5248
  92   2.0000      -0.274033        -7.4568
  93   2.0000      -0.268105        -7.2955
  94   2.0000      -0.260500        -7.0886
  95   2.0000      -0.229685        -6.2500
  96   2.0000      -0.221828        -6.0362
  97   2.0000      -0.217536        -5.9195
  98   2.0000      -0.210684        -5.7330
  99   2.0000      -0.206803        -5.6274
 100   2.0000      -0.202450        -5.5090
 101   0.0000      -0.045263        -1.2317
 102   0.0000      -0.038217        -1.0399
 103   0.0000      -0.016875        -0.4592
 104   0.0000       0.006258         0.1703
 105   0.0000       0.014289         0.3888

MULLIKEN ATOMIC CHARGES
-----------------------
   0 C :   -0.316578
   1 C :   -0.004901
   2 O :   -0.358617
   3 P :    0.599106
   4 S :   -0.305747
   5 O :   -0.371656
   6 C :    0.001063
   7 C :   -0.335258
   8 S :   -0.122282
   9 C :   -0.348876
  10 S :   -0.077687
  11 P :    0.612087
  12 S :   -0.333344
  13 O :   -0.366172
  14 C :   -0.001781
  15 C :   -0.309305
  16 O :   -0.369756
  17 C :   -0.001425
  18 C :   -0.335274
  19 H :    0.125345
  20 H :    0.116673
  21 H :    0.126487
  22 H :    0.116279
  23 H :    0.114079
  24 H :    0.103197
  25 H :    0.112010
  26 H :    0.143545
  27 H :    0.117555
  28 H :    0.110756
  29 H :    0.196612
  30 H :    0.197585
  31 H :    0.108758
  32 H :    0.112240
  33 H :    0.122603
  34 H :    0.119199
  35 H :    0.112955
  36 H :    0.105183
  37 H :    0.109922
  38 H :    0.110660
  39 H :    0.140273
  40 H :    0.124489
Sum of atomic charges:   -0.0000000

LOEWDIN ATOMIC CHARGES
----------------------
   0 C :   -0.367128
   1 C :   -0.113860
   2 O :   -0.235566
   3 P :    0.569143
   4 S :   -0.298567
   5 O :   -0.242347
   6 C :   -0.118503
   7 C :   -0.370801
   8 S :    0.080262
   9 C :   -0.487773
  10 S :    0.105341
  11 P :    0.570856
  12 S :   -0.314151
  13 O :   -0.243166
  14 C :   -0.114275
  15 C :   -0.365005
  16 O :   -0.242613
  17 C :   -0.118375
  18 C :   -0.371301
  19 H :    0.117272
  20 H :    0.132970
  21 H :    0.130790
  22 H :    0.111764
  23 H :    0.124528
  24 H :    0.117772
  25 H :    0.110705
  26 H :    0.112288
  27 H :    0.124203
  28 H :    0.130444
  29 H :    0.126626
  30 H :    0.126562
  31 H :    0.120894
  32 H :    0.111910
  33 H :    0.122771
  34 H :    0.127570
  35 H :    0.130798
  36 H :    0.118718
  37 H :    0.109677
  38 H :    0.130422
  39 H :    0.112480
  40 H :    0.126663

  Mayer bond orders larger than 0.100000
B(  0-C ,  1-C ) :   1.1692 B(  0-C , 19-H ) :   0.9369 B(  0-C , 20-H ) :   0.9346
B(  0-C , 21-H ) :   0.9420 B(  1-C ,  2-O ) :   0.9023 B(  1-C , 22-H ) :   0.9212
B(  1-C , 23-H ) :   0.9334 B(  2-O ,  3-P ) :   1.1491 B(  3-P ,  4-S ) :   1.6302
B(  3-P ,  5-O ) :   1.0887 B(  3-P ,  8-S ) :   0.9383 B(  4-S ,  8-S ) :   0.1119
B(  4-S , 30-H ) :   0.1141 B(  5-O ,  6-C ) :   0.9130 B(  6-C ,  7-C ) :   1.1609
B(  6-C , 24-H ) :   0.9336 B(  6-C , 25-H ) :   0.9119 B(  7-C , 26-H ) :   0.9270
B(  7-C , 27-H ) :   0.9442 B(  7-C , 28-H ) :   0.9381 B(  8-S ,  9-C ) :   1.0156
B(  9-C , 10-S ) :   1.0153 B(  9-C , 29-H ) :   0.8605 B(  9-C , 30-H ) :   0.8497
B( 10-S , 11-P ) :   0.9624 B( 10-S , 12-S ) :   0.1153 B( 11-P , 12-S ) :   1.5878
B( 11-P , 13-O ) :   1.1379 B( 11-P , 16-O ) :   1.1053 B( 13-O , 14-C ) :   0.9103
B( 14-C , 15-C ) :   1.1631 B( 14-C , 31-H ) :   0.9352 B( 14-C , 32-H ) :   0.9197
B( 15-C , 33-H ) :   0.9387 B( 15-C , 34-H ) :   0.9457 B( 15-C , 35-H ) :   0.9381
B( 16-O , 17-C ) :   0.9114 B( 17-C , 18-C ) :   1.1631 B( 17-C , 36-H ) :   0.9332
B( 17-C , 37-H ) :   0.9157 B( 18-C , 38-H ) :   0.9373 B( 18-C , 39-H ) :   0.9267
B( 18-C , 40-H ) :   0.9419

Dispersion correction           -0.063592798
FINAL SINGLE POINT ENERGY     -2929.518956094209

DIPOLE MOMENT
-------------

Method             : SCF
Type of density    : Electron Density
Multiplicity       :   1
Irrep              :   0
Energy             : -2929.6408164432077683 Eh
Relativity type    :
Basis              : AO
                                X                 Y                 Z
Electronic contribution:      8.668526684      16.717858051       0.843343590
Nuclear contribution   :     -9.435270279     -18.212885790      -1.055426924
                        -----------------------------------------
Total Dipole Moment    :     -0.766743595      -1.495027739      -0.212083334
                        -----------------------------------------
Magnitude (a.u.)       :      1.693512037
Magnitude (Debye)      :      4.304565509

Rotational constants in cm-1:             0.014145             0.003948             0.003882
Rotational constants in MHz :           424.051891           118.360020           116.382484

                             ****ORCA TERMINATED NORMALLY****
TOTAL RUN TIME: 0 days 0 hours 0 minutes 20 seconds 756 msec
