                         Program Version 6.0.1  -  RELEASE   -
|  1> ! r2scan-3c def2/J RI DEFGRID2 scfconv6 printgap
|  2> %output
|  3>     printlevel normal
|  4> end
|  5> * xyz 0 1
|  6> C 2.3105074824 -3.6098633188 -0.3653774724
|  7> C 2.9745898389 -2.2806126868 -0.0446801944
|  8> O 2.1914019842 -1.1815211037 -0.5476151874
|  9> C 2.3271526711 -0.8464823812 -1.8222819683
| 10> O 3.1206142048 -1.3591262524 -2.5776890888
| 11> C 1.3925328756 0.2730309584 -2.2298429063
| 12> C 0.3447156388 0.6037420204 -1.17770097
| 13> H -0.244314444 1.4722630015 -1.4930747576
| 14> C 0.9469047418 0.9316158639 0.1747853184
| 15> O 0.4792731588 0.5124140936 1.2142044531
| 16> O 1.9758873292 1.7296892889 0.0758043848
| 17> C 2.5734309246 2.223481347 1.2935630052
| 18> C 1.8549706394 3.477021031 1.7648999793
| 19> S -0.8231482975 -0.7791576033 -0.9337843892
| 20> P -2.039098063 0.1129786388 0.5612645477
| 21> S -2.134632458 2.0679993951 0.5966029553
| 22> O -3.4580104688 -0.5538572512 0.1874800485
| 23> C -4.158779832 -0.1966681534 -1.0058295224
| 24> O -1.8457555268 -0.5640124055 1.975596927
| 25> C -1.5267923488 -1.9578727569 2.1317434754
| 26> H 1.2882632689 -3.6178037739 0.004363393
| 27> H 2.2957732736 -3.7681105396 -1.4409712543
| 28> H 2.8694918104 -4.412540811 0.1038452116
| 29> H 3.9725182378 -2.2272337733 -0.4889805241
| 30> H 3.0268788756 -2.1084801717 1.0310354896
| 31> H 0.9135749995 -0.0161065457 -3.1665513105
| 32> H 2.0017937952 1.1593189176 -2.4224439185
| 33> H 2.5232703405 1.4371676098 2.0512771792
| 34> H 3.608461487 2.4316593644 1.022929318
| 35> H 1.8922086709 4.2438300451 0.9963329391
| 36> H 0.8117065194 3.253037201 1.9820567137
| 37> H 2.3304104237 3.8478962656 2.6666998857
| 38> H -4.2111207894 0.8897114117 -1.0975080825
| 39> H -5.1556990045 -0.6160924765 -0.8980201733
| 40> H -3.6540938985 -0.6204375681 -1.8741472679
| 41> H -1.6630090491 -2.1635947015 3.19025467
| 42> H -0.4888350272 -2.1212657718 1.8413333271
| 43> H -2.1940043192 -2.5710728733 1.5276327044
| 44> *
| 45>
| 46>                          ****END OF INPUT****

CARTESIAN COORDINATES (ANGSTROEM)
---------------------------------
  C      2.310507   -3.609863   -0.365377
  C      2.974590   -2.280613   -0.044680
  O      2.191402   -1.181521   -0.547615
  C      2.327153   -0.846482   -1.822282
  O      3.120614   -1.359126   -2.577689
  C      1.392533    0.273031   -2.229843
  C      0.344716    0.603742   -1.177701
  H     -0.244314    1.472263   -1.493075
  C      0.946905    0.931616    0.174785
  O      0.479273    0.512414    1.214204
  O      1.975887    1.729689    0.075804
  C      2.573431    2.223481    1.293563
  C      1.854971    3.477021    1.764900
  S     -0.823148   -0.779158   -0.933784
  P     -2.039098    0.112979    0.561265
  S     -2.134632    2.067999    0.596603
  O     -3.458010   -0.553857    0.187480
  C     -4.158780   -0.196668   -1.005830
  O     -1.845756   -0.564012    1.975597
  C     -1.526792   -1.957873    2.131743
  H      1.288263   -3.617804    0.004363
  H      2.295773   -3.768111   -1.440971
  H      2.869492   -4.412541    0.103845
  H      3.972518   -2.227234   -0.488981
  H      3.026879   -2.108480    1.031035
  H      0.913575   -0.016107   -3.166551
  H      2.001794    1.159319   -2.422444
  H      2.523270    1.437168    2.051277
  H      3.608461    2.431659    1.022929
  H      1.892209    4.243830    0.996333
  H      0.811707    3.253037    1.982057
  H      2.330410    3.847896    2.666700
  H     -4.211121    0.889711   -1.097508
  H     -5.155699   -0.616092   -0.898020
  H     -3.654094   -0.620438   -1.874147
  H     -1.663009   -2.163595    3.190255
  H     -0.488835   -2.121266    1.841333
  H     -2.194004   -2.571073    1.527633

 Total Charge           Charge          ....    0
 Multiplicity           Mult            ....    1
 Number of Electrons    NEL             ....  174
 Basis Dimension        Dim             ....  510

ORBITAL ENERGIES
----------------

  NO   OCC          E(Eh)            E(eV)
   0   2.0000     -88.573248     -2410.2006
   1   2.0000     -88.508691     -2408.4439
   2   2.0000     -76.908017     -2092.7735
   3   2.0000     -19.014426      -517.4088
   4   2.0000     -19.010732      -517.3083
   5   2.0000     -18.982939      -516.5520
   6   2.0000     -18.978134      -516.4213
   7   2.0000     -18.940480      -515.3967
   8   2.0000     -18.940159      -515.3879
   9   2.0000     -10.169409      -276.7237
  10   2.0000     -10.168387      -276.6959
  11   2.0000     -10.101572      -274.8777
  12   2.0000     -10.101122      -274.8655
  13   2.0000     -10.098821      -274.8029
  14   2.0000     -10.091730      -274.6099
  15   2.0000     -10.081496      -274.3315
  16   2.0000     -10.071303      -274.0541
  17   2.0000     -10.035181      -273.0712
  18   2.0000     -10.030249      -272.9370
  19   2.0000      -7.867569      -214.0874
  20   2.0000      -7.803685      -212.3491
  21   2.0000      -6.585642      -179.2044
  22   2.0000      -5.814423      -158.2185
  23   2.0000      -5.811563      -158.1407
  24   2.0000      -5.804576      -157.9505
  25   2.0000      -5.751602      -156.5091
  26   2.0000      -5.744120      -156.3055
  27   2.0000      -5.743216      -156.2808
  28   2.0000      -4.731208      -128.7427
  29   2.0000      -4.730973      -128.7363
  30   2.0000      -4.729109      -128.6856
  31   2.0000      -1.093946       -29.7678
  32   2.0000      -1.085379       -29.5347
  33   2.0000      -1.039714       -28.2921
  34   2.0000      -0.997597       -27.1460
  35   2.0000      -0.992945       -27.0194
  36   2.0000      -0.990245       -26.9459
  37   2.0000      -0.817829       -22.2542
  38   2.0000      -0.755583       -20.5605
  39   2.0000      -0.750451       -20.4208
  40   2.0000      -0.728764       -19.8307
  41   2.0000      -0.699436       -19.0326
  42   2.0000      -0.665757       -18.1162
  43   2.0000      -0.660109       -17.9625
  44   2.0000      -0.648683       -17.6516
  45   2.0000      -0.636413       -17.3177
  46   2.0000      -0.604623       -16.4526
  47   2.0000      -0.541451       -14.7336
  48   2.0000      -0.534720       -14.5505
  49   2.0000      -0.528009       -14.3679
  50   2.0000      -0.508657       -13.8413
  51   2.0000      -0.487495       -13.2654
  52   2.0000      -0.483806       -13.1650
  53   2.0000      -0.475450       -12.9376
  54   2.0000      -0.461734       -12.5644
  55   2.0000      -0.453465       -12.3394
  56   2.0000      -0.443181       -12.0596
  57   2.0000      -0.440563       -11.9883
  58   2.0000      -0.434080       -11.8119
  59   2.0000      -0.426609       -11.6086
  60   2.0000      -0.423790       -11.5319
  61   2.0000      -0.416336       -11.3291
  62   2.0000      -0.412622       -11.2280
  63   2.0000      -0.410661       -11.1746
  64   2.0000      -0.398675       -10.8485
  65   2.0000      -0.391564       -10.6550
  66   2.0000      -0.380230       -10.3466
  67   2.0000      -0.371529       -10.1098
  68   2.0000      -0.364426        -9.9165
  69   2.0000      -0.360074        -9.7981
  70   2.0000      -0.350036        -9.5250
  71   2.0000      -0.346819        -9.4374
  72   2.0000      -0.343372        -9.3436
  73   2.0000      -0.330195        -8.9851
  74   2.0000      -0.319991        -8.7074
  75   2.0000      -0.317126        -8.6294
  76   2.0000      -0.309484        -8.4215
  77   2.0000      -0.304983        -8.2990
  78   2.0000      -0.289396        -7.8749
  79   2.0000      -0.285244        -7.7619
  80   2.0000      -0.278015        -7.5652
  81   2.0000      -0.268124        -7.2960
  82   2.0000      -0.252430        -6.8690
  83   2.0000      -0.248859        -6.7718
  84   2.0000      -0.233581        -6.3560
  85   2.0000      -0.210553        -5.7294
  86   2.0000      -0.203292        -5.5318
  87   0.0000      -0.044634        -1.2146
  88   0.0000      -0.027005        -0.7349
  89   0.0000      -0.024771        -0.6741
  90   0.0000       0.006253         0.1702
  91   0.0000       0.025909         0.7050

MULLIKEN ATOMIC CHARGES
-----------------------
   0 C :   -0.459696
   1 C :   -0.160970
   2 O :   -0.098154
   3 C :    0.286423
   4 O :   -0.393039
   5 C :   -0.381958
   6 C :    0.013044
   7 H :    0.246216
   8 C :    0.275766
   9 O :   -0.407194
  10 O :   -0.143707
  11 C :   -0.133820
  12 C :   -0.468805
  13 S :   -0.216634
  14 P :    0.805328
  15 S :   -0.468749
  16 O :   -0.363307
  17 C :   -0.301238
  18 O :   -0.296141
  19 C :   -0.301742
  20 H :    0.155215
  21 H :    0.175797
  22 H :    0.149799
  23 H :    0.168672
  24 H :    0.156429
  25 H :    0.195423
  26 H :    0.197804
  27 H :    0.166503
  28 H :    0.150554
  29 H :    0.152130
  30 H :    0.190389
  31 H :    0.147884
  32 H :    0.174348
  33 H :    0.149420
  34 H :    0.153534
  35 H :    0.154853
  36 H :    0.168607
  37 H :    0.161017
Sum of atomic charges:   -0.0000000

LOEWDIN ATOMIC CHARGES
----------------------
   0 C :   -0.387832
   1 C :    0.036237
   2 O :   -0.608752
   3 C :    0.362924
   4 O :   -0.416020
   5 C :   -0.201755
   6 C :   -0.200946
   7 H :    0.207788
   8 C :    0.346167
   9 O :   -0.452323
  10 O :   -0.569814
  11 C :    0.036352
  12 C :   -0.386778
  13 S :    0.218493
  14 P :    0.409010
  15 S :   -0.096097
  16 O :   -0.691871
  17 C :   -0.067538
  18 O :   -0.639280
  19 C :   -0.053376
  20 H :    0.159464
  21 H :    0.167106
  22 H :    0.160118
  23 H :    0.189348
  24 H :    0.181099
  25 H :    0.193025
  26 H :    0.204579
  27 H :    0.189269
  28 H :    0.179215
  29 H :    0.158139
  30 H :    0.174015
  31 H :    0.159847
  32 H :    0.175678
  33 H :    0.175380
  34 H :    0.166079
  35 H :    0.180340
  36 H :    0.173362
  37 H :    0.169348

  Mayer bond orders larger than 0.100000
B(  0-C ,  1-C ) :   0.9255 B(  0-C , 20-H ) :   0.9723 B(  0-C , 21-H ) :   0.9707
B(  0-C , 22-H ) :   0.9643 B(  1-C ,  2-O ) :   0.7952 B(  1-C , 23-H ) :   0.9624
B(  1-C , 24-H ) :   0.9626 B(  2-O ,  3-C ) :   1.0900 B(  2-O ,  8-C ) :   0.1385
B(  3-C ,  4-O ) :   1.9069 B(  3-C ,  5-C ) :   0.9488 B(  5-C ,  6-C ) :   0.9273
B(  5-C , 10-O ) :   0.1052 B(  5-C , 25-H ) :   0.9568 B(  5-C , 26-H ) :   0.9218
B(  6-C ,  7-H ) :   0.8943 B(  6-C ,  8-C ) :   0.8853 B(  6-C , 13-S ) :   0.8764
B(  8-C ,  9-O ) :   1.7695 B(  8-C , 10-O ) :   1.1463 B(  9-O , 14-P ) :   0.1051
B( 10-O , 11-C ) :   0.7888 B( 11-C , 12-C ) :   0.9453 B( 11-C , 27-H ) :   0.9660
B( 11-C , 28-H ) :   0.9606 B( 12-C , 29-H ) :   0.9723 B( 12-C , 30-H ) :   0.9606
B( 12-C , 31-H ) :   0.9646 B( 13-S , 14-P ) :   0.9684 B( 14-P , 15-S ) :   1.7681
B( 14-P , 16-O ) :   1.0073 B( 14-P , 18-O ) :   1.2019 B( 16-O , 17-C ) :   0.8401
B( 17-C , 32-H ) :   0.9590 B( 17-C , 33-H ) :   0.9690 B( 17-C , 34-H ) :   0.9574
B( 18-O , 19-C ) :   0.7971 B( 19-C , 35-H ) :   0.9649 B( 19-C , 36-H ) :   0.9587
B( 19-C , 37-H ) :   0.9649

Dispersion correction           -0.017891116
FINAL SINGLE POINT ENERGY     -1981.447858510558

DIPOLE MOMENT
-------------

Method             : SCF
Type of density    : Electron Density
Multiplicity       :   1
Irrep              :   0
Energy             : -1981.4677752408106244 Eh
Relativity type    :
Basis              : AO
                                X                 Y                 Z
Electronic contribution:    -10.440418266       4.633487422      -2.667996151
Nuclear contribution   :     11.253786792      -5.326546550       2.830555469
                        -----------------------------------------
Total Dipole Moment    :      0.813368526      -0.693059128       0.162559318
                        -----------------------------------------
Magnitude (a.u.)       :      1.080890765
Magnitude (Debye)      :      2.747405984

Rotational constants in cm-1:             0.012472             0.007951             0.006394
Rotational constants in MHz :           373.904443           238.362115           191.674447

                             ****ORCA TERMINATED NORMALLY****
TOTAL RUN TIME: 0 days 0 hours 1 minutes 21 seconds 523 msec
