                         Program Version 6.0.1  -  RELEASE   -
|  1> ! r2scan-3c def2/J RI DEFGRID2 scfconv6 printgap
|  2> %output
|  3>     printlevel normal
|  4> end
|  5> %cpcm
|  6>     smd true
|  7>     smdsolvent "water"
|  8> end
|  9> * xyz 0 1
| 10> C 2.3105074824 -3.6098633188 -0.3653774724
| 11> C 2.9745898389 -2.2806126868 -0.0446801944
| 12> O 2.1914019842 -1.1815211037 -0.5476151874
| 13> C 2.3271526711 -0.8464823812 -1.8222819683
| 14> O 3.1206142048 -1.3591262524 -2.5776890888
| 15> C 1.3925328756 0.2730309584 -2.2298429063
| 16> C 0.3447156388 0.6037420204 -1.17770097
| 17> H -0.244314444 1.4722630015 -1.4930747576
| 18> C 0.9469047418 0.9316158639 0.1747853184
| 19> O 0.4792731588 0.5124140936 1.2142044531
| 20> O 1.9758873292 1.7296892889 0.0758043848
| 21> C 2.5734309246 2.223481347 1.2935630052
| 22> C 1.8549706394 3.477021031 1.7648999793
| 23> S -0.8231482975 -0.7791576033 -0.9337843892
| 24> P -2.039098063 0.1129786388 0.5612645477
| 25> S -2.134632458 2.0679993951 0.5966029553
| 26> O -3.4580104688 -0.5538572512 0.1874800485
| 27> C -4.158779832 -0.1966681534 -1.0058295224
| 28> O -1.8457555268 -0.5640124055 1.975596927
| 29> C -1.5267923488 -1.9578727569 2.1317434754
| 30> H 1.2882632689 -3.6178037739 0.004363393
| 31> H 2.2957732736 -3.7681105396 -1.4409712543
| 32> H 2.8694918104 -4.412540811 0.1038452116
| 33> H 3.9725182378 -2.2272337733 -0.4889805241
| 34> H 3.0268788756 -2.1084801717 1.0310354896
| 35> H 0.9135749995 -0.0161065457 -3.1665513105
| 36> H 2.0017937952 1.1593189176 -2.4224439185
| 37> H 2.5232703405 1.4371676098 2.0512771792
| 38> H 3.608461487 2.4316593644 1.022929318
| 39> H 1.8922086709 4.2438300451 0.9963329391
| 40> H 0.8117065194 3.253037201 1.9820567137
| 41> H 2.3304104237 3.8478962656 2.6666998857
| 42> H -4.2111207894 0.8897114117 -1.0975080825
| 43> H -5.1556990045 -0.6160924765 -0.8980201733
| 44> H -3.6540938985 -0.6204375681 -1.8741472679
| 45> H -1.6630090491 -2.1635947015 3.19025467
| 46> H -0.4888350272 -2.1212657718 1.8413333271
| 47> H -2.1940043192 -2.5710728733 1.5276327044
| 48> *
| 49>
| 50>                          ****END OF INPUT****

CARTESIAN COORDINATES (ANGSTROEM)
---------------------------------
  C      2.310507   -3.609863   -0.365377
  C      2.974590   -2.280613   -0.044680
  O      2.191402   -1.181521   -0.547615
  C      2.327153   -0.846482   -1.822282
  O      3.120614   -1.359126   -2.577689
  C      1.392533    0.273031   -2.229843
  C      0.344716    0.603742   -1.177701
  H     -0.244314    1.472263   -1.493075
  C      0.946905    0.931616    0.174785
  O      0.479273    0.512414    1.214204
  O      1.975887    1.729689    0.075804
  C      2.573431    2.223481    1.293563
  C      1.854971    3.477021    1.764900
  S     -0.823148   -0.779158   -0.933784
  P     -2.039098    0.112979    0.561265
  S     -2.134632    2.067999    0.596603
  O     -3.458010   -0.553857    0.187480
  C     -4.158780   -0.196668   -1.005830
  O     -1.845756   -0.564012    1.975597
  C     -1.526792   -1.957873    2.131743
  H      1.288263   -3.617804    0.004363
  H      2.295773   -3.768111   -1.440971
  H      2.869492   -4.412541    0.103845
  H      3.972518   -2.227234   -0.488981
  H      3.026879   -2.108480    1.031035
  H      0.913575   -0.016107   -3.166551
  H      2.001794    1.159319   -2.422444
  H      2.523270    1.437168    2.051277
  H      3.608461    2.431659    1.022929
  H      1.892209    4.243830    0.996333
  H      0.811707    3.253037    1.982057
  H      2.330410    3.847896    2.666700
  H     -4.211121    0.889711   -1.097508
  H     -5.155699   -0.616092   -0.898020
  H     -3.654094   -0.620438   -1.874147
  H     -1.663009   -2.163595    3.190255
  H     -0.488835   -2.121266    1.841333
  H     -2.194004   -2.571073    1.527633

 Total Charge           Charge          ....    0
 Multiplicity           Mult            ....    1
 Number of Electrons    NEL             ....  174
 Basis Dimension        Dim             ....  510

ORBITAL ENERGIES
----------------

  NO   OCC          E(Eh)            E(eV)
   0   2.0000     -88.576665     -2410.2936
   1   2.0000     -88.523114     -2408.8364
   2   2.0000     -76.918457     -2093.0576
   3   2.0000     -19.013507      -517.3838
   4   2.0000     -19.010051      -517.2898
   5   2.0000     -18.993282      -516.8335
   6   2.0000     -18.986413      -516.6466
   7   2.0000     -18.949058      -515.6301
   8   2.0000     -18.948769      -515.6222
   9   2.0000     -10.174715      -276.8681
  10   2.0000     -10.172862      -276.8176
  11   2.0000     -10.096639      -274.7435
  12   2.0000     -10.088483      -274.5216
  13   2.0000     -10.087424      -274.4927
  14   2.0000     -10.084161      -274.4040
  15   2.0000     -10.077508      -274.2229
  16   2.0000     -10.062026      -273.8016
  17   2.0000     -10.019966      -272.6571
  18   2.0000     -10.019723      -272.6505
  19   2.0000      -7.870903      -214.1782
  20   2.0000      -7.818448      -212.7508
  21   2.0000      -6.596217      -179.4922
  22   2.0000      -5.817789      -158.3101
  23   2.0000      -5.814923      -158.2321
  24   2.0000      -5.807866      -158.0401
  25   2.0000      -5.766232      -156.9071
  26   2.0000      -5.758915      -156.7081
  27   2.0000      -5.758010      -156.6834
  28   2.0000      -4.741789      -129.0306
  29   2.0000      -4.741442      -129.0212
  30   2.0000      -4.739794      -128.9764
  31   2.0000      -1.094881       -29.7932
  32   2.0000      -1.086165       -29.5561
  33   2.0000      -1.049089       -28.5472
  34   2.0000      -1.005681       -27.3660
  35   2.0000      -0.999948       -27.2100
  36   2.0000      -0.996889       -27.1267
  37   2.0000      -0.814826       -22.1725
  38   2.0000      -0.748697       -20.3731
  39   2.0000      -0.744255       -20.2522
  40   2.0000      -0.726980       -19.7821
  41   2.0000      -0.697265       -18.9736
  42   2.0000      -0.664509       -18.0822
  43   2.0000      -0.659149       -17.9363
  44   2.0000      -0.653605       -17.7855
  45   2.0000      -0.626945       -17.0600
  46   2.0000      -0.599903       -16.3242
  47   2.0000      -0.538002       -14.6398
  48   2.0000      -0.529139       -14.3986
  49   2.0000      -0.524737       -14.2788
  50   2.0000      -0.506369       -13.7790
  51   2.0000      -0.487994       -13.2790
  52   2.0000      -0.485659       -13.2154
  53   2.0000      -0.478629       -13.0242
  54   2.0000      -0.458524       -12.4771
  55   2.0000      -0.454190       -12.3591
  56   2.0000      -0.447589       -12.1795
  57   2.0000      -0.443528       -12.0690
  58   2.0000      -0.434897       -11.8341
  59   2.0000      -0.424767       -11.5585
  60   2.0000      -0.419849       -11.4247
  61   2.0000      -0.412591       -11.2272
  62   2.0000      -0.409110       -11.1325
  63   2.0000      -0.405616       -11.0374
  64   2.0000      -0.392608       -10.6834
  65   2.0000      -0.389079       -10.5874
  66   2.0000      -0.374554       -10.1921
  67   2.0000      -0.364844        -9.9279
  68   2.0000      -0.360962        -9.8223
  69   2.0000      -0.353151        -9.6097
  70   2.0000      -0.347427        -9.4540
  71   2.0000      -0.343764        -9.3543
  72   2.0000      -0.338231        -9.2037
  73   2.0000      -0.329610        -8.9691
  74   2.0000      -0.315703        -8.5907
  75   2.0000      -0.312442        -8.5020
  76   2.0000      -0.310403        -8.4465
  77   2.0000      -0.305789        -8.3209
  78   2.0000      -0.292340        -7.9550
  79   2.0000      -0.287734        -7.8296
  80   2.0000      -0.280817        -7.6414
  81   2.0000      -0.274628        -7.4730
  82   2.0000      -0.261245        -7.1088
  83   2.0000      -0.257760        -7.0140
  84   2.0000      -0.239230        -6.5098
  85   2.0000      -0.224491        -6.1087
  86   2.0000      -0.218508        -5.9459
  87   0.0000      -0.049348        -1.3428
  88   0.0000      -0.031219        -0.8495
  89   0.0000      -0.027372        -0.7448
  90   0.0000       0.003692         0.1005
  91   0.0000       0.018695         0.5087

MULLIKEN ATOMIC CHARGES
-----------------------
   0 C :   -0.486714
   1 C :   -0.167294
   2 O :   -0.113129
   3 C :    0.332605
   4 O :   -0.469394
   5 C :   -0.423690
   6 C :    0.033398
   7 H :    0.271577
   8 C :    0.277673
   9 O :   -0.457506
  10 O :   -0.150966
  11 C :   -0.132608
  12 C :   -0.502614
  13 S :   -0.206846
  14 P :    0.804244
  15 S :   -0.516421
  16 O :   -0.396973
  17 C :   -0.309151
  18 O :   -0.348882
  19 C :   -0.306730
  20 H :    0.166976
  21 H :    0.172662
  22 H :    0.173535
  23 H :    0.175626
  24 H :    0.182176
  25 H :    0.226872
  26 H :    0.233072
  27 H :    0.177821
  28 H :    0.179168
  29 H :    0.170233
  30 H :    0.170679
  31 H :    0.173471
  32 H :    0.174898
  33 H :    0.176304
  34 H :    0.171739
  35 H :    0.181435
  36 H :    0.180757
  37 H :    0.181997
Sum of atomic charges:   -0.0000000

LOEWDIN ATOMIC CHARGES
----------------------
   0 C :   -0.390737
   1 C :    0.041783
   2 O :   -0.607031
   3 C :    0.372970
   4 O :   -0.470256
   5 C :   -0.194334
   6 C :   -0.191189
   7 H :    0.217240
   8 C :    0.349762
   9 O :   -0.493063
  10 O :   -0.566296
  11 C :    0.043013
  12 C :   -0.391240
  13 S :    0.230913
  14 P :    0.404582
  15 S :   -0.135815
  16 O :   -0.708865
  17 C :   -0.063202
  18 O :   -0.672852
  19 C :   -0.046311
  20 H :    0.162934
  21 H :    0.163957
  22 H :    0.169036
  23 H :    0.191946
  24 H :    0.191983
  25 H :    0.205263
  26 H :    0.218044
  27 H :    0.192672
  28 H :    0.191948
  29 H :    0.163048
  30 H :    0.163908
  31 H :    0.169187
  32 H :    0.176011
  33 H :    0.186618
  34 H :    0.174003
  35 H :    0.191542
  36 H :    0.179618
  37 H :    0.179211

  Mayer bond orders larger than 0.100000
B(  0-C ,  1-C ) :   0.9176 B(  0-C , 20-H ) :   0.9695 B(  0-C , 21-H ) :   0.9698
B(  0-C , 22-H ) :   0.9589 B(  1-C ,  2-O ) :   0.7818 B(  1-C , 23-H ) :   0.9576
B(  1-C , 24-H ) :   0.9537 B(  2-O ,  3-C ) :   1.1212 B(  2-O ,  8-C ) :   0.1373
B(  3-C ,  4-O ) :   1.8438 B(  3-C ,  5-C ) :   0.9357 B(  5-C ,  6-C ) :   0.9282
B(  5-C , 25-H ) :   0.9487 B(  5-C , 26-H ) :   0.9147 B(  6-C ,  7-H ) :   0.8784
B(  6-C ,  8-C ) :   0.8831 B(  6-C , 13-S ) :   0.8651 B(  8-C ,  9-O ) :   1.7273
B(  8-C , 10-O ) :   1.1583 B(  9-O , 14-P ) :   0.1068 B( 10-O , 11-C ) :   0.7748
B( 11-C , 12-C ) :   0.9309 B( 11-C , 27-H ) :   0.9629 B( 11-C , 28-H ) :   0.9502
B( 12-C , 29-H ) :   0.9700 B( 12-C , 30-H ) :   0.9662 B( 12-C , 31-H ) :   0.9592
B( 13-S , 14-P ) :   0.9978 B( 14-P , 15-S ) :   1.7684 B( 14-P , 16-O ) :   1.0046
B( 14-P , 18-O ) :   1.1908 B( 16-O , 17-C ) :   0.8329 B( 17-C , 32-H ) :   0.9555
B( 17-C , 33-H ) :   0.9590 B( 17-C , 34-H ) :   0.9509 B( 18-O , 19-C ) :   0.7907
B( 19-C , 35-H ) :   0.9541 B( 19-C , 36-H ) :   0.9486 B( 19-C , 37-H ) :   0.9545

Dispersion correction           -0.017891116
FINAL SINGLE POINT ENERGY     -1981.463492392941

DIPOLE MOMENT
-------------

Method             : SCF
Type of density    : Electron Density
Multiplicity       :   1
Irrep              :   0
Energy             : -1981.4834091231934963 Eh
Relativity type    :
Basis              : AO
                                X                 Y                 Z
Electronic contribution:    -10.120794248       4.398656000      -2.958212407
Nuclear contribution   :     11.253786792      -5.326546550       2.830555469
                        -----------------------------------------
Total Dipole Moment    :      1.132992544      -0.927890550      -0.127656938
                        -----------------------------------------
Magnitude (a.u.)       :      1.470016759
Magnitude (Debye)      :      3.736485658

Rotational constants in cm-1:             0.012472             0.007951             0.006394
Rotational constants in MHz :           373.904443           238.362115           191.674447

                             ****ORCA TERMINATED NORMALLY****
TOTAL RUN TIME: 0 days 0 hours 1 minutes 46 seconds 3 msec
