                         Program Version 6.0.0  -   RELEASE  -
|  1> ! pbe def2-sv(p) def2/J RI DEFGRID1 loosescf d4 GCP(DFT/SV(P)) printgap
|  2> %output
|  3>     printlevel normal
|  4> end
|  5> * xyz 0 1
|  6> C 5.4545958786 -0.4331617683 -0.8549073985
|  7> C 4.7650296805 -0.1563140738 0.4665172178
|  8> O 3.4504383915 -0.7446314906 0.5235837136
|  9> P 2.171241523 -0.1300493093 -0.192873232
| 10> S 2.051430703 -0.2681973085 -2.1466356077
| 11> O 2.141085169 1.3502132549 0.3931084048
| 12> C 1.8830440403 2.541265649 -0.3669090382
| 13> C 3.1725600701 3.3098587058 -0.5748301863
| 14> S 0.8061652686 -1.2639497511 0.9384912025
| 15> C -0.2573617732 -1.9474551083 -0.3869760139
| 16> S -1.9995167585 -1.8988176065 0.0665312808
| 17> P -2.174568502 0.2138700347 0.2688678121
| 18> S -1.1479706817 1.2852634209 -1.009739128
| 19> O -1.7730416035 0.5718946937 1.7492576259
| 20> C -2.0163449855 -0.2287878483 2.9324123634
| 21> C -3.4748613368 -0.5910226312 3.1056212096
| 22> O -3.7377514302 0.4891866552 0.2539974926
| 23> C -4.4849718081 0.7014801052 -0.9563490608
| 24> C -4.541723623 -0.5380817056 -1.8257046502
| 25> H 5.5006916716 -1.5037430109 -1.0359955439
| 26> H 4.9083013386 0.029206729 -1.6750909716
| 27> H 6.4616278986 -0.0290957465 -0.8258390401
| 28> H 4.6786624502 0.9178871913 0.6506524056
| 29> H 5.2939212139 -0.629130192 1.296162883
| 30> H 1.4315563969 2.267896629 -1.3260012616
| 31> H 1.1572096507 3.1112956927 0.2158312534
| 32> H 3.859449637 2.7273510302 -1.1857871698
| 33> H 2.9489872077 4.2404622631 -1.086130945
| 34> H 3.6386797202 3.5286204551 0.3822078333
| 35> H -0.0073040102 -2.9949150456 -0.5348085672
| 36> H -0.0864223926 -1.3682829525 -1.2991184995
| 37> H -1.38898752 -1.1229576405 2.8685648713
| 38> H -1.65852735 0.4114526331 3.7399787351
| 39> H -3.6004169656 -1.1020654105 4.0551348889
| 40> H -4.0891763866 0.3054213224 3.0939870596
| 41> H -3.7976743438 -1.2504567493 2.3025129518
| 42> H -5.4752235159 0.9892090026 -0.6004574487
| 43> H -4.0297210535 1.5336929869 -1.5026262118
| 44> H -4.8786479994 -1.3934318298 -1.2459356117
| 45> H -5.2280995124 -0.3660575569 -2.6486221174
| 46> H -3.5551117532 -0.7552642668 -2.2320408952
| 47> *
| 48>
| 49>                          ****END OF INPUT****

CARTESIAN COORDINATES (ANGSTROEM)
---------------------------------
  C      5.454596   -0.433162   -0.854907
  C      4.765030   -0.156314    0.466517
  O      3.450438   -0.744631    0.523584
  P      2.171242   -0.130049   -0.192873
  S      2.051431   -0.268197   -2.146636
  O      2.141085    1.350213    0.393108
  C      1.883044    2.541266   -0.366909
  C      3.172560    3.309859   -0.574830
  S      0.806165   -1.263950    0.938491
  C     -0.257362   -1.947455   -0.386976
  S     -1.999517   -1.898818    0.066531
  P     -2.174569    0.213870    0.268868
  S     -1.147971    1.285263   -1.009739
  O     -1.773042    0.571895    1.749258
  C     -2.016345   -0.228788    2.932412
  C     -3.474861   -0.591023    3.105621
  O     -3.737751    0.489187    0.253997
  C     -4.484972    0.701480   -0.956349
  C     -4.541724   -0.538082   -1.825705
  H      5.500692   -1.503743   -1.035996
  H      4.908301    0.029207   -1.675091
  H      6.461628   -0.029096   -0.825839
  H      4.678662    0.917887    0.650652
  H      5.293921   -0.629130    1.296163
  H      1.431556    2.267897   -1.326001
  H      1.157210    3.111296    0.215831
  H      3.859450    2.727351   -1.185787
  H      2.948987    4.240462   -1.086131
  H      3.638680    3.528620    0.382208
  H     -0.007304   -2.994915   -0.534809
  H     -0.086422   -1.368283   -1.299118
  H     -1.388988   -1.122958    2.868565
  H     -1.658527    0.411453    3.739979
  H     -3.600417   -1.102065    4.055135
  H     -4.089176    0.305421    3.093987
  H     -3.797674   -1.250457    2.302513
  H     -5.475224    0.989209   -0.600457
  H     -4.029721    1.533693   -1.502626
  H     -4.878648   -1.393432   -1.245936
  H     -5.228100   -0.366058   -2.648622
  H     -3.555112   -0.755264   -2.232041

 Total Charge           Charge          ....    0
 Multiplicity           Mult            ....    1
 Number of Electrons    NEL             ....  202
 Basis Dimension        Dim             ....  334

ORBITAL ENERGIES
----------------

  NO   OCC          E(Eh)            E(eV)
   0   2.0000     -88.046625     -2395.8705
   1   2.0000     -88.036083     -2395.5836
   2   2.0000     -87.983266     -2394.1464
   3   2.0000     -87.980479     -2394.0706
   4   2.0000     -76.425754     -2079.6505
   5   2.0000     -76.420962     -2079.5201
   6   2.0000     -18.793360      -511.3933
   7   2.0000     -18.788336      -511.2566
   8   2.0000     -18.784517      -511.1527
   9   2.0000     -18.783610      -511.1280
  10   2.0000      -9.953924      -270.8600
  11   2.0000      -9.953007      -270.8351
  12   2.0000      -9.951608      -270.7970
  13   2.0000      -9.950904      -270.7779
  14   2.0000      -9.940057      -270.4827
  15   2.0000      -9.887174      -269.0437
  16   2.0000      -9.884172      -268.9620
  17   2.0000      -9.881376      -268.8859
  18   2.0000      -9.879389      -268.8318
  19   2.0000      -7.691361      -209.2926
  20   2.0000      -7.681143      -209.0145
  21   2.0000      -7.628164      -207.5729
  22   2.0000      -7.625359      -207.4966
  23   2.0000      -6.422868      -174.7751
  24   2.0000      -6.418491      -174.6560
  25   2.0000      -5.719195      -155.6272
  26   2.0000      -5.715742      -155.5332
  27   2.0000      -5.709156      -155.3540
  28   2.0000      -5.708567      -155.3380
  29   2.0000      -5.705788      -155.2624
  30   2.0000      -5.697780      -155.0445
  31   2.0000      -5.657002      -153.9348
  32   2.0000      -5.654310      -153.8616
  33   2.0000      -5.649099      -153.7198
  34   2.0000      -5.648073      -153.6919
  35   2.0000      -5.645800      -153.6300
  36   2.0000      -5.645626      -153.6253
  37   2.0000      -4.645615      -126.4136
  38   2.0000      -4.644781      -126.3909
  39   2.0000      -4.643099      -126.3451
  40   2.0000      -4.641109      -126.2910
  41   2.0000      -4.639816      -126.2558
  42   2.0000      -4.639377      -126.2439
  43   2.0000      -0.986011       -26.8307
  44   2.0000      -0.979012       -26.6403
  45   2.0000      -0.944405       -25.6986
  46   2.0000      -0.935819       -25.4649
  47   2.0000      -0.761170       -20.7125
  48   2.0000      -0.720082       -19.5944
  49   2.0000      -0.708914       -19.2905
  50   2.0000      -0.690161       -18.7802
  51   2.0000      -0.682301       -18.5663
  52   2.0000      -0.672312       -18.2946
  53   2.0000      -0.649695       -17.6791
  54   2.0000      -0.632634       -17.2148
  55   2.0000      -0.598872       -16.2961
  56   2.0000      -0.588869       -16.0239
  57   2.0000      -0.575759       -15.6672
  58   2.0000      -0.570358       -15.5202
  59   2.0000      -0.557338       -15.1659
  60   2.0000      -0.497931       -13.5494
  61   2.0000      -0.488652       -13.2969
  62   2.0000      -0.471371       -12.8266
  63   2.0000      -0.469711       -12.7815
  64   2.0000      -0.448299       -12.1988
  65   2.0000      -0.447142       -12.1674
  66   2.0000      -0.441930       -12.0255
  67   2.0000      -0.432677       -11.7737
  68   2.0000      -0.426886       -11.6161
  69   2.0000      -0.412545       -11.2259
  70   2.0000      -0.406419       -11.0592
  71   2.0000      -0.398091       -10.8326
  72   2.0000      -0.396263       -10.7829
  73   2.0000      -0.383475       -10.4349
  74   2.0000      -0.378472       -10.2988
  75   2.0000      -0.370436       -10.0801
  76   2.0000      -0.365429        -9.9438
  77   2.0000      -0.358871        -9.7654
  78   2.0000      -0.352278        -9.5860
  79   2.0000      -0.347848        -9.4654
  80   2.0000      -0.346012        -9.4155
  81   2.0000      -0.344009        -9.3609
  82   2.0000      -0.337572        -9.1858
  83   2.0000      -0.335310        -9.1243
  84   2.0000      -0.334086        -9.0909
  85   2.0000      -0.312861        -8.5134
  86   2.0000      -0.308118        -8.3843
  87   2.0000      -0.292304        -7.9540
  88   2.0000      -0.291179        -7.9234
  89   2.0000      -0.285462        -7.7678
  90   2.0000      -0.283422        -7.7123
  91   2.0000      -0.273029        -7.4295
  92   2.0000      -0.270836        -7.3698
  93   2.0000      -0.262021        -7.1300
  94   2.0000      -0.257359        -7.0031
  95   2.0000      -0.232696        -6.3320
  96   2.0000      -0.218783        -5.9534
  97   2.0000      -0.211327        -5.7505
  98   2.0000      -0.197568        -5.3761
  99   2.0000      -0.195448        -5.3184
 100   2.0000      -0.187268        -5.0958
 101   0.0000      -0.042677        -1.1613
 102   0.0000      -0.031233        -0.8499
 103   0.0000      -0.006145        -0.1672
 104   0.0000       0.011926         0.3245
 105   0.0000       0.019794         0.5386

MULLIKEN ATOMIC CHARGES
-----------------------
   0 C :   -0.309197
   1 C :   -0.017501
   2 O :   -0.373113
   3 P :    0.654313
   4 S :   -0.325254
   5 O :   -0.382082
   6 C :   -0.021063
   7 C :   -0.290200
   8 S :   -0.106844
   9 C :   -0.343612
  10 S :   -0.117903
  11 P :    0.598818
  12 S :   -0.317557
  13 O :   -0.351181
  14 C :   -0.001118
  15 C :   -0.306890
  16 O :   -0.372150
  17 C :   -0.000759
  18 C :   -0.319419
  19 H :    0.118313
  20 H :    0.133434
  21 H :    0.106236
  22 H :    0.107352
  23 H :    0.106201
  24 H :    0.129039
  25 H :    0.109619
  26 H :    0.113749
  27 H :    0.112509
  28 H :    0.114480
  29 H :    0.181925
  30 H :    0.213509
  31 H :    0.112019
  32 H :    0.109651
  33 H :    0.113373
  34 H :    0.122159
  35 H :    0.118646
  36 H :    0.104498
  37 H :    0.114064
  38 H :    0.115659
  39 H :    0.114329
  40 H :    0.131949
Sum of atomic charges:    0.0000000

LOEWDIN ATOMIC CHARGES
----------------------
   0 C :   -0.366477
   1 C :   -0.115116
   2 O :   -0.248540
   3 P :    0.571346
   4 S :   -0.301374
   5 O :   -0.242234
   6 C :   -0.124143
   7 C :   -0.359444
   8 S :    0.084016
   9 C :   -0.477382
  10 S :    0.077579
  11 P :    0.569874
  12 S :   -0.301259
  13 O :   -0.231602
  14 C :   -0.114667
  15 C :   -0.366685
  16 O :   -0.242435
  17 C :   -0.117169
  18 C :   -0.371032
  19 H :    0.128778
  20 H :    0.121183
  21 H :    0.127533
  22 H :    0.109090
  23 H :    0.119626
  24 H :    0.105393
  25 H :    0.117563
  26 H :    0.121690
  27 H :    0.131413
  28 H :    0.122295
  29 H :    0.135724
  30 H :    0.124273
  31 H :    0.103302
  32 H :    0.123042
  33 H :    0.131381
  34 H :    0.128707
  35 H :    0.116623
  36 H :    0.118541
  37 H :    0.113268
  38 H :    0.122526
  39 H :    0.131782
  40 H :    0.123010

  Mayer bond orders larger than 0.100000
B(  0-C ,  1-C ) :   1.1642 B(  0-C , 19-H ) :   0.9460 B(  0-C , 20-H ) :   0.9320
B(  0-C , 21-H ) :   0.9386 B(  1-C ,  2-O ) :   0.9168 B(  1-C , 22-H ) :   0.9192
B(  1-C , 23-H ) :   0.9359 B(  2-O ,  3-P ) :   1.1119 B(  3-P ,  4-S ) :   1.6140
B(  3-P ,  5-O ) :   1.1074 B(  3-P ,  8-S ) :   0.9572 B(  4-S ,  8-S ) :   0.1156
B(  5-O ,  6-C ) :   0.9022 B(  6-C ,  7-C ) :   1.1558 B(  6-C , 24-H ) :   0.9007
B(  6-C , 25-H ) :   0.9326 B(  7-C , 26-H ) :   0.9404 B(  7-C , 27-H ) :   0.9401
B(  7-C , 28-H ) :   0.9439 B(  8-S ,  9-C ) :   0.9986 B(  9-C , 10-S ) :   1.0027
B(  9-C , 29-H ) :   0.9096 B(  9-C , 30-H ) :   0.8474 B( 10-S , 11-P ) :   0.9350
B( 10-S , 12-S ) :   0.1051 B( 11-P , 12-S ) :   1.6254 B( 11-P , 13-O ) :   1.1478
B( 11-P , 16-O ) :   1.0965 B( 13-O , 14-C ) :   0.9000 B( 14-C , 15-C ) :   1.1688
B( 14-C , 31-H ) :   0.9136 B( 14-C , 32-H ) :   0.9343 B( 15-C , 33-H ) :   0.9362
B( 15-C , 34-H ) :   0.9429 B( 15-C , 35-H ) :   0.9377 B( 16-O , 17-C ) :   0.9056
B( 17-C , 18-C ) :   1.1657 B( 17-C , 36-H ) :   0.9341 B( 17-C , 37-H ) :   0.9162
B( 18-C , 38-H ) :   0.9447 B( 18-C , 39-H ) :   0.9373 B( 18-C , 40-H ) :   0.9347

Dispersion correction           -0.066488972
FINAL SINGLE POINT ENERGY     -2929.516594100675

DIPOLE MOMENT
-------------

Method             : SCF
Type of density    : Electron Density
Multiplicity       :   1
Irrep              :   0
Energy             : -2929.6349960946545252 Eh
Relativity type    :
Basis              : AO
                                X                 Y                 Z
Electronic contribution:     -2.313992356      -7.024961362      -0.480331467
Nuclear contribution   :      1.967498140       7.092373699       1.357231546
                        -----------------------------------------
Total Dipole Moment    :     -0.346494216       0.067412338       0.876900080
                        -----------------------------------------
Magnitude (a.u.)       :      0.945281130
Magnitude (Debye)      :      2.402713685

Rotational constants in cm-1:             0.013863             0.004741             0.004537
Rotational constants in MHz :           415.611884           142.125166           136.019900

                             ****ORCA TERMINATED NORMALLY****
TOTAL RUN TIME: 0 days 0 hours 0 minutes 20 seconds 941 msec
