                         Program Version 6.0.0  -   RELEASE  -
|  1> ! pbe def2-sv(p) def2/J RI DEFGRID1 loosescf d4 GCP(DFT/SV(P)) printgap
|  2> %output
|  3>     printlevel normal
|  4> end
|  5> * xyz 0 1
|  6> C 2.3354287721 -2.3971809155 2.4498444874
|  7> C 1.4600986501 -1.8105375881 1.3601046555
|  8> O 1.8921124578 -0.4653318963 1.0929566751
|  9> P 2.3296522726 0.0848695999 -0.336770338
| 10> S 2.9369430192 -1.2594102032 -1.6182648935
| 11> O 3.4588359805 1.1227831978 0.0247300266
| 12> C 3.482825626 1.9839229534 1.1905358226
| 13> C 2.6277959707 3.2192751482 0.9984845452
| 14> S 0.7099421011 1.3039616268 -1.0181193266
| 15> C -0.089250871 0.0898006141 -2.087574313
| 16> S -0.842049731 -1.2866463006 -1.1717386978
| 17> P -2.1688590416 -0.1070779104 -0.0312863317
| 18> S -2.9579816124 1.4800193099 -0.877700193
| 19> O -1.2620241151 0.1475189541 1.2421729863
| 20> C -1.5777286512 1.1782863873 2.2079690566
| 21> C -0.4266523175 1.2519522524 3.1889431551
| 22> O -3.2333172273 -1.1302052124 0.5609726801
| 23> C -4.4690427359 -1.431066526 -0.1105486097
| 24> C -4.2435953402 -2.216652742 -1.3860897221
| 25> H 2.2918526598 -1.778997676 3.3420656408
| 26> H 1.9839959954 -3.3960707169 2.6867402433
| 27> H 3.3660956223 -2.4541923435 2.1077668189
| 28> H 0.4143671316 -1.7495734837 1.6703758918
| 29> H 1.5316059266 -2.4009321103 0.4405361857
| 30> H 3.1604344712 1.4056972454 2.0582813934
| 31> H 4.5379639972 2.2437174656 1.2892880776
| 32> H 2.7397012645 3.8662207161 1.8630968208
| 33> H 2.9373909273 3.756019616 0.1058469849
| 34> H 1.5787650549 2.9500930406 0.8889559969
| 35> H 0.6479014908 -0.3542846669 -2.7563802492
| 36> H -0.8599773812 0.6268997584 -2.6387785148
| 37> H -1.713528414 2.1214022482 1.6684966387
| 38> H -2.5151653527 0.9132112204 2.7034443774
| 39> H 0.5031504168 1.4225726016 2.653096685
| 40> H -0.5984304681 2.0700403461 3.8805663292
| 41> H -0.3464142063 0.3208464619 3.7424560888
| 42> H -5.0341058852 -2.0062805344 0.623987052
| 43> H -4.9835152113 -0.4886954734 -0.3244610452
| 44> H -3.6417472575 -3.0995062488 -1.1856045395
| 45> H -5.2014903628 -2.5176251489 -1.7979461434
| 46> H -3.7240921185 -1.5979569675 -2.1169143638
| 47> *
| 48>
| 49>                          ****END OF INPUT****

CARTESIAN COORDINATES (ANGSTROEM)
---------------------------------
  C      2.335429   -2.397181    2.449844
  C      1.460099   -1.810538    1.360105
  O      1.892112   -0.465332    1.092957
  P      2.329652    0.084870   -0.336770
  S      2.936943   -1.259410   -1.618265
  O      3.458836    1.122783    0.024730
  C      3.482826    1.983923    1.190536
  C      2.627796    3.219275    0.998485
  S      0.709942    1.303962   -1.018119
  C     -0.089251    0.089801   -2.087574
  S     -0.842050   -1.286646   -1.171739
  P     -2.168859   -0.107078   -0.031286
  S     -2.957982    1.480019   -0.877700
  O     -1.262024    0.147519    1.242173
  C     -1.577729    1.178286    2.207969
  C     -0.426652    1.251952    3.188943
  O     -3.233317   -1.130205    0.560973
  C     -4.469043   -1.431067   -0.110549
  C     -4.243595   -2.216653   -1.386090
  H      2.291853   -1.778998    3.342066
  H      1.983996   -3.396071    2.686740
  H      3.366096   -2.454192    2.107767
  H      0.414367   -1.749573    1.670376
  H      1.531606   -2.400932    0.440536
  H      3.160434    1.405697    2.058281
  H      4.537964    2.243717    1.289288
  H      2.739701    3.866221    1.863097
  H      2.937391    3.756020    0.105847
  H      1.578765    2.950093    0.888956
  H      0.647901   -0.354285   -2.756380
  H     -0.859977    0.626900   -2.638779
  H     -1.713528    2.121402    1.668497
  H     -2.515165    0.913211    2.703444
  H      0.503150    1.422573    2.653097
  H     -0.598430    2.070040    3.880566
  H     -0.346414    0.320846    3.742456
  H     -5.034106   -2.006281    0.623987
  H     -4.983515   -0.488695   -0.324461
  H     -3.641747   -3.099506   -1.185605
  H     -5.201490   -2.517625   -1.797946
  H     -3.724092   -1.597957   -2.116914

 Total Charge           Charge          ....    0
 Multiplicity           Mult            ....    1
 Number of Electrons    NEL             ....  202
 Basis Dimension        Dim             ....  334

ORBITAL ENERGIES
----------------

  NO   OCC          E(Eh)            E(eV)
   0   2.0000     -88.045490     -2395.8396
   1   2.0000     -88.038675     -2395.6541
   2   2.0000     -87.990935     -2394.3551
   3   2.0000     -87.984679     -2394.1848
   4   2.0000     -76.428857     -2079.7349
   5   2.0000     -76.426016     -2079.6576
   6   2.0000     -18.796009      -511.4654
   7   2.0000     -18.794698      -511.4297
   8   2.0000     -18.792518      -511.3704
   9   2.0000     -18.790433      -511.3137
  10   2.0000      -9.960783      -271.0467
  11   2.0000      -9.955102      -270.8921
  12   2.0000      -9.954464      -270.8747
  13   2.0000      -9.952906      -270.8323
  14   2.0000      -9.944309      -270.5984
  15   2.0000      -9.893225      -269.2083
  16   2.0000      -9.891503      -269.1615
  17   2.0000      -9.886009      -269.0120
  18   2.0000      -9.883472      -268.9429
  19   2.0000      -7.690311      -209.2640
  20   2.0000      -7.683264      -209.0722
  21   2.0000      -7.635904      -207.7835
  22   2.0000      -7.629939      -207.6212
  23   2.0000      -6.426440      -174.8723
  24   2.0000      -6.423450      -174.7910
  25   2.0000      -5.718167      -155.5992
  26   2.0000      -5.714939      -155.5114
  27   2.0000      -5.711212      -155.4100
  28   2.0000      -5.707808      -155.3174
  29   2.0000      -5.707186      -155.3004
  30   2.0000      -5.700203      -155.1104
  31   2.0000      -5.664718      -154.1448
  32   2.0000      -5.658959      -153.9881
  33   2.0000      -5.656524      -153.9218
  34   2.0000      -5.656205      -153.9132
  35   2.0000      -5.650350      -153.7539
  36   2.0000      -5.650147      -153.7483
  37   2.0000      -4.648881      -126.5025
  38   2.0000      -4.648130      -126.4821
  39   2.0000      -4.647058      -126.4529
  40   2.0000      -4.646445      -126.4362
  41   2.0000      -4.644886      -126.3938
  42   2.0000      -4.643856      -126.3658
  43   2.0000      -0.989582       -26.9279
  44   2.0000      -0.987195       -26.8630
  45   2.0000      -0.947674       -25.7875
  46   2.0000      -0.942986       -25.6600
  47   2.0000      -0.765272       -20.8241
  48   2.0000      -0.724344       -19.7104
  49   2.0000      -0.713602       -19.4181
  50   2.0000      -0.691886       -18.8272
  51   2.0000      -0.689813       -18.7708
  52   2.0000      -0.674930       -18.3658
  53   2.0000      -0.651080       -17.7168
  54   2.0000      -0.638870       -17.3845
  55   2.0000      -0.602047       -16.3825
  56   2.0000      -0.591349       -16.0914
  57   2.0000      -0.576326       -15.6826
  58   2.0000      -0.574150       -15.6234
  59   2.0000      -0.558359       -15.1937
  60   2.0000      -0.508295       -13.8314
  61   2.0000      -0.499788       -13.5999
  62   2.0000      -0.479739       -13.0544
  63   2.0000      -0.476657       -12.9705
  64   2.0000      -0.457327       -12.4445
  65   2.0000      -0.448004       -12.1908
  66   2.0000      -0.443298       -12.0627
  67   2.0000      -0.433423       -11.7941
  68   2.0000      -0.431055       -11.7296
  69   2.0000      -0.420230       -11.4350
  70   2.0000      -0.411247       -11.1906
  71   2.0000      -0.400364       -10.8945
  72   2.0000      -0.389787       -10.6066
  73   2.0000      -0.385035       -10.4773
  74   2.0000      -0.380277       -10.3479
  75   2.0000      -0.376182       -10.2364
  76   2.0000      -0.368709       -10.0331
  77   2.0000      -0.360541        -9.8108
  78   2.0000      -0.360085        -9.7984
  79   2.0000      -0.355637        -9.6774
  80   2.0000      -0.353600        -9.6219
  81   2.0000      -0.349577        -9.5125
  82   2.0000      -0.343601        -9.3499
  83   2.0000      -0.340830        -9.2745
  84   2.0000      -0.336209        -9.1487
  85   2.0000      -0.322401        -8.7730
  86   2.0000      -0.310645        -8.4531
  87   2.0000      -0.302182        -8.2228
  88   2.0000      -0.298029        -8.1098
  89   2.0000      -0.290698        -7.9103
  90   2.0000      -0.289168        -7.8687
  91   2.0000      -0.279486        -7.6052
  92   2.0000      -0.271431        -7.3860
  93   2.0000      -0.266856        -7.2615
  94   2.0000      -0.255821        -6.9613
  95   2.0000      -0.235836        -6.4174
  96   2.0000      -0.216179        -5.8825
  97   2.0000      -0.212565        -5.7842
  98   2.0000      -0.208806        -5.6819
  99   2.0000      -0.201866        -5.4931
 100   2.0000      -0.197164        -5.3651
 101   0.0000      -0.046716        -1.2712
 102   0.0000      -0.025389        -0.6909
 103   0.0000      -0.002105        -0.0573
 104   0.0000       0.000731         0.0199
 105   0.0000       0.002380         0.0648

MULLIKEN ATOMIC CHARGES
-----------------------
   0 C :   -0.278311
   1 C :   -0.021173
   2 O :   -0.391480
   3 P :    0.638461
   4 S :   -0.318913
   5 O :   -0.364797
   6 C :   -0.017052
   7 C :   -0.332481
   8 S :   -0.111825
   9 C :   -0.346256
  10 S :   -0.080739
  11 P :    0.614809
  12 S :   -0.336545
  13 O :   -0.363726
  14 C :   -0.008815
  15 C :   -0.305809
  16 O :   -0.375098
  17 C :   -0.005443
  18 C :   -0.314924
  19 H :    0.108348
  20 H :    0.109184
  21 H :    0.115008
  22 H :    0.110523
  23 H :    0.112824
  24 H :    0.120659
  25 H :    0.112705
  26 H :    0.114863
  27 H :    0.128287
  28 H :    0.148385
  29 H :    0.194133
  30 H :    0.190706
  31 H :    0.112722
  32 H :    0.102793
  33 H :    0.136190
  34 H :    0.110546
  35 H :    0.116051
  36 H :    0.105110
  37 H :    0.112098
  38 H :    0.118095
  39 H :    0.114283
  40 H :    0.126602
Sum of atomic charges:   -0.0000000

LOEWDIN ATOMIC CHARGES
----------------------
   0 C :   -0.354035
   1 C :   -0.127356
   2 O :   -0.245163
   3 P :    0.572395
   4 S :   -0.308238
   5 O :   -0.239035
   6 C :   -0.110832
   7 C :   -0.367537
   8 S :    0.077926
   9 C :   -0.482133
  10 S :    0.100654
  11 P :    0.569456
  12 S :   -0.324150
  13 O :   -0.239775
  14 C :   -0.114331
  15 C :   -0.354009
  16 O :   -0.247527
  17 C :   -0.120048
  18 C :   -0.368510
  19 H :    0.121012
  20 H :    0.129671
  21 H :    0.126185
  22 H :    0.107884
  23 H :    0.103798
  24 H :    0.112716
  25 H :    0.123821
  26 H :    0.132636
  27 H :    0.132557
  28 H :    0.117928
  29 H :    0.131194
  30 H :    0.131899
  31 H :    0.111066
  32 H :    0.111673
  33 H :    0.125542
  34 H :    0.130062
  35 H :    0.125757
  36 H :    0.118591
  37 H :    0.110500
  38 H :    0.124879
  39 H :    0.131633
  40 H :    0.121246

  Mayer bond orders larger than 0.100000
B(  0-C ,  1-C ) :   1.1580 B(  0-C , 19-H ) :   0.9505 B(  0-C , 20-H ) :   0.9420
B(  0-C , 21-H ) :   0.9479 B(  1-C ,  2-O ) :   0.8952 B(  1-C , 22-H ) :   0.9194
B(  1-C , 23-H ) :   0.9018 B(  2-O ,  3-P ) :   1.0725 B(  3-P ,  4-S ) :   1.6417
B(  3-P ,  5-O ) :   1.1431 B(  3-P ,  8-S ) :   0.9331 B(  4-S ,  8-S ) :   0.1069
B(  5-O ,  6-C ) :   0.9023 B(  6-C ,  7-C ) :   1.1709 B(  6-C , 24-H ) :   0.9189
B(  6-C , 25-H ) :   0.9327 B(  7-C , 26-H ) :   0.9374 B(  7-C , 27-H ) :   0.9441
B(  7-C , 28-H ) :   0.9220 B(  8-S ,  9-C ) :   1.0205 B(  9-C , 10-S ) :   0.9902
B(  9-C , 29-H ) :   0.8753 B(  9-C , 30-H ) :   0.8865 B( 10-S , 11-P ) :   0.9624
B( 10-S , 12-S ) :   0.1107 B( 11-P , 12-S ) :   1.6005 B( 11-P , 13-O ) :   1.1124
B( 11-P , 16-O ) :   1.1114 B( 13-O , 14-C ) :   0.8977 B( 14-C , 15-C ) :   1.1616
B( 14-C , 31-H ) :   0.9169 B( 14-C , 32-H ) :   0.9289 B( 15-C , 33-H ) :   0.9334
B( 15-C , 34-H ) :   0.9400 B( 15-C , 35-H ) :   0.9478 B( 16-O , 17-C ) :   0.9089
B( 17-C , 18-C ) :   1.1644 B( 17-C , 36-H ) :   0.9338 B( 17-C , 37-H ) :   0.9151
B( 18-C , 38-H ) :   0.9452 B( 18-C , 39-H ) :   0.9380 B( 18-C , 40-H ) :   0.9357

Dispersion correction           -0.066993419
FINAL SINGLE POINT ENERGY     -2929.523631110806

DIPOLE MOMENT
-------------

Method             : SCF
Type of density    : Electron Density
Multiplicity       :   1
Irrep              :   0
Energy             : -2929.6426418979781374 Eh
Relativity type    :
Basis              : AO
                                X                 Y                 Z
Electronic contribution:      2.266542962       0.202853707     -18.470690353
Nuclear contribution   :     -2.870944093      -0.130142309      20.120163320
                        -----------------------------------------
Total Dipole Moment    :     -0.604401131       0.072711398       1.649472967
                        -----------------------------------------
Magnitude (a.u.)       :      1.758223178
Magnitude (Debye)      :      4.469048157

Rotational constants in cm-1:             0.011525             0.005569             0.005229
Rotational constants in MHz :           345.523145           166.947456           156.761033

                             ****ORCA TERMINATED NORMALLY****
TOTAL RUN TIME: 0 days 0 hours 0 minutes 23 seconds 277 msec
