                         Program Version 6.0.1  -  RELEASE   -
|  1> ! pbe def2-sv(p) def2/J RI DEFGRID1 loosescf d4 GCP(DFT/SV(P)) printgap
|  2> %output
|  3>     printlevel normal
|  4> end
|  5> * xyz 0 1
|  6> C 5.3347393464 -2.2045998171 -0.4388790446
|  7> C 4.6144796552 -0.975791153 0.0928333799
|  8> O 3.1877139566 -1.1780193345 0.1124043053
|  9> C 2.5112919239 -0.9500097803 -0.9935957271
| 10> O 2.9936393829 -0.5555395749 -2.031634206
| 11> C 1.0320499512 -1.2458421411 -0.8118253919
| 12> C 0.2166385108 -0.0895088383 -1.3891192442
| 13> H 0.5871239237 0.1369255027 -2.3945092251
| 14> C 0.3423099126 1.1495015123 -0.5282307821
| 15> O -0.6256144721 1.7496398213 -0.1004163868
| 16> O 1.5848872154 1.4710156569 -0.3090715054
| 17> C 1.8715388798 2.5536341795 0.6067027009
| 18> C 2.0062404551 2.0147905639 2.0209895683
| 19> S -1.549261953 -0.4828248305 -1.5916692108
| 20> P -2.3421706108 -0.0601207722 0.3363037093
| 21> S -1.2382504376 -0.3240464472 1.9449791137
| 22> O -3.2872308516 1.2104818445 0.2637588532
| 23> C -3.0942793351 2.4409441442 0.9630759945
| 24> O -3.5685041881 -1.0922455399 0.3008181127
| 25> C -3.3541247071 -2.5044148176 0.3622582626
| 26> H 5.0652922721 -2.3751706152 -1.4785688137
| 27> H 6.4064209796 -2.0480628378 -0.3741120481
| 28> H 5.0641811355 -3.0792974119 0.1461283276
| 29> H 4.8317420941 -0.1013938457 -0.5269924572
| 30> H 4.8767599454 -0.7831286882 1.1332189419
| 31> H 0.8171573506 -1.4020352064 0.2462130485
| 32> H 0.7945509371 -2.1539144415 -1.3686456811
| 33> H 2.8095998333 2.974147807 0.2445100956
| 34> H 1.068291623 3.2913890039 0.5395620859
| 35> H 2.2528478991 2.8288241259 2.694048913
| 36> H 1.0717526027 1.5583145603 2.3433680161
| 37> H 2.7880433529 1.2616031965 2.0626526704
| 38> H -4.0832844289 2.7607055679 1.2844165356
| 39> H -2.6491557941 3.1705213728 0.2890986622
| 40> H -2.4434089405 2.2927149577 1.8263348052
| 41> H -2.6745592367 -2.7458403626 1.1822840353
| 42> H -2.9441138981 -2.8645013366 -0.5815824493
| 43> H -4.3332717878 -2.9404988492 0.5431172287
| 44> *
| 45>
| 46>                          ****END OF INPUT****

CARTESIAN COORDINATES (ANGSTROEM)
---------------------------------
  C      5.334739   -2.204600   -0.438879
  C      4.614480   -0.975791    0.092833
  O      3.187714   -1.178019    0.112404
  C      2.511292   -0.950010   -0.993596
  O      2.993639   -0.555540   -2.031634
  C      1.032050   -1.245842   -0.811825
  C      0.216639   -0.089509   -1.389119
  H      0.587124    0.136926   -2.394509
  C      0.342310    1.149502   -0.528231
  O     -0.625614    1.749640   -0.100416
  O      1.584887    1.471016   -0.309072
  C      1.871539    2.553634    0.606703
  C      2.006240    2.014791    2.020990
  S     -1.549262   -0.482825   -1.591669
  P     -2.342171   -0.060121    0.336304
  S     -1.238250   -0.324046    1.944979
  O     -3.287231    1.210482    0.263759
  C     -3.094279    2.440944    0.963076
  O     -3.568504   -1.092246    0.300818
  C     -3.354125   -2.504415    0.362258
  H      5.065292   -2.375171   -1.478569
  H      6.406421   -2.048063   -0.374112
  H      5.064181   -3.079297    0.146128
  H      4.831742   -0.101394   -0.526992
  H      4.876760   -0.783129    1.133219
  H      0.817157   -1.402035    0.246213
  H      0.794551   -2.153914   -1.368646
  H      2.809600    2.974148    0.244510
  H      1.068292    3.291389    0.539562
  H      2.252848    2.828824    2.694049
  H      1.071753    1.558315    2.343368
  H      2.788043    1.261603    2.062653
  H     -4.083284    2.760706    1.284417
  H     -2.649156    3.170521    0.289099
  H     -2.443409    2.292715    1.826335
  H     -2.674559   -2.745840    1.182284
  H     -2.944114   -2.864501   -0.581582
  H     -4.333272   -2.940499    0.543117

 Total Charge           Charge          ....    0
 Multiplicity           Mult            ....    1
 Number of Electrons    NEL             ....  174
 Basis Dimension        Dim             ....  316

ORBITAL ENERGIES
----------------

  NO   OCC          E(Eh)            E(eV)
   0   2.0000     -88.036531     -2395.5958
   1   2.0000     -87.977315     -2393.9844
   2   2.0000     -76.422189     -2079.5535
   3   2.0000     -18.826543      -512.2963
   4   2.0000     -18.806550      -511.7522
   5   2.0000     -18.780648      -511.0474
   6   2.0000     -18.775671      -510.9120
   7   2.0000     -18.761592      -510.5289
   8   2.0000     -18.741727      -509.9883
   9   2.0000     -10.032847      -273.0076
  10   2.0000     -10.012982      -272.4671
  11   2.0000      -9.960453      -271.0377
  12   2.0000      -9.952731      -270.8276
  13   2.0000      -9.952085      -270.8100
  14   2.0000      -9.933563      -270.3060
  15   2.0000      -9.933037      -270.2917
  16   2.0000      -9.909126      -269.6410
  17   2.0000      -9.890926      -269.1458
  18   2.0000      -9.889806      -269.1153
  19   2.0000      -7.681587      -209.0266
  20   2.0000      -7.622272      -207.4126
  21   2.0000      -6.417797      -174.6371
  22   2.0000      -5.709698      -155.3688
  23   2.0000      -5.706065      -155.2699
  24   2.0000      -5.698336      -155.0596
  25   2.0000      -5.651240      -153.7781
  26   2.0000      -5.643153      -153.5580
  27   2.0000      -5.642066      -153.5284
  28   2.0000      -4.640217      -126.2667
  29   2.0000      -4.639938      -126.2591
  30   2.0000      -4.638444      -126.2185
  31   2.0000      -1.036691       -28.2098
  32   2.0000      -1.014245       -27.5990
  33   2.0000      -0.974330       -26.5129
  34   2.0000      -0.941360       -25.6157
  35   2.0000      -0.928164       -25.2566
  36   2.0000      -0.919428       -25.0189
  37   2.0000      -0.767951       -20.8970
  38   2.0000      -0.715582       -19.4720
  39   2.0000      -0.713383       -19.4121
  40   2.0000      -0.689144       -18.7526
  41   2.0000      -0.656614       -17.8674
  42   2.0000      -0.628880       -17.1127
  43   2.0000      -0.623386       -16.9632
  44   2.0000      -0.612718       -16.6729
  45   2.0000      -0.599750       -16.3200
  46   2.0000      -0.568713       -15.4755
  47   2.0000      -0.513426       -13.9710
  48   2.0000      -0.508294       -13.8314
  49   2.0000      -0.502432       -13.6719
  50   2.0000      -0.484214       -13.1761
  51   2.0000      -0.469868       -12.7858
  52   2.0000      -0.463901       -12.6234
  53   2.0000      -0.450000       -12.2451
  54   2.0000      -0.445541       -12.1238
  55   2.0000      -0.433718       -11.8021
  56   2.0000      -0.422754       -11.5037
  57   2.0000      -0.419330       -11.4106
  58   2.0000      -0.411965       -11.2101
  59   2.0000      -0.406080       -11.0500
  60   2.0000      -0.400544       -10.8994
  61   2.0000      -0.398286       -10.8379
  62   2.0000      -0.387959       -10.5569
  63   2.0000      -0.384591       -10.4653
  64   2.0000      -0.381869       -10.3912
  65   2.0000      -0.372524       -10.1369
  66   2.0000      -0.365026        -9.9329
  67   2.0000      -0.356225        -9.6934
  68   2.0000      -0.353149        -9.6097
  69   2.0000      -0.343177        -9.3383
  70   2.0000      -0.340875        -9.2757
  71   2.0000      -0.333099        -9.0641
  72   2.0000      -0.325937        -8.8692
  73   2.0000      -0.312726        -8.5097
  74   2.0000      -0.304404        -8.2833
  75   2.0000      -0.297281        -8.0894
  76   2.0000      -0.295252        -8.0342
  77   2.0000      -0.286047        -7.7837
  78   2.0000      -0.277599        -7.5538
  79   2.0000      -0.263918        -7.1816
  80   2.0000      -0.263063        -7.1583
  81   2.0000      -0.249412        -6.7868
  82   2.0000      -0.244254        -6.6465
  83   2.0000      -0.232079        -6.3152
  84   2.0000      -0.217769        -5.9258
  85   2.0000      -0.196197        -5.3388
  86   2.0000      -0.190727        -5.1899
  87   0.0000      -0.050793        -1.3821
  88   0.0000      -0.036523        -0.9938
  89   0.0000      -0.021753        -0.5919
  90   0.0000       0.007769         0.2114
  91   0.0000       0.026509         0.7214

MULLIKEN ATOMIC CHARGES
-----------------------
   0 C :   -0.302873
   1 C :   -0.019586
   2 O :   -0.224059
   3 C :    0.111839
   4 O :   -0.210829
   5 C :   -0.061446
   6 C :   -0.314592
   7 H :    0.166717
   8 C :    0.214297
   9 O :   -0.196871
  10 O :   -0.211455
  11 C :   -0.013426
  12 C :   -0.319484
  13 S :   -0.079691
  14 P :    0.623030
  15 S :   -0.347211
  16 O :   -0.365984
  17 C :   -0.084846
  18 O :   -0.372959
  19 C :   -0.099866
  20 H :    0.128564
  21 H :    0.113711
  22 H :    0.116503
  23 H :    0.107242
  24 H :    0.105769
  25 H :    0.118341
  26 H :    0.123309
  27 H :    0.111104
  28 H :    0.113808
  29 H :    0.112967
  30 H :    0.145894
  31 H :    0.118780
  32 H :    0.119210
  33 H :    0.117629
  34 H :    0.113593
  35 H :    0.110953
  36 H :    0.109423
  37 H :    0.122493
Sum of atomic charges:    0.0000000

LOEWDIN ATOMIC CHARGES
----------------------
   0 C :   -0.355933
   1 C :   -0.112067
   2 O :   -0.052892
   3 C :    0.024750
   4 O :   -0.173122
   5 C :   -0.252927
   6 C :   -0.266203
   7 H :    0.157110
   8 C :    0.030972
   9 O :   -0.157326
  10 O :   -0.023606
  11 C :   -0.104228
  12 C :   -0.359924
  13 S :    0.109032
  14 P :    0.588518
  15 S :   -0.335951
  16 O :   -0.235889
  17 C :   -0.207267
  18 O :   -0.257077
  19 C :   -0.221249
  20 H :    0.131146
  21 H :    0.131243
  22 H :    0.126084
  23 H :    0.119418
  24 H :    0.117210
  25 H :    0.132213
  26 H :    0.146292
  27 H :    0.121513
  28 H :    0.122495
  29 H :    0.131289
  30 H :    0.130803
  31 H :    0.125429
  32 H :    0.117441
  33 H :    0.113446
  34 H :    0.108036
  35 H :    0.106458
  36 H :    0.103653
  37 H :    0.121111

  Mayer bond orders larger than 0.100000
B(  0-C ,  1-C ) :   1.1756 B(  0-C , 20-H ) :   0.9453 B(  0-C , 21-H ) :   0.9441
B(  0-C , 22-H ) :   0.9485 B(  1-C ,  2-O ) :   0.9155 B(  1-C , 23-H ) :   0.9145
B(  1-C , 24-H ) :   0.9342 B(  2-O ,  3-C ) :   1.2390 B(  3-C ,  4-O ) :   2.0262
B(  3-C ,  5-C ) :   0.9967 B(  5-C ,  6-C ) :   1.0223 B(  5-C , 25-H ) :   0.8851
B(  5-C , 26-H ) :   0.8843 B(  6-C ,  7-H ) :   0.8531 B(  6-C ,  8-C ) :   0.9142
B(  6-C , 13-S ) :   1.0318 B(  8-C ,  9-O ) :   1.9367 B(  8-C , 10-O ) :   1.2883
B(  9-O , 14-P ) :   0.1109 B( 10-O , 11-C ) :   0.8896 B( 11-C , 12-C ) :   1.1781
B( 11-C , 27-H ) :   0.9360 B( 11-C , 28-H ) :   0.9134 B( 12-C , 29-H ) :   0.9402
B( 12-C , 30-H ) :   0.9281 B( 12-C , 31-H ) :   0.9450 B( 13-S , 14-P ) :   0.9342
B( 13-S , 15-S ) :   0.1152 B( 14-P , 15-S ) :   1.5474 B( 14-P , 16-O ) :   1.1404
B( 14-P , 18-O ) :   1.0857 B( 16-O , 17-C ) :   0.9279 B( 17-C , 32-H ) :   0.9541
B( 17-C , 33-H ) :   0.9535 B( 17-C , 34-H ) :   0.9361 B( 18-O , 19-C ) :   0.9443
B( 19-C , 35-H ) :   0.9335 B( 19-C , 36-H ) :   0.9438 B( 19-C , 37-H ) :   0.9594

Dispersion correction           -0.052753063
FINAL SINGLE POINT ENERGY     -1979.016653016083

DIPOLE MOMENT
-------------

Method             : SCF
Type of density    : Electron Density
Multiplicity       :   1
Irrep              :   0
Energy             : -1979.1477741553280794 Eh
Relativity type    :
Basis              : AO
                                X                 Y                 Z
Electronic contribution:    -19.057637152       0.394886529      -6.705641739
Nuclear contribution   :     20.289966026      -0.104324385       6.990782704
                        -----------------------------------------
Total Dipole Moment    :      1.232328874       0.290562143       0.285140966
                        -----------------------------------------
Magnitude (a.u.)       :      1.297831338
Magnitude (Debye)      :      3.298825099

Rotational constants in cm-1:             0.016169             0.006302             0.005572
Rotational constants in MHz :           484.728119           188.926168           167.041826

                             ****ORCA TERMINATED NORMALLY****
TOTAL RUN TIME: 0 days 0 hours 0 minutes 45 seconds 340 msec
