                         Program Version 6.0.0  -   RELEASE  -
|  1> ! pbe def2-sv(p) def2/J RI DEFGRID1 loosescf d4 GCP(DFT/SV(P)) printgap
|  2> %output
|  3>     printlevel normal
|  4> end
|  5> * xyz 0 1
|  6> C 3.1590512796 1.8360582206 -1.3395338901
|  7> C 2.9645206523 2.0265726669 0.1524266297
|  8> O 3.1075346867 0.7814706648 0.8605195719
|  9> P 1.8678880709 -0.145995049 1.2184392838
| 10> S 0.3523686987 0.7476522667 2.0693939063
| 11> O 2.4921885654 -1.2181483094 2.1918207115
| 12> C 3.6461744626 -2.0337540971 1.8710926876
| 13> C 4.9235725214 -1.3870153799 2.3656341738
| 14> S 1.4757781464 -1.2132739059 -0.5891601874
| 15> C -0.1447592714 -1.8931715641 -0.1205318374
| 16> S -1.3482365503 -1.8093203799 -1.4770797825
| 17> P -2.0977812124 0.1386535551 -1.1725987515
| 18> S -3.5243410958 0.7258626126 -2.376530805
| 19> O -0.7384685541 0.9570254597 -1.245007537
| 20> C -0.7413520018 2.3735919331 -1.5221285305
| 21> C -1.349576138 3.1729313832 -0.3893246196
| 22> O -2.4539801187 0.2174248397 0.3799579042
| 23> C -3.7750372802 -0.051568117 0.8711131334
| 24> C -4.1176833777 -1.52639339 0.7966838925
| 25> H 3.1324266966 2.8048403351 -1.8289360522
| 26> H 4.1197724819 1.3669340632 -1.5323543204
| 27> H 2.3769515128 1.2030341524 -1.7536926153
| 28> H 1.9814804247 2.4511953106 0.3807378681
| 29> H 3.740705205 2.6701443681 0.5709911361
| 30> H 3.4571622793 -2.9790909805 2.382850364
| 31> H 3.6750736443 -2.1945206299 0.789648442
| 32> H 4.852350623 -1.1898363819 3.4318440077
| 33> H 5.7552948236 -2.0597226078 2.1807094533
| 34> H 5.098816832 -0.4487285159 1.8469853218
| 35> H -0.5212882522 -1.3278371117 0.7347865968
| 36> H -0.0317227588 -2.9494137005 0.1080295387
| 37> H 0.3120818114 2.6145416032 -1.6695910928
| 38> H -1.2947414004 2.5386649596 -2.4521436701
| 39> H -1.1932260896 4.231709022 -0.5693061768
| 40> H -2.4192741393 2.9769186842 -0.3299597457
| 41> H -0.8945549744 2.8918832205 0.5583468141
| 42> H -3.7510927071 0.3087666052 1.9007476835
| 43> H -4.4883923519 0.5368956106 0.2847103805
| 44> H -3.3804329671 -2.11645996 1.3354652518
| 45> H -5.0964762324 -1.6890080401 1.2363198608
| 46> H -4.1391063632 -1.8502065745 -0.2438006096
| 47> *
| 48>
| 49>                          ****END OF INPUT****

CARTESIAN COORDINATES (ANGSTROEM)
---------------------------------
  C      3.159051    1.836058   -1.339534
  C      2.964521    2.026573    0.152427
  O      3.107535    0.781471    0.860520
  P      1.867888   -0.145995    1.218439
  S      0.352369    0.747652    2.069394
  O      2.492189   -1.218148    2.191821
  C      3.646174   -2.033754    1.871093
  C      4.923573   -1.387015    2.365634
  S      1.475778   -1.213274   -0.589160
  C     -0.144759   -1.893172   -0.120532
  S     -1.348237   -1.809320   -1.477080
  P     -2.097781    0.138654   -1.172599
  S     -3.524341    0.725863   -2.376531
  O     -0.738469    0.957025   -1.245008
  C     -0.741352    2.373592   -1.522129
  C     -1.349576    3.172931   -0.389325
  O     -2.453980    0.217425    0.379958
  C     -3.775037   -0.051568    0.871113
  C     -4.117683   -1.526393    0.796684
  H      3.132427    2.804840   -1.828936
  H      4.119772    1.366934   -1.532354
  H      2.376952    1.203034   -1.753693
  H      1.981480    2.451195    0.380738
  H      3.740705    2.670144    0.570991
  H      3.457162   -2.979091    2.382850
  H      3.675074   -2.194521    0.789648
  H      4.852351   -1.189836    3.431844
  H      5.755295   -2.059723    2.180709
  H      5.098817   -0.448729    1.846985
  H     -0.521288   -1.327837    0.734787
  H     -0.031723   -2.949414    0.108030
  H      0.312082    2.614542   -1.669591
  H     -1.294741    2.538665   -2.452144
  H     -1.193226    4.231709   -0.569306
  H     -2.419274    2.976919   -0.329960
  H     -0.894555    2.891883    0.558347
  H     -3.751093    0.308767    1.900748
  H     -4.488392    0.536896    0.284710
  H     -3.380433   -2.116460    1.335465
  H     -5.096476   -1.689008    1.236320
  H     -4.139106   -1.850207   -0.243801

 Total Charge           Charge          ....    0
 Multiplicity           Mult            ....    1
 Number of Electrons    NEL             ....  202
 Basis Dimension        Dim             ....  334

ORBITAL ENERGIES
----------------

  NO   OCC          E(Eh)            E(eV)
   0   2.0000     -88.043782     -2395.7931
   1   2.0000     -88.043732     -2395.7918
   2   2.0000     -87.987894     -2394.2723
   3   2.0000     -87.986539     -2394.2354
   4   2.0000     -76.428895     -2079.7360
   5   2.0000     -76.423163     -2079.5800
   6   2.0000     -18.802148      -511.6324
   7   2.0000     -18.794418      -511.4221
   8   2.0000     -18.787763      -511.2410
   9   2.0000     -18.784680      -511.1571
  10   2.0000      -9.960995      -271.0525
  11   2.0000      -9.958981      -270.9976
  12   2.0000      -9.957292      -270.9517
  13   2.0000      -9.947937      -270.6971
  14   2.0000      -9.947841      -270.6945
  15   2.0000      -9.891784      -269.1691
  16   2.0000      -9.889251      -269.1002
  17   2.0000      -9.881893      -268.9000
  18   2.0000      -9.875172      -268.7171
  19   2.0000      -7.689129      -209.2318
  20   2.0000      -7.688507      -209.2149
  21   2.0000      -7.633043      -207.7057
  22   2.0000      -7.631684      -207.6687
  23   2.0000      -6.426744      -174.8806
  24   2.0000      -6.421054      -174.7258
  25   2.0000      -5.717377      -155.5777
  26   2.0000      -5.716289      -155.5481
  27   2.0000      -5.713390      -155.4693
  28   2.0000      -5.713095      -155.4612
  29   2.0000      -5.705927      -155.2662
  30   2.0000      -5.705541      -155.2557
  31   2.0000      -5.662040      -154.0719
  32   2.0000      -5.660607      -154.0330
  33   2.0000      -5.653742      -153.8461
  34   2.0000      -5.652965      -153.8250
  35   2.0000      -5.652366      -153.8087
  36   2.0000      -5.651781      -153.7928
  37   2.0000      -4.649694      -126.5246
  38   2.0000      -4.648435      -126.4903
  39   2.0000      -4.646868      -126.4477
  40   2.0000      -4.643312      -126.3509
  41   2.0000      -4.643022      -126.3430
  42   2.0000      -4.641596      -126.3043
  43   2.0000      -0.993585       -27.0368
  44   2.0000      -0.981772       -26.7154
  45   2.0000      -0.951314       -25.8866
  46   2.0000      -0.941462       -25.6185
  47   2.0000      -0.762933       -20.7605
  48   2.0000      -0.724253       -19.7079
  49   2.0000      -0.708745       -19.2859
  50   2.0000      -0.696579       -18.9549
  51   2.0000      -0.683092       -18.5879
  52   2.0000      -0.675279       -18.3753
  53   2.0000      -0.653645       -17.7866
  54   2.0000      -0.639134       -17.3917
  55   2.0000      -0.599753       -16.3201
  56   2.0000      -0.593973       -16.1628
  57   2.0000      -0.578227       -15.7344
  58   2.0000      -0.568324       -15.4649
  59   2.0000      -0.561723       -15.2853
  60   2.0000      -0.507759       -13.8168
  61   2.0000      -0.489402       -13.3173
  62   2.0000      -0.485351       -13.2071
  63   2.0000      -0.468933       -12.7603
  64   2.0000      -0.457936       -12.4611
  65   2.0000      -0.450009       -12.2454
  66   2.0000      -0.443453       -12.0670
  67   2.0000      -0.436365       -11.8741
  68   2.0000      -0.434325       -11.8186
  69   2.0000      -0.415995       -11.3198
  70   2.0000      -0.411324       -11.1927
  71   2.0000      -0.398584       -10.8460
  72   2.0000      -0.392106       -10.6697
  73   2.0000      -0.390717       -10.6319
  74   2.0000      -0.388276       -10.5655
  75   2.0000      -0.373605       -10.1663
  76   2.0000      -0.364990        -9.9319
  77   2.0000      -0.361243        -9.8299
  78   2.0000      -0.358829        -9.7642
  79   2.0000      -0.353529        -9.6200
  80   2.0000      -0.348659        -9.4875
  81   2.0000      -0.343378        -9.3438
  82   2.0000      -0.340879        -9.2758
  83   2.0000      -0.338179        -9.2023
  84   2.0000      -0.329601        -8.9689
  85   2.0000      -0.321313        -8.7434
  86   2.0000      -0.314585        -8.5603
  87   2.0000      -0.300037        -8.1644
  88   2.0000      -0.296515        -8.0686
  89   2.0000      -0.290463        -7.9039
  90   2.0000      -0.286096        -7.7851
  91   2.0000      -0.277259        -7.5446
  92   2.0000      -0.268920        -7.3177
  93   2.0000      -0.266044        -7.2394
  94   2.0000      -0.261664        -7.1202
  95   2.0000      -0.230655        -6.2764
  96   2.0000      -0.218984        -5.9588
  97   2.0000      -0.210036        -5.7154
  98   2.0000      -0.207334        -5.6418
  99   2.0000      -0.202673        -5.5150
 100   2.0000      -0.199235        -5.4214
 101   0.0000      -0.038687        -1.0527
 102   0.0000      -0.029476        -0.8021
 103   0.0000      -0.021529        -0.5858
 104   0.0000       0.006921         0.1883
 105   0.0000       0.014721         0.4006

MULLIKEN ATOMIC CHARGES
-----------------------
   0 C :   -0.322797
   1 C :   -0.018319
   2 O :   -0.380258
   3 P :    0.596233
   4 S :   -0.292595
   5 O :   -0.357487
   6 C :   -0.012652
   7 C :   -0.292109
   8 S :   -0.090551
   9 C :   -0.369737
  10 S :   -0.069175
  11 P :    0.617055
  12 S :   -0.322421
  13 O :   -0.370133
  14 C :   -0.018440
  15 C :   -0.323402
  16 O :   -0.365888
  17 C :   -0.006479
  18 C :   -0.313974
  19 H :    0.115667
  20 H :    0.115861
  21 H :    0.152070
  22 H :    0.114366
  23 H :    0.110131
  24 H :    0.108614
  25 H :    0.100419
  26 H :    0.120590
  27 H :    0.110055
  28 H :    0.122224
  29 H :    0.206810
  30 H :    0.182206
  31 H :    0.103496
  32 H :    0.112548
  33 H :    0.105013
  34 H :    0.117713
  35 H :    0.142621
  36 H :    0.108138
  37 H :    0.110497
  38 H :    0.115793
  39 H :    0.112490
  40 H :    0.125806
Sum of atomic charges:   -0.0000000

LOEWDIN ATOMIC CHARGES
----------------------
   0 C :   -0.369470
   1 C :   -0.116604
   2 O :   -0.243481
   3 P :    0.567294
   4 S :   -0.286966
   5 O :   -0.239355
   6 C :   -0.116882
   7 C :   -0.360347
   8 S :    0.074481
   9 C :   -0.482193
  10 S :    0.095082
  11 P :    0.573165
  12 S :   -0.318820
  13 O :   -0.243672
  14 C :   -0.117445
  15 C :   -0.372590
  16 O :   -0.234981
  17 C :   -0.121666
  18 C :   -0.367071
  19 H :    0.131120
  20 H :    0.126720
  21 H :    0.124558
  22 H :    0.109586
  23 H :    0.120927
  24 H :    0.120627
  25 H :    0.101906
  26 H :    0.129157
  27 H :    0.129681
  28 H :    0.125521
  29 H :    0.125126
  30 H :    0.135620
  31 H :    0.112992
  32 H :    0.110867
  33 H :    0.127302
  34 H :    0.121491
  35 H :    0.123865
  36 H :    0.120114
  37 H :    0.108572
  38 H :    0.123748
  39 H :    0.130795
  40 H :    0.121224

  Mayer bond orders larger than 0.100000
B(  0-C ,  1-C ) :   1.1721 B(  0-C , 19-H ) :   0.9360 B(  0-C , 20-H ) :   0.9443
B(  0-C , 21-H ) :   0.9240 B(  1-C ,  2-O ) :   0.9015 B(  1-C , 22-H ) :   0.9055
B(  1-C , 23-H ) :   0.9335 B(  2-O ,  3-P ) :   1.0849 B(  3-P ,  4-S ) :   1.6493
B(  3-P ,  5-O ) :   1.1317 B(  3-P ,  8-S ) :   0.9582 B(  4-S ,  8-S ) :   0.1147
B(  5-O ,  6-C ) :   0.8987 B(  6-C ,  7-C ) :   1.1637 B(  6-C , 24-H ) :   0.9364
B(  6-C , 25-H ) :   0.9086 B(  7-C , 26-H ) :   0.9471 B(  7-C , 27-H ) :   0.9393
B(  7-C , 28-H ) :   0.9413 B(  8-S ,  9-C ) :   0.9774 B(  9-C , 10-S ) :   0.9992
B(  9-C , 29-H ) :   0.8488 B(  9-C , 30-H ) :   0.9107 B( 10-S , 11-P ) :   0.9708
B( 11-P , 12-S ) :   1.6344 B( 11-P , 13-O ) :   1.1185 B( 11-P , 16-O ) :   1.0791
B( 13-O , 14-C ) :   0.9101 B( 14-C , 15-C ) :   1.1625 B( 14-C , 31-H ) :   0.9227
B( 14-C , 32-H ) :   0.9180 B( 15-C , 33-H ) :   0.9376 B( 15-C , 34-H ) :   0.9347
B( 15-C , 35-H ) :   0.9304 B( 16-O , 17-C ) :   0.9108 B( 17-C , 18-C ) :   1.1636
B( 17-C , 36-H ) :   0.9321 B( 17-C , 37-H ) :   0.9129 B( 18-C , 38-H ) :   0.9472
B( 18-C , 39-H ) :   0.9394 B( 18-C , 40-H ) :   0.9361

Dispersion correction           -0.066278466
FINAL SINGLE POINT ENERGY     -2929.518058218245

DIPOLE MOMENT
-------------

Method             : SCF
Type of density    : Electron Density
Multiplicity       :   1
Irrep              :   0
Energy             : -2929.6387990521529900 Eh
Relativity type    :
Basis              : AO
                                X                 Y                 Z
Electronic contribution:     -9.450885770      -7.492975214      -6.432347892
Nuclear contribution   :     10.922846665       7.371346080       6.967323213
                        -----------------------------------------
Total Dipole Moment    :      1.471960895      -0.121629134       0.534975322
                        -----------------------------------------
Magnitude (a.u.)       :      1.570879090
Magnitude (Debye)      :      3.992857330

Rotational constants in cm-1:             0.012917             0.005162             0.004693
Rotational constants in MHz :           387.230599           154.746363           140.687579

                             ****ORCA TERMINATED NORMALLY****
TOTAL RUN TIME: 0 days 0 hours 0 minutes 21 seconds 814 msec
