                         Program Version 6.0.0  -   RELEASE  -
|  1> ! pbe def2-sv(p) def2/J RI DEFGRID1 loosescf d4 GCP(DFT/SV(P)) printgap
|  2> %output
|  3>     printlevel normal
|  4> end
|  5> * xyz 0 1
|  6> C 3.4766628481 -2.3267497446 1.9298091535
|  7> C 3.5459909516 -0.8230981857 1.7571650831
|  8> O 3.6048136051 -0.4674684582 0.3511466812
|  9> P 2.3475655043 0.0050740067 -0.4857171823
| 10> S 2.8461317125 0.5334022174 -2.2982853266
| 11> O 1.6253147272 1.1341700477 0.404500214
| 12> C 1.7942820054 2.5349196303 0.132034872
| 13> C 3.1600857999 3.0186014078 0.574337001
| 14> S 0.9347976383 -1.5490211572 -0.2867191852
| 15> C -0.1462576598 -1.0485585847 -1.650133549
| 16> S -0.8161757325 0.6379583235 -1.4968354554
| 17> P -2.3747046696 0.2590738955 -0.1183257044
| 18> S -3.3050838052 1.8444759558 0.5549018061
| 19> O -1.751910468 -0.6816532496 1.0025982611
| 20> C -1.0949828449 -0.159832263 2.1725245048
| 21> C -0.8099818772 -1.3298914452 3.091605553
| 22> O -3.2208624589 -0.7767137767 -0.9671988086
| 23> C -4.6124537244 -1.0314461225 -0.6779163132
| 24> C -4.7931627136 -1.7203476204 0.6578444484
| 25> H 3.5154998694 -2.5632188705 2.988446938
| 26> H 2.5533279233 -2.7183859774 1.5085556442
| 27> H 4.316459269 -2.7968490467 1.4259540506
| 28> H 4.4704179972 -0.4204839527 2.1747589202
| 29> H 2.6861241193 -0.3284715572 2.2149188602
| 30> H 1.6494600697 2.7009582622 -0.9404882282
| 31> H 0.9873719121 3.0194066958 0.685254797
| 32> H 3.2439252339 4.0834108708 0.3817559788
| 33> H 3.3044459481 2.831402771 1.6352098712
| 34> H 3.9325415236 2.494801266 0.0113461104
| 35> H -0.9628658881 -1.7642035203 -1.6889837186
| 36> H 0.4298273419 -1.0466187217 -2.5747577104
| 37> H -0.1709974115 0.3379376259 1.8643488474
| 38> H -1.7534729038 0.5808009123 2.6378245449
| 39> H -0.2969151034 -0.9714104529 3.977713143
| 40> H -1.7390930837 -1.8096527017 3.3843470972
| 41> H -0.1852832997 -2.0545094762 2.5764194253
| 42> H -5.1485836465 -0.0775621764 -0.6970913921
| 43> H -4.939232025 -1.6582351558 -1.5086444516
| 44> H -5.837804251 -1.9860102739 0.7864378314
| 45> H -4.1816019964 -2.6174558974 0.7051907957
| 46> H -4.4982759975 -1.0469374134 1.4614448353
| 47> *
| 48>
| 49>                          ****END OF INPUT****

CARTESIAN COORDINATES (ANGSTROEM)
---------------------------------
  C      3.476663   -2.326750    1.929809
  C      3.545991   -0.823098    1.757165
  O      3.604814   -0.467468    0.351147
  P      2.347566    0.005074   -0.485717
  S      2.846132    0.533402   -2.298285
  O      1.625315    1.134170    0.404500
  C      1.794282    2.534920    0.132035
  C      3.160086    3.018601    0.574337
  S      0.934798   -1.549021   -0.286719
  C     -0.146258   -1.048559   -1.650134
  S     -0.816176    0.637958   -1.496835
  P     -2.374705    0.259074   -0.118326
  S     -3.305084    1.844476    0.554902
  O     -1.751910   -0.681653    1.002598
  C     -1.094983   -0.159832    2.172525
  C     -0.809982   -1.329891    3.091606
  O     -3.220862   -0.776714   -0.967199
  C     -4.612454   -1.031446   -0.677916
  C     -4.793163   -1.720348    0.657844
  H      3.515500   -2.563219    2.988447
  H      2.553328   -2.718386    1.508556
  H      4.316459   -2.796849    1.425954
  H      4.470418   -0.420484    2.174759
  H      2.686124   -0.328472    2.214919
  H      1.649460    2.700958   -0.940488
  H      0.987372    3.019407    0.685255
  H      3.243925    4.083411    0.381756
  H      3.304446    2.831403    1.635210
  H      3.932542    2.494801    0.011346
  H     -0.962866   -1.764204   -1.688984
  H      0.429827   -1.046619   -2.574758
  H     -0.170997    0.337938    1.864349
  H     -1.753473    0.580801    2.637825
  H     -0.296915   -0.971410    3.977713
  H     -1.739093   -1.809653    3.384347
  H     -0.185283   -2.054509    2.576419
  H     -5.148584   -0.077562   -0.697091
  H     -4.939232   -1.658235   -1.508644
  H     -5.837804   -1.986010    0.786438
  H     -4.181602   -2.617456    0.705191
  H     -4.498276   -1.046937    1.461445

 Total Charge           Charge          ....    0
 Multiplicity           Mult            ....    1
 Number of Electrons    NEL             ....  202
 Basis Dimension        Dim             ....  334

ORBITAL ENERGIES
----------------

  NO   OCC          E(Eh)            E(eV)
   0   2.0000     -88.046539     -2395.8681
   1   2.0000     -88.040736     -2395.7102
   2   2.0000     -87.990439     -2394.3416
   3   2.0000     -87.987364     -2394.2579
   4   2.0000     -76.430500     -2079.7796
   5   2.0000     -76.425442     -2079.6420
   6   2.0000     -18.800815      -511.5962
   7   2.0000     -18.793633      -511.4008
   8   2.0000     -18.793544      -511.3983
   9   2.0000     -18.791941      -511.3547
  10   2.0000      -9.966241      -271.1952
  11   2.0000      -9.959378      -271.0085
  12   2.0000      -9.954782      -270.8834
  13   2.0000      -9.948856      -270.7221
  14   2.0000      -9.948630      -270.7160
  15   2.0000      -9.896311      -269.2923
  16   2.0000      -9.888443      -269.0782
  17   2.0000      -9.886647      -269.0293
  18   2.0000      -9.885294      -268.9925
  19   2.0000      -7.691576      -209.2984
  20   2.0000      -7.685748      -209.1398
  21   2.0000      -7.635668      -207.7771
  22   2.0000      -7.632574      -207.6929
  23   2.0000      -6.428146      -174.9188
  24   2.0000      -6.423435      -174.7905
  25   2.0000      -5.719386      -155.6324
  26   2.0000      -5.716155      -155.5445
  27   2.0000      -5.714031      -155.4867
  28   2.0000      -5.710093      -155.3795
  29   2.0000      -5.708488      -155.3358
  30   2.0000      -5.702469      -155.1721
  31   2.0000      -5.664786      -154.1467
  32   2.0000      -5.661481      -154.0567
  33   2.0000      -5.656233      -153.9139
  34   2.0000      -5.655647      -153.8980
  35   2.0000      -5.653171      -153.8306
  36   2.0000      -5.652789      -153.8202
  37   2.0000      -4.651055      -126.5616
  38   2.0000      -4.649541      -126.5204
  39   2.0000      -4.648681      -126.4970
  40   2.0000      -4.645801      -126.4187
  41   2.0000      -4.645435      -126.4087
  42   2.0000      -4.643828      -126.3650
  43   2.0000      -0.989932       -26.9374
  44   2.0000      -0.987980       -26.8843
  45   2.0000      -0.948123       -25.7998
  46   2.0000      -0.946447       -25.7541
  47   2.0000      -0.766255       -20.8508
  48   2.0000      -0.726290       -19.7633
  49   2.0000      -0.714166       -19.4334
  50   2.0000      -0.693677       -18.8759
  51   2.0000      -0.690079       -18.7780
  52   2.0000      -0.675031       -18.3685
  53   2.0000      -0.655925       -17.8486
  54   2.0000      -0.640501       -17.4289
  55   2.0000      -0.599661       -16.3176
  56   2.0000      -0.592895       -16.1335
  57   2.0000      -0.584063       -15.8932
  58   2.0000      -0.566697       -15.4206
  59   2.0000      -0.565081       -15.3766
  60   2.0000      -0.507006       -13.7963
  61   2.0000      -0.502406       -13.6712
  62   2.0000      -0.482416       -13.1272
  63   2.0000      -0.477918       -13.0048
  64   2.0000      -0.461824       -12.5669
  65   2.0000      -0.454409       -12.3651
  66   2.0000      -0.440238       -11.9795
  67   2.0000      -0.436603       -11.8806
  68   2.0000      -0.427585       -11.6352
  69   2.0000      -0.417084       -11.3494
  70   2.0000      -0.413617       -11.2551
  71   2.0000      -0.401152       -10.9159
  72   2.0000      -0.400056       -10.8861
  73   2.0000      -0.381993       -10.3946
  74   2.0000      -0.380996       -10.3674
  75   2.0000      -0.377629       -10.2758
  76   2.0000      -0.365975        -9.9587
  77   2.0000      -0.365523        -9.9464
  78   2.0000      -0.363651        -9.8954
  79   2.0000      -0.359265        -9.7761
  80   2.0000      -0.353083        -9.6079
  81   2.0000      -0.348586        -9.4855
  82   2.0000      -0.347932        -9.4677
  83   2.0000      -0.342951        -9.3322
  84   2.0000      -0.334794        -9.1102
  85   2.0000      -0.320362        -8.7175
  86   2.0000      -0.318294        -8.6612
  87   2.0000      -0.308455        -8.3935
  88   2.0000      -0.299732        -8.1561
  89   2.0000      -0.289649        -7.8818
  90   2.0000      -0.283744        -7.7211
  91   2.0000      -0.278949        -7.5906
  92   2.0000      -0.276505        -7.5241
  93   2.0000      -0.271456        -7.3867
  94   2.0000      -0.258508        -7.0344
  95   2.0000      -0.231723        -6.3055
  96   2.0000      -0.218618        -5.9489
  97   2.0000      -0.210466        -5.7271
  98   2.0000      -0.207749        -5.6531
  99   2.0000      -0.205079        -5.5805
 100   2.0000      -0.202908        -5.5214
 101   0.0000      -0.044009        -1.1976
 102   0.0000      -0.019343        -0.5264
 103   0.0000      -0.010627        -0.2892
 104   0.0000      -0.003353        -0.0912
 105   0.0000       0.006976         0.1898

MULLIKEN ATOMIC CHARGES
-----------------------
   0 C :   -0.301420
   1 C :   -0.036085
   2 O :   -0.364524
   3 P :    0.617939
   4 S :   -0.303896
   5 O :   -0.382618
   6 C :   -0.008155
   7 C :   -0.308163
   8 S :   -0.108147
   9 C :   -0.341381
  10 S :   -0.062189
  11 P :    0.609679
  12 S :   -0.329532
  13 O :   -0.381984
  14 C :   -0.032888
  15 C :   -0.287555
  16 O :   -0.379603
  17 C :   -0.003891
  18 C :   -0.309566
  19 H :    0.113579
  20 H :    0.138183
  21 H :    0.126589
  22 H :    0.114635
  23 H :    0.114670
  24 H :    0.118459
  25 H :    0.107894
  26 H :    0.115484
  27 H :    0.107539
  28 H :    0.127144
  29 H :    0.188310
  30 H :    0.196340
  31 H :    0.125763
  32 H :    0.106538
  33 H :    0.106264
  34 H :    0.114021
  35 H :    0.117217
  36 H :    0.115266
  37 H :    0.106521
  38 H :    0.113287
  39 H :    0.115686
  40 H :    0.124590
Sum of atomic charges:    0.0000000

LOEWDIN ATOMIC CHARGES
----------------------
   0 C :   -0.360917
   1 C :   -0.117060
   2 O :   -0.241444
   3 P :    0.569191
   4 S :   -0.302232
   5 O :   -0.251937
   6 C :   -0.124394
   7 C :   -0.364638
   8 S :    0.092367
   9 C :   -0.474451
  10 S :    0.100235
  11 P :    0.564723
  12 S :   -0.326075
  13 O :   -0.246223
  14 C :   -0.131363
  15 C :   -0.353271
  16 O :   -0.247793
  17 C :   -0.114640
  18 C :   -0.366205
  19 H :    0.132012
  20 H :    0.118892
  21 H :    0.132605
  22 H :    0.123274
  23 H :    0.109494
  24 H :    0.110247
  25 H :    0.118531
  26 H :    0.132360
  27 H :    0.120752
  28 H :    0.124534
  29 H :    0.136020
  30 H :    0.136136
  31 H :    0.107442
  32 H :    0.107689
  33 H :    0.127533
  34 H :    0.125858
  35 H :    0.120422
  36 H :    0.113695
  37 H :    0.119423
  38 H :    0.131045
  39 H :    0.125587
  40 H :    0.122575

  Mayer bond orders larger than 0.100000
B(  0-C ,  1-C ) :   1.1680 B(  0-C , 19-H ) :   0.9383 B(  0-C , 20-H ) :   0.9318
B(  0-C , 21-H ) :   0.9445 B(  1-C ,  2-O ) :   0.8977 B(  1-C , 22-H ) :   0.9330
B(  1-C , 23-H ) :   0.9143 B(  2-O ,  3-P ) :   1.1275 B(  3-P ,  4-S ) :   1.6407
B(  3-P ,  5-O ) :   1.0502 B(  3-P ,  8-S ) :   0.9662 B(  4-S ,  8-S ) :   0.1026
B(  5-O ,  6-C ) :   0.8973 B(  6-C ,  7-C ) :   1.1612 B(  6-C , 24-H ) :   0.9121
B(  6-C , 25-H ) :   0.9319 B(  7-C , 26-H ) :   0.9407 B(  7-C , 27-H ) :   0.9475
B(  7-C , 28-H ) :   0.9360 B(  8-S ,  9-C ) :   0.9942 B(  9-C , 10-S ) :   0.9906
B(  9-C , 29-H ) :   0.8967 B(  9-C , 30-H ) :   0.8871 B( 10-S , 11-P ) :   0.9783
B( 11-P , 12-S ) :   1.6457 B( 11-P , 13-O ) :   1.0905 B( 11-P , 16-O ) :   1.1035
B( 13-O , 14-C ) :   0.8890 B( 14-C , 15-C ) :   1.1620 B( 14-C , 31-H ) :   0.9024
B( 14-C , 32-H ) :   0.9142 B( 15-C , 33-H ) :   0.9425 B( 15-C , 34-H ) :   0.9497
B( 15-C , 35-H ) :   0.9448 B( 16-O , 17-C ) :   0.9049 B( 17-C , 18-C ) :   1.1635
B( 17-C , 36-H ) :   0.9187 B( 17-C , 37-H ) :   0.9357 B( 18-C , 38-H ) :   0.9375
B( 18-C , 39-H ) :   0.9458 B( 18-C , 40-H ) :   0.9346

Dispersion correction           -0.066031635
FINAL SINGLE POINT ENERGY     -2929.521685271345

DIPOLE MOMENT
-------------

Method             : SCF
Type of density    : Electron Density
Multiplicity       :   1
Irrep              :   0
Energy             : -2929.6422748494005646 Eh
Relativity type    :
Basis              : AO
                                X                 Y                 Z
Electronic contribution:     -1.269527879       6.636580474     -20.732577691
Nuclear contribution   :      1.328156854      -7.618531368      22.240823821
                        -----------------------------------------
Total Dipole Moment    :      0.058628975      -0.981950894       1.508246130
                        -----------------------------------------
Magnitude (a.u.)       :      1.800686342
Magnitude (Debye)      :      4.576980943

Rotational constants in cm-1:             0.012293             0.005129             0.004777
Rotational constants in MHz :           368.524256           153.758535           143.196289

                             ****ORCA TERMINATED NORMALLY****
TOTAL RUN TIME: 0 days 0 hours 0 minutes 21 seconds 882 msec
