                         Program Version 6.0.0  -   RELEASE  -
|  1> ! pbe def2-sv(p) def2/J RI DEFGRID1 loosescf d4 GCP(DFT/SV(P)) printgap
|  2> %output
|  3>     printlevel normal
|  4> end
|  5> * xyz 0 1
|  6> C 1.5861560762 -2.4581657627 1.8399300478
|  7> C 1.8524493448 -0.9980727338 2.1439718952
|  8> O 2.8906977581 -0.4375418672 1.3224184426
|  9> P 2.7895435606 -0.2257504825 -0.2532642331
| 10> S 2.9393990144 -1.7970678573 -1.4065906298
| 11> O 3.9828527678 0.7596188401 -0.5279590354
| 12> C 4.1508951947 2.030823955 0.14925166
| 13> C 5.127954066 1.9000046428 1.2996449325
| 14> S 1.0183203137 0.9686949081 -0.5077883394
| 15> C 0.0202379656 -0.2167199574 -1.4409960767
| 16> S -1.1375271658 -1.1342903945 -0.4018685682
| 17> P -2.5750411267 0.4385294293 -0.237200446
| 18> S -2.859824415 1.5069951511 -1.8500623372
| 19> O -2.069641382 1.3264907734 0.9631447202
| 20> C -1.8413696876 0.8181035012 2.3013842363
| 21> C -3.045188709 1.0671243197 3.1866219897
| 22> O -3.8586156588 -0.2790142944 0.3647454513
| 23> C -4.8606707126 -0.8976631499 -0.4626472532
| 24> C -4.3279116216 -2.0987934641 -1.2162726989
| 25> H 0.8909467691 -2.8560013902 2.5720440981
| 26> H 1.1524815262 -2.5703845714 0.847396333
| 27> H 2.5126572036 -3.0252667947 1.8774870981
| 28> H 2.2292691568 -0.866901511 3.1598531286
| 29> H 0.9445911771 -0.4025124656 2.0073892365
| 30> H 4.5325638495 2.7018364517 -0.6223737099
| 31> H 3.1737633795 2.383953064 0.4900674933
| 32> H 6.0786003044 1.5200665871 0.9358519881
| 33> H 5.2800622004 2.8764124003 1.7489308075
| 34> H 4.7415599044 1.2141055439 2.0483235422
| 35> H 0.6839641152 -0.9450159434 -1.9132666358
| 36> H -0.5464024098 0.3484999957 -2.1821649472
| 37> H -1.6123479612 -0.249856272 2.2402899076
| 38> H -0.968969061 1.3719481324 2.6542318903
| 39> H -3.9027776875 0.5074386038 2.823765714
| 40> H -2.811982205 0.7505906435 4.1984386815
| 41> H -3.2924305164 2.1251050757 3.1892149489
| 42> H -5.6417230321 -1.181397282 0.2441556773
| 43> H -5.2439049849 -0.1456423573 -1.1590044074
| 44> H -3.608804106 -1.779478341 -1.9692477532
| 45> H -3.8388516553 -2.789694755 -0.5340424561
| 46> H -5.1508933517 -2.6034259469 -1.7121720492
| 47> *
| 48>
| 49>                          ****END OF INPUT****

CARTESIAN COORDINATES (ANGSTROEM)
---------------------------------
  C      1.586156   -2.458166    1.839930
  C      1.852449   -0.998073    2.143972
  O      2.890698   -0.437542    1.322418
  P      2.789544   -0.225750   -0.253264
  S      2.939399   -1.797068   -1.406591
  O      3.982853    0.759619   -0.527959
  C      4.150895    2.030824    0.149252
  C      5.127954    1.900005    1.299645
  S      1.018320    0.968695   -0.507788
  C      0.020238   -0.216720   -1.440996
  S     -1.137527   -1.134290   -0.401869
  P     -2.575041    0.438529   -0.237200
  S     -2.859824    1.506995   -1.850062
  O     -2.069641    1.326491    0.963145
  C     -1.841370    0.818104    2.301384
  C     -3.045189    1.067124    3.186622
  O     -3.858616   -0.279014    0.364745
  C     -4.860671   -0.897663   -0.462647
  C     -4.327912   -2.098793   -1.216273
  H      0.890947   -2.856001    2.572044
  H      1.152482   -2.570385    0.847396
  H      2.512657   -3.025267    1.877487
  H      2.229269   -0.866902    3.159853
  H      0.944591   -0.402512    2.007389
  H      4.532564    2.701836   -0.622374
  H      3.173763    2.383953    0.490067
  H      6.078600    1.520067    0.935852
  H      5.280062    2.876412    1.748931
  H      4.741560    1.214106    2.048324
  H      0.683964   -0.945016   -1.913267
  H     -0.546402    0.348500   -2.182165
  H     -1.612348   -0.249856    2.240290
  H     -0.968969    1.371948    2.654232
  H     -3.902778    0.507439    2.823766
  H     -2.811982    0.750591    4.198439
  H     -3.292431    2.125105    3.189215
  H     -5.641723   -1.181397    0.244156
  H     -5.243905   -0.145642   -1.159004
  H     -3.608804   -1.779478   -1.969248
  H     -3.838852   -2.789695   -0.534042
  H     -5.150893   -2.603426   -1.712172

 Total Charge           Charge          ....    0
 Multiplicity           Mult            ....    1
 Number of Electrons    NEL             ....  202
 Basis Dimension        Dim             ....  334

ORBITAL ENERGIES
----------------

  NO   OCC          E(Eh)            E(eV)
   0   2.0000     -88.045899     -2395.8507
   1   2.0000     -88.042436     -2395.7565
   2   2.0000     -87.990439     -2394.3416
   3   2.0000     -87.987922     -2394.2731
   4   2.0000     -76.430605     -2079.7825
   5   2.0000     -76.427965     -2079.7106
   6   2.0000     -18.801270      -511.6086
   7   2.0000     -18.795999      -511.4651
   8   2.0000     -18.795721      -511.4576
   9   2.0000     -18.793863      -511.4070
  10   2.0000      -9.962108      -271.0828
  11   2.0000      -9.961323      -271.0614
  12   2.0000      -9.959161      -271.0025
  13   2.0000      -9.958472      -270.9838
  14   2.0000      -9.949575      -270.7417
  15   2.0000      -9.891644      -269.1653
  16   2.0000      -9.889603      -269.1098
  17   2.0000      -9.888160      -269.0705
  18   2.0000      -9.883402      -268.9410
  19   2.0000      -7.690495      -209.2690
  20   2.0000      -7.687036      -209.1749
  21   2.0000      -7.635648      -207.7765
  22   2.0000      -7.633148      -207.7085
  23   2.0000      -6.428301      -174.9229
  24   2.0000      -6.425475      -174.8461
  25   2.0000      -5.718104      -155.5975
  26   2.0000      -5.715103      -155.5159
  27   2.0000      -5.714787      -155.5073
  28   2.0000      -5.711620      -155.4211
  29   2.0000      -5.707719      -155.3149
  30   2.0000      -5.704170      -155.2183
  31   2.0000      -5.664702      -154.1444
  32   2.0000      -5.662183      -154.0758
  33   2.0000      -5.656127      -153.9110
  34   2.0000      -5.655787      -153.9018
  35   2.0000      -5.653866      -153.8495
  36   2.0000      -5.653032      -153.8268
  37   2.0000      -4.651237      -126.5666
  38   2.0000      -4.649935      -126.5312
  39   2.0000      -4.648516      -126.4925
  40   2.0000      -4.648198      -126.4839
  41   2.0000      -4.647357      -126.4610
  42   2.0000      -4.645679      -126.4153
  43   2.0000      -0.994423       -27.0596
  44   2.0000      -0.991150       -26.9706
  45   2.0000      -0.951787       -25.8994
  46   2.0000      -0.947901       -25.7937
  47   2.0000      -0.763385       -20.7728
  48   2.0000      -0.725250       -19.7350
  49   2.0000      -0.715902       -19.4807
  50   2.0000      -0.696000       -18.9391
  51   2.0000      -0.693053       -18.8589
  52   2.0000      -0.678773       -18.4704
  53   2.0000      -0.653314       -17.7776
  54   2.0000      -0.641447       -17.4547
  55   2.0000      -0.600288       -16.3347
  56   2.0000      -0.591655       -16.0998
  57   2.0000      -0.581481       -15.8229
  58   2.0000      -0.578494       -15.7416
  59   2.0000      -0.564524       -15.3615
  60   2.0000      -0.509429       -13.8623
  61   2.0000      -0.501835       -13.6556
  62   2.0000      -0.481135       -13.0923
  63   2.0000      -0.479013       -13.0346
  64   2.0000      -0.459768       -12.5109
  65   2.0000      -0.453553       -12.3418
  66   2.0000      -0.447771       -12.1845
  67   2.0000      -0.436621       -11.8811
  68   2.0000      -0.433979       -11.8092
  69   2.0000      -0.426581       -11.6079
  70   2.0000      -0.408874       -11.1260
  71   2.0000      -0.407722       -11.0947
  72   2.0000      -0.398738       -10.8502
  73   2.0000      -0.389283       -10.5929
  74   2.0000      -0.380780       -10.3616
  75   2.0000      -0.372293       -10.1306
  76   2.0000      -0.367120        -9.9898
  77   2.0000      -0.361465        -9.8360
  78   2.0000      -0.359066        -9.7707
  79   2.0000      -0.356478        -9.7003
  80   2.0000      -0.353234        -9.6120
  81   2.0000      -0.348951        -9.4954
  82   2.0000      -0.346212        -9.4209
  83   2.0000      -0.342388        -9.3169
  84   2.0000      -0.339089        -9.2271
  85   2.0000      -0.324505        -8.8302
  86   2.0000      -0.318608        -8.6698
  87   2.0000      -0.302940        -8.2434
  88   2.0000      -0.298975        -8.1355
  89   2.0000      -0.298049        -8.1103
  90   2.0000      -0.291260        -7.9256
  91   2.0000      -0.281125        -7.6498
  92   2.0000      -0.276953        -7.5363
  93   2.0000      -0.268292        -7.3006
  94   2.0000      -0.259428        -7.0594
  95   2.0000      -0.238561        -6.4916
  96   2.0000      -0.220308        -5.9949
  97   2.0000      -0.213891        -5.8203
  98   2.0000      -0.206216        -5.6114
  99   2.0000      -0.205028        -5.5791
 100   2.0000      -0.200049        -5.4436
 101   0.0000      -0.046363        -1.2616
 102   0.0000      -0.032789        -0.8922
 103   0.0000      -0.012409        -0.3377
 104   0.0000      -0.000771        -0.0210
 105   0.0000       0.010725         0.2919

MULLIKEN ATOMIC CHARGES
-----------------------
   0 C :   -0.303276
   1 C :   -0.034357
   2 O :   -0.376523
   3 P :    0.598085
   4 S :   -0.297823
   5 O :   -0.352312
   6 C :   -0.017921
   7 C :   -0.288283
   8 S :   -0.113682
   9 C :   -0.359709
  10 S :   -0.103013
  11 P :    0.600141
  12 S :   -0.305557
  13 O :   -0.349941
  14 C :   -0.039226
  15 C :   -0.273396
  16 O :   -0.383114
  17 C :   -0.001065
  18 C :   -0.319806
  19 H :    0.105542
  20 H :    0.128383
  21 H :    0.122009
  22 H :    0.103297
  23 H :    0.122653
  24 H :    0.116610
  25 H :    0.107720
  26 H :    0.122891
  27 H :    0.110475
  28 H :    0.122067
  29 H :    0.195209
  30 H :    0.196793
  31 H :    0.110192
  32 H :    0.118196
  33 H :    0.121743
  34 H :    0.108435
  35 H :    0.120778
  36 H :    0.105797
  37 H :    0.115534
  38 H :    0.131947
  39 H :    0.118024
  40 H :    0.116483
Sum of atomic charges:   -0.0000000

LOEWDIN ATOMIC CHARGES
----------------------
   0 C :   -0.367544
   1 C :   -0.122254
   2 O :   -0.245665
   3 P :    0.568241
   4 S :   -0.289849
   5 O :   -0.233407
   6 C :   -0.111271
   7 C :   -0.358607
   8 S :    0.062668
   9 C :   -0.492540
  10 S :    0.081017
  11 P :    0.571458
  12 S :   -0.302665
  13 O :   -0.234481
  14 C :   -0.118090
  15 C :   -0.358370
  16 O :   -0.246917
  17 C :   -0.115753
  18 C :   -0.371092
  19 H :    0.127831
  20 H :    0.114911
  21 H :    0.129467
  22 H :    0.118063
  23 H :    0.102712
  24 H :    0.124541
  25 H :    0.105389
  26 H :    0.130691
  27 H :    0.129712
  28 H :    0.126650
  29 H :    0.125692
  30 H :    0.128076
  31 H :    0.102263
  32 H :    0.120085
  33 H :    0.126743
  34 H :    0.129213
  35 H :    0.129926
  36 H :    0.118822
  37 H :    0.114621
  38 H :    0.123277
  39 H :    0.123536
  40 H :    0.132901

  Mayer bond orders larger than 0.100000
B(  0-C ,  1-C ) :   1.1651 B(  0-C , 19-H ) :   0.9366 B(  0-C , 20-H ) :   0.9277
B(  0-C , 21-H ) :   0.9436 B(  1-C ,  2-O ) :   0.9176 B(  1-C , 22-H ) :   0.9332
B(  1-C , 23-H ) :   0.9045 B(  2-O ,  3-P ) :   1.0709 B(  3-P ,  4-S ) :   1.6488
B(  3-P ,  5-O ) :   1.1497 B(  3-P ,  8-S ) :   0.9408 B(  4-S ,  8-S ) :   0.1165
B(  4-S , 29-H ) :   0.1181 B(  5-O ,  6-C ) :   0.8914 B(  6-C ,  7-C ) :   1.1650
B(  6-C , 24-H ) :   0.9354 B(  6-C , 25-H ) :   0.9169 B(  7-C , 26-H ) :   0.9465
B(  7-C , 27-H ) :   0.9394 B(  7-C , 28-H ) :   0.9421 B(  8-S ,  9-C ) :   1.0089
B(  9-C , 10-S ) :   1.0036 B(  9-C , 29-H ) :   0.8493 B(  9-C , 30-H ) :   0.8629
B( 10-S , 11-P ) :   0.9467 B( 10-S , 12-S ) :   0.1087 B( 11-P , 12-S ) :   1.6398
B( 11-P , 13-O ) :   1.1413 B( 11-P , 16-O ) :   1.0844 B( 13-O , 14-C ) :   0.8972
B( 14-C , 15-C ) :   1.1552 B( 14-C , 31-H ) :   0.9050 B( 14-C , 32-H ) :   0.9303
B( 15-C , 33-H ) :   0.9407 B( 15-C , 34-H ) :   0.9400 B( 15-C , 35-H ) :   0.9455
B( 16-O , 17-C ) :   0.9026 B( 17-C , 18-C ) :   1.1663 B( 17-C , 36-H ) :   0.9339
B( 17-C , 37-H ) :   0.9192 B( 18-C , 38-H ) :   0.9345 B( 18-C , 39-H ) :   0.9435
B( 18-C , 40-H ) :   0.9366

Dispersion correction           -0.063748847
FINAL SINGLE POINT ENERGY     -2929.518103344561

DIPOLE MOMENT
-------------

Method             : SCF
Type of density    : Electron Density
Multiplicity       :   1
Irrep              :   0
Energy             : -2929.6396553430440690 Eh
Relativity type    :
Basis              : AO
                                X                 Y                 Z
Electronic contribution:      3.745119548       3.566328439     -18.208545650
Nuclear contribution   :     -4.303180058      -3.548719203      20.240434904
                        -----------------------------------------
Total Dipole Moment    :     -0.558060510       0.017609237       2.031889254
                        -----------------------------------------
Magnitude (a.u.)       :      2.107205628
Magnitude (Debye)      :      5.356091051

Rotational constants in cm-1:             0.012796             0.004328             0.004187
Rotational constants in MHz :           383.623791           129.740960           125.525329

                             ****ORCA TERMINATED NORMALLY****
TOTAL RUN TIME: 0 days 0 hours 0 minutes 20 seconds 645 msec
