                         Program Version 6.0.0  -   RELEASE  -
|  1> ! pbe def2-sv(p) def2/J RI DEFGRID1 loosescf d4 GCP(DFT/SV(P)) printgap
|  2> %output
|  3>     printlevel normal
|  4> end
|  5> * xyz 0 1
|  6> C 1.7349258345 -1.0170117982 -3.0324111774
|  7> C 2.0915569248 -2.0002397501 -1.9371369828
|  8> O 2.9477271899 -1.4263006661 -0.933494136
|  9> P 2.6023127166 -0.1772790117 -0.0134703605
| 10> S 2.7168985624 1.6268352637 -0.7627478806
| 11> O 3.689079251 -0.3166236977 1.118434042
| 12> C 3.9131648524 -1.519460322 1.8989129364
| 13> C 3.3476873373 -1.3553512187 3.2961390836
| 14> S 0.7303497004 -0.7323053444 0.8467654884
| 15> C 0.2820177488 0.9283363283 1.4440794349
| 16> S -1.4818147026 1.0637866571 1.7783394416
| 17> P -2.1559565065 0.7022563935 -0.1955252762
| 18> S -1.0661326291 1.3647637825 -1.6787738465
| 19> O -3.5989102379 1.3541392041 -0.2264477705
| 20> C -4.5347042435 1.3923716288 0.8766135775
| 21> C -4.976947529 0.0117017053 1.3132282821
| 22> O -2.3377549453 -0.8839268132 -0.1570071564
| 23> C -2.1325475257 -1.7198179115 -1.3070416779
| 24> C -3.329936498 -1.6692776388 -2.2343265857
| 25> H 1.1267519441 -0.2025477788 -2.6385400685
| 26> H 2.6362460267 -0.5863871046 -3.4618258328
| 27> H 1.1755769016 -1.5271360207 -3.8102226594
| 28> H 2.6808495705 -2.8319311951 -2.3279512032
| 29> H 1.1916888097 -2.3812484947 -1.4454521042
| 30> H 3.4655441024 -2.3712087336 1.3835275104
| 31> H 4.998077298 -1.6322429725 1.9211419198
| 32> H 3.6383701465 -2.2110837056 3.8972233352
| 33> H 3.7400338909 -0.4498504199 3.7511696883
| 34> H 2.2623079148 -1.2974684475 3.267706673
| 35> H 0.5734719557 1.6522063849 0.6771057738
| 36> H 0.7889559143 1.1305832233 2.3852252806
| 37> H -4.0667928498 1.9313871897 1.7047291052
| 38> H -5.3660232035 1.9763430595 0.4780549203
| 39> H -5.7233691688 0.1115947311 2.0950589378
| 40> H -5.407567645 -0.5289721225 0.4745939619
| 41> H -4.1294533174 -0.5495051895 1.7006724009
| 42> H -1.2308437256 -1.3853318291 -1.83002731
| 43> H -1.9766035136 -2.7160359644 -0.891263757
| 44> H -4.2267742633 -1.9921635853 -1.712971858
| 45> H -3.4733663852 -0.6477147135 -2.5862977491
| 46> H -3.1560051151 -2.3169910743 -3.0875721166
| 47> *
| 48>
| 49>                          ****END OF INPUT****

CARTESIAN COORDINATES (ANGSTROEM)
---------------------------------
  C      1.734926   -1.017012   -3.032411
  C      2.091557   -2.000240   -1.937137
  O      2.947727   -1.426301   -0.933494
  P      2.602313   -0.177279   -0.013470
  S      2.716899    1.626835   -0.762748
  O      3.689079   -0.316624    1.118434
  C      3.913165   -1.519460    1.898913
  C      3.347687   -1.355351    3.296139
  S      0.730350   -0.732305    0.846765
  C      0.282018    0.928336    1.444079
  S     -1.481815    1.063787    1.778339
  P     -2.155957    0.702256   -0.195525
  S     -1.066133    1.364764   -1.678774
  O     -3.598910    1.354139   -0.226448
  C     -4.534704    1.392372    0.876614
  C     -4.976948    0.011702    1.313228
  O     -2.337755   -0.883927   -0.157007
  C     -2.132548   -1.719818   -1.307042
  C     -3.329936   -1.669278   -2.234327
  H      1.126752   -0.202548   -2.638540
  H      2.636246   -0.586387   -3.461826
  H      1.175577   -1.527136   -3.810223
  H      2.680850   -2.831931   -2.327951
  H      1.191689   -2.381248   -1.445452
  H      3.465544   -2.371209    1.383528
  H      4.998077   -1.632243    1.921142
  H      3.638370   -2.211084    3.897223
  H      3.740034   -0.449850    3.751170
  H      2.262308   -1.297468    3.267707
  H      0.573472    1.652206    0.677106
  H      0.788956    1.130583    2.385225
  H     -4.066793    1.931387    1.704729
  H     -5.366023    1.976343    0.478055
  H     -5.723369    0.111595    2.095059
  H     -5.407568   -0.528972    0.474594
  H     -4.129453   -0.549505    1.700672
  H     -1.230844   -1.385332   -1.830027
  H     -1.976604   -2.716036   -0.891264
  H     -4.226774   -1.992164   -1.712972
  H     -3.473366   -0.647715   -2.586298
  H     -3.156005   -2.316991   -3.087572

 Total Charge           Charge          ....    0
 Multiplicity           Mult            ....    1
 Number of Electrons    NEL             ....  202
 Basis Dimension        Dim             ....  334

ORBITAL ENERGIES
----------------

  NO   OCC          E(Eh)            E(eV)
   0   2.0000     -88.048352     -2395.9175
   1   2.0000     -88.043215     -2395.7777
   2   2.0000     -87.982997     -2394.1391
   3   2.0000     -87.977772     -2393.9969
   4   2.0000     -76.426088     -2079.6596
   5   2.0000     -76.423099     -2079.5782
   6   2.0000     -18.794988      -511.4376
   7   2.0000     -18.793861      -511.4070
   8   2.0000     -18.789985      -511.3015
   9   2.0000     -18.786910      -511.2178
  10   2.0000      -9.962751      -271.1002
  11   2.0000      -9.957335      -270.9529
  12   2.0000      -9.955366      -270.8993
  13   2.0000      -9.955118      -270.8925
  14   2.0000      -9.952244      -270.8143
  15   2.0000      -9.892791      -269.1965
  16   2.0000      -9.887397      -269.0498
  17   2.0000      -9.886286      -269.0195
  18   2.0000      -9.876271      -268.7470
  19   2.0000      -7.693674      -209.3555
  20   2.0000      -7.687529      -209.1883
  21   2.0000      -7.627763      -207.5620
  22   2.0000      -7.623027      -207.4331
  23   2.0000      -6.423724      -174.7984
  24   2.0000      -6.420305      -174.7054
  25   2.0000      -5.721550      -155.6913
  26   2.0000      -5.718213      -155.6005
  27   2.0000      -5.715247      -155.5198
  28   2.0000      -5.712163      -155.4359
  29   2.0000      -5.710586      -155.3930
  30   2.0000      -5.704668      -155.2319
  31   2.0000      -5.656846      -153.9306
  32   2.0000      -5.652202      -153.8042
  33   2.0000      -5.648504      -153.7036
  34   2.0000      -5.647613      -153.6794
  35   2.0000      -5.643566      -153.5692
  36   2.0000      -5.642976      -153.5532
  37   2.0000      -4.646522      -126.4383
  38   2.0000      -4.645319      -126.4056
  39   2.0000      -4.644136      -126.3734
  40   2.0000      -4.643172      -126.3471
  41   2.0000      -4.642316      -126.3239
  42   2.0000      -4.640304      -126.2691
  43   2.0000      -0.986599       -26.8467
  44   2.0000      -0.985220       -26.8092
  45   2.0000      -0.947050       -25.7705
  46   2.0000      -0.942645       -25.6507
  47   2.0000      -0.765861       -20.8401
  48   2.0000      -0.722427       -19.6582
  49   2.0000      -0.713070       -19.4036
  50   2.0000      -0.695105       -18.9148
  51   2.0000      -0.688189       -18.7266
  52   2.0000      -0.677594       -18.4383
  53   2.0000      -0.650647       -17.7050
  54   2.0000      -0.634915       -17.2769
  55   2.0000      -0.597306       -16.2535
  56   2.0000      -0.586579       -15.9616
  57   2.0000      -0.579253       -15.7623
  58   2.0000      -0.575659       -15.6645
  59   2.0000      -0.564842       -15.3701
  60   2.0000      -0.505232       -13.7481
  61   2.0000      -0.495832       -13.4923
  62   2.0000      -0.480367       -13.0715
  63   2.0000      -0.472516       -12.8578
  64   2.0000      -0.454229       -12.3602
  65   2.0000      -0.449623       -12.2349
  66   2.0000      -0.440606       -11.9895
  67   2.0000      -0.438453       -11.9309
  68   2.0000      -0.430720       -11.7205
  69   2.0000      -0.421616       -11.4728
  70   2.0000      -0.413046       -11.2396
  71   2.0000      -0.406521       -11.0620
  72   2.0000      -0.393106       -10.6970
  73   2.0000      -0.389523       -10.5995
  74   2.0000      -0.386603       -10.5200
  75   2.0000      -0.372048       -10.1239
  76   2.0000      -0.357912        -9.7393
  77   2.0000      -0.357112        -9.7175
  78   2.0000      -0.353752        -9.6261
  79   2.0000      -0.350961        -9.5501
  80   2.0000      -0.350012        -9.5243
  81   2.0000      -0.347486        -9.4556
  82   2.0000      -0.345988        -9.4148
  83   2.0000      -0.340340        -9.2611
  84   2.0000      -0.331542        -9.0217
  85   2.0000      -0.317810        -8.6480
  86   2.0000      -0.314780        -8.5656
  87   2.0000      -0.308591        -8.3972
  88   2.0000      -0.294269        -8.0075
  89   2.0000      -0.293046        -7.9742
  90   2.0000      -0.280674        -7.6375
  91   2.0000      -0.277435        -7.5494
  92   2.0000      -0.275353        -7.4927
  93   2.0000      -0.267780        -7.2867
  94   2.0000      -0.258908        -7.0453
  95   2.0000      -0.232237        -6.3195
  96   2.0000      -0.223269        -6.0755
  97   2.0000      -0.206359        -5.6153
  98   2.0000      -0.195880        -5.3302
  99   2.0000      -0.194950        -5.3049
 100   2.0000      -0.189256        -5.1499
 101   0.0000      -0.045392        -1.2352
 102   0.0000      -0.032101        -0.8735
 103   0.0000      -0.007923        -0.2156
 104   0.0000       0.004615         0.1256
 105   0.0000       0.017809         0.4846

MULLIKEN ATOMIC CHARGES
-----------------------
   0 C :   -0.332475
   1 C :   -0.017324
   2 O :   -0.379249
   3 P :    0.601670
   4 S :   -0.291118
   5 O :   -0.356864
   6 C :   -0.003638
   7 C :   -0.296922
   8 S :   -0.134715
   9 C :   -0.340712
  10 S :   -0.110259
  11 P :    0.610654
  12 S :   -0.289708
  13 O :   -0.366268
  14 C :   -0.025633
  15 C :   -0.315470
  16 O :   -0.378081
  17 C :   -0.032243
  18 C :   -0.303222
  19 H :    0.168332
  20 H :    0.123044
  21 H :    0.105559
  22 H :    0.105429
  23 H :    0.110361
  24 H :    0.098812
  25 H :    0.111162
  26 H :    0.109036
  27 H :    0.120012
  28 H :    0.120951
  29 H :    0.216714
  30 H :    0.179738
  31 H :    0.122958
  32 H :    0.116764
  33 H :    0.114924
  34 H :    0.122958
  35 H :    0.131404
  36 H :    0.128296
  37 H :    0.103065
  38 H :    0.115146
  39 H :    0.127266
  40 H :    0.109646
Sum of atomic charges:    0.0000000

LOEWDIN ATOMIC CHARGES
----------------------
   0 C :   -0.374926
   1 C :   -0.114340
   2 O :   -0.243601
   3 P :    0.563079
   4 S :   -0.286438
   5 O :   -0.239790
   6 C :   -0.112554
   7 C :   -0.362300
   8 S :    0.055717
   9 C :   -0.477614
  10 S :    0.081898
  11 P :    0.566547
  12 S :   -0.283736
  13 O :   -0.241657
  14 C :   -0.116324
  15 C :   -0.367581
  16 O :   -0.249607
  17 C :   -0.125281
  18 C :   -0.362423
  19 H :    0.123331
  20 H :    0.130394
  21 H :    0.127546
  22 H :    0.119357
  23 H :    0.103702
  24 H :    0.106935
  25 H :    0.122203
  26 H :    0.129518
  27 H :    0.128463
  28 H :    0.119027
  29 H :    0.125303
  30 H :    0.133085
  31 H :    0.109925
  32 H :    0.125296
  33 H :    0.132147
  34 H :    0.127224
  35 H :    0.123994
  36 H :    0.108804
  37 H :    0.116147
  38 H :    0.122332
  39 H :    0.126562
  40 H :    0.129637

  Mayer bond orders larger than 0.100000
B(  0-C ,  1-C ) :   1.1699 B(  0-C , 19-H ) :   0.9125 B(  0-C , 20-H ) :   0.9407
B(  0-C , 21-H ) :   0.9345 B(  1-C ,  2-O ) :   0.9111 B(  1-C , 22-H ) :   0.9327
B(  1-C , 23-H ) :   0.9230 B(  2-O ,  3-P ) :   1.0916 B(  3-P ,  4-S ) :   1.6681
B(  3-P ,  5-O ) :   1.1312 B(  3-P ,  8-S ) :   0.9267 B(  4-S ,  8-S ) :   0.1163
B(  5-O ,  6-C ) :   0.8950 B(  6-C ,  7-C ) :   1.1643 B(  6-C , 24-H ) :   0.9182
B(  6-C , 25-H ) :   0.9352 B(  7-C , 26-H ) :   0.9400 B(  7-C , 27-H ) :   0.9467
B(  7-C , 28-H ) :   0.9357 B(  8-S ,  9-C ) :   0.9826 B(  9-C , 10-S ) :   1.0199
B(  9-C , 29-H ) :   0.8468 B(  9-C , 30-H ) :   0.9078 B( 10-S , 11-P ) :   0.9422
B( 10-S , 12-S ) :   0.1035 B( 11-P , 12-S ) :   1.6430 B( 11-P , 13-O ) :   1.1255
B( 11-P , 16-O ) :   1.0687 B( 13-O , 14-C ) :   0.9079 B( 14-C , 15-C ) :   1.1635
B( 14-C , 31-H ) :   0.9186 B( 14-C , 32-H ) :   0.9343 B( 15-C , 33-H ) :   0.9357
B( 15-C , 34-H ) :   0.9429 B( 15-C , 35-H ) :   0.9356 B( 16-O , 17-C ) :   0.9055
B( 17-C , 18-C ) :   1.1604 B( 17-C , 36-H ) :   0.8983 B( 17-C , 37-H ) :   0.9334
B( 18-C , 38-H ) :   0.9445 B( 18-C , 39-H ) :   0.9369 B( 18-C , 40-H ) :   0.9403

Dispersion correction           -0.065872941
FINAL SINGLE POINT ENERGY     -2929.513113085802

DIPOLE MOMENT
-------------

Method             : SCF
Type of density    : Electron Density
Multiplicity       :   1
Irrep              :   0
Energy             : -2929.6322461956183361 Eh
Relativity type    :
Basis              : AO
                                X                 Y                 Z
Electronic contribution:      9.212836536      16.274857174       0.775709836
Nuclear contribution   :    -10.245516381     -18.245858552       0.126026388
                        -----------------------------------------
Total Dipole Moment    :     -1.032679846      -1.971001378       0.901736225
                        -----------------------------------------
Magnitude (a.u.)       :      2.400916974
Magnitude (Debye)      :      6.102645961

Rotational constants in cm-1:             0.012333             0.005072             0.004557
Rotational constants in MHz :           369.730365           152.052792           136.605875

                             ****ORCA TERMINATED NORMALLY****
TOTAL RUN TIME: 0 days 0 hours 0 minutes 21 seconds 341 msec
