                         Program Version 6.0.0  -   RELEASE  -
|  1> ! r2scan-3c def2/J RI DEFGRID2 scfconv6 printgap
|  2> %output
|  3>     printlevel normal
|  4> end
|  5> * xyz 0 1
|  6> C 0.317303116 -2.6997345887 1.1514336501
|  7> C 1.6055568716 -2.1969003407 1.7695480667
|  8> O 2.0064358759 -0.9263819694 1.232894148
|  9> P 2.4197464078 -0.7416067345 -0.3000542999
| 10> S 3.3044783799 -2.3000687745 -1.090838001
| 11> O 3.2856687919 0.5867000723 -0.2221780412
| 12> C 4.6358786561 0.5594953503 0.2967724443
| 13> C 5.3875566274 1.7356356806 -0.2911730124
| 14> S 0.7466047424 0.0450062888 -1.3061688222
| 15> C 0.3644853806 1.4286590389 -0.1835949443
| 16> S -0.6569038337 0.9617195408 1.2358346605
| 17> P -2.4380841992 0.6846988557 0.150817795
| 18> S -2.8023098417 1.9300241222 -1.3264421116
| 19> O -3.5912889003 0.5995631556 1.243680878
| 20> C -4.3174086272 1.7573663469 1.6931686973
| 21> C -3.4358021885 2.7169920898 2.4658493856
| 22> O -2.2773042746 -0.8388785256 -0.2474171276
| 23> C -3.0427205483 -1.4577203237 -1.3043316043
| 24> C -2.1732523316 -2.4991318458 -1.9785857137
| 25> H 0.4629342134 -2.8539747514 0.081724845
| 26> H 0.0429870047 -3.6447317277 1.6093212955
| 27> H -0.4879920594 -1.9836634071 1.2964842332
| 28> H 2.4136505667 -2.9136604893 1.5921055124
| 29> H 1.4964950865 -2.0080797321 2.838127413
| 30> H 4.5776725651 0.6206092892 1.3859754993
| 31> H 5.0983244251 -0.3922599474 0.0135350649
| 32> H 4.8996659806 2.666810851 -0.0181955625
| 33> H 6.4026080929 1.735649057 0.0925396532
| 34> H 5.4141789816 1.6569278727 -1.3745539479
| 35> H -0.1794899039 2.1558163056 -0.7873707438
| 36> H 1.2891032384 1.8452737764 0.2030325654
| 37> H -4.7515578918 2.2524330117 0.8188104054
| 38> H -5.1096715539 1.3429872884 2.3178888107
| 39> H -4.0477889684 3.5095981768 2.8843206197
| 40> H -2.9208904864 2.1947686204 3.2682269462
| 41> H -2.6943072094 3.1575934004 1.8005870036
| 42> H -3.9280049991 -1.907401307 -0.8494353348
| 43> H -3.3533841524 -0.6824919414 -2.0133002449
| 44> H -2.7369263267 -2.9698366747 -2.7774488745
| 45> H -1.2845939474 -2.0308398164 -2.3956994936
| 46> H -1.8688078119 -3.2541242046 -1.2596172224
| 47> *
| 48>
| 49>                          ****END OF INPUT****

CARTESIAN COORDINATES (ANGSTROEM)
---------------------------------
  C      0.317303   -2.699735    1.151434
  C      1.605557   -2.196900    1.769548
  O      2.006436   -0.926382    1.232894
  P      2.419746   -0.741607   -0.300054
  S      3.304478   -2.300069   -1.090838
  O      3.285669    0.586700   -0.222178
  C      4.635879    0.559495    0.296772
  C      5.387557    1.735636   -0.291173
  S      0.746605    0.045006   -1.306169
  C      0.364485    1.428659   -0.183595
  S     -0.656904    0.961720    1.235835
  P     -2.438084    0.684699    0.150818
  S     -2.802310    1.930024   -1.326442
  O     -3.591289    0.599563    1.243681
  C     -4.317409    1.757366    1.693169
  C     -3.435802    2.716992    2.465849
  O     -2.277304   -0.838879   -0.247417
  C     -3.042721   -1.457720   -1.304332
  C     -2.173252   -2.499132   -1.978586
  H      0.462934   -2.853975    0.081725
  H      0.042987   -3.644732    1.609321
  H     -0.487992   -1.983663    1.296484
  H      2.413651   -2.913660    1.592106
  H      1.496495   -2.008080    2.838127
  H      4.577673    0.620609    1.385975
  H      5.098324   -0.392260    0.013535
  H      4.899666    2.666811   -0.018196
  H      6.402608    1.735649    0.092540
  H      5.414179    1.656928   -1.374554
  H     -0.179490    2.155816   -0.787371
  H      1.289103    1.845274    0.203033
  H     -4.751558    2.252433    0.818810
  H     -5.109672    1.342987    2.317889
  H     -4.047789    3.509598    2.884321
  H     -2.920890    2.194769    3.268227
  H     -2.694307    3.157593    1.800587
  H     -3.928005   -1.907401   -0.849435
  H     -3.353384   -0.682492   -2.013300
  H     -2.736926   -2.969837   -2.777449
  H     -1.284594   -2.030840   -2.395699
  H     -1.868808   -3.254124   -1.259617

 Total Charge           Charge          ....    0
 Multiplicity           Mult            ....    1
 Number of Electrons    NEL             ....  202
 Basis Dimension        Dim             ....  539

ORBITAL ENERGIES
----------------

  NO   OCC          E(Eh)            E(eV)
   0   2.0000     -88.580659     -2410.4023
   1   2.0000     -88.575928     -2410.2736
   2   2.0000     -88.525906     -2408.9124
   3   2.0000     -88.520003     -2408.7517
   4   2.0000     -76.917881     -2093.0419
   5   2.0000     -76.913556     -2092.9243
   6   2.0000     -18.997281      -516.9423
   7   2.0000     -18.991492      -516.7848
   8   2.0000     -18.990299      -516.7523
   9   2.0000     -18.989529      -516.7314
  10   2.0000     -10.109547      -275.0948
  11   2.0000     -10.102195      -274.8947
  12   2.0000     -10.098836      -274.8033
  13   2.0000     -10.096918      -274.7511
  14   2.0000     -10.093921      -274.6696
  15   2.0000     -10.033344      -273.0212
  16   2.0000     -10.032589      -273.0006
  17   2.0000     -10.027377      -272.8588
  18   2.0000     -10.019799      -272.6526
  19   2.0000      -7.875212      -214.2954
  20   2.0000      -7.870049      -214.1549
  21   2.0000      -7.820596      -212.8092
  22   2.0000      -7.814622      -212.6467
  23   2.0000      -6.596530      -179.5007
  24   2.0000      -6.591907      -179.3749
  25   2.0000      -5.822063      -158.4264
  26   2.0000      -5.819066      -158.3448
  27   2.0000      -5.817393      -158.2993
  28   2.0000      -5.813666      -158.1979
  29   2.0000      -5.812296      -158.1606
  30   2.0000      -5.806959      -158.0154
  31   2.0000      -5.768109      -156.9582
  32   2.0000      -5.762290      -156.7999
  33   2.0000      -5.760916      -156.7625
  34   2.0000      -5.760701      -156.7566
  35   2.0000      -5.755045      -156.6027
  36   2.0000      -5.754486      -156.5875
  37   2.0000      -4.741979      -129.0358
  38   2.0000      -4.741367      -129.0192
  39   2.0000      -4.740362      -128.9918
  40   2.0000      -4.737361      -128.9101
  41   2.0000      -4.736961      -128.8993
  42   2.0000      -4.735584      -128.8618
  43   2.0000      -1.052814       -28.6485
  44   2.0000      -1.048602       -28.5339
  45   2.0000      -1.013429       -27.5768
  46   2.0000      -1.008617       -27.4459
  47   2.0000      -0.804890       -21.9022
  48   2.0000      -0.762204       -20.7406
  49   2.0000      -0.750314       -20.4171
  50   2.0000      -0.733029       -19.9467
  51   2.0000      -0.727906       -19.8073
  52   2.0000      -0.713046       -19.4030
  53   2.0000      -0.689579       -18.7644
  54   2.0000      -0.670927       -18.2569
  55   2.0000      -0.633940       -17.2504
  56   2.0000      -0.620706       -16.8903
  57   2.0000      -0.606527       -16.5044
  58   2.0000      -0.604265       -16.4429
  59   2.0000      -0.589872       -16.0512
  60   2.0000      -0.530186       -14.4271
  61   2.0000      -0.528557       -14.3828
  62   2.0000      -0.495857       -13.4930
  63   2.0000      -0.489239       -13.3129
  64   2.0000      -0.478616       -13.0238
  65   2.0000      -0.462936       -12.5971
  66   2.0000      -0.461262       -12.5516
  67   2.0000      -0.452747       -12.3199
  68   2.0000      -0.447445       -12.1756
  69   2.0000      -0.439480       -11.9589
  70   2.0000      -0.428139       -11.6503
  71   2.0000      -0.414010       -11.2658
  72   2.0000      -0.411026       -11.1846
  73   2.0000      -0.409456       -11.1419
  74   2.0000      -0.401408       -10.9229
  75   2.0000      -0.389711       -10.6046
  76   2.0000      -0.378717       -10.3054
  77   2.0000      -0.373508       -10.1637
  78   2.0000      -0.370178       -10.0731
  79   2.0000      -0.368166       -10.0183
  80   2.0000      -0.362021        -9.8511
  81   2.0000      -0.358556        -9.7568
  82   2.0000      -0.353536        -9.6202
  83   2.0000      -0.350210        -9.5297
  84   2.0000      -0.346620        -9.4320
  85   2.0000      -0.335937        -9.1413
  86   2.0000      -0.324453        -8.8288
  87   2.0000      -0.314650        -8.5621
  88   2.0000      -0.311914        -8.4876
  89   2.0000      -0.307402        -8.3648
  90   2.0000      -0.304177        -8.2771
  91   2.0000      -0.292533        -7.9602
  92   2.0000      -0.287692        -7.8285
  93   2.0000      -0.283072        -7.7028
  94   2.0000      -0.272908        -7.4262
  95   2.0000      -0.246269        -6.7013
  96   2.0000      -0.231473        -6.2987
  97   2.0000      -0.226159        -6.1541
  98   2.0000      -0.221420        -6.0251
  99   2.0000      -0.220661        -6.0045
 100   2.0000      -0.215039        -5.8515
 101   0.0000      -0.045395        -1.2353
 102   0.0000      -0.023968        -0.6522
 103   0.0000      -0.018081        -0.4920
 104   0.0000       0.004005         0.1090
 105   0.0000       0.006561         0.1785

MULLIKEN ATOMIC CHARGES
-----------------------
   0 C :   -0.464485
   1 C :   -0.142089
   2 O :   -0.276982
   3 P :    0.675732
   4 S :   -0.463556
   5 O :   -0.307667
   6 C :   -0.140358
   7 C :   -0.445879
   8 S :   -0.105774
   9 C :   -0.270498
  10 S :   -0.090315
  11 P :    0.681764
  12 S :   -0.488439
  13 O :   -0.311824
  14 C :   -0.147662
  15 C :   -0.455939
  16 O :   -0.263565
  17 C :   -0.132532
  18 C :   -0.457054
  19 H :    0.170773
  20 H :    0.143985
  21 H :    0.181789
  22 H :    0.165468
  23 H :    0.145945
  24 H :    0.150734
  25 H :    0.168848
  26 H :    0.149498
  27 H :    0.146486
  28 H :    0.162310
  29 H :    0.217767
  30 H :    0.212201
  31 H :    0.172642
  32 H :    0.148718
  33 H :    0.149076
  34 H :    0.155746
  35 H :    0.177230
  36 H :    0.148078
  37 H :    0.167975
  38 H :    0.145612
  39 H :    0.171316
  40 H :    0.154923
Sum of atomic charges:   -0.0000000

LOEWDIN ATOMIC CHARGES
----------------------
   0 C :   -0.412475
   1 C :    0.016584
   2 O :   -0.674883
   3 P :    0.364649
   4 S :   -0.115126
   5 O :   -0.694159
   6 C :    0.023882
   7 C :   -0.385749
   8 S :    0.192736
   9 C :   -0.409121
  10 S :    0.180020
  11 P :    0.373573
  12 S :   -0.137365
  13 O :   -0.657251
  14 C :    0.020684
  15 C :   -0.406807
  16 O :   -0.678048
  17 C :    0.024682
  18 C :   -0.390054
  19 H :    0.166625
  20 H :    0.157915
  21 H :    0.171345
  22 H :    0.179234
  23 H :    0.179593
  24 H :    0.170659
  25 H :    0.181825
  26 H :    0.157894
  27 H :    0.160045
  28 H :    0.163344
  29 H :    0.196022
  30 H :    0.195402
  31 H :    0.179907
  32 H :    0.179972
  33 H :    0.159995
  34 H :    0.160072
  35 H :    0.165504
  36 H :    0.171533
  37 H :    0.182002
  38 H :    0.159026
  39 H :    0.166632
  40 H :    0.159681

  Mayer bond orders larger than 0.100000
B(  0-C ,  1-C ) :   0.9274 B(  0-C , 19-H ) :   0.9582 B(  0-C , 20-H ) :   0.9602
B(  0-C , 21-H ) :   0.9571 B(  1-C ,  2-O ) :   0.8011 B(  1-C , 22-H ) :   0.9604
B(  1-C , 23-H ) :   0.9601 B(  2-O ,  3-P ) :   1.0172 B(  3-P ,  4-S ) :   1.8141
B(  3-P ,  5-O ) :   1.1452 B(  3-P ,  8-S ) :   1.0985 B(  5-O ,  6-C ) :   0.7614
B(  6-C ,  7-C ) :   0.9630 B(  6-C , 24-H ) :   0.9454 B(  6-C , 25-H ) :   0.9483
B(  7-C , 26-H ) :   0.9723 B(  7-C , 27-H ) :   0.9651 B(  7-C , 28-H ) :   0.9710
B(  8-S ,  9-C ) :   0.9069 B(  9-C , 10-S ) :   0.9174 B(  9-C , 29-H ) :   0.9091
B(  9-C , 30-H ) :   0.9106 B( 10-S , 11-P ) :   1.1076 B( 11-P , 12-S ) :   1.7381
B( 11-P , 13-O ) :   1.0621 B( 11-P , 16-O ) :   1.1604 B( 13-O , 14-C ) :   0.8181
B( 14-C , 15-C ) :   0.9202 B( 14-C , 31-H ) :   0.9676 B( 14-C , 32-H ) :   0.9585
B( 15-C , 33-H ) :   0.9582 B( 15-C , 34-H ) :   0.9686 B( 15-C , 35-H ) :   0.9619
B( 16-O , 17-C ) :   0.7714 B( 17-C , 18-C ) :   0.9585 B( 17-C , 36-H ) :   0.9475
B( 17-C , 37-H ) :   0.9539 B( 18-C , 38-H ) :   0.9638 B( 18-C , 39-H ) :   0.9668
B( 18-C , 40-H ) :   0.9702

Dispersion correction           -0.021269643
FINAL SINGLE POINT ENERGY     -2932.463793097091

DIPOLE MOMENT
-------------

Method             : SCF
Type of density    : Electron Density
Multiplicity       :   1
Irrep              :   0
Energy             : -2932.4892111049693995 Eh
Relativity type    :
Basis              : AO
                                X                 Y                 Z
Electronic contribution:      0.765323403       1.713936568      -6.945668645
Nuclear contribution   :     -1.196819374      -1.385851341       8.422557074
                        -----------------------------------------
Total Dipole Moment    :     -0.431495971       0.328085227       1.476888428
                        -----------------------------------------
Magnitude (a.u.)       :      1.573222209
Magnitude (Debye)      :      3.998813064

Rotational constants in cm-1:             0.012514             0.004672             0.004232
Rotational constants in MHz :           375.145855           140.059380           126.858355

                             ****ORCA TERMINATED NORMALLY****
TOTAL RUN TIME: 0 days 0 hours 1 minutes 22 seconds 345 msec
