                         Program Version 6.0.0  -   RELEASE  -
|  1> ! r2scan-3c def2/J RI DEFGRID2 scfconv6 printgap
|  2> %output
|  3>     printlevel normal
|  4> end
|  5> %cpcm
|  6>     smd true
|  7>     smdsolvent "water"
|  8> end
|  9> * xyz 0 1
| 10> C 0.317303116 -2.6997345887 1.1514336501
| 11> C 1.6055568716 -2.1969003407 1.7695480667
| 12> O 2.0064358759 -0.9263819694 1.232894148
| 13> P 2.4197464078 -0.7416067345 -0.3000542999
| 14> S 3.3044783799 -2.3000687745 -1.090838001
| 15> O 3.2856687919 0.5867000723 -0.2221780412
| 16> C 4.6358786561 0.5594953503 0.2967724443
| 17> C 5.3875566274 1.7356356806 -0.2911730124
| 18> S 0.7466047424 0.0450062888 -1.3061688222
| 19> C 0.3644853806 1.4286590389 -0.1835949443
| 20> S -0.6569038337 0.9617195408 1.2358346605
| 21> P -2.4380841992 0.6846988557 0.150817795
| 22> S -2.8023098417 1.9300241222 -1.3264421116
| 23> O -3.5912889003 0.5995631556 1.243680878
| 24> C -4.3174086272 1.7573663469 1.6931686973
| 25> C -3.4358021885 2.7169920898 2.4658493856
| 26> O -2.2773042746 -0.8388785256 -0.2474171276
| 27> C -3.0427205483 -1.4577203237 -1.3043316043
| 28> C -2.1732523316 -2.4991318458 -1.9785857137
| 29> H 0.4629342134 -2.8539747514 0.081724845
| 30> H 0.0429870047 -3.6447317277 1.6093212955
| 31> H -0.4879920594 -1.9836634071 1.2964842332
| 32> H 2.4136505667 -2.9136604893 1.5921055124
| 33> H 1.4964950865 -2.0080797321 2.838127413
| 34> H 4.5776725651 0.6206092892 1.3859754993
| 35> H 5.0983244251 -0.3922599474 0.0135350649
| 36> H 4.8996659806 2.666810851 -0.0181955625
| 37> H 6.4026080929 1.735649057 0.0925396532
| 38> H 5.4141789816 1.6569278727 -1.3745539479
| 39> H -0.1794899039 2.1558163056 -0.7873707438
| 40> H 1.2891032384 1.8452737764 0.2030325654
| 41> H -4.7515578918 2.2524330117 0.8188104054
| 42> H -5.1096715539 1.3429872884 2.3178888107
| 43> H -4.0477889684 3.5095981768 2.8843206197
| 44> H -2.9208904864 2.1947686204 3.2682269462
| 45> H -2.6943072094 3.1575934004 1.8005870036
| 46> H -3.9280049991 -1.907401307 -0.8494353348
| 47> H -3.3533841524 -0.6824919414 -2.0133002449
| 48> H -2.7369263267 -2.9698366747 -2.7774488745
| 49> H -1.2845939474 -2.0308398164 -2.3956994936
| 50> H -1.8688078119 -3.2541242046 -1.2596172224
| 51> *
| 52>
| 53>                          ****END OF INPUT****

CARTESIAN COORDINATES (ANGSTROEM)
---------------------------------
  C      0.317303   -2.699735    1.151434
  C      1.605557   -2.196900    1.769548
  O      2.006436   -0.926382    1.232894
  P      2.419746   -0.741607   -0.300054
  S      3.304478   -2.300069   -1.090838
  O      3.285669    0.586700   -0.222178
  C      4.635879    0.559495    0.296772
  C      5.387557    1.735636   -0.291173
  S      0.746605    0.045006   -1.306169
  C      0.364485    1.428659   -0.183595
  S     -0.656904    0.961720    1.235835
  P     -2.438084    0.684699    0.150818
  S     -2.802310    1.930024   -1.326442
  O     -3.591289    0.599563    1.243681
  C     -4.317409    1.757366    1.693169
  C     -3.435802    2.716992    2.465849
  O     -2.277304   -0.838879   -0.247417
  C     -3.042721   -1.457720   -1.304332
  C     -2.173252   -2.499132   -1.978586
  H      0.462934   -2.853975    0.081725
  H      0.042987   -3.644732    1.609321
  H     -0.487992   -1.983663    1.296484
  H      2.413651   -2.913660    1.592106
  H      1.496495   -2.008080    2.838127
  H      4.577673    0.620609    1.385975
  H      5.098324   -0.392260    0.013535
  H      4.899666    2.666811   -0.018196
  H      6.402608    1.735649    0.092540
  H      5.414179    1.656928   -1.374554
  H     -0.179490    2.155816   -0.787371
  H      1.289103    1.845274    0.203033
  H     -4.751558    2.252433    0.818810
  H     -5.109672    1.342987    2.317889
  H     -4.047789    3.509598    2.884321
  H     -2.920890    2.194769    3.268227
  H     -2.694307    3.157593    1.800587
  H     -3.928005   -1.907401   -0.849435
  H     -3.353384   -0.682492   -2.013300
  H     -2.736926   -2.969837   -2.777449
  H     -1.284594   -2.030840   -2.395699
  H     -1.868808   -3.254124   -1.259617

 Total Charge           Charge          ....    0
 Multiplicity           Mult            ....    1
 Number of Electrons    NEL             ....  202
 Basis Dimension        Dim             ....  539

ORBITAL ENERGIES
----------------

  NO   OCC          E(Eh)            E(eV)
   0   2.0000     -88.581684     -2410.4302
   1   2.0000     -88.580841     -2410.4072
   2   2.0000     -88.530419     -2409.0352
   3   2.0000     -88.530135     -2409.0275
   4   2.0000     -76.920133     -2093.1032
   5   2.0000     -76.919858     -2093.0957
   6   2.0000     -18.996909      -516.9322
   7   2.0000     -18.992649      -516.8163
   8   2.0000     -18.992409      -516.8097
   9   2.0000     -18.991863      -516.7949
  10   2.0000     -10.107603      -275.0419
  11   2.0000     -10.090087      -274.5652
  12   2.0000     -10.088959      -274.5345
  13   2.0000     -10.088586      -274.5244
  14   2.0000     -10.087782      -274.5025
  15   2.0000     -10.019315      -272.6394
  16   2.0000     -10.019140      -272.6347
  17   2.0000     -10.018047      -272.6049
  18   2.0000     -10.015628      -272.5391
  19   2.0000      -7.876180      -214.3217
  20   2.0000      -7.875062      -214.2913
  21   2.0000      -7.825392      -212.9397
  22   2.0000      -7.825122      -212.9324
  23   2.0000      -6.598828      -179.5632
  24   2.0000      -6.598244      -179.5474
  25   2.0000      -5.823049      -158.4532
  26   2.0000      -5.822343      -158.4340
  27   2.0000      -5.820039      -158.3713
  28   2.0000      -5.818603      -158.3322
  29   2.0000      -5.813257      -158.1868
  30   2.0000      -5.812101      -158.1553
  31   2.0000      -5.772843      -157.0870
  32   2.0000      -5.772680      -157.0826
  33   2.0000      -5.765696      -156.8926
  34   2.0000      -5.765522      -156.8878
  35   2.0000      -5.765507      -156.8874
  36   2.0000      -5.765063      -156.8754
  37   2.0000      -4.744246      -129.0975
  38   2.0000      -4.743663      -129.0816
  39   2.0000      -4.743631      -129.0808
  40   2.0000      -4.743281      -129.0712
  41   2.0000      -4.742721      -129.0560
  42   2.0000      -4.742047      -129.0377
  43   2.0000      -1.052755       -28.6469
  44   2.0000      -1.050572       -28.5875
  45   2.0000      -1.012861       -27.5614
  46   2.0000      -1.010075       -27.4855
  47   2.0000      -0.805509       -21.9190
  48   2.0000      -0.759191       -20.6586
  49   2.0000      -0.743966       -20.2444
  50   2.0000      -0.723194       -19.6791
  51   2.0000      -0.721697       -19.6384
  52   2.0000      -0.711305       -19.3556
  53   2.0000      -0.693164       -18.8620
  54   2.0000      -0.676423       -18.4064
  55   2.0000      -0.631355       -17.1800
  56   2.0000      -0.617618       -16.8062
  57   2.0000      -0.599441       -16.3116
  58   2.0000      -0.597833       -16.2679
  59   2.0000      -0.586765       -15.9667
  60   2.0000      -0.525793       -14.3076
  61   2.0000      -0.524385       -14.2692
  62   2.0000      -0.490603       -13.3500
  63   2.0000      -0.487225       -13.2581
  64   2.0000      -0.477979       -13.0065
  65   2.0000      -0.459033       -12.4909
  66   2.0000      -0.457264       -12.4428
  67   2.0000      -0.448492       -12.2041
  68   2.0000      -0.439822       -11.9682
  69   2.0000      -0.433824       -11.8050
  70   2.0000      -0.425313       -11.5734
  71   2.0000      -0.412118       -11.2143
  72   2.0000      -0.410461       -11.1692
  73   2.0000      -0.404917       -11.0183
  74   2.0000      -0.397954       -10.8289
  75   2.0000      -0.385945       -10.5021
  76   2.0000      -0.376874       -10.2553
  77   2.0000      -0.365714        -9.9516
  78   2.0000      -0.361157        -9.8276
  79   2.0000      -0.358264        -9.7489
  80   2.0000      -0.355673        -9.6784
  81   2.0000      -0.351605        -9.5676
  82   2.0000      -0.347491        -9.4557
  83   2.0000      -0.345067        -9.3897
  84   2.0000      -0.343236        -9.3399
  85   2.0000      -0.333132        -9.0650
  86   2.0000      -0.321295        -8.7429
  87   2.0000      -0.310465        -8.4482
  88   2.0000      -0.306922        -8.3518
  89   2.0000      -0.305925        -8.3246
  90   2.0000      -0.303171        -8.2497
  91   2.0000      -0.289296        -7.8721
  92   2.0000      -0.284883        -7.7521
  93   2.0000      -0.280845        -7.6422
  94   2.0000      -0.273676        -7.4471
  95   2.0000      -0.248605        -6.7649
  96   2.0000      -0.237372        -6.4592
  97   2.0000      -0.232372        -6.3232
  98   2.0000      -0.230959        -6.2847
  99   2.0000      -0.227136        -6.1807
 100   2.0000      -0.223469        -6.0809
 101   0.0000      -0.047996        -1.3060
 102   0.0000      -0.030443        -0.8284
 103   0.0000      -0.021660        -0.5894
 104   0.0000       0.001916         0.0521
 105   0.0000       0.003036         0.0826

MULLIKEN ATOMIC CHARGES
-----------------------
   0 C :   -0.495709
   1 C :   -0.139770
   2 O :   -0.291813
   3 P :    0.697139
   4 S :   -0.520559
   5 O :   -0.327199
   6 C :   -0.128052
   7 C :   -0.489002
   8 S :   -0.135677
   9 C :   -0.275566
  10 S :   -0.090197
  11 P :    0.712809
  12 S :   -0.536662
  13 O :   -0.337791
  14 C :   -0.146895
  15 C :   -0.491170
  16 O :   -0.287108
  17 C :   -0.123786
  18 C :   -0.502349
  19 H :    0.169544
  20 H :    0.171487
  21 H :    0.178010
  22 H :    0.172147
  23 H :    0.174841
  24 H :    0.173366
  25 H :    0.169393
  26 H :    0.166103
  27 H :    0.169403
  28 H :    0.166425
  29 H :    0.232417
  30 H :    0.245112
  31 H :    0.177686
  32 H :    0.175389
  33 H :    0.173496
  34 H :    0.170269
  35 H :    0.173129
  36 H :    0.172528
  37 H :    0.169446
  38 H :    0.169198
  39 H :    0.170009
  40 H :    0.169958
Sum of atomic charges:   -0.0000000

LOEWDIN ATOMIC CHARGES
----------------------
   0 C :   -0.414855
   1 C :    0.021741
   2 O :   -0.678678
   3 P :    0.367603
   4 S :   -0.156001
   5 O :   -0.702088
   6 C :    0.029782
   7 C :   -0.390204
   8 S :    0.174974
   9 C :   -0.401136
  10 S :    0.183537
  11 P :    0.378702
  12 S :   -0.167763
  13 O :   -0.668613
  14 C :    0.025952
  15 C :   -0.409475
  16 O :   -0.690018
  17 C :    0.029431
  18 C :   -0.395635
  19 H :    0.163046
  20 H :    0.167740
  21 H :    0.168504
  22 H :    0.181637
  23 H :    0.191077
  24 H :    0.180498
  25 H :    0.182036
  26 H :    0.162769
  27 H :    0.168983
  28 H :    0.162819
  29 H :    0.200931
  30 H :    0.207077
  31 H :    0.181490
  32 H :    0.191242
  33 H :    0.168961
  34 H :    0.163813
  35 H :    0.161646
  36 H :    0.181638
  37 H :    0.182700
  38 H :    0.167721
  39 H :    0.163295
  40 H :    0.163120

  Mayer bond orders larger than 0.100000
B(  0-C ,  1-C ) :   0.9136 B(  0-C , 19-H ) :   0.9606 B(  0-C , 20-H ) :   0.9552
B(  0-C , 21-H ) :   0.9580 B(  1-C ,  2-O ) :   0.7895 B(  1-C , 22-H ) :   0.9587
B(  1-C , 23-H ) :   0.9505 B(  2-O ,  3-P ) :   1.0265 B(  3-P ,  4-S ) :   1.7752
B(  3-P ,  5-O ) :   1.1553 B(  3-P ,  8-S ) :   1.1125 B(  5-O ,  6-C ) :   0.7536
B(  6-C ,  7-C ) :   0.9548 B(  6-C , 24-H ) :   0.9358 B(  6-C , 25-H ) :   0.9466
B(  7-C , 26-H ) :   0.9688 B(  7-C , 27-H ) :   0.9592 B(  7-C , 28-H ) :   0.9702
B(  8-S ,  9-C ) :   0.8995 B(  9-C , 10-S ) :   0.9156 B(  9-C , 29-H ) :   0.9039
B(  9-C , 30-H ) :   0.8989 B( 10-S , 11-P ) :   1.1184 B( 11-P , 12-S ) :   1.6955
B( 11-P , 13-O ) :   1.0701 B( 11-P , 16-O ) :   1.1666 B( 13-O , 14-C ) :   0.8061
B( 14-C , 15-C ) :   0.9077 B( 14-C , 31-H ) :   0.9657 B( 14-C , 32-H ) :   0.9487
B( 15-C , 33-H ) :   0.9529 B( 15-C , 34-H ) :   0.9656 B( 15-C , 35-H ) :   0.9627
B( 16-O , 17-C ) :   0.7650 B( 17-C , 18-C ) :   0.9479 B( 17-C , 36-H ) :   0.9385
B( 17-C , 37-H ) :   0.9527 B( 18-C , 38-H ) :   0.9583 B( 18-C , 39-H ) :   0.9680
B( 18-C , 40-H ) :   0.9672

Dispersion correction           -0.021269643
FINAL SINGLE POINT ENERGY     -2932.471885830394

DIPOLE MOMENT
-------------

Method             : SCF
Type of density    : Electron Density
Multiplicity       :   1
Irrep              :   0
Energy             : -2932.4973038382722734 Eh
Relativity type    :
Basis              : AO
                                X                 Y                 Z
Electronic contribution:      0.606001386       1.869035317      -6.268185145
Nuclear contribution   :     -1.196819374      -1.385851341       8.422557074
                        -----------------------------------------
Total Dipole Moment    :     -0.590817988       0.483183976       2.154371929
                        -----------------------------------------
Magnitude (a.u.)       :      2.285574558
Magnitude (Debye)      :      5.809468839

Rotational constants in cm-1:             0.012514             0.004672             0.004232
Rotational constants in MHz :           375.145855           140.059380           126.858355

                             ****ORCA TERMINATED NORMALLY****
TOTAL RUN TIME: 0 days 0 hours 1 minutes 50 seconds 454 msec
