                         Program Version 6.0.0  -   RELEASE  -
|  1> ! pbe def2-sv(p) def2/J RI DEFGRID1 loosescf d4 GCP(DFT/SV(P)) printgap
|  2> %output
|  3>     printlevel normal
|  4> end
|  5> * xyz 0 1
|  6> C 4.9229436996 0.8100027773 -1.1687992011
|  7> C 4.6706225813 0.8173604043 0.3246391183
|  8> O 3.5710820586 -0.0323532466 0.6975574411
|  9> P 2.0685669647 0.2903180419 0.2958064909
| 10> S 1.5747058092 2.1833103266 0.3763928263
| 11> O 1.2496267088 -0.6011239722 1.3116331603
| 12> C 1.6856238359 -1.8576944948 1.8849942241
| 13> C 1.9628938054 -2.9237071824 0.8462447449
| 14> S 1.8427052369 -0.5821894484 -1.6364996296
| 15> C 0.102178741 -0.1919861677 -1.8817102543
| 16> S -0.994251383 -1.4033079105 -1.0384567494
| 17> P -2.2732057535 -0.1090289694 -0.0079004715
| 18> S -3.7017936123 -0.9364869097 1.0437456122
| 19> O -2.7926251743 0.9676649311 -1.0731632879
| 20> C -4.0262186426 0.789387332 -1.7888390455
| 21> C -3.9127310219 -0.289065291 -2.8474833256
| 22> O -1.2005914567 0.7573059187 0.7770855901
| 23> C -1.6179840267 1.724427224 1.7659185278
| 24> C -1.4321985636 1.1588173221 3.15844554
| 25> H 4.0987180658 1.2943854061 -1.6894148233
| 26> H 5.8385704165 1.3537029938 -1.3782033255
| 27> H 5.0165407076 -0.20943696 -1.5339659715
| 28> H 4.4568635321 1.8323425403 0.6737756215
| 29> H 5.5149655086 0.4041456755 0.8783314349
| 30> H 2.5730442345 -1.6617388729 2.4899970434
| 31> H 0.8497326267 -2.1376078972 2.5292554232
| 32> H 2.1910476447 -3.8548453274 1.3558722635
| 33> H 1.0937091933 -3.0729892319 0.2088527016
| 34> H 2.8125311405 -2.6411488875 0.228497337
| 35> H -0.0824578518 -0.2622955364 -2.9499255827
| 36> H -0.1080007745 0.8057913942 -1.4976577627
| 37> H -4.8105342632 0.5382191001 -1.0673306938
| 38> H -4.2225371057 1.769187084 -2.2263073169
| 39> H -3.7252039412 -1.2535335257 -2.3761047886
| 40> H -4.8439136901 -0.3443885192 -3.4020564436
| 41> H -3.0995967655 -0.0655889728 -3.5331723156
| 42> H -0.9754073776 2.5913541438 1.5971376799
| 43> H -2.6609903917 1.9975504228 1.5833200006
| 44> H -2.0770109296 0.2939000962 3.3011793855
| 45> H -0.3969979489 0.855179831 3.2933183179
| 46> H -1.6839807286 1.919142666 3.8906323554
| 47> *
| 48>
| 49>                          ****END OF INPUT****

CARTESIAN COORDINATES (ANGSTROEM)
---------------------------------
  C      4.922944    0.810003   -1.168799
  C      4.670623    0.817360    0.324639
  O      3.571082   -0.032353    0.697557
  P      2.068567    0.290318    0.295806
  S      1.574706    2.183310    0.376393
  O      1.249627   -0.601124    1.311633
  C      1.685624   -1.857694    1.884994
  C      1.962894   -2.923707    0.846245
  S      1.842705   -0.582189   -1.636500
  C      0.102179   -0.191986   -1.881710
  S     -0.994251   -1.403308   -1.038457
  P     -2.273206   -0.109029   -0.007900
  S     -3.701794   -0.936487    1.043746
  O     -2.792625    0.967665   -1.073163
  C     -4.026219    0.789387   -1.788839
  C     -3.912731   -0.289065   -2.847483
  O     -1.200591    0.757306    0.777086
  C     -1.617984    1.724427    1.765919
  C     -1.432199    1.158817    3.158446
  H      4.098718    1.294385   -1.689415
  H      5.838570    1.353703   -1.378203
  H      5.016541   -0.209437   -1.533966
  H      4.456864    1.832343    0.673776
  H      5.514966    0.404146    0.878331
  H      2.573044   -1.661739    2.489997
  H      0.849733   -2.137608    2.529255
  H      2.191048   -3.854845    1.355872
  H      1.093709   -3.072989    0.208853
  H      2.812531   -2.641149    0.228497
  H     -0.082458   -0.262296   -2.949926
  H     -0.108001    0.805791   -1.497658
  H     -4.810534    0.538219   -1.067331
  H     -4.222537    1.769187   -2.226307
  H     -3.725204   -1.253534   -2.376105
  H     -4.843914   -0.344389   -3.402056
  H     -3.099597   -0.065589   -3.533172
  H     -0.975407    2.591354    1.597138
  H     -2.660990    1.997550    1.583320
  H     -2.077011    0.293900    3.301179
  H     -0.396998    0.855180    3.293318
  H     -1.683981    1.919143    3.890632

 Total Charge           Charge          ....    0
 Multiplicity           Mult            ....    1
 Number of Electrons    NEL             ....  202
 Basis Dimension        Dim             ....  334

ORBITAL ENERGIES
----------------

  NO   OCC          E(Eh)            E(eV)
   0   2.0000     -88.047522     -2395.8949
   1   2.0000     -88.042024     -2395.7453
   2   2.0000     -87.986357     -2394.2305
   3   2.0000     -87.983632     -2394.1563
   4   2.0000     -76.430607     -2079.7826
   5   2.0000     -76.420605     -2079.5104
   6   2.0000     -18.803437      -511.6675
   7   2.0000     -18.790025      -511.3026
   8   2.0000     -18.788094      -511.2500
   9   2.0000     -18.778553      -510.9904
  10   2.0000      -9.960025      -271.0261
  11   2.0000      -9.959550      -271.0131
  12   2.0000      -9.955059      -270.8909
  13   2.0000      -9.948056      -270.7004
  14   2.0000      -9.938970      -270.4531
  15   2.0000      -9.890262      -269.1277
  16   2.0000      -9.883642      -268.9476
  17   2.0000      -9.883280      -268.9377
  18   2.0000      -9.868953      -268.5479
  19   2.0000      -7.692543      -209.3247
  20   2.0000      -7.687316      -209.1825
  21   2.0000      -7.631378      -207.6603
  22   2.0000      -7.628808      -207.5904
  23   2.0000      -6.427804      -174.9094
  24   2.0000      -6.418567      -174.6581
  25   2.0000      -5.720378      -155.6594
  26   2.0000      -5.717113      -155.5705
  27   2.0000      -5.715696      -155.5320
  28   2.0000      -5.711522      -155.4184
  29   2.0000      -5.709486      -155.3630
  30   2.0000      -5.704007      -155.2139
  31   2.0000      -5.660391      -154.0271
  32   2.0000      -5.657792      -153.9563
  33   2.0000      -5.652019      -153.7992
  34   2.0000      -5.651395      -153.7823
  35   2.0000      -5.649475      -153.7300
  36   2.0000      -5.648857      -153.7132
  37   2.0000      -4.650991      -126.5599
  38   2.0000      -4.649357      -126.5154
  39   2.0000      -4.647945      -126.4770
  40   2.0000      -4.640937      -126.2863
  41   2.0000      -4.640515      -126.2748
  42   2.0000      -4.639038      -126.2347
  43   2.0000      -0.993026       -27.0216
  44   2.0000      -0.979193       -26.6452
  45   2.0000      -0.947572       -25.7847
  46   2.0000      -0.936201       -25.4753
  47   2.0000      -0.764795       -20.8111
  48   2.0000      -0.721609       -19.6360
  49   2.0000      -0.707196       -19.2438
  50   2.0000      -0.694056       -18.8862
  51   2.0000      -0.682471       -18.5710
  52   2.0000      -0.671653       -18.2766
  53   2.0000      -0.652821       -17.7642
  54   2.0000      -0.636890       -17.3307
  55   2.0000      -0.601139       -16.3578
  56   2.0000      -0.586266       -15.9531
  57   2.0000      -0.581192       -15.8150
  58   2.0000      -0.567606       -15.4454
  59   2.0000      -0.558333       -15.1930
  60   2.0000      -0.499318       -13.5871
  61   2.0000      -0.494731       -13.4623
  62   2.0000      -0.473118       -12.8742
  63   2.0000      -0.463515       -12.6129
  64   2.0000      -0.458757       -12.4834
  65   2.0000      -0.449607       -12.2344
  66   2.0000      -0.443788       -12.0761
  67   2.0000      -0.432492       -11.7687
  68   2.0000      -0.428044       -11.6477
  69   2.0000      -0.419594       -11.4177
  70   2.0000      -0.415325       -11.3016
  71   2.0000      -0.401037       -10.9128
  72   2.0000      -0.392272       -10.6743
  73   2.0000      -0.385281       -10.4840
  74   2.0000      -0.376421       -10.2429
  75   2.0000      -0.372005       -10.1228
  76   2.0000      -0.369184       -10.0460
  77   2.0000      -0.359325        -9.7777
  78   2.0000      -0.351283        -9.5589
  79   2.0000      -0.346904        -9.4398
  80   2.0000      -0.346278        -9.4227
  81   2.0000      -0.342796        -9.3280
  82   2.0000      -0.339014        -9.2251
  83   2.0000      -0.332326        -9.0430
  84   2.0000      -0.326755        -8.8914
  85   2.0000      -0.324449        -8.8287
  86   2.0000      -0.308239        -8.3876
  87   2.0000      -0.300701        -8.1825
  88   2.0000      -0.297055        -8.0833
  89   2.0000      -0.290935        -7.9167
  90   2.0000      -0.279579        -7.6077
  91   2.0000      -0.274198        -7.4613
  92   2.0000      -0.266277        -7.2458
  93   2.0000      -0.262192        -7.1346
  94   2.0000      -0.260578        -7.0907
  95   2.0000      -0.236930        -6.4472
  96   2.0000      -0.218220        -5.9381
  97   2.0000      -0.210164        -5.7189
  98   2.0000      -0.204689        -5.5699
  99   2.0000      -0.197878        -5.3845
 100   2.0000      -0.195076        -5.3083
 101   0.0000      -0.044752        -1.2178
 102   0.0000      -0.026618        -0.7243
 103   0.0000      -0.020783        -0.5655
 104   0.0000       0.000086         0.0023
 105   0.0000       0.020885         0.5683

MULLIKEN ATOMIC CHARGES
-----------------------
   0 C :   -0.325642
   1 C :   -0.001360
   2 O :   -0.383323
   3 P :    0.628574
   4 S :   -0.314706
   5 O :   -0.355128
   6 C :    0.010393
   7 C :   -0.329164
   8 S :   -0.100032
   9 C :   -0.353932
  10 S :   -0.075906
  11 P :    0.600488
  12 S :   -0.326841
  13 O :   -0.383638
  14 C :   -0.006450
  15 C :   -0.313021
  16 O :   -0.361882
  17 C :    0.001637
  18 C :   -0.291226
  19 H :    0.133096
  20 H :    0.117924
  21 H :    0.119088
  22 H :    0.115268
  23 H :    0.106344
  24 H :    0.106051
  25 H :    0.114381
  26 H :    0.111942
  27 H :    0.136845
  28 H :    0.118981
  29 H :    0.187628
  30 H :    0.203334
  31 H :    0.111471
  32 H :    0.103673
  33 H :    0.127117
  34 H :    0.112304
  35 H :    0.110188
  36 H :    0.113201
  37 H :    0.095839
  38 H :    0.117187
  39 H :    0.117137
  40 H :    0.102158
Sum of atomic charges:    0.0000000

LOEWDIN ATOMIC CHARGES
----------------------
   0 C :   -0.372394
   1 C :   -0.117579
   2 O :   -0.244553
   3 P :    0.584478
   4 S :   -0.304417
   5 O :   -0.229789
   6 C :   -0.106894
   7 C :   -0.373920
   8 S :    0.086678
   9 C :   -0.473068
  10 S :    0.088980
  11 P :    0.562569
  12 S :   -0.323578
  13 O :   -0.253766
  14 C :   -0.122985
  15 C :   -0.367159
  16 O :   -0.236852
  17 C :   -0.116903
  18 C :   -0.360575
  19 H :    0.123365
  20 H :    0.133973
  21 H :    0.123996
  22 H :    0.113658
  23 H :    0.119272
  24 H :    0.113276
  25 H :    0.124466
  26 H :    0.131071
  27 H :    0.122438
  28 H :    0.115991
  29 H :    0.136571
  30 H :    0.131237
  31 H :    0.109018
  32 H :    0.117579
  33 H :    0.121840
  34 H :    0.130673
  35 H :    0.121256
  36 H :    0.113236
  37 H :    0.105296
  38 H :    0.121857
  39 H :    0.125522
  40 H :    0.126136

  Mayer bond orders larger than 0.100000
B(  0-C ,  1-C ) :   1.1667 B(  0-C , 19-H ) :   0.9325 B(  0-C , 20-H ) :   0.9369
B(  0-C , 21-H ) :   0.9443 B(  1-C ,  2-O ) :   0.9017 B(  1-C , 22-H ) :   0.9158
B(  1-C , 23-H ) :   0.9334 B(  2-O ,  3-P ) :   1.0791 B(  3-P ,  4-S ) :   1.6296
B(  3-P ,  5-O ) :   1.1387 B(  3-P ,  8-S ) :   0.9374 B(  4-S ,  8-S ) :   0.1057
B(  5-O ,  6-C ) :   0.8932 B(  6-C ,  7-C ) :   1.1720 B(  6-C , 24-H ) :   0.9296
B(  6-C , 25-H ) :   0.9315 B(  7-C , 26-H ) :   0.9346 B(  7-C , 27-H ) :   0.9338
B(  7-C , 28-H ) :   0.9393 B(  8-S ,  9-C ) :   1.0177 B(  9-C , 10-S ) :   0.9555
B(  9-C , 29-H ) :   0.9092 B(  9-C , 30-H ) :   0.8654 B( 10-S , 11-P ) :   0.9932
B( 11-P , 12-S ) :   1.6303 B( 11-P , 13-O ) :   1.0559 B( 11-P , 16-O ) :   1.1304
B( 13-O , 14-C ) :   0.9176 B( 14-C , 15-C ) :   1.1628 B( 14-C , 31-H ) :   0.9109
B( 14-C , 32-H ) :   0.9335 B( 15-C , 33-H ) :   0.9359 B( 15-C , 34-H ) :   0.9392
B( 15-C , 35-H ) :   0.9469 B( 16-O , 17-C ) :   0.8847 B( 17-C , 18-C ) :   1.1749
B( 17-C , 36-H ) :   0.9168 B( 17-C , 37-H ) :   0.9136 B( 18-C , 38-H ) :   0.9383
B( 18-C , 39-H ) :   0.9430 B( 18-C , 40-H ) :   0.9409

Dispersion correction           -0.067383109
FINAL SINGLE POINT ENERGY     -2929.516629438266

DIPOLE MOMENT
-------------

Method             : SCF
Type of density    : Electron Density
Multiplicity       :   1
Irrep              :   0
Energy             : -2929.6368853048697929 Eh
Relativity type    :
Basis              : AO
                                X                 Y                 Z
Electronic contribution:     -4.495108828      -0.074574948      -0.694803567
Nuclear contribution   :      5.635131106       0.017536304       0.157230803
                        -----------------------------------------
Total Dipole Moment    :      1.140022278      -0.057038644      -0.537572764
                        -----------------------------------------
Magnitude (a.u.)       :      1.261700709
Magnitude (Debye)      :      3.206988338

Rotational constants in cm-1:             0.012879             0.005235             0.004945
Rotational constants in MHz :           386.091601           156.952912           148.248724

                             ****ORCA TERMINATED NORMALLY****
TOTAL RUN TIME: 0 days 0 hours 0 minutes 21 seconds 969 msec
