                         Program Version 6.0.0  -   RELEASE  -
|  1> ! pbe def2-sv(p) def2/J RI DEFGRID1 loosescf d4 GCP(DFT/SV(P)) printgap
|  2> %output
|  3>     printlevel normal
|  4> end
|  5> * xyz 0 1
|  6> C 4.5762464524 -1.1297230201 -1.7053353817
|  7> C 3.6553060961 -2.1199821053 -1.0227339231
|  8> O 2.940798831 -1.5476773467 0.0877860677
|  9> P 2.0727420132 -0.2209456538 0.0484836139
| 10> S 3.012792108 1.5030037456 0.0853153838
| 11> O 1.1379066035 -0.4978738663 1.2962169272
| 12> C 1.1786444605 0.2875720278 2.5007015697
| 13> C 2.3237344563 -0.1533747589 3.3881668911
| 14> S 0.7805491147 -0.5472415811 -1.6068476372
| 15> C 0.1850042648 1.1569103565 -1.735545838
| 16> S -0.694828495 1.7227436714 -0.2578274263
| 17> P -2.2679075575 0.2965562751 -0.3357846608
| 18> S -2.9190457313 -0.1645276293 -2.1168042197
| 19> O -3.4093697675 0.9220612905 0.5629489812
| 20> C -3.3102823035 1.1358371115 1.9931307255
| 21> C -2.8241880066 2.5356589507 2.3096891387
| 22> O -1.6701400675 -0.9007330421 0.5380493227
| 23> C -1.7136656354 -2.2801888821 0.1335538644
| 24> C -3.0316514725 -2.9122102825 0.5320814856
| 25> H 5.1537071129 -1.6416059537 -2.4684551562
| 26> H 3.9952463496 -0.3364499425 -2.1739776126
| 27> H 5.2531133913 -0.6799404857 -0.9827092604
| 28> H 4.216454926 -2.9397857077 -0.5704675428
| 29> H 2.9226686263 -2.5183749391 -1.7304671104
| 30> H 1.2768343281 1.3452927624 2.234139983
| 31> H 0.2086265725 0.1144544461 2.9691784158
| 32> H 3.2690111945 0.0252598654 2.8771250157
| 33> H 2.3061874773 0.4154113704 4.3122804973
| 34> H 2.2411252948 -1.2137338317 3.6101855635
| 35> H -0.4861811851 1.1856724595 -2.5933331393
| 36> H 1.0305159202 1.8325162709 -1.863997138
| 37> H -4.3296904007 0.9822785405 2.3513284204
| 38> H -2.6492393799 0.3774744242 2.4180618286
| 39> H -1.8040694225 2.6791576335 1.9586701694
| 40> H -3.4630547581 3.2695522844 1.8262893513
| 41> H -2.8544790714 2.6865999501 3.3842602905
| 42> H -1.5684777449 -2.3392380168 -0.9497998101
| 43> H -0.8646645509 -2.7396811878 0.6431606346
| 44> H -3.8488565131 -2.4068158195 0.0187547179
| 45> H -3.0285646313 -3.9590679999 0.2459461551
| 46> H -3.1838151064 -2.8317550751 1.6050136675
| 47> *
| 48>
| 49>                          ****END OF INPUT****

CARTESIAN COORDINATES (ANGSTROEM)
---------------------------------
  C      4.576246   -1.129723   -1.705335
  C      3.655306   -2.119982   -1.022734
  O      2.940799   -1.547677    0.087786
  P      2.072742   -0.220946    0.048484
  S      3.012792    1.503004    0.085315
  O      1.137907   -0.497874    1.296217
  C      1.178644    0.287572    2.500702
  C      2.323734   -0.153375    3.388167
  S      0.780549   -0.547242   -1.606848
  C      0.185004    1.156910   -1.735546
  S     -0.694828    1.722744   -0.257827
  P     -2.267908    0.296556   -0.335785
  S     -2.919046   -0.164528   -2.116804
  O     -3.409370    0.922061    0.562949
  C     -3.310282    1.135837    1.993131
  C     -2.824188    2.535659    2.309689
  O     -1.670140   -0.900733    0.538049
  C     -1.713666   -2.280189    0.133554
  C     -3.031651   -2.912210    0.532081
  H      5.153707   -1.641606   -2.468455
  H      3.995246   -0.336450   -2.173978
  H      5.253113   -0.679940   -0.982709
  H      4.216455   -2.939786   -0.570468
  H      2.922669   -2.518375   -1.730467
  H      1.276834    1.345293    2.234140
  H      0.208627    0.114454    2.969178
  H      3.269011    0.025260    2.877125
  H      2.306187    0.415411    4.312280
  H      2.241125   -1.213734    3.610186
  H     -0.486181    1.185672   -2.593333
  H      1.030516    1.832516   -1.863997
  H     -4.329690    0.982279    2.351328
  H     -2.649239    0.377474    2.418062
  H     -1.804069    2.679158    1.958670
  H     -3.463055    3.269552    1.826289
  H     -2.854479    2.686600    3.384260
  H     -1.568478   -2.339238   -0.949800
  H     -0.864665   -2.739681    0.643161
  H     -3.848857   -2.406816    0.018755
  H     -3.028565   -3.959068    0.245946
  H     -3.183815   -2.831755    1.605014

 Total Charge           Charge          ....    0
 Multiplicity           Mult            ....    1
 Number of Electrons    NEL             ....  202
 Basis Dimension        Dim             ....  334

ORBITAL ENERGIES
----------------

  NO   OCC          E(Eh)            E(eV)
   0   2.0000     -88.045409     -2395.8374
   1   2.0000     -88.041256     -2395.7244
   2   2.0000     -87.989539     -2394.3171
   3   2.0000     -87.986382     -2394.2312
   4   2.0000     -76.429136     -2079.7425
   5   2.0000     -76.426051     -2079.6586
   6   2.0000     -18.795534      -511.4525
   7   2.0000     -18.795517      -511.4520
   8   2.0000     -18.787633      -511.2375
   9   2.0000     -18.787541      -511.2350
  10   2.0000      -9.961212      -271.0584
  11   2.0000      -9.960493      -271.0388
  12   2.0000      -9.954931      -270.8874
  13   2.0000      -9.949523      -270.7403
  14   2.0000      -9.946522      -270.6586
  15   2.0000      -9.892513      -269.1890
  16   2.0000      -9.885298      -268.9926
  17   2.0000      -9.882423      -268.9144
  18   2.0000      -9.882239      -268.9094
  19   2.0000      -7.689985      -209.2551
  20   2.0000      -7.685987      -209.1463
  21   2.0000      -7.634449      -207.7439
  22   2.0000      -7.631648      -207.6677
  23   2.0000      -6.426169      -174.8650
  24   2.0000      -6.423580      -174.7945
  25   2.0000      -5.717771      -155.5885
  26   2.0000      -5.714529      -155.5002
  27   2.0000      -5.713837      -155.4814
  28   2.0000      -5.710635      -155.3943
  29   2.0000      -5.707070      -155.2973
  30   2.0000      -5.702874      -155.1831
  31   2.0000      -5.663285      -154.1058
  32   2.0000      -5.660678      -154.0349
  33   2.0000      -5.655115      -153.8835
  34   2.0000      -5.654668      -153.8713
  35   2.0000      -5.652154      -153.8029
  36   2.0000      -5.651760      -153.7922
  37   2.0000      -4.648567      -126.4940
  38   2.0000      -4.648122      -126.4818
  39   2.0000      -4.646678      -126.4425
  40   2.0000      -4.646497      -126.4376
  41   2.0000      -4.644930      -126.3950
  42   2.0000      -4.644160      -126.3740
  43   2.0000      -0.988387       -26.8954
  44   2.0000      -0.985272       -26.8106
  45   2.0000      -0.946047       -25.7433
  46   2.0000      -0.942499       -25.6467
  47   2.0000      -0.766118       -20.8471
  48   2.0000      -0.722839       -19.6694
  49   2.0000      -0.712043       -19.3757
  50   2.0000      -0.691562       -18.8184
  51   2.0000      -0.686882       -18.6910
  52   2.0000      -0.674396       -18.3512
  53   2.0000      -0.653595       -17.7852
  54   2.0000      -0.640485       -17.4285
  55   2.0000      -0.599648       -16.3172
  56   2.0000      -0.591652       -16.0997
  57   2.0000      -0.579547       -15.7703
  58   2.0000      -0.573517       -15.6062
  59   2.0000      -0.563302       -15.3282
  60   2.0000      -0.502770       -13.6811
  61   2.0000      -0.495239       -13.4761
  62   2.0000      -0.478391       -13.0177
  63   2.0000      -0.471513       -12.8305
  64   2.0000      -0.458118       -12.4660
  65   2.0000      -0.448922       -12.2158
  66   2.0000      -0.439523       -11.9600
  67   2.0000      -0.438034       -11.9195
  68   2.0000      -0.427785       -11.6406
  69   2.0000      -0.419239       -11.4081
  70   2.0000      -0.411182       -11.1888
  71   2.0000      -0.394569       -10.7368
  72   2.0000      -0.388909       -10.5827
  73   2.0000      -0.388182       -10.5630
  74   2.0000      -0.381612       -10.3842
  75   2.0000      -0.376940       -10.2571
  76   2.0000      -0.372714       -10.1421
  77   2.0000      -0.360844        -9.8191
  78   2.0000      -0.358387        -9.7522
  79   2.0000      -0.350871        -9.5477
  80   2.0000      -0.349168        -9.5013
  81   2.0000      -0.348703        -9.4887
  82   2.0000      -0.343758        -9.3541
  83   2.0000      -0.342275        -9.3138
  84   2.0000      -0.332023        -9.0348
  85   2.0000      -0.321476        -8.7478
  86   2.0000      -0.313497        -8.5307
  87   2.0000      -0.303455        -8.2574
  88   2.0000      -0.297988        -8.1087
  89   2.0000      -0.286574        -7.7981
  90   2.0000      -0.282520        -7.6878
  91   2.0000      -0.279092        -7.5945
  92   2.0000      -0.271269        -7.3816
  93   2.0000      -0.267916        -7.2904
  94   2.0000      -0.254001        -6.9117
  95   2.0000      -0.232676        -6.3314
  96   2.0000      -0.217989        -5.9318
  97   2.0000      -0.213853        -5.8192
  98   2.0000      -0.207754        -5.6533
  99   2.0000      -0.200900        -5.4668
 100   2.0000      -0.198265        -5.3951
 101   0.0000      -0.047553        -1.2940
 102   0.0000      -0.024092        -0.6556
 103   0.0000      -0.004599        -0.1251
 104   0.0000       0.001057         0.0288
 105   0.0000       0.003192         0.0869

MULLIKEN ATOMIC CHARGES
-----------------------
   0 C :   -0.310735
   1 C :   -0.011316
   2 O :   -0.369440
   3 P :    0.614793
   4 S :   -0.332120
   5 O :   -0.351447
   6 C :   -0.018710
   7 C :   -0.291944
   8 S :   -0.101342
   9 C :   -0.336780
  10 S :   -0.112466
  11 P :    0.634409
  12 S :   -0.315882
  13 O :   -0.365060
  14 C :   -0.031270
  15 C :   -0.309993
  16 O :   -0.382783
  17 C :   -0.008678
  18 C :   -0.294228
  19 H :    0.112400
  20 H :    0.125824
  21 H :    0.126386
  22 H :    0.109961
  23 H :    0.114562
  24 H :    0.116247
  25 H :    0.101646
  26 H :    0.121309
  27 H :    0.108235
  28 H :    0.111908
  29 H :    0.192441
  30 H :    0.190940
  31 H :    0.112499
  32 H :    0.117924
  33 H :    0.138536
  34 H :    0.126621
  35 H :    0.112533
  36 H :    0.114356
  37 H :    0.101741
  38 H :    0.122375
  39 H :    0.109693
  40 H :    0.106856
Sum of atomic charges:    0.0000000

LOEWDIN ATOMIC CHARGES
----------------------
   0 C :   -0.369452
   1 C :   -0.114177
   2 O :   -0.242683
   3 P :    0.573216
   4 S :   -0.316702
   5 O :   -0.230257
   6 C :   -0.123711
   7 C :   -0.361786
   8 S :    0.086721
   9 C :   -0.478929
  10 S :    0.084537
  11 P :    0.572569
  12 S :   -0.308672
  13 O :   -0.242326
  14 C :   -0.115198
  15 C :   -0.363099
  16 O :   -0.246183
  17 C :   -0.123981
  18 C :   -0.362007
  19 H :    0.130471
  20 H :    0.121307
  21 H :    0.129773
  22 H :    0.121813
  23 H :    0.109563
  24 H :    0.106041
  25 H :    0.112709
  26 H :    0.123660
  27 H :    0.128674
  28 H :    0.124353
  29 H :    0.132146
  30 H :    0.130698
  31 H :    0.122762
  32 H :    0.110553
  33 H :    0.118673
  34 H :    0.132274
  35 H :    0.131529
  36 H :    0.104924
  37 H :    0.115120
  38 H :    0.124729
  39 H :    0.129680
  40 H :    0.120665

  Mayer bond orders larger than 0.100000
B(  0-C ,  1-C ) :   1.1640 B(  0-C , 19-H ) :   0.9351 B(  0-C , 20-H ) :   0.9337
B(  0-C , 21-H ) :   0.9429 B(  1-C ,  2-O ) :   0.9142 B(  1-C , 22-H ) :   0.9341
B(  1-C , 23-H ) :   0.9272 B(  2-O ,  3-P ) :   1.1242 B(  3-P ,  4-S ) :   1.5895
B(  3-P ,  5-O ) :   1.1269 B(  3-P ,  8-S ) :   0.9370 B(  4-S ,  8-S ) :   0.1074
B(  5-O ,  6-C ) :   0.9035 B(  6-C ,  7-C ) :   1.1627 B(  6-C , 24-H ) :   0.9065
B(  6-C , 25-H ) :   0.9293 B(  7-C , 26-H ) :   0.9381 B(  7-C , 27-H ) :   0.9409
B(  7-C , 28-H ) :   0.9471 B(  8-S ,  9-C ) :   1.0036 B(  9-C , 10-S ) :   1.0088
B(  9-C , 29-H ) :   0.8831 B(  9-C , 30-H ) :   0.8832 B( 10-S , 11-P ) :   0.9439
B( 10-S , 12-S ) :   0.1020 B( 11-P , 12-S ) :   1.6304 B( 11-P , 13-O ) :   1.1343
B( 11-P , 16-O ) :   1.0756 B( 13-O , 14-C ) :   0.9031 B( 14-C , 15-C ) :   1.1685
B( 14-C , 31-H ) :   0.9335 B( 14-C , 32-H ) :   0.9138 B( 15-C , 33-H ) :   0.9305
B( 15-C , 34-H ) :   0.9458 B( 15-C , 35-H ) :   0.9380 B( 16-O , 17-C ) :   0.8979
B( 17-C , 18-C ) :   1.1615 B( 17-C , 36-H ) :   0.9070 B( 17-C , 37-H ) :   0.9314
B( 18-C , 38-H ) :   0.9398 B( 18-C , 39-H ) :   0.9413 B( 18-C , 40-H ) :   0.9486

Dispersion correction           -0.067700181
FINAL SINGLE POINT ENERGY     -2929.521129068628

DIPOLE MOMENT
-------------

Method             : SCF
Type of density    : Electron Density
Multiplicity       :   1
Irrep              :   0
Energy             : -2929.6389042340874767 Eh
Relativity type    :
Basis              : AO
                                X                 Y                 Z
Electronic contribution:     -3.413403232       7.465583094     -15.241478639
Nuclear contribution   :      3.712285528      -8.325630460      16.468907230
                        -----------------------------------------
Total Dipole Moment    :      0.298882295      -0.860047366       1.227428590
                        -----------------------------------------
Magnitude (a.u.)       :      1.528264716
Magnitude (Debye)      :      3.884540198

Rotational constants in cm-1:             0.011538             0.005685             0.005172
Rotational constants in MHz :           345.905515           170.444323           155.061892

                             ****ORCA TERMINATED NORMALLY****
TOTAL RUN TIME: 0 days 0 hours 0 minutes 22 seconds 266 msec
