                         Program Version 6.0.0  -   RELEASE  -
|  1> ! pbe def2-sv(p) def2/J RI DEFGRID1 loosescf d4 GCP(DFT/SV(P)) printgap
|  2> %output
|  3>     printlevel normal
|  4> end
|  5> * xyz 0 1
|  6> C 0.8364933499 -1.6671369256 2.3584647873
|  7> C 1.9245312419 -2.0389077099 1.3701293001
|  8> O 2.7279161003 -0.8862358776 1.0544425971
|  9> P 2.7496247963 -0.1903891577 -0.3792807499
| 10> S 2.9068092501 -1.4275733381 -1.884258954
| 11> O 3.982483726 0.7764133207 -0.2678198928
| 12> C 4.0810921881 1.8999870533 0.6435916484
| 13> C 4.6309687017 1.4771193987 1.9899017643
| 14> S 1.0693870051 1.1424593635 -0.4476169028
| 15> C 0.0701613062 0.2325254838 -1.6467013578
| 16> S -0.9039044019 -1.1021813799 -0.9013733877
| 17> P -2.3707296625 0.1577774525 -0.0489023386
| 18> S -3.0272498034 1.6346472485 -1.1678778826
| 19> O -1.6188511967 0.5796957635 1.2793309759
| 20> C -1.9600884291 1.773346778 2.0136747394
| 21> C -3.3062021614 1.6431591231 2.6940906238
| 22> O -3.48355167 -0.8309015878 0.5018417394
| 23> C -4.6070318587 -1.2511955627 -0.2905885505
| 24> C -4.1921721675 -2.1577905279 -1.4314896676
| 25> H 1.2772580382 -1.2497170978 3.2592683421
| 26> H 0.1575032115 -0.9355057906 1.9275184376
| 27> H 0.2723310319 -2.5582383669 2.6139603039
| 28> H 1.5053393765 -2.4541565962 0.4476427698
| 29> H 2.6179760985 -2.7630741577 1.8029395696
| 30> H 4.7579359015 2.5888168434 0.1351351944
| 31> H 3.0934197448 2.3589431779 0.7421523724
| 32> H 4.7655560131 2.3588764583 2.6087207058
| 33> H 3.9455887298 0.7934657314 2.4825383228
| 34> H 5.5884529922 0.9799159738 1.8607743513
| 35> H 0.7269697967 -0.2301130775 -2.3845841972
| 36> H -0.605680389 0.9533451401 -2.1077906836
| 37> H -1.1476376899 1.879801383 2.7333427936
| 38> H -1.9533074898 2.6202656143 1.3200637706
| 39> H -3.4816788575 2.5152837484 3.316045597
| 40> H -4.0943034362 1.5787791364 1.9448181463
| 41> H -3.3313902494 0.7470581153 3.3083403372
| 42> H -5.2511721485 -1.7688009336 0.4214444767
| 43> H -5.1142567602 -0.3597095435 -0.6736138337
| 44> H -3.5947264398 -2.985877391 -1.0583597692
| 45> H -5.0780040861 -2.5449529697 -1.9247861996
| 46> H -3.6007938298 -1.599873814 -2.1566615692
| 47> *
| 48>
| 49>                          ****END OF INPUT****

CARTESIAN COORDINATES (ANGSTROEM)
---------------------------------
  C      0.836493   -1.667137    2.358465
  C      1.924531   -2.038908    1.370129
  O      2.727916   -0.886236    1.054443
  P      2.749625   -0.190389   -0.379281
  S      2.906809   -1.427573   -1.884259
  O      3.982484    0.776413   -0.267820
  C      4.081092    1.899987    0.643592
  C      4.630969    1.477119    1.989902
  S      1.069387    1.142459   -0.447617
  C      0.070161    0.232525   -1.646701
  S     -0.903904   -1.102181   -0.901373
  P     -2.370730    0.157777   -0.048902
  S     -3.027250    1.634647   -1.167878
  O     -1.618851    0.579696    1.279331
  C     -1.960088    1.773347    2.013675
  C     -3.306202    1.643159    2.694091
  O     -3.483552   -0.830902    0.501842
  C     -4.607032   -1.251196   -0.290589
  C     -4.192172   -2.157791   -1.431490
  H      1.277258   -1.249717    3.259268
  H      0.157503   -0.935506    1.927518
  H      0.272331   -2.558238    2.613960
  H      1.505339   -2.454157    0.447643
  H      2.617976   -2.763074    1.802940
  H      4.757936    2.588817    0.135135
  H      3.093420    2.358943    0.742152
  H      4.765556    2.358876    2.608721
  H      3.945589    0.793466    2.482538
  H      5.588453    0.979916    1.860774
  H      0.726970   -0.230113   -2.384584
  H     -0.605680    0.953345   -2.107791
  H     -1.147638    1.879801    2.733343
  H     -1.953307    2.620266    1.320064
  H     -3.481679    2.515284    3.316046
  H     -4.094303    1.578779    1.944818
  H     -3.331390    0.747058    3.308340
  H     -5.251172   -1.768801    0.421444
  H     -5.114257   -0.359710   -0.673614
  H     -3.594726   -2.985877   -1.058360
  H     -5.078004   -2.544953   -1.924786
  H     -3.600794   -1.599874   -2.156662

 Total Charge           Charge          ....    0
 Multiplicity           Mult            ....    1
 Number of Electrons    NEL             ....  202
 Basis Dimension        Dim             ....  334

ORBITAL ENERGIES
----------------

  NO   OCC          E(Eh)            E(eV)
   0   2.0000     -88.045903     -2395.8508
   1   2.0000     -88.039919     -2395.6880
   2   2.0000     -87.995088     -2394.4681
   3   2.0000     -87.986032     -2394.2216
   4   2.0000     -76.431982     -2079.8200
   5   2.0000     -76.426146     -2079.6612
   6   2.0000     -18.800427      -511.5856
   7   2.0000     -18.796308      -511.4735
   8   2.0000     -18.794902      -511.4353
   9   2.0000     -18.788793      -511.2690
  10   2.0000      -9.962013      -271.0802
  11   2.0000      -9.958228      -270.9772
  12   2.0000      -9.955729      -270.9092
  13   2.0000      -9.951509      -270.7943
  14   2.0000      -9.947389      -270.6822
  15   2.0000      -9.888924      -269.0913
  16   2.0000      -9.888456      -269.0786
  17   2.0000      -9.888255      -269.0731
  18   2.0000      -9.876931      -268.7649
  19   2.0000      -7.690853      -209.2788
  20   2.0000      -7.684846      -209.1153
  21   2.0000      -7.639890      -207.8920
  22   2.0000      -7.631314      -207.6586
  23   2.0000      -6.429695      -174.9609
  24   2.0000      -6.423753      -174.7992
  25   2.0000      -5.718611      -155.6113
  26   2.0000      -5.715514      -155.5271
  27   2.0000      -5.712641      -155.4489
  28   2.0000      -5.709439      -155.3617
  29   2.0000      -5.707793      -155.3170
  30   2.0000      -5.701862      -155.1556
  31   2.0000      -5.668640      -154.2515
  32   2.0000      -5.660587      -154.0324
  33   2.0000      -5.660291      -154.0243
  34   2.0000      -5.660196      -154.0218
  35   2.0000      -5.651925      -153.7967
  36   2.0000      -5.651364      -153.7814
  37   2.0000      -4.652149      -126.5914
  38   2.0000      -4.651428      -126.5718
  39   2.0000      -4.650244      -126.5396
  40   2.0000      -4.646503      -126.4378
  41   2.0000      -4.645397      -126.4077
  42   2.0000      -4.644147      -126.3737
  43   2.0000      -0.993912       -27.0457
  44   2.0000      -0.987584       -26.8735
  45   2.0000      -0.953269       -25.9398
  46   2.0000      -0.944278       -25.6951
  47   2.0000      -0.764623       -20.8065
  48   2.0000      -0.724606       -19.7175
  49   2.0000      -0.712967       -19.4008
  50   2.0000      -0.692288       -18.8381
  51   2.0000      -0.688729       -18.7413
  52   2.0000      -0.677024       -18.4228
  53   2.0000      -0.652120       -17.7451
  54   2.0000      -0.639766       -17.4089
  55   2.0000      -0.606750       -16.5105
  56   2.0000      -0.592962       -16.1353
  57   2.0000      -0.577751       -15.7214
  58   2.0000      -0.573691       -15.6109
  59   2.0000      -0.559344       -15.2205
  60   2.0000      -0.504404       -13.7255
  61   2.0000      -0.496669       -13.5150
  62   2.0000      -0.481030       -13.0895
  63   2.0000      -0.479481       -13.0474
  64   2.0000      -0.459985       -12.5168
  65   2.0000      -0.447203       -12.1690
  66   2.0000      -0.445330       -12.1180
  67   2.0000      -0.441852       -12.0234
  68   2.0000      -0.427749       -11.6396
  69   2.0000      -0.421285       -11.4637
  70   2.0000      -0.405720       -11.0402
  71   2.0000      -0.398321       -10.8389
  72   2.0000      -0.394936       -10.7468
  73   2.0000      -0.389797       -10.6069
  74   2.0000      -0.384726       -10.4689
  75   2.0000      -0.378448       -10.2981
  76   2.0000      -0.366852        -9.9825
  77   2.0000      -0.359706        -9.7881
  78   2.0000      -0.357121        -9.7178
  79   2.0000      -0.353981        -9.6323
  80   2.0000      -0.352963        -9.6046
  81   2.0000      -0.347528        -9.4567
  82   2.0000      -0.345678        -9.4064
  83   2.0000      -0.340665        -9.2700
  84   2.0000      -0.331169        -9.0116
  85   2.0000      -0.323419        -8.8007
  86   2.0000      -0.317514        -8.6400
  87   2.0000      -0.301215        -8.1965
  88   2.0000      -0.293897        -7.9973
  89   2.0000      -0.289874        -7.8879
  90   2.0000      -0.287649        -7.8273
  91   2.0000      -0.280426        -7.6308
  92   2.0000      -0.277554        -7.5526
  93   2.0000      -0.270083        -7.3493
  94   2.0000      -0.256486        -6.9793
  95   2.0000      -0.235535        -6.4092
  96   2.0000      -0.219413        -5.9705
  97   2.0000      -0.216628        -5.8947
  98   2.0000      -0.207138        -5.6365
  99   2.0000      -0.205755        -5.5989
 100   2.0000      -0.200486        -5.4555
 101   0.0000      -0.046393        -1.2624
 102   0.0000      -0.028815        -0.7841
 103   0.0000      -0.010412        -0.2833
 104   0.0000      -0.000279        -0.0076
 105   0.0000       0.013217         0.3596

MULLIKEN ATOMIC CHARGES
-----------------------
   0 C :   -0.320959
   1 C :   -0.002464
   2 O :   -0.380415
   3 P :    0.610910
   4 S :   -0.308707
   5 O :   -0.356105
   6 C :   -0.022344
   7 C :   -0.295206
   8 S :   -0.122522
   9 C :   -0.361963
  10 S :   -0.073089
  11 P :    0.612890
  12 S :   -0.331701
  13 O :   -0.355416
  14 C :    0.001365
  15 C :   -0.307847
  16 O :   -0.370201
  17 C :   -0.006021
  18 C :   -0.318834
  19 H :    0.103933
  20 H :    0.151366
  21 H :    0.104262
  22 H :    0.104758
  23 H :    0.104257
  24 H :    0.116000
  25 H :    0.115388
  26 H :    0.110185
  27 H :    0.126667
  28 H :    0.122201
  29 H :    0.199083
  30 H :    0.191879
  31 H :    0.104863
  32 H :    0.112608
  33 H :    0.113670
  34 H :    0.122216
  35 H :    0.118168
  36 H :    0.107676
  37 H :    0.112524
  38 H :    0.120082
  39 H :    0.116200
  40 H :    0.130642
Sum of atomic charges:   -0.0000000

LOEWDIN ATOMIC CHARGES
----------------------
   0 C :   -0.368800
   1 C :   -0.117303
   2 O :   -0.249305
   3 P :    0.571554
   4 S :   -0.300836
   5 O :   -0.233840
   6 C :   -0.110430
   7 C :   -0.361645
   8 S :    0.058604
   9 C :   -0.488850
  10 S :    0.103164
  11 P :    0.574950
  12 S :   -0.320979
  13 O :   -0.231909
  14 C :   -0.116936
  15 C :   -0.364047
  16 O :   -0.241081
  17 C :   -0.118614
  18 C :   -0.369428
  19 H :    0.120175
  20 H :    0.121492
  21 H :    0.128367
  22 H :    0.102064
  23 H :    0.117015
  24 H :    0.124545
  25 H :    0.105421
  26 H :    0.129678
  27 H :    0.126233
  28 H :    0.130499
  29 H :    0.128781
  30 H :    0.128376
  31 H :    0.118502
  32 H :    0.111004
  33 H :    0.131166
  34 H :    0.122787
  35 H :    0.127120
  36 H :    0.119882
  37 H :    0.111464
  38 H :    0.125504
  39 H :    0.132781
  40 H :    0.122875

  Mayer bond orders larger than 0.100000
B(  0-C ,  1-C ) :   1.1645 B(  0-C , 19-H ) :   0.9469 B(  0-C , 20-H ) :   0.9199
B(  0-C , 21-H ) :   0.9403 B(  1-C ,  2-O ) :   0.8966 B(  1-C , 22-H ) :   0.9017
B(  1-C , 23-H ) :   0.9356 B(  2-O ,  3-P ) :   1.0864 B(  3-P ,  4-S ) :   1.6452
B(  3-P ,  5-O ) :   1.1525 B(  3-P ,  8-S ) :   0.9339 B(  4-S ,  8-S ) :   0.1127
B(  5-O ,  6-C ) :   0.8975 B(  6-C ,  7-C ) :   1.1629 B(  6-C , 24-H ) :   0.9357
B(  6-C , 25-H ) :   0.9148 B(  7-C , 26-H ) :   0.9383 B(  7-C , 27-H ) :   0.9384
B(  7-C , 28-H ) :   0.9465 B(  8-S ,  9-C ) :   1.0179 B(  9-C , 10-S ) :   0.9993
B(  9-C , 29-H ) :   0.8598 B(  9-C , 30-H ) :   0.8689 B( 10-S , 11-P ) :   0.9644
B( 10-S , 12-S ) :   0.1070 B( 11-P , 12-S ) :   1.5894 B( 11-P , 13-O ) :   1.1165
B( 11-P , 16-O ) :   1.1142 B( 13-O , 14-C ) :   0.8996 B( 14-C , 15-C ) :   1.1641
B( 14-C , 31-H ) :   0.9338 B( 14-C , 32-H ) :   0.9161 B( 15-C , 33-H ) :   0.9392
B( 15-C , 34-H ) :   0.9371 B( 15-C , 35-H ) :   0.9464 B( 16-O , 17-C ) :   0.9054
B( 17-C , 18-C ) :   1.1661 B( 17-C , 36-H ) :   0.9336 B( 17-C , 37-H ) :   0.9166
B( 18-C , 38-H ) :   0.9448 B( 18-C , 39-H ) :   0.9376 B( 18-C , 40-H ) :   0.9352

Dispersion correction           -0.064635278
FINAL SINGLE POINT ENERGY     -2929.522778323240

DIPOLE MOMENT
-------------

Method             : SCF
Type of density    : Electron Density
Multiplicity       :   1
Irrep              :   0
Energy             : -2929.6437019841778238 Eh
Relativity type    :
Basis              : AO
                                X                 Y                 Z
Electronic contribution:      7.629751856       0.300868651     -18.209350252
Nuclear contribution   :     -8.332355872      -0.054170650      19.892093053
                        -----------------------------------------
Total Dipole Moment    :     -0.702604016       0.246698001       1.682742801
                        -----------------------------------------
Magnitude (a.u.)       :      1.840145549
Magnitude (Debye)      :      4.677278276

Rotational constants in cm-1:             0.012661             0.004716             0.004335
Rotational constants in MHz :           379.561213           141.377864           129.953851

                             ****ORCA TERMINATED NORMALLY****
TOTAL RUN TIME: 0 days 0 hours 0 minutes 21 seconds 47 msec
