                         Program Version 6.0.0  -   RELEASE  -
|  1> ! r2scan-3c def2/J RI DEFGRID2 scfconv6 printgap
|  2> %output
|  3>     printlevel normal
|  4> end
|  5> * xyz 0 1
|  6> C 4.2916981522 -1.0021400463 -2.3335809398
|  7> C 4.4776683605 -1.4456899642 -0.8969126793
|  8> O 3.2239281749 -1.5929910837 -0.2077515534
|  9> P 2.2995937689 -0.3519618469 0.1504037492
| 10> S 3.2505520027 1.2725450668 0.7084020132
| 11> O 1.311411048 -0.9815032573 1.2179129681
| 12> C 1.5798177181 -0.9013816175 2.6354299877
| 13> C 2.7839505008 -1.7307487284 3.0286451412
| 14> S 0.9910691369 -0.1785920741 -1.5021345111
| 15> C 0.3785203535 1.4774321764 -1.0901339329
| 16> S -0.6986034326 1.4887062273 0.3612278832
| 17> P -2.2789447451 0.3452494931 -0.5179990794
| 18> S -2.5734659065 0.6611396124 -2.422783942
| 19> O -3.5018418418 0.6778745759 0.4386169812
| 20> C -4.1414012501 1.9715664935 0.4018000564
| 21> C -5.4708018257 1.8525593098 1.1187142124
| 22> O -1.9850181059 -1.1656891529 -0.1937088649
| 23> C -1.8716588747 -1.680353596 1.1562378777
| 24> C -3.1665602856 -2.3395689934 1.5826219658
| 25> H 5.2498963548 -1.0191395708 -2.8429264826
| 26> H 3.5971155965 -1.6625031617 -2.8471114534
| 27> H 3.8944085606 0.011869383 -2.3626744882
| 28> H 5.0899022335 -0.721989961 -0.3491153817
| 29> H 4.9283405436 -2.4371303001 -0.8361228941
| 30> H 1.7294025521 0.1506421557 2.8983663029
| 31> H 0.664877068 -1.2728443442 3.0984236885
| 32> H 3.6858806671 -1.3062880702 2.5893318548
| 33> H 2.8844644098 -1.7288483783 4.109460055
| 34> H 2.6689754703 -2.7522822991 2.6758548127
| 35> H -0.1823050338 1.8251496764 -1.9575610197
| 36> H 1.2185522952 2.1343425544 -0.863867499
| 37> H -3.4822278573 2.6912850305 0.8945576088
| 38> H -4.2730534286 2.2637167567 -0.6450288338
| 39> H -5.9656567207 2.8180492703 1.1104857024
| 40> H -6.101305276 1.1234325264 0.6176508684
| 41> H -5.3134640994 1.5385885287 2.1464612159
| 42> H -1.0494429715 -2.3971594526 1.1070217273
| 43> H -1.6048030646 -0.8572786713 1.8253452179
| 44> H -3.9676817509 -1.6059299469 1.6133887654
| 45> H -3.4342126074 -3.121604872 0.8775272296
| 46> H -3.0374602403 -2.7736871942 2.5691567743
| 47> *
| 48>
| 49>                          ****END OF INPUT****

CARTESIAN COORDINATES (ANGSTROEM)
---------------------------------
  C      4.291698   -1.002140   -2.333581
  C      4.477668   -1.445690   -0.896913
  O      3.223928   -1.592991   -0.207752
  P      2.299594   -0.351962    0.150404
  S      3.250552    1.272545    0.708402
  O      1.311411   -0.981503    1.217913
  C      1.579818   -0.901382    2.635430
  C      2.783951   -1.730749    3.028645
  S      0.991069   -0.178592   -1.502135
  C      0.378520    1.477432   -1.090134
  S     -0.698603    1.488706    0.361228
  P     -2.278945    0.345249   -0.517999
  S     -2.573466    0.661140   -2.422784
  O     -3.501842    0.677875    0.438617
  C     -4.141401    1.971566    0.401800
  C     -5.470802    1.852559    1.118714
  O     -1.985018   -1.165689   -0.193709
  C     -1.871659   -1.680354    1.156238
  C     -3.166560   -2.339569    1.582622
  H      5.249896   -1.019140   -2.842926
  H      3.597116   -1.662503   -2.847111
  H      3.894409    0.011869   -2.362674
  H      5.089902   -0.721990   -0.349115
  H      4.928341   -2.437130   -0.836123
  H      1.729403    0.150642    2.898366
  H      0.664877   -1.272844    3.098424
  H      3.685881   -1.306288    2.589332
  H      2.884464   -1.728848    4.109460
  H      2.668975   -2.752282    2.675855
  H     -0.182305    1.825150   -1.957561
  H      1.218552    2.134343   -0.863867
  H     -3.482228    2.691285    0.894558
  H     -4.273053    2.263717   -0.645029
  H     -5.965657    2.818049    1.110486
  H     -6.101305    1.123433    0.617651
  H     -5.313464    1.538589    2.146461
  H     -1.049443   -2.397159    1.107022
  H     -1.604803   -0.857279    1.825345
  H     -3.967682   -1.605930    1.613389
  H     -3.434213   -3.121605    0.877527
  H     -3.037460   -2.773687    2.569157

 Total Charge           Charge          ....    0
 Multiplicity           Mult            ....    1
 Number of Electrons    NEL             ....  202
 Basis Dimension        Dim             ....  539

ORBITAL ENERGIES
----------------

  NO   OCC          E(Eh)            E(eV)
   0   2.0000     -88.573205     -2410.1995
   1   2.0000     -88.571649     -2410.1571
   2   2.0000     -88.523312     -2408.8418
   3   2.0000     -88.517913     -2408.6949
   4   2.0000     -76.914599     -2092.9527
   5   2.0000     -76.912193     -2092.8872
   6   2.0000     -18.995349      -516.8897
   7   2.0000     -18.995057      -516.8818
   8   2.0000     -18.991620      -516.7883
   9   2.0000     -18.990113      -516.7472
  10   2.0000     -10.101136      -274.8659
  11   2.0000     -10.101045      -274.8634
  12   2.0000     -10.101043      -274.8634
  13   2.0000     -10.101007      -274.8624
  14   2.0000     -10.100312      -274.8435
  15   2.0000     -10.036052      -273.0949
  16   2.0000     -10.032116      -272.9878
  17   2.0000     -10.031322      -272.9662
  18   2.0000     -10.028789      -272.8972
  19   2.0000      -7.867361      -214.0818
  20   2.0000      -7.865898      -214.0420
  21   2.0000      -7.818120      -212.7419
  22   2.0000      -7.812736      -212.5954
  23   2.0000      -6.593303      -179.4129
  24   2.0000      -6.590789      -179.3445
  25   2.0000      -5.814266      -158.2142
  26   2.0000      -5.812674      -158.1709
  27   2.0000      -5.811299      -158.1335
  28   2.0000      -5.809751      -158.0914
  29   2.0000      -5.804393      -157.9456
  30   2.0000      -5.803151      -157.9118
  31   2.0000      -5.765660      -156.8916
  32   2.0000      -5.760444      -156.7497
  33   2.0000      -5.758427      -156.6948
  34   2.0000      -5.758196      -156.6885
  35   2.0000      -5.752944      -156.5456
  36   2.0000      -5.752733      -156.5398
  37   2.0000      -4.738704      -128.9467
  38   2.0000      -4.738157      -128.9318
  39   2.0000      -4.737164      -128.9048
  40   2.0000      -4.736627      -128.8902
  41   2.0000      -4.735775      -128.8670
  42   2.0000      -4.734148      -128.8227
  43   2.0000      -1.052621       -28.6433
  44   2.0000      -1.051910       -28.6239
  45   2.0000      -1.013418       -27.5765
  46   2.0000      -1.011300       -27.5189
  47   2.0000      -0.800115       -21.7722
  48   2.0000      -0.759799       -20.6752
  49   2.0000      -0.750914       -20.4334
  50   2.0000      -0.738005       -20.0821
  51   2.0000      -0.733525       -19.9602
  52   2.0000      -0.710352       -19.3297
  53   2.0000      -0.684740       -18.6327
  54   2.0000      -0.668419       -18.1886
  55   2.0000      -0.634050       -17.2534
  56   2.0000      -0.620291       -16.8790
  57   2.0000      -0.607972       -16.5438
  58   2.0000      -0.604429       -16.4473
  59   2.0000      -0.593154       -16.1405
  60   2.0000      -0.534734       -14.5508
  61   2.0000      -0.519155       -14.1269
  62   2.0000      -0.501566       -13.6483
  63   2.0000      -0.494389       -13.4530
  64   2.0000      -0.476286       -12.9604
  65   2.0000      -0.464162       -12.6305
  66   2.0000      -0.460706       -12.5365
  67   2.0000      -0.458013       -12.4632
  68   2.0000      -0.448443       -12.2028
  69   2.0000      -0.432585       -11.7712
  70   2.0000      -0.423175       -11.5152
  71   2.0000      -0.415241       -11.2993
  72   2.0000      -0.407717       -11.0945
  73   2.0000      -0.405375       -11.0308
  74   2.0000      -0.397535       -10.8175
  75   2.0000      -0.389480       -10.5983
  76   2.0000      -0.382787       -10.4162
  77   2.0000      -0.375162       -10.2087
  78   2.0000      -0.372643       -10.1401
  79   2.0000      -0.368684       -10.0324
  80   2.0000      -0.365947        -9.9579
  81   2.0000      -0.362150        -9.8546
  82   2.0000      -0.360058        -9.7977
  83   2.0000      -0.356718        -9.7068
  84   2.0000      -0.350265        -9.5312
  85   2.0000      -0.335662        -9.1338
  86   2.0000      -0.325001        -8.8437
  87   2.0000      -0.318038        -8.6543
  88   2.0000      -0.311979        -8.4894
  89   2.0000      -0.308826        -8.4036
  90   2.0000      -0.301938        -8.2162
  91   2.0000      -0.293714        -7.9924
  92   2.0000      -0.285924        -7.7804
  93   2.0000      -0.280434        -7.6310
  94   2.0000      -0.271893        -7.3986
  95   2.0000      -0.245522        -6.6810
  96   2.0000      -0.230322        -6.2674
  97   2.0000      -0.227397        -6.1878
  98   2.0000      -0.218576        -5.9477
  99   2.0000      -0.214261        -5.8303
 100   2.0000      -0.211615        -5.7583
 101   0.0000      -0.044812        -1.2194
 102   0.0000      -0.023531        -0.6403
 103   0.0000      -0.000403        -0.0110
 104   0.0000       0.003408         0.0927
 105   0.0000       0.014902         0.4055

MULLIKEN ATOMIC CHARGES
-----------------------
   0 C :   -0.451734
   1 C :   -0.150412
   2 O :   -0.307071
   3 P :    0.686132
   4 S :   -0.492258
   5 O :   -0.262857
   6 C :   -0.157687
   7 C :   -0.439229
   8 S :   -0.099607
   9 C :   -0.241585
  10 S :   -0.185026
  11 P :    0.668938
  12 S :   -0.447607
  13 O :   -0.283000
  14 C :   -0.153179
  15 C :   -0.443022
  16 O :   -0.255206
  17 C :   -0.111694
  18 C :   -0.483386
  19 H :    0.148069
  20 H :    0.158071
  21 H :    0.177286
  22 H :    0.170505
  23 H :    0.148617
  24 H :    0.177187
  25 H :    0.145006
  26 H :    0.169388
  27 H :    0.147464
  28 H :    0.156208
  29 H :    0.217591
  30 H :    0.211869
  31 H :    0.153904
  32 H :    0.171184
  33 H :    0.148126
  34 H :    0.159863
  35 H :    0.150701
  36 H :    0.169637
  37 H :    0.157256
  38 H :    0.166865
  39 H :    0.160566
  40 H :    0.144128
Sum of atomic charges:   -0.0000000

LOEWDIN ATOMIC CHARGES
----------------------
   0 C :   -0.406225
   1 C :    0.019943
   2 O :   -0.661323
   3 P :    0.379446
   4 S :   -0.136497
   5 O :   -0.679873
   6 C :    0.015296
   7 C :   -0.399026
   8 S :    0.185712
   9 C :   -0.425060
  10 S :    0.134526
  11 P :    0.376974
  12 S :   -0.102111
  13 O :   -0.677806
  14 C :    0.019189
  15 C :   -0.386567
  16 O :   -0.643373
  17 C :    0.019845
  18 C :   -0.392360
  19 H :    0.159562
  20 H :    0.161379
  21 H :    0.166026
  22 H :    0.179225
  23 H :    0.179681
  24 H :    0.182059
  25 H :    0.176939
  26 H :    0.165715
  27 H :    0.159468
  28 H :    0.161082
  29 H :    0.192148
  30 H :    0.190812
  31 H :    0.172922
  32 H :    0.181671
  33 H :    0.160944
  34 H :    0.161919
  35 H :    0.158251
  36 H :    0.186636
  37 H :    0.175648
  38 H :    0.166357
  39 H :    0.162937
  40 H :    0.157910

  Mayer bond orders larger than 0.100000
B(  0-C ,  1-C ) :   0.9251 B(  0-C , 19-H ) :   0.9585 B(  0-C , 20-H ) :   0.9682
B(  0-C , 21-H ) :   0.9616 B(  1-C ,  2-O ) :   0.8108 B(  1-C , 22-H ) :   0.9660
B(  1-C , 23-H ) :   0.9578 B(  2-O ,  3-P ) :   1.0694 B(  3-P ,  4-S ) :   1.7334
B(  3-P ,  5-O ) :   1.1326 B(  3-P ,  8-S ) :   1.1061 B(  5-O ,  6-C ) :   0.7844
B(  6-C ,  7-C ) :   0.9223 B(  6-C , 24-H ) :   0.9632 B(  6-C , 25-H ) :   0.9611
B(  7-C , 26-H ) :   0.9595 B(  7-C , 27-H ) :   0.9619 B(  7-C , 28-H ) :   0.9717
B(  8-S ,  9-C ) :   0.9161 B(  9-C , 10-S ) :   0.9114 B(  9-C , 29-H ) :   0.9061
B(  9-C , 30-H ) :   0.9067 B( 10-S , 11-P ) :   0.9808 B( 11-P , 12-S ) :   1.8328
B( 11-P , 13-O ) :   1.0470 B( 11-P , 16-O ) :   1.1628 B( 13-O , 14-C ) :   0.7877
B( 14-C , 15-C ) :   0.9545 B( 14-C , 31-H ) :   0.9414 B( 14-C , 32-H ) :   0.9504
B( 15-C , 33-H ) :   0.9633 B( 15-C , 34-H ) :   0.9714 B( 15-C , 35-H ) :   0.9720
B( 16-O , 17-C ) :   0.7306 B( 17-C , 18-C ) :   0.9302 B( 17-C , 36-H ) :   0.9550
B( 17-C , 37-H ) :   0.9697 B( 18-C , 38-H ) :   0.9689 B( 18-C , 39-H ) :   0.9737
B( 18-C , 40-H ) :   0.9660

Dispersion correction           -0.021305286
FINAL SINGLE POINT ENERGY     -2932.465625063234

DIPOLE MOMENT
-------------

Method             : SCF
Type of density    : Electron Density
Multiplicity       :   1
Irrep              :   0
Energy             : -2932.4906916400082082 Eh
Relativity type    :
Basis              : AO
                                X                 Y                 Z
Electronic contribution:      2.689884868       8.062402655     -13.441170945
Nuclear contribution   :     -2.687298869      -8.670252679      14.904388654
                        -----------------------------------------
Total Dipole Moment    :      0.002585999      -0.607850024       1.463217708
                        -----------------------------------------
Magnitude (a.u.)       :      1.584453976
Magnitude (Debye)      :      4.027361947

Rotational constants in cm-1:             0.013130             0.004738             0.004307
Rotational constants in MHz :           393.625368           142.031398           129.120550

                             ****ORCA TERMINATED NORMALLY****
TOTAL RUN TIME: 0 days 0 hours 1 minutes 19 seconds 548 msec
