                         Program Version 6.0.0  -   RELEASE  -
|  1> ! r2scan-3c def2/J RI DEFGRID2 scfconv6 printgap
|  2> %output
|  3>     printlevel normal
|  4> end
|  5> %cpcm
|  6>     smd true
|  7>     smdsolvent "water"
|  8> end
|  9> * xyz 0 1
| 10> C 4.2916981522 -1.0021400463 -2.3335809398
| 11> C 4.4776683605 -1.4456899642 -0.8969126793
| 12> O 3.2239281749 -1.5929910837 -0.2077515534
| 13> P 2.2995937689 -0.3519618469 0.1504037492
| 14> S 3.2505520027 1.2725450668 0.7084020132
| 15> O 1.311411048 -0.9815032573 1.2179129681
| 16> C 1.5798177181 -0.9013816175 2.6354299877
| 17> C 2.7839505008 -1.7307487284 3.0286451412
| 18> S 0.9910691369 -0.1785920741 -1.5021345111
| 19> C 0.3785203535 1.4774321764 -1.0901339329
| 20> S -0.6986034326 1.4887062273 0.3612278832
| 21> P -2.2789447451 0.3452494931 -0.5179990794
| 22> S -2.5734659065 0.6611396124 -2.422783942
| 23> O -3.5018418418 0.6778745759 0.4386169812
| 24> C -4.1414012501 1.9715664935 0.4018000564
| 25> C -5.4708018257 1.8525593098 1.1187142124
| 26> O -1.9850181059 -1.1656891529 -0.1937088649
| 27> C -1.8716588747 -1.680353596 1.1562378777
| 28> C -3.1665602856 -2.3395689934 1.5826219658
| 29> H 5.2498963548 -1.0191395708 -2.8429264826
| 30> H 3.5971155965 -1.6625031617 -2.8471114534
| 31> H 3.8944085606 0.011869383 -2.3626744882
| 32> H 5.0899022335 -0.721989961 -0.3491153817
| 33> H 4.9283405436 -2.4371303001 -0.8361228941
| 34> H 1.7294025521 0.1506421557 2.8983663029
| 35> H 0.664877068 -1.2728443442 3.0984236885
| 36> H 3.6858806671 -1.3062880702 2.5893318548
| 37> H 2.8844644098 -1.7288483783 4.109460055
| 38> H 2.6689754703 -2.7522822991 2.6758548127
| 39> H -0.1823050338 1.8251496764 -1.9575610197
| 40> H 1.2185522952 2.1343425544 -0.863867499
| 41> H -3.4822278573 2.6912850305 0.8945576088
| 42> H -4.2730534286 2.2637167567 -0.6450288338
| 43> H -5.9656567207 2.8180492703 1.1104857024
| 44> H -6.101305276 1.1234325264 0.6176508684
| 45> H -5.3134640994 1.5385885287 2.1464612159
| 46> H -1.0494429715 -2.3971594526 1.1070217273
| 47> H -1.6048030646 -0.8572786713 1.8253452179
| 48> H -3.9676817509 -1.6059299469 1.6133887654
| 49> H -3.4342126074 -3.121604872 0.8775272296
| 50> H -3.0374602403 -2.7736871942 2.5691567743
| 51> *
| 52>
| 53>                          ****END OF INPUT****

CARTESIAN COORDINATES (ANGSTROEM)
---------------------------------
  C      4.291698   -1.002140   -2.333581
  C      4.477668   -1.445690   -0.896913
  O      3.223928   -1.592991   -0.207752
  P      2.299594   -0.351962    0.150404
  S      3.250552    1.272545    0.708402
  O      1.311411   -0.981503    1.217913
  C      1.579818   -0.901382    2.635430
  C      2.783951   -1.730749    3.028645
  S      0.991069   -0.178592   -1.502135
  C      0.378520    1.477432   -1.090134
  S     -0.698603    1.488706    0.361228
  P     -2.278945    0.345249   -0.517999
  S     -2.573466    0.661140   -2.422784
  O     -3.501842    0.677875    0.438617
  C     -4.141401    1.971566    0.401800
  C     -5.470802    1.852559    1.118714
  O     -1.985018   -1.165689   -0.193709
  C     -1.871659   -1.680354    1.156238
  C     -3.166560   -2.339569    1.582622
  H      5.249896   -1.019140   -2.842926
  H      3.597116   -1.662503   -2.847111
  H      3.894409    0.011869   -2.362674
  H      5.089902   -0.721990   -0.349115
  H      4.928341   -2.437130   -0.836123
  H      1.729403    0.150642    2.898366
  H      0.664877   -1.272844    3.098424
  H      3.685881   -1.306288    2.589332
  H      2.884464   -1.728848    4.109460
  H      2.668975   -2.752282    2.675855
  H     -0.182305    1.825150   -1.957561
  H      1.218552    2.134343   -0.863867
  H     -3.482228    2.691285    0.894558
  H     -4.273053    2.263717   -0.645029
  H     -5.965657    2.818049    1.110486
  H     -6.101305    1.123433    0.617651
  H     -5.313464    1.538589    2.146461
  H     -1.049443   -2.397159    1.107022
  H     -1.604803   -0.857279    1.825345
  H     -3.967682   -1.605930    1.613389
  H     -3.434213   -3.121605    0.877527
  H     -3.037460   -2.773687    2.569157

 Total Charge           Charge          ....    0
 Multiplicity           Mult            ....    1
 Number of Electrons    NEL             ....  202
 Basis Dimension        Dim             ....  539

ORBITAL ENERGIES
----------------

  NO   OCC          E(Eh)            E(eV)
   0   2.0000     -88.578833     -2410.3526
   1   2.0000     -88.576754     -2410.2960
   2   2.0000     -88.530414     -2409.0350
   3   2.0000     -88.529071     -2408.9985
   4   2.0000     -76.920146     -2093.1036
   5   2.0000     -76.918700     -2093.0642
   6   2.0000     -18.996838      -516.9302
   7   2.0000     -18.996469      -516.9202
   8   2.0000     -18.996015      -516.9078
   9   2.0000     -18.992008      -516.7988
  10   2.0000     -10.103051      -274.9180
  11   2.0000     -10.092313      -274.6258
  12   2.0000     -10.091273      -274.5975
  13   2.0000     -10.090139      -274.5666
  14   2.0000     -10.088864      -274.5319
  15   2.0000     -10.020104      -272.6609
  16   2.0000     -10.018736      -272.6237
  17   2.0000     -10.018648      -272.6213
  18   2.0000     -10.018602      -272.6200
  19   2.0000      -7.873115      -214.2383
  20   2.0000      -7.870982      -214.1803
  21   2.0000      -7.825604      -212.9455
  22   2.0000      -7.824144      -212.9058
  23   2.0000      -6.598770      -179.5617
  24   2.0000      -6.597431      -179.5252
  25   2.0000      -5.819968      -158.3694
  26   2.0000      -5.817763      -158.3094
  27   2.0000      -5.817031      -158.2895
  28   2.0000      -5.814859      -158.2304
  29   2.0000      -5.810217      -158.1040
  30   2.0000      -5.808211      -158.0495
  31   2.0000      -5.773187      -157.0964
  32   2.0000      -5.771646      -157.0545
  33   2.0000      -5.765785      -156.8950
  34   2.0000      -5.765683      -156.8922
  35   2.0000      -5.764436      -156.8583
  36   2.0000      -5.764222      -156.8525
  37   2.0000      -4.744532      -129.1053
  38   2.0000      -4.743723      -129.0833
  39   2.0000      -4.742757      -129.0570
  40   2.0000      -4.742284      -129.0441
  41   2.0000      -4.742279      -129.0440
  42   2.0000      -4.741396      -129.0199
  43   2.0000      -1.055907       -28.7327
  44   2.0000      -1.052551       -28.6414
  45   2.0000      -1.014254       -27.5992
  46   2.0000      -1.012992       -27.5649
  47   2.0000      -0.803999       -21.8779
  48   2.0000      -0.756343       -20.5811
  49   2.0000      -0.744385       -20.2557
  50   2.0000      -0.727859       -19.8060
  51   2.0000      -0.723666       -19.6920
  52   2.0000      -0.709785       -19.3142
  53   2.0000      -0.688806       -18.7434
  54   2.0000      -0.675281       -18.3753
  55   2.0000      -0.631207       -17.1760
  56   2.0000      -0.616276       -16.7697
  57   2.0000      -0.599407       -16.3107
  58   2.0000      -0.597769       -16.2661
  59   2.0000      -0.592225       -16.1153
  60   2.0000      -0.531923       -14.4743
  61   2.0000      -0.514235       -13.9930
  62   2.0000      -0.498466       -13.5640
  63   2.0000      -0.489847       -13.3294
  64   2.0000      -0.475847       -12.9485
  65   2.0000      -0.460033       -12.5181
  66   2.0000      -0.454236       -12.3604
  67   2.0000      -0.453484       -12.3399
  68   2.0000      -0.442623       -12.0444
  69   2.0000      -0.429619       -11.6905
  70   2.0000      -0.421253       -11.4629
  71   2.0000      -0.408523       -11.1165
  72   2.0000      -0.404391       -11.0040
  73   2.0000      -0.403180       -10.9711
  74   2.0000      -0.391428       -10.6513
  75   2.0000      -0.389744       -10.6055
  76   2.0000      -0.381696       -10.3865
  77   2.0000      -0.368143       -10.0177
  78   2.0000      -0.364940        -9.9305
  79   2.0000      -0.362164        -9.8550
  80   2.0000      -0.356553        -9.7023
  81   2.0000      -0.352460        -9.5909
  82   2.0000      -0.351079        -9.5533
  83   2.0000      -0.347824        -9.4648
  84   2.0000      -0.346536        -9.4297
  85   2.0000      -0.331104        -9.0098
  86   2.0000      -0.321972        -8.7613
  87   2.0000      -0.314983        -8.5711
  88   2.0000      -0.306004        -8.3268
  89   2.0000      -0.304272        -8.2797
  90   2.0000      -0.299276        -8.1437
  91   2.0000      -0.291527        -7.9328
  92   2.0000      -0.283967        -7.7271
  93   2.0000      -0.280005        -7.6193
  94   2.0000      -0.274522        -7.4701
  95   2.0000      -0.251172        -6.8347
  96   2.0000      -0.238468        -6.4891
  97   2.0000      -0.236306        -6.4302
  98   2.0000      -0.227508        -6.1908
  99   2.0000      -0.224022        -6.0959
 100   2.0000      -0.221033        -6.0146
 101   0.0000      -0.051566        -1.4032
 102   0.0000      -0.031183        -0.8485
 103   0.0000      -0.005320        -0.1448
 104   0.0000      -0.002266        -0.0616
 105   0.0000       0.013562         0.3690

MULLIKEN ATOMIC CHARGES
-----------------------
   0 C :   -0.487669
   1 C :   -0.151348
   2 O :   -0.331360
   3 P :    0.726707
   4 S :   -0.533672
   5 O :   -0.288889
   6 C :   -0.152741
   7 C :   -0.482878
   8 S :   -0.129433
   9 C :   -0.248505
  10 S :   -0.184652
  11 P :    0.678438
  12 S :   -0.502505
  13 O :   -0.299198
  14 C :   -0.140601
  15 C :   -0.482080
  16 O :   -0.290815
  17 C :   -0.094550
  18 C :   -0.528437
  19 H :    0.173067
  20 H :    0.169695
  21 H :    0.172624
  22 H :    0.177825
  23 H :    0.175942
  24 H :    0.178030
  25 H :    0.180019
  26 H :    0.168924
  27 H :    0.172431
  28 H :    0.170320
  29 H :    0.234290
  30 H :    0.232324
  31 H :    0.170847
  32 H :    0.172620
  33 H :    0.169720
  34 H :    0.167058
  35 H :    0.166424
  36 H :    0.182712
  37 H :    0.177568
  38 H :    0.170386
  39 H :    0.169414
  40 H :    0.171947
Sum of atomic charges:   -0.0000000

LOEWDIN ATOMIC CHARGES
----------------------
   0 C :   -0.409812
   1 C :    0.025724
   2 O :   -0.672093
   3 P :    0.384817
   4 S :   -0.160677
   5 O :   -0.689439
   6 C :    0.021458
   7 C :   -0.402567
   8 S :    0.167294
   9 C :   -0.420268
  10 S :    0.139022
  11 P :    0.378294
  12 S :   -0.145595
  13 O :   -0.681826
  14 C :    0.024543
  15 C :   -0.389096
  16 O :   -0.668113
  17 C :    0.027323
  18 C :   -0.394066
  19 H :    0.168617
  20 H :    0.163704
  21 H :    0.161666
  22 H :    0.181704
  23 H :    0.191229
  24 H :    0.182295
  25 H :    0.191098
  26 H :    0.162842
  27 H :    0.168816
  28 H :    0.164403
  29 H :    0.196850
  30 H :    0.196966
  31 H :    0.180092
  32 H :    0.181927
  33 H :    0.169307
  34 H :    0.163398
  35 H :    0.163397
  36 H :    0.192695
  37 H :    0.184271
  38 H :    0.165992
  39 H :    0.164439
  40 H :    0.169370

  Mayer bond orders larger than 0.100000
B(  0-C ,  1-C ) :   0.9107 B(  0-C , 19-H ) :   0.9532 B(  0-C , 20-H ) :   0.9658
B(  0-C , 21-H ) :   0.9632 B(  1-C ,  2-O ) :   0.7992 B(  1-C , 22-H ) :   0.9648
B(  1-C , 23-H ) :   0.9482 B(  2-O ,  3-P ) :   1.0784 B(  3-P ,  4-S ) :   1.6978
B(  3-P ,  5-O ) :   1.1439 B(  3-P ,  8-S ) :   1.1069 B(  5-O ,  6-C ) :   0.7719
B(  6-C ,  7-C ) :   0.9088 B(  6-C , 24-H ) :   0.9599 B(  6-C , 25-H ) :   0.9504
B(  7-C , 26-H ) :   0.9592 B(  7-C , 27-H ) :   0.9558 B(  7-C , 28-H ) :   0.9712
B(  8-S ,  9-C ) :   0.9036 B(  9-C , 10-S ) :   0.9010 B(  9-C , 29-H ) :   0.9017
B(  9-C , 30-H ) :   0.9030 B( 10-S , 11-P ) :   0.9950 B( 11-P , 12-S ) :   1.8091
B( 11-P , 13-O ) :   1.0612 B( 11-P , 16-O ) :   1.1684 B( 13-O , 14-C ) :   0.7778
B( 14-C , 15-C ) :   0.9548 B( 14-C , 31-H ) :   0.9323 B( 14-C , 32-H ) :   0.9476
B( 15-C , 33-H ) :   0.9576 B( 15-C , 34-H ) :   0.9691 B( 15-C , 35-H ) :   0.9681
B( 16-O , 17-C ) :   0.7191 B( 17-C , 18-C ) :   0.9266 B( 17-C , 36-H ) :   0.9454
B( 17-C , 37-H ) :   0.9560 B( 18-C , 38-H ) :   0.9682 B( 18-C , 39-H ) :   0.9724
B( 18-C , 40-H ) :   0.9587

Dispersion correction           -0.021305286
FINAL SINGLE POINT ENERGY     -2932.475537678347

DIPOLE MOMENT
-------------

Method             : SCF
Type of density    : Electron Density
Multiplicity       :   1
Irrep              :   0
Energy             : -2932.5006042551212886 Eh
Relativity type    :
Basis              : AO
                                X                 Y                 Z
Electronic contribution:      2.799573793       8.028564927     -12.731965118
Nuclear contribution   :     -2.687298869      -8.670252679      14.904388654
                        -----------------------------------------
Total Dipole Moment    :      0.112274925      -0.641687752       2.172423536
                        -----------------------------------------
Magnitude (a.u.)       :      2.267993133
Magnitude (Debye)      :      5.764780409

Rotational constants in cm-1:             0.013130             0.004738             0.004307
Rotational constants in MHz :           393.625368           142.031398           129.120550

                             ****ORCA TERMINATED NORMALLY****
TOTAL RUN TIME: 0 days 0 hours 1 minutes 49 seconds 803 msec
