                         Program Version 6.0.0  -   RELEASE  -
|  1> ! pbe def2-sv(p) def2/J RI DEFGRID1 loosescf d4 GCP(DFT/SV(P)) printgap
|  2> %output
|  3>     printlevel normal
|  4> end
|  5> * xyz 0 1
|  6> C 3.8041898421 -1.6932830917 -2.6289318556
|  7> C 3.9811592884 -0.2213377809 -2.3186581808
|  8> O 3.486459458 0.1314243865 -1.0127187545
|  9> P 1.9466175064 0.0558610476 -0.6237852788
| 10> S 0.6981844908 0.6202251621 -2.0158398733
| 11> O 1.8947534493 0.9648525129 0.6635257313
| 12> C 2.8161772798 0.8412763176 1.7795889073
| 13> C 2.1015973989 0.2791338923 2.9919981036
| 14> S 1.6893128784 -1.940688185 0.0487555791
| 15> C -0.1180704622 -1.9542762994 0.0286760922
| 16> S -0.8723973317 -1.1486277204 1.4851314541
| 17> P -1.7943553743 0.5930023965 0.7394982234
| 18> S -0.9345746315 2.3509868928 0.6799412736
| 19> O -3.031175778 0.758133018 1.724860093
| 20> C -3.8691226406 -0.2846839141 2.2774658662
| 21> C -4.5946435541 -1.0860454143 1.2164383982
| 22> O -2.3306114851 0.0322603267 -0.6569369236
| 23> C -2.8113261808 0.9079195378 -1.6941408087
| 24> C -2.8457462197 0.1219987472 -2.9878829825
| 25> H 2.7471599202 -1.9259091483 -2.7449183695
| 26> H 4.3181893797 -1.9238793212 -3.5565471645
| 27> H 4.2139635252 -2.3025689065 -1.8273464084
| 28> H 3.4620937201 0.394053677 -3.0597871204
| 29> H 5.0345646024 0.0594246689 -2.2764516422
| 30> H 3.6575953639 0.2134679829 1.479939899
| 31> H 3.1611336366 1.8602854171 1.961859658
| 32> H 1.2089166092 0.8663565155 3.1977258446
| 33> H 1.8093304194 -0.7557519585 2.82881105
| 34> H 2.7664590716 0.3303603812 3.8481832952
| 35> H -0.4160395467 -2.9984238098 0.0649463984
| 36> H -0.4749528517 -1.4618664111 -0.8761249192
| 37> H -3.2467056539 -0.9316771161 2.8997529682
| 38> H -4.5671037396 0.2701589631 2.9070037546
| 39> H -5.1648371926 -0.4256531276 0.5674611947
| 40> H -3.8867494247 -1.6498563148 0.6134729753
| 41> H -5.2740211861 -1.7785880209 1.7036031544
| 42> H -3.805457664 1.2610481672 -1.4066620838
| 43> H -2.1379360071 1.7686680131 -1.7672649003
| 44> H -1.8355364504 -0.162007824 -3.2720052617
| 45> H -3.4517989696 -0.7709401778 -2.8664718138
| 46> H -3.2698275307 0.7455439053 -3.7677049855
| 47> *
| 48>
| 49>                          ****END OF INPUT****

CARTESIAN COORDINATES (ANGSTROEM)
---------------------------------
  C      3.804190   -1.693283   -2.628932
  C      3.981159   -0.221338   -2.318658
  O      3.486459    0.131424   -1.012719
  P      1.946618    0.055861   -0.623785
  S      0.698184    0.620225   -2.015840
  O      1.894753    0.964853    0.663526
  C      2.816177    0.841276    1.779589
  C      2.101597    0.279134    2.991998
  S      1.689313   -1.940688    0.048756
  C     -0.118070   -1.954276    0.028676
  S     -0.872397   -1.148628    1.485131
  P     -1.794355    0.593002    0.739498
  S     -0.934575    2.350987    0.679941
  O     -3.031176    0.758133    1.724860
  C     -3.869123   -0.284684    2.277466
  C     -4.594644   -1.086045    1.216438
  O     -2.330611    0.032260   -0.656937
  C     -2.811326    0.907920   -1.694141
  C     -2.845746    0.121999   -2.987883
  H      2.747160   -1.925909   -2.744918
  H      4.318189   -1.923879   -3.556547
  H      4.213964   -2.302569   -1.827346
  H      3.462094    0.394054   -3.059787
  H      5.034565    0.059425   -2.276452
  H      3.657595    0.213468    1.479940
  H      3.161134    1.860285    1.961860
  H      1.208917    0.866357    3.197726
  H      1.809330   -0.755752    2.828811
  H      2.766459    0.330360    3.848183
  H     -0.416040   -2.998424    0.064946
  H     -0.474953   -1.461866   -0.876125
  H     -3.246706   -0.931677    2.899753
  H     -4.567104    0.270159    2.907004
  H     -5.164837   -0.425653    0.567461
  H     -3.886749   -1.649856    0.613473
  H     -5.274021   -1.778588    1.703603
  H     -3.805458    1.261048   -1.406662
  H     -2.137936    1.768668   -1.767265
  H     -1.835536   -0.162008   -3.272005
  H     -3.451799   -0.770940   -2.866472
  H     -3.269828    0.745544   -3.767705

 Total Charge           Charge          ....    0
 Multiplicity           Mult            ....    1
 Number of Electrons    NEL             ....  202
 Basis Dimension        Dim             ....  334

ORBITAL ENERGIES
----------------

  NO   OCC          E(Eh)            E(eV)
   0   2.0000     -88.045267     -2395.8335
   1   2.0000     -88.042014     -2395.7450
   2   2.0000     -87.986164     -2394.2253
   3   2.0000     -87.963816     -2393.6171
   4   2.0000     -76.425413     -2079.6412
   5   2.0000     -76.414619     -2079.3475
   6   2.0000     -18.794095      -511.4133
   7   2.0000     -18.784000      -511.1386
   8   2.0000     -18.782214      -511.0900
   9   2.0000     -18.780109      -511.0328
  10   2.0000      -9.960360      -271.0352
  11   2.0000      -9.955127      -270.8928
  12   2.0000      -9.951342      -270.7898
  13   2.0000      -9.949456      -270.7385
  14   2.0000      -9.942114      -270.5387
  15   2.0000      -9.886696      -269.0307
  16   2.0000      -9.886343      -269.0211
  17   2.0000      -9.879083      -268.8235
  18   2.0000      -9.874948      -268.7110
  19   2.0000      -7.690439      -209.2675
  20   2.0000      -7.687190      -209.1791
  21   2.0000      -7.631108      -207.6530
  22   2.0000      -7.609163      -207.0559
  23   2.0000      -6.422914      -174.7764
  24   2.0000      -6.412147      -174.4834
  25   2.0000      -5.718143      -155.5986
  26   2.0000      -5.715365      -155.5230
  27   2.0000      -5.714928      -155.5111
  28   2.0000      -5.711265      -155.4114
  29   2.0000      -5.707563      -155.3107
  30   2.0000      -5.704203      -155.2193
  31   2.0000      -5.659971      -154.0156
  32   2.0000      -5.651663      -153.7896
  33   2.0000      -5.651320      -153.7802
  34   2.0000      -5.638449      -153.4300
  35   2.0000      -5.629752      -153.1933
  36   2.0000      -5.628930      -153.1710
  37   2.0000      -4.645760      -126.4176
  38   2.0000      -4.644565      -126.3850
  39   2.0000      -4.643253      -126.3493
  40   2.0000      -4.635139      -126.1285
  41   2.0000      -4.634069      -126.0994
  42   2.0000      -4.632081      -126.0453
  43   2.0000      -0.985635       -26.8205
  44   2.0000      -0.973431       -26.4884
  45   2.0000      -0.940476       -25.5917
  46   2.0000      -0.935476       -25.4556
  47   2.0000      -0.763149       -20.7663
  48   2.0000      -0.718269       -19.5451
  49   2.0000      -0.707881       -19.2624
  50   2.0000      -0.688833       -18.7441
  51   2.0000      -0.686816       -18.6892
  52   2.0000      -0.672651       -18.3038
  53   2.0000      -0.647578       -17.6215
  54   2.0000      -0.628668       -17.1069
  55   2.0000      -0.596854       -16.2412
  56   2.0000      -0.578930       -15.7535
  57   2.0000      -0.572304       -15.5732
  58   2.0000      -0.568901       -15.4806
  59   2.0000      -0.559181       -15.2161
  60   2.0000      -0.499898       -13.6029
  61   2.0000      -0.495182       -13.4746
  62   2.0000      -0.473511       -12.8849
  63   2.0000      -0.470250       -12.7962
  64   2.0000      -0.452844       -12.3225
  65   2.0000      -0.442062       -12.0291
  66   2.0000      -0.440885       -11.9971
  67   2.0000      -0.433372       -11.7926
  68   2.0000      -0.428854       -11.6697
  69   2.0000      -0.420613       -11.4455
  70   2.0000      -0.408688       -11.1210
  71   2.0000      -0.396958       -10.8018
  72   2.0000      -0.387987       -10.5577
  73   2.0000      -0.382211       -10.4005
  74   2.0000      -0.377341       -10.2680
  75   2.0000      -0.368060       -10.0154
  76   2.0000      -0.356584        -9.7031
  77   2.0000      -0.353183        -9.6106
  78   2.0000      -0.350920        -9.5490
  79   2.0000      -0.349399        -9.5076
  80   2.0000      -0.343225        -9.3396
  81   2.0000      -0.341767        -9.3000
  82   2.0000      -0.337722        -9.1899
  83   2.0000      -0.336362        -9.1529
  84   2.0000      -0.325861        -8.8671
  85   2.0000      -0.313596        -8.5334
  86   2.0000      -0.309675        -8.4267
  87   2.0000      -0.303220        -8.2510
  88   2.0000      -0.297327        -8.0907
  89   2.0000      -0.293684        -7.9916
  90   2.0000      -0.270007        -7.3473
  91   2.0000      -0.268193        -7.2979
  92   2.0000      -0.265291        -7.2189
  93   2.0000      -0.260889        -7.0991
  94   2.0000      -0.256106        -6.9690
  95   2.0000      -0.235318        -6.4033
  96   2.0000      -0.220490        -5.9998
  97   2.0000      -0.211737        -5.7617
  98   2.0000      -0.202577        -5.5124
  99   2.0000      -0.182239        -4.9590
 100   2.0000      -0.169900        -4.6232
 101   0.0000      -0.041439        -1.1276
 102   0.0000      -0.025838        -0.7031
 103   0.0000      -0.020867        -0.5678
 104   0.0000       0.002688         0.0731
 105   0.0000       0.016227         0.4416

MULLIKEN ATOMIC CHARGES
-----------------------
   0 C :   -0.318969
   1 C :    0.001021
   2 O :   -0.380708
   3 P :    0.609925
   4 S :   -0.306262
   5 O :   -0.335354
   6 C :   -0.012369
   7 C :   -0.288213
   8 S :   -0.103540
   9 C :   -0.356376
  10 S :   -0.115867
  11 P :    0.617791
  12 S :   -0.293244
  13 O :   -0.373942
  14 C :   -0.012032
  15 C :   -0.311231
  16 O :   -0.393628
  17 C :   -0.011751
  18 C :   -0.291157
  19 H :    0.126146
  20 H :    0.114540
  21 H :    0.117274
  22 H :    0.113886
  23 H :    0.105899
  24 H :    0.101408
  25 H :    0.112635
  26 H :    0.126154
  27 H :    0.119894
  28 H :    0.102386
  29 H :    0.182551
  30 H :    0.214807
  31 H :    0.112680
  32 H :    0.109097
  33 H :    0.117367
  34 H :    0.120836
  35 H :    0.110566
  36 H :    0.098411
  37 H :    0.123095
  38 H :    0.131182
  39 H :    0.106500
  40 H :    0.108590
Sum of atomic charges:   -0.0000000

LOEWDIN ATOMIC CHARGES
----------------------
   0 C :   -0.372023
   1 C :   -0.115503
   2 O :   -0.247035
   3 P :    0.572436
   4 S :   -0.287934
   5 O :   -0.224262
   6 C :   -0.109052
   7 C :   -0.363654
   8 S :    0.073702
   9 C :   -0.476054
  10 S :    0.082114
  11 P :    0.554441
  12 S :   -0.297486
  13 O :   -0.248730
  14 C :   -0.118457
  15 C :   -0.367599
  16 O :   -0.252375
  17 C :   -0.121730
  18 C :   -0.355249
  19 H :    0.120639
  20 H :    0.131931
  21 H :    0.123016
  22 H :    0.113581
  23 H :    0.119233
  24 H :    0.106672
  25 H :    0.123642
  26 H :    0.129240
  27 H :    0.113906
  28 H :    0.125951
  29 H :    0.137937
  30 H :    0.130391
  31 H :    0.106971
  32 H :    0.121389
  33 H :    0.125415
  34 H :    0.120451
  35 H :    0.129712
  36 H :    0.107433
  37 H :    0.111629
  38 H :    0.123965
  39 H :    0.121685
  40 H :    0.129661

  Mayer bond orders larger than 0.100000
B(  0-C ,  1-C ) :   1.1662 B(  0-C , 19-H ) :   0.9343 B(  0-C , 20-H ) :   0.9369
B(  0-C , 21-H ) :   0.9436 B(  1-C ,  2-O ) :   0.9049 B(  1-C , 22-H ) :   0.9184
B(  1-C , 23-H ) :   0.9344 B(  2-O ,  3-P ) :   1.0913 B(  3-P ,  4-S ) :   1.6247
B(  3-P ,  5-O ) :   1.1648 B(  3-P ,  8-S ) :   0.9312 B(  4-S ,  8-S ) :   0.1057
B(  5-O ,  6-C ) :   0.8864 B(  6-C ,  7-C ) :   1.1671 B(  6-C , 24-H ) :   0.9193
B(  6-C , 25-H ) :   0.9335 B(  7-C , 26-H ) :   0.9407 B(  7-C , 27-H ) :   0.9344
B(  7-C , 28-H ) :   0.9372 B(  8-S ,  9-C ) :   1.0153 B(  9-C , 10-S ) :   0.9905
B(  9-C , 29-H ) :   0.9110 B(  9-C , 30-H ) :   0.8561 B( 10-S , 11-P ) :   0.9500
B( 10-S , 12-S ) :   0.1047 B( 11-P , 12-S ) :   1.6856 B( 11-P , 13-O ) :   1.1045
B( 11-P , 16-O ) :   1.0638 B( 13-O , 14-C ) :   0.9138 B( 14-C , 15-C ) :   1.1636
B( 14-C , 31-H ) :   0.9221 B( 14-C , 32-H ) :   0.9349 B( 15-C , 33-H ) :   0.9449
B( 15-C , 34-H ) :   0.9368 B( 15-C , 35-H ) :   0.9373 B( 16-O , 17-C ) :   0.8913
B( 17-C , 18-C ) :   1.1622 B( 17-C , 36-H ) :   0.9295 B( 17-C , 37-H ) :   0.9052
B( 18-C , 38-H ) :   0.9427 B( 18-C , 39-H ) :   0.9500 B( 18-C , 40-H ) :   0.9418

Dispersion correction           -0.068428714
FINAL SINGLE POINT ENERGY     -2929.509216610069

DIPOLE MOMENT
-------------

Method             : SCF
Type of density    : Electron Density
Multiplicity       :   1
Irrep              :   0
Energy             : -2929.6266782929874353 Eh
Relativity type    :
Basis              : AO
                                X                 Y                 Z
Electronic contribution:      5.104446590       7.770281354       5.015582359
Nuclear contribution   :     -4.985612062      -9.290056590      -5.116311590
                        -----------------------------------------
Total Dipole Moment    :      0.118834528      -1.519775236      -0.100729231
                        -----------------------------------------
Magnitude (a.u.)       :      1.527738456
Magnitude (Debye)      :      3.883202553

Rotational constants in cm-1:             0.012166             0.005753             0.005173
Rotational constants in MHz :           364.740862           172.470423           155.075982

                             ****ORCA TERMINATED NORMALLY****
TOTAL RUN TIME: 0 days 0 hours 0 minutes 21 seconds 940 msec
