                         Program Version 6.0.0  -   RELEASE  -
|  1> ! pbe def2-sv(p) def2/J RI DEFGRID1 loosescf d4 GCP(DFT/SV(P)) printgap
|  2> %output
|  3>     printlevel normal
|  4> end
|  5> * xyz 0 1
|  6> C 2.8801895193 -1.4873512505 -2.9222687094
|  7> C 3.2266452553 -0.3936145274 -1.9320080676
|  8> O 2.8656925355 -0.8289565144 -0.6062039726
|  9> P 2.1174918356 0.0372704979 0.4862257354
| 10> S 1.4930001985 1.7971568345 -0.1544654218
| 11> O 3.2593653444 0.1394598403 1.5876816052
| 12> C 3.0461559117 0.2818342399 3.0038410699
| 13> C 2.0747837401 1.3935154021 3.3435267486
| 14> S 0.8202755706 -1.3863627747 1.3595543863
| 15> C -0.0634728349 -2.0253123111 -0.1026452659
| 16> S -0.3359451569 -0.8243136307 -1.4347564877
| 17> P -1.8908543726 0.3147325217 -0.5950240068
| 18> S -2.5426119364 1.8450480351 -1.6277984793
| 19> O -1.2635461769 0.6234852888 0.8256824717
| 20> C -1.9329794574 1.4761317295 1.7789806727
| 21> C -2.6174758922 0.6399550531 2.8402569946
| 22> O -3.0292262673 -0.7394879589 -0.2081142225
| 23> C -4.1023926544 -1.0591086217 -1.1079464405
| 24> C -3.6186747213 -1.8412530293 -2.3123678668
| 25> H 3.2294523667 -1.1933317064 -3.9065193538
| 26> H 3.3636916134 -2.4151687751 -2.6309695729
| 27> H 1.8036142474 -1.6380348882 -2.9575193927
| 28> H 2.6972014246 0.5387946376 -2.1582527005
| 29> H 4.3011196792 -0.1986449938 -1.9145450094
| 30> H 2.6868613173 -0.6766473749 3.3896166616
| 31> H 4.0435485871 0.4888658582 3.3957058791
| 32> H 1.9928797734 1.4885810851 4.4214077521
| 33> H 2.4140968373 2.3366300521 2.9204842333
| 34> H 1.0928904689 1.1638463664 2.9295634239
| 35> H -1.0196604354 -2.3962863339 0.2607035965
| 36> H 0.5300280071 -2.8215778 -0.5461836867
| 37> H -1.1426857389 2.1015848935 2.201243849
| 38> H -2.6420671465 2.1162442905 1.2433955596
| 39> H -1.8946561953 -0.0186464005 3.3148129216
| 40> H -3.0499088911 1.2993925724 3.585869862
| 41> H -3.4037801459 0.0368375444 2.3937544173
| 42> H -4.7951811245 -1.6408980116 -0.4985725925
| 43> H -4.5752188092 -0.1242682416 -1.4247215841
| 44> H -2.9427783301 -1.2246734288 -2.9047914882
| 45> H -3.0941707254 -2.7409162557 -2.0014831577
| 46> H -4.470293841 -2.1159190088 -2.9263102466
| 47> *
| 48>
| 49>                          ****END OF INPUT****

CARTESIAN COORDINATES (ANGSTROEM)
---------------------------------
  C      2.880190   -1.487351   -2.922269
  C      3.226645   -0.393615   -1.932008
  O      2.865693   -0.828957   -0.606204
  P      2.117492    0.037270    0.486226
  S      1.493000    1.797157   -0.154465
  O      3.259365    0.139460    1.587682
  C      3.046156    0.281834    3.003841
  C      2.074784    1.393515    3.343527
  S      0.820276   -1.386363    1.359554
  C     -0.063473   -2.025312   -0.102645
  S     -0.335945   -0.824314   -1.434756
  P     -1.890854    0.314733   -0.595024
  S     -2.542612    1.845048   -1.627798
  O     -1.263546    0.623485    0.825682
  C     -1.932979    1.476132    1.778981
  C     -2.617476    0.639955    2.840257
  O     -3.029226   -0.739488   -0.208114
  C     -4.102393   -1.059109   -1.107946
  C     -3.618675   -1.841253   -2.312368
  H      3.229452   -1.193332   -3.906519
  H      3.363692   -2.415169   -2.630970
  H      1.803614   -1.638035   -2.957519
  H      2.697201    0.538795   -2.158253
  H      4.301120   -0.198645   -1.914545
  H      2.686861   -0.676647    3.389617
  H      4.043549    0.488866    3.395706
  H      1.992880    1.488581    4.421408
  H      2.414097    2.336630    2.920484
  H      1.092890    1.163846    2.929563
  H     -1.019660   -2.396286    0.260704
  H      0.530028   -2.821578   -0.546184
  H     -1.142686    2.101585    2.201244
  H     -2.642067    2.116244    1.243396
  H     -1.894656   -0.018646    3.314813
  H     -3.049909    1.299393    3.585870
  H     -3.403780    0.036838    2.393754
  H     -4.795181   -1.640898   -0.498573
  H     -4.575219   -0.124268   -1.424722
  H     -2.942778   -1.224673   -2.904791
  H     -3.094171   -2.740916   -2.001483
  H     -4.470294   -2.115919   -2.926310

 Total Charge           Charge          ....    0
 Multiplicity           Mult            ....    1
 Number of Electrons    NEL             ....  202
 Basis Dimension        Dim             ....  334

ORBITAL ENERGIES
----------------

  NO   OCC          E(Eh)            E(eV)
   0   2.0000     -88.049071     -2395.9370
   1   2.0000     -88.038138     -2395.6395
   2   2.0000     -87.984930     -2394.1917
   3   2.0000     -87.974156     -2393.8985
   4   2.0000     -76.425525     -2079.6443
   5   2.0000     -76.422858     -2079.5717
   6   2.0000     -18.796461      -511.4777
   7   2.0000     -18.788942      -511.2731
   8   2.0000     -18.786887      -511.2172
   9   2.0000     -18.784767      -511.1595
  10   2.0000      -9.965344      -271.1708
  11   2.0000      -9.955575      -270.9050
  12   2.0000      -9.952856      -270.8310
  13   2.0000      -9.947842      -270.6945
  14   2.0000      -9.946098      -270.6471
  15   2.0000      -9.887486      -269.0522
  16   2.0000      -9.885254      -268.9914
  17   2.0000      -9.884818      -268.9796
  18   2.0000      -9.884068      -268.9592
  19   2.0000      -7.693588      -209.3532
  20   2.0000      -7.683562      -209.0804
  21   2.0000      -7.630141      -207.6267
  22   2.0000      -7.618852      -207.3195
  23   2.0000      -6.423251      -174.7856
  24   2.0000      -6.419464      -174.6825
  25   2.0000      -5.721928      -155.7016
  26   2.0000      -5.717806      -155.5894
  27   2.0000      -5.711717      -155.4237
  28   2.0000      -5.710354      -155.3866
  29   2.0000      -5.708047      -155.3238
  30   2.0000      -5.700161      -155.1093
  31   2.0000      -5.659109      -153.9922
  32   2.0000      -5.650949      -153.7701
  33   2.0000      -5.650064      -153.7461
  34   2.0000      -5.648002      -153.6899
  35   2.0000      -5.639510      -153.4589
  36   2.0000      -5.638839      -153.4406
  37   2.0000      -4.645678      -126.4153
  38   2.0000      -4.645204      -126.4024
  39   2.0000      -4.643647      -126.3600
  40   2.0000      -4.642110      -126.3182
  41   2.0000      -4.641629      -126.3051
  42   2.0000      -4.639594      -126.2498
  43   2.0000      -0.986556       -26.8455
  44   2.0000      -0.980802       -26.6890
  45   2.0000      -0.944085       -25.6899
  46   2.0000      -0.940370       -25.5888
  47   2.0000      -0.766026       -20.8446
  48   2.0000      -0.720382       -19.6026
  49   2.0000      -0.709225       -19.2990
  50   2.0000      -0.688098       -18.7241
  51   2.0000      -0.685508       -18.6536
  52   2.0000      -0.673784       -18.3346
  53   2.0000      -0.650342       -17.6967
  54   2.0000      -0.636349       -17.3159
  55   2.0000      -0.597505       -16.2589
  56   2.0000      -0.588811       -16.0224
  57   2.0000      -0.576675       -15.6921
  58   2.0000      -0.570266       -15.5177
  59   2.0000      -0.562934       -15.3182
  60   2.0000      -0.499801       -13.6003
  61   2.0000      -0.497202       -13.5296
  62   2.0000      -0.473441       -12.8830
  63   2.0000      -0.468179       -12.7398
  64   2.0000      -0.463793       -12.6204
  65   2.0000      -0.443160       -12.0590
  66   2.0000      -0.441324       -12.0090
  67   2.0000      -0.429688       -11.6924
  68   2.0000      -0.426432       -11.6038
  69   2.0000      -0.418148       -11.3784
  70   2.0000      -0.414066       -11.2673
  71   2.0000      -0.401366       -10.9217
  72   2.0000      -0.393553       -10.7091
  73   2.0000      -0.385326       -10.4853
  74   2.0000      -0.381122       -10.3708
  75   2.0000      -0.375755       -10.2248
  76   2.0000      -0.369065       -10.0428
  77   2.0000      -0.356246        -9.6939
  78   2.0000      -0.355729        -9.6799
  79   2.0000      -0.349963        -9.5230
  80   2.0000      -0.347837        -9.4651
  81   2.0000      -0.344376        -9.3709
  82   2.0000      -0.341443        -9.2911
  83   2.0000      -0.336654        -9.1608
  84   2.0000      -0.331772        -9.0280
  85   2.0000      -0.319695        -8.6994
  86   2.0000      -0.313680        -8.5357
  87   2.0000      -0.297192        -8.0870
  88   2.0000      -0.294834        -8.0228
  89   2.0000      -0.287607        -7.8262
  90   2.0000      -0.283775        -7.7219
  91   2.0000      -0.275447        -7.4953
  92   2.0000      -0.271494        -7.3877
  93   2.0000      -0.264221        -7.1898
  94   2.0000      -0.251779        -6.8513
  95   2.0000      -0.234298        -6.3756
  96   2.0000      -0.216279        -5.8853
  97   2.0000      -0.208113        -5.6630
  98   2.0000      -0.200025        -5.4430
  99   2.0000      -0.189266        -5.1502
 100   2.0000      -0.179744        -4.8911
 101   0.0000      -0.051519        -1.4019
 102   0.0000      -0.029127        -0.7926
 103   0.0000      -0.019088        -0.5194
 104   0.0000      -0.005335        -0.1452
 105   0.0000       0.013965         0.3800

MULLIKEN ATOMIC CHARGES
-----------------------
   0 C :   -0.302895
   1 C :   -0.001183
   2 O :   -0.373735
   3 P :    0.601168
   4 S :   -0.311337
   5 O :   -0.366733
   6 C :   -0.006580
   7 C :   -0.338497
   8 S :   -0.125324
   9 C :   -0.314324
  10 S :   -0.089786
  11 P :    0.630812
  12 S :   -0.304437
  13 O :   -0.364020
  14 C :   -0.008919
  15 C :   -0.290826
  16 O :   -0.386639
  17 C :   -0.005466
  18 C :   -0.310424
  19 H :    0.112154
  20 H :    0.112732
  21 H :    0.124299
  22 H :    0.117704
  23 H :    0.103629
  24 H :    0.111295
  25 H :    0.110469
  26 H :    0.109016
  27 H :    0.130343
  28 H :    0.147118
  29 H :    0.182630
  30 H :    0.186431
  31 H :    0.120200
  32 H :    0.102225
  33 H :    0.114687
  34 H :    0.108138
  35 H :    0.112383
  36 H :    0.102210
  37 H :    0.111992
  38 H :    0.126481
  39 H :    0.109609
  40 H :    0.113399
Sum of atomic charges:   -0.0000000

LOEWDIN ATOMIC CHARGES
----------------------
   0 C :   -0.357526
   1 C :   -0.118099
   2 O :   -0.246295
   3 P :    0.562802
   4 S :   -0.309107
   5 O :   -0.248046
   6 C :   -0.114906
   7 C :   -0.372904
   8 S :    0.067672
   9 C :   -0.466207
  10 S :    0.118525
  11 P :    0.570043
  12 S :   -0.307383
  13 O :   -0.237226
  14 C :   -0.115354
  15 C :   -0.358541
  16 O :   -0.253286
  17 C :   -0.123486
  18 C :   -0.367541
  19 H :    0.131722
  20 H :    0.124125
  21 H :    0.115085
  22 H :    0.108959
  23 H :    0.115877
  24 H :    0.106968
  25 H :    0.122334
  26 H :    0.128509
  27 H :    0.131487
  28 H :    0.120329
  29 H :    0.132817
  30 H :    0.136995
  31 H :    0.118542
  32 H :    0.107803
  33 H :    0.123747
  34 H :    0.128286
  35 H :    0.123229
  36 H :    0.116542
  37 H :    0.110270
  38 H :    0.121112
  39 H :    0.120947
  40 H :    0.131179

  Mayer bond orders larger than 0.100000
B(  0-C ,  1-C ) :   1.1598 B(  0-C , 19-H ) :   0.9407 B(  0-C , 20-H ) :   0.9486
B(  0-C , 21-H ) :   0.9411 B(  1-C ,  2-O ) :   0.8992 B(  1-C , 22-H ) :   0.8995
B(  1-C , 23-H ) :   0.9340 B(  2-O ,  3-P ) :   1.1167 B(  3-P ,  4-S ) :   1.6252
B(  3-P ,  5-O ) :   1.1120 B(  3-P ,  8-S ) :   0.9496 B(  4-S ,  8-S ) :   0.1189
B(  5-O ,  6-C ) :   0.9250 B(  6-C ,  7-C ) :   1.1631 B(  6-C , 24-H ) :   0.9236
B(  6-C , 25-H ) :   0.9340 B(  7-C , 26-H ) :   0.9341 B(  7-C , 27-H ) :   0.9399
B(  7-C , 28-H ) :   0.9266 B(  8-S ,  9-C ) :   0.9850 B(  9-C , 10-S ) :   1.0066
B(  9-C , 29-H ) :   0.9006 B(  9-C , 30-H ) :   0.9087 B( 10-S , 11-P ) :   0.9515
B( 11-P , 12-S ) :   1.6661 B( 11-P , 13-O ) :   1.1289 B( 11-P , 16-O ) :   1.0513
B( 13-O , 14-C ) :   0.8948 B( 14-C , 15-C ) :   1.1685 B( 14-C , 31-H ) :   0.9206
B( 14-C , 32-H ) :   0.9074 B( 15-C , 33-H ) :   0.9482 B( 15-C , 34-H ) :   0.9411
B( 15-C , 35-H ) :   0.9435 B( 16-O , 17-C ) :   0.9120 B( 17-C , 18-C ) :   1.1639
B( 17-C , 36-H ) :   0.9336 B( 17-C , 37-H ) :   0.9118 B( 18-C , 38-H ) :   0.9345
B( 18-C , 39-H ) :   0.9470 B( 18-C , 40-H ) :   0.9384

Dispersion correction           -0.068527458
FINAL SINGLE POINT ENERGY     -2929.506354721457

DIPOLE MOMENT
-------------

Method             : SCF
Type of density    : Electron Density
Multiplicity       :   1
Irrep              :   0
Energy             : -2929.6230323173276702 Eh
Relativity type    :
Basis              : AO
                                X                 Y                 Z
Electronic contribution:      4.485390350       6.034053777      -5.174522876
Nuclear contribution   :     -4.732605516      -7.530109655       5.978839990
                        -----------------------------------------
Total Dipole Moment    :     -0.247215166      -1.496055879       0.804317114
                        -----------------------------------------
Magnitude (a.u.)       :      1.716456976
Magnitude (Debye)      :      4.362886909

Rotational constants in cm-1:             0.011057             0.006266             0.005196
Rotational constants in MHz :           331.489212           187.857470           155.775198

                             ****ORCA TERMINATED NORMALLY****
TOTAL RUN TIME: 0 days 0 hours 0 minutes 23 seconds 520 msec
