                         Program Version 6.0.1  -  RELEASE   -
|  1> ! pbe def2-sv(p) def2/J RI DEFGRID1 loosescf d4 GCP(DFT/SV(P)) printgap
|  2> %output
|  3>     printlevel normal
|  4> end
|  5> * xyz 0 1
|  6> C 2.2512662928 -3.9292965781 -0.7273955447
|  7> C 2.7446129871 -3.2411871052 0.5355524612
|  8> O 2.8139967438 -1.8147768302 0.3394894178
|  9> C 1.7389122896 -1.094790288 0.5553639334
| 10> O 0.6859578291 -1.5503600563 0.9639067307
| 11> C 1.9618466184 0.366716993 0.2412080335
| 12> C 0.7054907731 0.9519944125 -0.3833220311
| 13> H 0.3637000648 0.3459604208 -1.2317175882
| 14> C 0.8240670652 2.3970075907 -0.8421349919
| 15> O 0.0414052489 2.8934410279 -1.6206118861
| 16> O 1.8390485016 3.0135427033 -0.2859814171
| 17> C 2.0179605744 4.419235319 -0.5588848967
| 18> C 1.1923914617 5.2602097938 0.4010272857
| 19> S -0.6958570061 0.9782576161 0.8142638947
| 20> P -1.7225341292 -0.7763818511 0.1913181076
| 21> S -1.1250211327 -1.7161663575 -1.4295750491
| 22> O -2.0793704512 -1.6240929689 1.4751609724
| 23> C -1.6025200491 -2.9398238005 1.7689888318
| 24> O -3.2079502088 -0.1912835768 0.019857819
| 25> C -3.5048734028 0.7228849478 -1.0359845761
| 26> H 2.2175988725 -5.0013516763 -0.5651943598
| 27> H 1.2524233696 -3.5797445806 -0.9845782438
| 28> H 2.9167965639 -3.7122666464 -1.5580213089
| 29> H 3.7663396518 -3.5343107515 0.7760421256
| 30> H 2.0778410647 -3.4485197567 1.3768575312
| 31> H 2.8079323894 0.4577411342 -0.4395319875
| 32> H 2.1945279844 0.8968439088 1.1670149477
| 33> H 3.0858460172 4.5876791659 -0.4217236605
| 34> H 1.7269912731 4.6134226745 -1.5946929603
| 35> H 1.382469053 6.3114665766 0.2121099039
| 36> H 0.1331329071 5.0600911002 0.2558562377
| 37> H 1.4564259685 5.02553346 1.4282466048
| 38> H -1.2389948407 -3.4261650053 0.8627616132
| 39> H -2.4517480766 -3.483359744 2.1776153895
| 40> H -0.797846935 -2.8692522224 2.4979833777
| 41> H -2.8974013654 1.6265092876 -0.948292031
| 42> H -4.5591471705 0.9631361956 -0.9284120851
| 43> H -3.3169452798 0.2522820522 -2.0030470872
| 44> *
| 45>
| 46>                          ****END OF INPUT****

CARTESIAN COORDINATES (ANGSTROEM)
---------------------------------
  C      2.251266   -3.929297   -0.727396
  C      2.744613   -3.241187    0.535552
  O      2.813997   -1.814777    0.339489
  C      1.738912   -1.094790    0.555364
  O      0.685958   -1.550360    0.963907
  C      1.961847    0.366717    0.241208
  C      0.705491    0.951994   -0.383322
  H      0.363700    0.345960   -1.231718
  C      0.824067    2.397008   -0.842135
  O      0.041405    2.893441   -1.620612
  O      1.839049    3.013543   -0.285981
  C      2.017961    4.419235   -0.558885
  C      1.192391    5.260210    0.401027
  S     -0.695857    0.978258    0.814264
  P     -1.722534   -0.776382    0.191318
  S     -1.125021   -1.716166   -1.429575
  O     -2.079370   -1.624093    1.475161
  C     -1.602520   -2.939824    1.768989
  O     -3.207950   -0.191284    0.019858
  C     -3.504873    0.722885   -1.035985
  H      2.217599   -5.001352   -0.565194
  H      1.252423   -3.579745   -0.984578
  H      2.916797   -3.712267   -1.558021
  H      3.766340   -3.534311    0.776042
  H      2.077841   -3.448520    1.376858
  H      2.807932    0.457741   -0.439532
  H      2.194528    0.896844    1.167015
  H      3.085846    4.587679   -0.421724
  H      1.726991    4.613423   -1.594693
  H      1.382469    6.311467    0.212110
  H      0.133133    5.060091    0.255856
  H      1.456426    5.025533    1.428247
  H     -1.238995   -3.426165    0.862762
  H     -2.451748   -3.483360    2.177615
  H     -0.797847   -2.869252    2.497983
  H     -2.897401    1.626509   -0.948292
  H     -4.559147    0.963136   -0.928412
  H     -3.316945    0.252282   -2.003047

 Total Charge           Charge          ....    0
 Multiplicity           Mult            ....    1
 Number of Electrons    NEL             ....  174
 Basis Dimension        Dim             ....  316

ORBITAL ENERGIES
----------------

  NO   OCC          E(Eh)            E(eV)
   0   2.0000     -88.034004     -2395.5270
   1   2.0000     -87.979356     -2394.0400
   2   2.0000     -76.419131     -2079.4703
   3   2.0000     -18.814693      -511.9738
   4   2.0000     -18.813873      -511.9515
   5   2.0000     -18.784235      -511.1450
   6   2.0000     -18.771736      -510.8049
   7   2.0000     -18.750271      -510.2208
   8   2.0000     -18.741276      -509.9761
   9   2.0000     -10.020986      -272.6849
  10   2.0000     -10.017984      -272.6032
  11   2.0000      -9.955880      -270.9133
  12   2.0000      -9.954118      -270.8653
  13   2.0000      -9.942358      -270.5453
  14   2.0000      -9.935723      -270.3648
  15   2.0000      -9.925570      -270.0885
  16   2.0000      -9.913272      -269.7539
  17   2.0000      -9.892479      -269.1880
  18   2.0000      -9.886224      -269.0178
  19   2.0000      -7.678401      -208.9399
  20   2.0000      -7.624291      -207.4675
  21   2.0000      -6.415341      -174.5703
  22   2.0000      -5.706517      -155.2822
  23   2.0000      -5.703328      -155.1955
  24   2.0000      -5.694853      -154.9648
  25   2.0000      -5.653185      -153.8310
  26   2.0000      -5.645376      -153.6185
  27   2.0000      -5.643954      -153.5798
  28   2.0000      -4.637657      -126.1971
  29   2.0000      -4.637430      -126.1909
  30   2.0000      -4.635961      -126.1509
  31   2.0000      -1.022660       -27.8280
  32   2.0000      -1.021567       -27.7982
  33   2.0000      -0.974288       -26.5117
  34   2.0000      -0.929131       -25.2829
  35   2.0000      -0.925778       -25.1917
  36   2.0000      -0.921795       -25.0833
  37   2.0000      -0.763078       -20.7644
  38   2.0000      -0.716748       -19.5037
  39   2.0000      -0.709110       -19.2959
  40   2.0000      -0.687941       -18.7198
  41   2.0000      -0.655680       -17.8420
  42   2.0000      -0.628190       -17.0939
  43   2.0000      -0.620313       -16.8796
  44   2.0000      -0.608959       -16.5706
  45   2.0000      -0.599079       -16.3018
  46   2.0000      -0.569796       -15.5049
  47   2.0000      -0.508513       -13.8373
  48   2.0000      -0.506947       -13.7947
  49   2.0000      -0.499644       -13.5960
  50   2.0000      -0.478297       -13.0151
  51   2.0000      -0.462412       -12.5829
  52   2.0000      -0.459425       -12.5016
  53   2.0000      -0.456203       -12.4139
  54   2.0000      -0.438640       -11.9360
  55   2.0000      -0.430269       -11.7082
  56   2.0000      -0.420257       -11.4358
  57   2.0000      -0.416919       -11.3449
  58   2.0000      -0.412739       -11.2312
  59   2.0000      -0.403840       -10.9891
  60   2.0000      -0.399978       -10.8839
  61   2.0000      -0.394323       -10.7301
  62   2.0000      -0.387639       -10.5482
  63   2.0000      -0.381260       -10.3746
  64   2.0000      -0.379779       -10.3343
  65   2.0000      -0.370789       -10.0897
  66   2.0000      -0.366722        -9.9790
  67   2.0000      -0.354789        -9.6543
  68   2.0000      -0.353848        -9.6287
  69   2.0000      -0.339994        -9.2517
  70   2.0000      -0.338573        -9.2130
  71   2.0000      -0.332667        -9.0523
  72   2.0000      -0.329382        -8.9629
  73   2.0000      -0.303973        -8.2715
  74   2.0000      -0.302844        -8.2408
  75   2.0000      -0.296303        -8.0628
  76   2.0000      -0.293748        -7.9933
  77   2.0000      -0.282548        -7.6885
  78   2.0000      -0.271283        -7.3820
  79   2.0000      -0.268273        -7.3001
  80   2.0000      -0.260769        -7.0959
  81   2.0000      -0.249807        -6.7976
  82   2.0000      -0.239681        -6.5221
  83   2.0000      -0.227765        -6.1978
  84   2.0000      -0.206962        -5.6317
  85   2.0000      -0.199777        -5.4362
  86   2.0000      -0.190139        -5.1739
  87   0.0000      -0.048329        -1.3151
  88   0.0000      -0.037221        -1.0128
  89   0.0000      -0.033569        -0.9135
  90   0.0000       0.025463         0.6929
  91   0.0000       0.035468         0.9651

MULLIKEN ATOMIC CHARGES
-----------------------
   0 C :   -0.320024
   1 C :   -0.018485
   2 O :   -0.215926
   3 C :    0.138733
   4 O :   -0.213393
   5 C :   -0.013378
   6 C :   -0.401859
   7 H :    0.157606
   8 C :    0.225786
   9 O :   -0.184844
  10 O :   -0.227593
  11 C :   -0.013547
  12 C :   -0.305610
  13 S :   -0.091397
  14 P :    0.638954
  15 S :   -0.336422
  16 O :   -0.368005
  17 C :   -0.089075
  18 O :   -0.368873
  19 C :   -0.106115
  20 H :    0.111167
  21 H :    0.148368
  22 H :    0.113903
  23 H :    0.105669
  24 H :    0.107718
  25 H :    0.110608
  26 H :    0.122792
  27 H :    0.105653
  28 H :    0.113807
  29 H :    0.116816
  30 H :    0.132736
  31 H :    0.116445
  32 H :    0.119065
  33 H :    0.119193
  34 H :    0.119746
  35 H :    0.118003
  36 H :    0.118908
  37 H :    0.112869
Sum of atomic charges:   -0.0000000

LOEWDIN ATOMIC CHARGES
----------------------
   0 C :   -0.360777
   1 C :   -0.110072
   2 O :   -0.045969
   3 C :    0.046995
   4 O :   -0.170697
   5 C :   -0.253774
   6 C :   -0.265975
   7 H :    0.134925
   8 C :    0.010025
   9 O :   -0.157720
  10 O :   -0.050267
  11 C :   -0.109082
  12 C :   -0.355200
  13 S :    0.110271
  14 P :    0.596157
  15 S :   -0.316659
  16 O :   -0.233707
  17 C :   -0.206267
  18 O :   -0.256913
  19 C :   -0.224374
  20 H :    0.130353
  21 H :    0.129613
  22 H :    0.125682
  23 H :    0.119070
  24 H :    0.118113
  25 H :    0.140135
  26 H :    0.147678
  27 H :    0.119154
  28 H :    0.122960
  29 H :    0.132664
  30 H :    0.133592
  31 H :    0.126150
  32 H :    0.109057
  33 H :    0.117251
  34 H :    0.113415
  35 H :    0.106406
  36 H :    0.119228
  37 H :    0.108560

  Mayer bond orders larger than 0.100000
B(  0-C ,  1-C ) :   1.1752 B(  0-C , 20-H ) :   0.9422 B(  0-C , 21-H ) :   0.9286
B(  0-C , 22-H ) :   0.9478 B(  1-C ,  2-O ) :   0.9049 B(  1-C , 23-H ) :   0.9364
B(  1-C , 24-H ) :   0.9141 B(  2-O ,  3-C ) :   1.2731 B(  3-C ,  4-O ) :   1.9275
B(  3-C ,  5-C ) :   1.0065 B(  5-C ,  6-C ) :   0.9884 B(  5-C , 25-H ) :   0.8998
B(  5-C , 26-H ) :   0.8667 B(  6-C ,  7-H ) :   0.8419 B(  6-C ,  8-C ) :   0.9038
B(  6-C , 13-S ) :   1.0240 B(  7-H , 15-S ) :   0.1074 B(  8-C ,  9-O ) :   2.0656
B(  8-C , 10-O ) :   1.2510 B( 10-O , 11-C ) :   0.9056 B( 11-C , 12-C ) :   1.1775
B( 11-C , 27-H ) :   0.9367 B( 11-C , 28-H ) :   0.9126 B( 12-C , 29-H ) :   0.9436
B( 12-C , 30-H ) :   0.9445 B( 12-C , 31-H ) :   0.9484 B( 13-S , 14-P ) :   0.9244
B( 13-S , 15-S ) :   0.1200 B( 14-P , 15-S ) :   1.5556 B( 14-P , 16-O ) :   1.1509
B( 14-P , 18-O ) :   1.0942 B( 16-O , 17-C ) :   0.9235 B( 17-C , 32-H ) :   0.9357
B( 17-C , 33-H ) :   0.9528 B( 17-C , 34-H ) :   0.9529 B( 18-O , 19-C ) :   0.9424
B( 19-C , 35-H ) :   0.9332 B( 19-C , 36-H ) :   0.9590 B( 19-C , 37-H ) :   0.9403

Dispersion correction           -0.051858817
FINAL SINGLE POINT ENERGY     -1979.016634763432

DIPOLE MOMENT
-------------

Method             : SCF
Type of density    : Electron Density
Multiplicity       :   1
Irrep              :   0
Energy             : -1979.1476193798280292 Eh
Relativity type    :
Basis              : AO
                                X                 Y                 Z
Electronic contribution:     -9.549556431      -1.619853744       0.728443297
Nuclear contribution   :     11.087425083       1.744391230      -0.065548514
                        -----------------------------------------
Total Dipole Moment    :      1.537868652       0.124537485       0.662894783
                        -----------------------------------------
Magnitude (a.u.)       :      1.679279330
Magnitude (Debye)      :      4.268388843

Rotational constants in cm-1:             0.011857             0.007614             0.005468
Rotational constants in MHz :           355.448991           228.269162           163.923986

                             ****ORCA TERMINATED NORMALLY****
TOTAL RUN TIME: 0 days 0 hours 0 minutes 28 seconds 800 msec
