                         Program Version 6.0.0  -   RELEASE  -
|  1> ! pbe def2-sv(p) def2/J RI DEFGRID1 loosescf d4 GCP(DFT/SV(P)) printgap
|  2> %output
|  3>     printlevel normal
|  4> end
|  5> * xyz 0 1
|  6> C 0.843670711 1.4108858505 -0.6209377606
|  7> C 1.5875685299 0.1874304906 -0.0649435779
|  8> H 2.559328659 0.0954454723 -0.5711039603
|  9> C 0.7806714353 -1.1023197498 -0.3336632815
| 10> H 1.2171073728 -1.9040323187 0.2739754568
| 11> C -0.6796036034 -0.9082504323 0.1180815943
| 12> H -1.2883415733 -1.7450046295 -0.2423780443
| 13> C -1.2755285441 0.4038617123 -0.4469518723
| 14> H -1.3589504954 0.3532341278 -1.5457578302
| 15> O -0.4625580783 1.5097267245 -0.0914419818
| 16> O -2.5453430608 0.6215743745 0.0363358356
| 17> O -0.7983779757 -0.9021378134 1.518945148
| 18> O 0.8927213639 -1.5410695653 -1.660629273
| 19> O 1.7543125586 0.272465876 1.3324392574
| 20> H 0.8057241698 1.3574482309 -1.7175915375
| 21> H 1.3396287101 2.3365025058 -0.3256485749
| 22> H -2.5416270257 0.4524669028 0.9959867974
| 23> H -0.0679125012 -0.3709166546 1.8848203868
| 24> H 0.4877603944 -0.9076793077 -2.268735902
| 25> H 2.272285388 1.0586202536 1.5580136729
| 26> *
| 27>
| 28>                          ****END OF INPUT****

CARTESIAN COORDINATES (ANGSTROEM)
---------------------------------
  C      0.843671    1.410886   -0.620938
  C      1.587569    0.187430   -0.064944
  H      2.559329    0.095445   -0.571104
  C      0.780671   -1.102320   -0.333663
  H      1.217107   -1.904032    0.273975
  C     -0.679604   -0.908250    0.118082
  H     -1.288342   -1.745005   -0.242378
  C     -1.275529    0.403862   -0.446952
  H     -1.358950    0.353234   -1.545758
  O     -0.462558    1.509727   -0.091442
  O     -2.545343    0.621574    0.036336
  O     -0.798378   -0.902138    1.518945
  O      0.892721   -1.541070   -1.660629
  O      1.754313    0.272466    1.332439
  H      0.805724    1.357448   -1.717592
  H      1.339629    2.336503   -0.325649
  H     -2.541627    0.452467    0.995987
  H     -0.067913   -0.370917    1.884820
  H      0.487760   -0.907679   -2.268736
  H      2.272285    1.058620    1.558014

 Total Charge           Charge          ....    0
 Multiplicity           Mult            ....    1
 Number of Electrons    NEL             ....   80
 Basis Dimension        Dim             ....  160

ORBITAL ENERGIES
----------------

  NO   OCC          E(Eh)            E(eV)
   0   2.0000     -18.784451      -511.1509
   1   2.0000     -18.766899      -510.6733
   2   2.0000     -18.766317      -510.6575
   3   2.0000     -18.752123      -510.2712
   4   2.0000     -18.751815      -510.2628
   5   2.0000      -9.984082      -271.6807
   6   2.0000      -9.958279      -270.9786
   7   2.0000      -9.951848      -270.8036
   8   2.0000      -9.950826      -270.7757
   9   2.0000      -9.939247      -270.4607
  10   2.0000      -0.983470       -26.7616
  11   2.0000      -0.957209       -26.0470
  12   2.0000      -0.942705       -25.6523
  13   2.0000      -0.925390       -25.1811
  14   2.0000      -0.910133       -24.7660
  15   2.0000      -0.703726       -19.1494
  16   2.0000      -0.676124       -18.3983
  17   2.0000      -0.606162       -16.4945
  18   2.0000      -0.587326       -15.9820
  19   2.0000      -0.540570       -14.7097
  20   2.0000      -0.504961       -13.7407
  21   2.0000      -0.500416       -13.6170
  22   2.0000      -0.460382       -12.5276
  23   2.0000      -0.448480       -12.2038
  24   2.0000      -0.441928       -12.0255
  25   2.0000      -0.430735       -11.7209
  26   2.0000      -0.416657       -11.3378
  27   2.0000      -0.390429       -10.6241
  28   2.0000      -0.372528       -10.1370
  29   2.0000      -0.361948        -9.8491
  30   2.0000      -0.340998        -9.2790
  31   2.0000      -0.308574        -8.3967
  32   2.0000      -0.299459        -8.1487
  33   2.0000      -0.288955        -7.8629
  34   2.0000      -0.286330        -7.7914
  35   2.0000      -0.258548        -7.0354
  36   2.0000      -0.250712        -6.8222
  37   2.0000      -0.241456        -6.5704
  38   2.0000      -0.225083        -6.1248
  39   2.0000      -0.204484        -5.5643
  40   0.0000       0.001283         0.0349
  41   0.0000       0.003859         0.1050
  42   0.0000       0.046917         1.2767
  43   0.0000       0.062817         1.7093
  44   0.0000       0.075383         2.0513

MULLIKEN ATOMIC CHARGES
-----------------------
   0 C :    0.033488
   1 C :    0.013981
   2 H :    0.077582
   3 C :    0.040628
   4 H :    0.092771
   5 C :    0.043389
   6 H :    0.083739
   7 C :    0.153782
   8 H :    0.035454
   9 O :   -0.297090
  10 O :   -0.374493
  11 O :   -0.440091
  12 O :   -0.409980
  13 O :   -0.424308
  14 H :    0.058478
  15 H :    0.091744
  16 H :    0.303919
  17 H :    0.306896
  18 H :    0.298839
  19 H :    0.311272
Sum of atomic charges:   -0.0000000

LOEWDIN ATOMIC CHARGES
----------------------
   0 C :   -0.128850
   1 C :   -0.090471
   2 H :    0.107889
   3 C :   -0.070995
   4 H :    0.123616
   5 C :   -0.094634
   6 H :    0.120159
   7 C :   -0.010804
   8 H :    0.084627
   9 O :   -0.166285
  10 O :   -0.286189
  11 O :   -0.317332
  12 O :   -0.303665
  13 O :   -0.309944
  14 H :    0.097462
  15 H :    0.115928
  16 H :    0.283115
  17 H :    0.274872
  18 H :    0.278079
  19 H :    0.293421

  Mayer bond orders larger than 0.100000
B(  0-C ,  1-C ) :   1.0358 B(  0-C ,  9-O ) :   1.0433 B(  0-C , 14-H ) :   0.8893
B(  0-C , 15-H ) :   0.9214 B(  1-C ,  2-H ) :   0.8960 B(  1-C ,  3-C ) :   0.9865
B(  1-C , 13-O ) :   1.0055 B(  3-C ,  4-H ) :   0.8970 B(  3-C ,  5-C ) :   0.9898
B(  3-C , 12-O ) :   1.0569 B(  5-C ,  6-H ) :   0.8920 B(  5-C ,  7-C ) :   0.9584
B(  5-C , 11-O ) :   1.0317 B(  7-C ,  8-H ) :   0.8875 B(  7-C ,  9-O ) :   0.9872
B(  7-C , 10-O ) :   1.1983 B( 10-O , 16-H ) :   0.8193 B( 11-O , 17-H ) :   0.8067
B( 12-O , 18-H ) :   0.8403 B( 13-O , 19-H ) :   0.8400

Dispersion correction           -0.019863367
FINAL SINGLE POINT ENERGY      -571.418149495572

DIPOLE MOMENT
-------------

Method             : SCF
Type of density    : Electron Density
Multiplicity       :   1
Irrep              :   0
Energy             :  -571.5278376495863313 Eh
Relativity type    :
Basis              : AO
                                X                 Y                 Z
Electronic contribution:     -2.027134286       0.022871847       1.663738304
Nuclear contribution   :      3.196061933       0.680606569      -1.820506625
                        -----------------------------------------
Total Dipole Moment    :      1.168927647       0.703478417      -0.156768320
                        -----------------------------------------
Magnitude (a.u.)       :      1.373262550
Magnitude (Debye)      :      3.490556004

Rotational constants in cm-1:             0.057823             0.040671             0.037959
Rotational constants in MHz :          1733.489967          1219.275570          1137.987499

                             ****ORCA TERMINATED NORMALLY****
TOTAL RUN TIME: 0 days 0 hours 0 minutes 11 seconds 615 msec
