                         Program Version 6.0.0  -   RELEASE  -
|  1> ! pbe def2-sv(p) def2/J RI DEFGRID1 loosescf d4 GCP(DFT/SV(P)) printgap
|  2> %output
|  3>     printlevel normal
|  4> end
|  5> * xyz 0 1
|  6> C 5.514848062 -0.7928976102 -0.7690901559
|  7> C 4.2309794604 -1.5697820411 -0.9752247832
|  8> O 3.2006738966 -0.7298468501 -1.5538954154
|  9> P 2.1210554102 0.0531184952 -0.7143384511
| 10> S 0.9409802119 1.043070589 -1.9197309996
| 11> O 3.0085253555 0.8929567045 0.294746082
| 12> C 2.4909560774 1.9116541921 1.1707883185
| 13> C 3.6620404801 2.7476235716 1.6437179298
| 14> S 1.2116142943 -1.4316824369 0.5151266577
| 15> C -0.1592868764 -1.8786261293 -0.6012560094
| 16> S -1.7649293834 -1.9132309751 0.2281255279
| 17> P -2.126181759 0.1823393166 0.3935820646
| 18> S -0.8617476489 1.2792785716 1.4020386266
| 19> O -3.616381729 0.2187348535 0.9451553397
| 20> C -3.9187144837 0.2058365448 2.3524477074
| 21> C -3.5015050992 -1.0896401496 3.0169532402
| 22> O -2.2676964134 0.6830774105 -1.0923928083
| 23> C -3.1675135955 0.1191791854 -2.0772699177
| 24> C -4.485302511 0.865484633 -2.0975380605
| 25> H 6.2846287339 -1.4701376455 -0.4124120065
| 26> H 5.8344560198 -0.3474735752 -1.707212135
| 27> H 5.365670947 -0.0021919642 -0.0391041857
| 28> H 3.8606967182 -1.9839107035 -0.0329447196
| 29> H 4.3637547761 -2.369757364 -1.7056938419
| 30> H 1.7593490402 2.5129392224 0.6218085495
| 31> H 1.9773493154 1.4268371229 2.0051908029
| 32> H 3.2943680718 3.5232760896 2.3070929423
| 33> H 4.372067587 2.1236973014 2.178701865
| 34> H 4.1599935835 3.207070502 0.7943077461
| 35> H 0.0072610713 -2.8883907311 -0.9665662828
| 36> H -0.1796094608 -1.1518000414 -1.418343911
| 37> H -3.4150426354 1.0576655473 2.8195743612
| 38> H -4.9996822942 0.3480827195 2.3867814401
| 39> H -2.4151626132 -1.1698943371 3.0248639193
| 40> H -3.8609424774 -1.0989969648 4.0408896211
| 41> H -3.9123110313 -1.9413225135 2.4803611074
| 42> H -2.629931744 0.2314176424 -3.021353628
| 43> H -3.3184565574 -0.9412003442 -1.855556879
| 44> H -4.3092570506 1.9247684031 -2.2646573941
| 45> H -5.1006427762 0.4728614074 -2.901065589
| 46> H -5.004639457 0.7396427761 -1.1513194857
| 47> *
| 48>
| 49>                          ****END OF INPUT****

CARTESIAN COORDINATES (ANGSTROEM)
---------------------------------
  C      5.514848   -0.792898   -0.769090
  C      4.230979   -1.569782   -0.975225
  O      3.200674   -0.729847   -1.553895
  P      2.121055    0.053118   -0.714338
  S      0.940980    1.043071   -1.919731
  O      3.008525    0.892957    0.294746
  C      2.490956    1.911654    1.170788
  C      3.662040    2.747624    1.643718
  S      1.211614   -1.431682    0.515127
  C     -0.159287   -1.878626   -0.601256
  S     -1.764929   -1.913231    0.228126
  P     -2.126182    0.182339    0.393582
  S     -0.861748    1.279279    1.402039
  O     -3.616382    0.218735    0.945155
  C     -3.918714    0.205837    2.352448
  C     -3.501505   -1.089640    3.016953
  O     -2.267696    0.683077   -1.092393
  C     -3.167514    0.119179   -2.077270
  C     -4.485303    0.865485   -2.097538
  H      6.284629   -1.470138   -0.412412
  H      5.834456   -0.347474   -1.707212
  H      5.365671   -0.002192   -0.039104
  H      3.860697   -1.983911   -0.032945
  H      4.363755   -2.369757   -1.705694
  H      1.759349    2.512939    0.621809
  H      1.977349    1.426837    2.005191
  H      3.294368    3.523276    2.307093
  H      4.372068    2.123697    2.178702
  H      4.159994    3.207071    0.794308
  H      0.007261   -2.888391   -0.966566
  H     -0.179609   -1.151800   -1.418344
  H     -3.415043    1.057666    2.819574
  H     -4.999682    0.348083    2.386781
  H     -2.415163   -1.169894    3.024864
  H     -3.860942   -1.098997    4.040890
  H     -3.912311   -1.941323    2.480361
  H     -2.629932    0.231418   -3.021354
  H     -3.318457   -0.941200   -1.855557
  H     -4.309257    1.924768   -2.264657
  H     -5.100643    0.472861   -2.901066
  H     -5.004639    0.739643   -1.151319

 Total Charge           Charge          ....    0
 Multiplicity           Mult            ....    1
 Number of Electrons    NEL             ....  202
 Basis Dimension        Dim             ....  334

ORBITAL ENERGIES
----------------

  NO   OCC          E(Eh)            E(eV)
   0   2.0000     -88.042965     -2395.7709
   1   2.0000     -88.034757     -2395.5475
   2   2.0000     -87.977828     -2393.9984
   3   2.0000     -87.976444     -2393.9608
   4   2.0000     -76.422874     -2079.5721
   5   2.0000     -76.418640     -2079.4569
   6   2.0000     -18.792145      -511.3603
   7   2.0000     -18.790648      -511.3195
   8   2.0000     -18.787238      -511.2267
   9   2.0000     -18.783294      -511.1194
  10   2.0000      -9.953527      -270.8492
  11   2.0000      -9.952836      -270.8304
  12   2.0000      -9.951722      -270.8001
  13   2.0000      -9.951201      -270.7859
  14   2.0000      -9.944803      -270.6119
  15   2.0000      -9.884640      -268.9747
  16   2.0000      -9.883498      -268.9437
  17   2.0000      -9.883116      -268.9333
  18   2.0000      -9.882656      -268.9207
  19   2.0000      -7.687817      -209.1961
  20   2.0000      -7.679790      -208.9777
  21   2.0000      -7.623002      -207.4324
  22   2.0000      -7.621705      -207.3971
  23   2.0000      -6.420257      -174.7041
  24   2.0000      -6.416402      -174.5992
  25   2.0000      -5.715501      -155.5267
  26   2.0000      -5.712258      -155.4384
  27   2.0000      -5.707624      -155.3123
  28   2.0000      -5.705075      -155.2430
  29   2.0000      -5.704409      -155.2249
  30   2.0000      -5.696711      -155.0154
  31   2.0000      -5.651986      -153.7984
  32   2.0000      -5.650763      -153.7651
  33   2.0000      -5.643424      -153.5654
  34   2.0000      -5.643224      -153.5599
  35   2.0000      -5.642543      -153.5414
  36   2.0000      -5.641456      -153.5118
  37   2.0000      -4.643280      -126.3501
  38   2.0000      -4.642087      -126.3176
  39   2.0000      -4.640279      -126.2684
  40   2.0000      -4.639243      -126.2402
  41   2.0000      -4.638130      -126.2099
  42   2.0000      -4.636593      -126.1681
  43   2.0000      -0.985555       -26.8183
  44   2.0000      -0.983130       -26.7523
  45   2.0000      -0.943707       -25.6796
  46   2.0000      -0.940055       -25.5802
  47   2.0000      -0.758391       -20.6369
  48   2.0000      -0.718188       -19.5429
  49   2.0000      -0.708939       -19.2912
  50   2.0000      -0.689098       -18.7513
  51   2.0000      -0.688100       -18.7242
  52   2.0000      -0.671828       -18.2814
  53   2.0000      -0.646402       -17.5895
  54   2.0000      -0.631368       -17.1804
  55   2.0000      -0.593114       -16.1395
  56   2.0000      -0.583690       -15.8830
  57   2.0000      -0.573995       -15.6192
  58   2.0000      -0.566366       -15.4116
  59   2.0000      -0.558080       -15.1861
  60   2.0000      -0.504936       -13.7400
  61   2.0000      -0.496679       -13.5153
  62   2.0000      -0.477156       -12.9841
  63   2.0000      -0.473053       -12.8724
  64   2.0000      -0.448994       -12.2177
  65   2.0000      -0.443924       -12.0798
  66   2.0000      -0.440645       -11.9906
  67   2.0000      -0.433573       -11.7981
  68   2.0000      -0.426972       -11.6185
  69   2.0000      -0.421457       -11.4684
  70   2.0000      -0.411493       -11.1973
  71   2.0000      -0.390332       -10.6215
  72   2.0000      -0.386533       -10.5181
  73   2.0000      -0.383542       -10.4367
  74   2.0000      -0.378514       -10.2999
  75   2.0000      -0.364286        -9.9127
  76   2.0000      -0.359807        -9.7909
  77   2.0000      -0.356675        -9.7056
  78   2.0000      -0.352090        -9.5808
  79   2.0000      -0.350488        -9.5373
  80   2.0000      -0.348428        -9.4812
  81   2.0000      -0.344903        -9.3853
  82   2.0000      -0.340974        -9.2784
  83   2.0000      -0.338628        -9.2145
  84   2.0000      -0.332876        -9.0580
  85   2.0000      -0.314396        -8.5552
  86   2.0000      -0.310177        -8.4403
  87   2.0000      -0.294574        -8.0158
  88   2.0000      -0.293420        -7.9844
  89   2.0000      -0.287956        -7.8357
  90   2.0000      -0.285606        -7.7717
  91   2.0000      -0.268955        -7.3186
  92   2.0000      -0.267148        -7.2695
  93   2.0000      -0.260042        -7.0761
  94   2.0000      -0.255232        -6.9452
  95   2.0000      -0.240627        -6.5478
  96   2.0000      -0.221134        -6.0174
  97   2.0000      -0.201186        -5.4745
  98   2.0000      -0.197645        -5.3782
  99   2.0000      -0.186152        -5.0655
 100   2.0000      -0.182588        -4.9685
 101   0.0000      -0.036415        -0.9909
 102   0.0000      -0.026427        -0.7191
 103   0.0000      -0.010727        -0.2919
 104   0.0000       0.004786         0.1302
 105   0.0000       0.028877         0.7858

MULLIKEN ATOMIC CHARGES
-----------------------
   0 C :   -0.293896
   1 C :   -0.011055
   2 O :   -0.356900
   3 P :    0.604087
   4 S :   -0.297791
   5 O :   -0.385200
   6 C :   -0.030069
   7 C :   -0.277935
   8 S :   -0.098900
   9 C :   -0.348147
  10 S :   -0.109768
  11 P :    0.613359
  12 S :   -0.314747
  13 O :   -0.381654
  14 C :    0.001738
  15 C :   -0.327890
  16 O :   -0.345303
  17 C :   -0.015901
  18 C :   -0.289540
  19 H :    0.107221
  20 H :    0.118899
  21 H :    0.124981
  22 H :    0.099003
  23 H :    0.105873
  24 H :    0.123756
  25 H :    0.119501
  26 H :    0.114282
  27 H :    0.113001
  28 H :    0.118663
  29 H :    0.181088
  30 H :    0.191921
  31 H :    0.113033
  32 H :    0.104145
  33 H :    0.133833
  34 H :    0.115182
  35 H :    0.119103
  36 H :    0.112904
  37 H :    0.098613
  38 H :    0.121719
  39 H :    0.107898
  40 H :    0.120895
Sum of atomic charges:   -0.0000000

LOEWDIN ATOMIC CHARGES
----------------------
   0 C :   -0.361086
   1 C :   -0.116690
   2 O :   -0.241054
   3 P :    0.567266
   4 S :   -0.297338
   5 O :   -0.243135
   6 C :   -0.120251
   7 C :   -0.351586
   8 S :    0.060623
   9 C :   -0.482555
  10 S :    0.075567
  11 P :    0.571728
  12 S :   -0.304441
  13 O :   -0.247820
  14 C :   -0.117806
  15 C :   -0.373674
  16 O :   -0.225371
  17 C :   -0.116826
  18 C :   -0.359769
  19 H :    0.128181
  20 H :    0.128482
  21 H :    0.125772
  22 H :    0.101189
  23 H :    0.119387
  24 H :    0.113570
  25 H :    0.110860
  26 H :    0.132177
  27 H :    0.123653
  28 H :    0.127688
  29 H :    0.135402
  30 H :    0.121047
  31 H :    0.112939
  32 H :    0.117978
  33 H :    0.123630
  34 H :    0.132398
  35 H :    0.122952
  36 H :    0.121909
  37 H :    0.101286
  38 H :    0.129543
  39 H :    0.128839
  40 H :    0.125335

  Mayer bond orders larger than 0.100000
B(  0-C ,  1-C ) :   1.1627 B(  0-C , 19-H ) :   0.9396 B(  0-C , 20-H ) :   0.9469
B(  0-C , 21-H ) :   0.9407 B(  1-C ,  2-O ) :   0.9017 B(  1-C , 22-H ) :   0.9098
B(  1-C , 23-H ) :   0.9371 B(  2-O ,  3-P ) :   1.1298 B(  3-P ,  4-S ) :   1.6484
B(  3-P ,  5-O ) :   1.0975 B(  3-P ,  8-S ) :   0.9501 B(  4-S ,  8-S ) :   0.1150
B(  4-S , 30-H ) :   0.1127 B(  5-O ,  6-C ) :   0.8974 B(  6-C ,  7-C ) :   1.1520
B(  6-C , 24-H ) :   0.9149 B(  6-C , 25-H ) :   0.9265 B(  7-C , 26-H ) :   0.9424
B(  7-C , 27-H ) :   0.9496 B(  7-C , 28-H ) :   0.9499 B(  8-S ,  9-C ) :   0.9944
B(  9-C , 10-S ) :   0.9965 B(  9-C , 29-H ) :   0.9119 B(  9-C , 30-H ) :   0.8507
B( 10-S , 11-P ) :   0.9459 B( 10-S , 12-S ) :   0.1127 B( 11-P , 12-S ) :   1.6564
B( 11-P , 13-O ) :   1.0788 B( 11-P , 16-O ) :   1.1420 B( 13-O , 14-C ) :   0.9051
B( 14-C , 15-C ) :   1.1654 B( 14-C , 31-H ) :   0.9166 B( 14-C , 32-H ) :   0.9334
B( 15-C , 33-H ) :   0.9323 B( 15-C , 34-H ) :   0.9370 B( 15-C , 35-H ) :   0.9425
B( 16-O , 17-C ) :   0.8966 B( 17-C , 18-C ) :   1.1670 B( 17-C , 36-H ) :   0.9326
B( 17-C , 37-H ) :   0.9081 B( 18-C , 38-H ) :   0.9474 B( 18-C , 39-H ) :   0.9396
B( 18-C , 40-H ) :   0.9416

Dispersion correction           -0.064983248
FINAL SINGLE POINT ENERGY     -2929.513820563900

DIPOLE MOMENT
-------------

Method             : SCF
Type of density    : Electron Density
Multiplicity       :   1
Irrep              :   0
Energy             : -2929.6334583970024141 Eh
Relativity type    :
Basis              : AO
                                X                 Y                 Z
Electronic contribution:     -2.242363349      -2.798397561      -4.664037782
Nuclear contribution   :      2.025100323       1.901953025       5.122105016
                        -----------------------------------------
Total Dipole Moment    :     -0.217263026      -0.896444536       0.458067234
                        -----------------------------------------
Magnitude (a.u.)       :      1.029874565
Magnitude (Debye)      :      2.617733110

Rotational constants in cm-1:             0.012890             0.004731             0.004552
Rotational constants in MHz :           386.433632           141.829684           136.458942

                             ****ORCA TERMINATED NORMALLY****
TOTAL RUN TIME: 0 days 0 hours 0 minutes 20 seconds 571 msec
