                         Program Version 6.0.0  -   RELEASE  -
|  1> ! pbe def2-sv(p) def2/J RI DEFGRID1 loosescf d4 GCP(DFT/SV(P)) printgap
|  2> %output
|  3>     printlevel normal
|  4> end
|  5> * xyz 0 1
|  6> C 2.704542178 -1.8888822229 2.5101306877
|  7> C 1.745231916 -0.7181771111 2.5394669887
|  8> O 1.1860756909 -0.4362280951 1.2372766096
|  9> P 2.0337662666 -0.0754096312 -0.0461940531
| 10> S 2.8287867214 -1.5432943756 -1.084009321
| 11> O 3.0666818008 0.9862341749 0.523629255
| 12> C 4.1885289458 1.4606111847 -0.2486314979
| 13> C 5.2854930597 1.8663577589 0.7151668455
| 14> S 0.6518648752 1.0994076873 -1.146946259
| 15> C -0.1658395814 -0.280568717 -1.9826552189
| 16> S -0.9781551818 -1.4027453235 -0.8179739221
| 17> P -2.3878045117 0.0056927305 -0.0832905781
| 18> S -3.0940139156 1.2743028154 -1.4067408769
| 19> O -1.7191249926 0.6865123 1.1805721819
| 20> C -1.666960025 2.1131246421 1.4042529536
| 21> C -0.3969325531 2.4515306216 2.1573704472
| 22> O -3.4253531591 -0.9133540163 0.6872366063
| 23> C -4.0442570348 -2.1016598806 0.1604650521
| 24> C -4.7505123494 -1.8622188113 -1.1581848221
| 25> H 2.2155462316 -2.7693384223 2.0990493497
| 26> H 3.5653290878 -1.6521760485 1.8855308978
| 27> H 3.0450077702 -2.1034309607 3.5183066289
| 28> H 2.23913207 0.1856095498 2.9025818226
| 29> H 0.8652780348 -0.9349120134 3.147661777
| 30> H 4.5173799134 0.6576196919 -0.9169864538
| 31> H 3.8476947746 2.3088080995 -0.8469123622
| 32> H 5.616863908 1.0077778881 1.2927182654
| 33> H 6.1241842156 2.2603846889 0.1507606317
| 34> H 4.9193812768 2.6303408105 1.3948267624
| 35> H 0.5717803923 -0.8717658612 -2.5250787343
| 36> H -0.9060512746 0.155505833 -2.6534065368
| 37> H -1.7107433 2.6285577042 0.4387545619
| 38> H -2.5515193647 2.377860035 1.9884824267
| 39> H -0.3549606201 1.8888021739 3.0853806968
| 40> H 0.4775389879 2.2123606732 1.5572235675
| 41> H -0.3944505334 3.514130598 2.3775971867
| 42> H -3.2736869491 -2.8705366585 0.0535178421
| 43> H -4.7480876643 -2.3903364965 0.9432797812
| 44> H -4.0276323628 -1.6051544618 -1.9311681596
| 45> H -5.2777031098 -2.7637942934 -1.4531363782
| 46> H -5.4602365095 -1.0436299154 -1.0644825293
| 47> *
| 48>
| 49>                          ****END OF INPUT****

CARTESIAN COORDINATES (ANGSTROEM)
---------------------------------
  C      2.704542   -1.888882    2.510131
  C      1.745232   -0.718177    2.539467
  O      1.186076   -0.436228    1.237277
  P      2.033766   -0.075410   -0.046194
  S      2.828787   -1.543294   -1.084009
  O      3.066682    0.986234    0.523629
  C      4.188529    1.460611   -0.248631
  C      5.285493    1.866358    0.715167
  S      0.651865    1.099408   -1.146946
  C     -0.165840   -0.280569   -1.982655
  S     -0.978155   -1.402745   -0.817974
  P     -2.387805    0.005693   -0.083291
  S     -3.094014    1.274303   -1.406741
  O     -1.719125    0.686512    1.180572
  C     -1.666960    2.113125    1.404253
  C     -0.396933    2.451531    2.157370
  O     -3.425353   -0.913354    0.687237
  C     -4.044257   -2.101660    0.160465
  C     -4.750512   -1.862219   -1.158185
  H      2.215546   -2.769338    2.099049
  H      3.565329   -1.652176    1.885531
  H      3.045008   -2.103431    3.518307
  H      2.239132    0.185610    2.902582
  H      0.865278   -0.934912    3.147662
  H      4.517380    0.657620   -0.916986
  H      3.847695    2.308808   -0.846912
  H      5.616864    1.007778    1.292718
  H      6.124184    2.260385    0.150761
  H      4.919381    2.630341    1.394827
  H      0.571780   -0.871766   -2.525079
  H     -0.906051    0.155506   -2.653407
  H     -1.710743    2.628558    0.438755
  H     -2.551519    2.377860    1.988482
  H     -0.354961    1.888802    3.085381
  H      0.477539    2.212361    1.557224
  H     -0.394451    3.514131    2.377597
  H     -3.273687   -2.870537    0.053518
  H     -4.748088   -2.390336    0.943280
  H     -4.027632   -1.605154   -1.931168
  H     -5.277703   -2.763794   -1.453136
  H     -5.460237   -1.043630   -1.064483

 Total Charge           Charge          ....    0
 Multiplicity           Mult            ....    1
 Number of Electrons    NEL             ....  202
 Basis Dimension        Dim             ....  334

ORBITAL ENERGIES
----------------

  NO   OCC          E(Eh)            E(eV)
   0   2.0000     -88.041619     -2395.7343
   1   2.0000     -88.039345     -2395.6724
   2   2.0000     -87.987130     -2394.2515
   3   2.0000     -87.981923     -2394.1098
   4   2.0000     -76.429610     -2079.7554
   5   2.0000     -76.423399     -2079.5864
   6   2.0000     -18.803468      -511.6684
   7   2.0000     -18.789979      -511.3013
   8   2.0000     -18.788969      -511.2738
   9   2.0000     -18.782048      -511.0855
  10   2.0000      -9.958149      -270.9750
  11   2.0000      -9.956771      -270.9375
  12   2.0000      -9.954816      -270.8843
  13   2.0000      -9.951694      -270.7994
  14   2.0000      -9.943805      -270.5847
  15   2.0000      -9.893976      -269.2288
  16   2.0000      -9.885146      -268.9885
  17   2.0000      -9.880310      -268.8569
  18   2.0000      -9.880170      -268.8531
  19   2.0000      -7.686563      -209.1620
  20   2.0000      -7.684322      -209.1010
  21   2.0000      -7.632180      -207.6822
  22   2.0000      -7.627001      -207.5412
  23   2.0000      -6.426741      -174.8805
  24   2.0000      -6.420355      -174.7067
  25   2.0000      -5.714403      -155.4968
  26   2.0000      -5.712099      -155.4341
  27   2.0000      -5.711232      -155.4105
  28   2.0000      -5.708887      -155.3467
  29   2.0000      -5.703443      -155.1986
  30   2.0000      -5.701326      -155.1410
  31   2.0000      -5.661012      -154.0440
  32   2.0000      -5.655856      -153.9037
  33   2.0000      -5.652966      -153.8250
  34   2.0000      -5.652275      -153.8062
  35   2.0000      -5.647597      -153.6789
  36   2.0000      -5.647241      -153.6692
  37   2.0000      -4.649875      -126.5295
  38   2.0000      -4.648296      -126.4866
  39   2.0000      -4.646928      -126.4493
  40   2.0000      -4.642692      -126.3341
  41   2.0000      -4.642352      -126.3248
  42   2.0000      -4.640880      -126.2848
  43   2.0000      -0.992964       -27.0199
  44   2.0000      -0.981302       -26.7026
  45   2.0000      -0.948535       -25.8109
  46   2.0000      -0.937883       -25.5211
  47   2.0000      -0.765107       -20.8196
  48   2.0000      -0.722610       -19.6632
  49   2.0000      -0.709891       -19.3171
  50   2.0000      -0.694015       -18.8851
  51   2.0000      -0.682473       -18.5710
  52   2.0000      -0.672732       -18.3060
  53   2.0000      -0.649132       -17.6638
  54   2.0000      -0.636701       -17.3255
  55   2.0000      -0.597575       -16.2608
  56   2.0000      -0.591800       -16.1037
  57   2.0000      -0.577356       -15.7107
  58   2.0000      -0.569189       -15.4884
  59   2.0000      -0.556656       -15.1474
  60   2.0000      -0.510650       -13.8955
  61   2.0000      -0.497482       -13.5372
  62   2.0000      -0.477244       -12.9865
  63   2.0000      -0.467210       -12.7134
  64   2.0000      -0.459193       -12.4953
  65   2.0000      -0.445670       -12.1273
  66   2.0000      -0.441028       -12.0010
  67   2.0000      -0.429934       -11.6991
  68   2.0000      -0.424891       -11.5619
  69   2.0000      -0.414281       -11.2732
  70   2.0000      -0.411406       -11.1949
  71   2.0000      -0.403746       -10.9865
  72   2.0000      -0.394477       -10.7343
  73   2.0000      -0.383310       -10.4304
  74   2.0000      -0.380100       -10.3431
  75   2.0000      -0.375140       -10.2081
  76   2.0000      -0.368169       -10.0184
  77   2.0000      -0.358297        -9.7498
  78   2.0000      -0.350988        -9.5509
  79   2.0000      -0.350399        -9.5348
  80   2.0000      -0.345298        -9.3960
  81   2.0000      -0.343544        -9.3483
  82   2.0000      -0.340917        -9.2768
  83   2.0000      -0.338256        -9.2044
  84   2.0000      -0.332263        -9.0413
  85   2.0000      -0.325175        -8.8485
  86   2.0000      -0.310710        -8.4548
  87   2.0000      -0.305913        -8.3243
  88   2.0000      -0.294568        -8.0156
  89   2.0000      -0.291629        -7.9356
  90   2.0000      -0.282054        -7.6751
  91   2.0000      -0.278370        -7.5748
  92   2.0000      -0.270512        -7.3610
  93   2.0000      -0.263240        -7.1631
  94   2.0000      -0.254133        -6.9153
  95   2.0000      -0.233048        -6.3416
  96   2.0000      -0.215721        -5.8701
  97   2.0000      -0.211799        -5.7633
  98   2.0000      -0.202220        -5.5027
  99   2.0000      -0.196277        -5.3410
 100   2.0000      -0.194265        -5.2862
 101   0.0000      -0.047947        -1.3047
 102   0.0000      -0.024809        -0.6751
 103   0.0000      -0.000413        -0.0112
 104   0.0000       0.001730         0.0471
 105   0.0000       0.009338         0.2541

MULLIKEN ATOMIC CHARGES
-----------------------
   0 C :   -0.310371
   1 C :   -0.006517
   2 O :   -0.358412
   3 P :    0.631153
   4 S :   -0.326851
   5 O :   -0.392676
   6 C :   -0.011222
   7 C :   -0.285801
   8 S :   -0.089746
   9 C :   -0.357946
  10 S :   -0.092658
  11 P :    0.611820
  12 S :   -0.340354
  13 O :   -0.359083
  14 C :   -0.002404
  15 C :   -0.294530
  16 O :   -0.365869
  17 C :   -0.011920
  18 C :   -0.307264
  19 H :    0.128071
  20 H :    0.124965
  21 H :    0.109543
  22 H :    0.107898
  23 H :    0.112792
  24 H :    0.110340
  25 H :    0.106078
  26 H :    0.119178
  27 H :    0.115435
  28 H :    0.116877
  29 H :    0.192003
  30 H :    0.193009
  31 H :    0.113502
  32 H :    0.100621
  33 H :    0.110113
  34 H :    0.123021
  35 H :    0.104827
  36 H :    0.114759
  37 H :    0.108121
  38 H :    0.124382
  39 H :    0.109774
  40 H :    0.125342
Sum of atomic charges:    0.0000000

LOEWDIN ATOMIC CHARGES
----------------------
   0 C :   -0.366375
   1 C :   -0.108628
   2 O :   -0.233143
   3 P :    0.571128
   4 S :   -0.319945
   5 O :   -0.248789
   6 C :   -0.119748
   7 C :   -0.351109
   8 S :    0.087270
   9 C :   -0.482050
  10 S :    0.083760
  11 P :    0.572194
  12 S :   -0.321477
  13 O :   -0.238852
  14 C :   -0.117176
  15 C :   -0.355697
  16 O :   -0.242402
  17 C :   -0.114970
  18 C :   -0.368959
  19 H :    0.131777
  20 H :    0.120103
  21 H :    0.129039
  22 H :    0.111379
  23 H :    0.122578
  24 H :    0.109114
  25 H :    0.113913
  26 H :    0.127213
  27 H :    0.132745
  28 H :    0.126601
  29 H :    0.129637
  30 H :    0.129873
  31 H :    0.104951
  32 H :    0.112375
  33 H :    0.122266
  34 H :    0.114687
  35 H :    0.127833
  36 H :    0.108537
  37 H :    0.120925
  38 H :    0.120717
  39 H :    0.129127
  40 H :    0.129576

  Mayer bond orders larger than 0.100000
B(  0-C ,  1-C ) :   1.1679 B(  0-C , 19-H ) :   0.9441 B(  0-C , 20-H ) :   0.9347
B(  0-C , 21-H ) :   0.9357 B(  1-C ,  2-O ) :   0.9021 B(  1-C , 22-H ) :   0.9290
B(  1-C , 23-H ) :   0.9317 B(  2-O ,  3-P ) :   1.1253 B(  3-P ,  4-S ) :   1.6194
B(  3-P ,  5-O ) :   1.0687 B(  3-P ,  8-S ) :   0.9487 B(  4-S ,  8-S ) :   0.1138
B(  5-O ,  6-C ) :   0.8999 B(  6-C ,  7-C ) :   1.1605 B(  6-C , 24-H ) :   0.9045
B(  6-C , 25-H ) :   0.9316 B(  7-C , 26-H ) :   0.9512 B(  7-C , 27-H ) :   0.9414
B(  7-C , 28-H ) :   0.9505 B(  8-S ,  9-C ) :   1.0031 B(  9-C , 10-S ) :   1.0150
B(  9-C , 29-H ) :   0.8796 B(  9-C , 30-H ) :   0.8790 B( 10-S , 11-P ) :   0.9401
B( 10-S , 12-S ) :   0.1101 B( 11-P , 12-S ) :   1.5973 B( 11-P , 13-O ) :   1.1366
B( 11-P , 16-O ) :   1.1283 B( 13-O , 14-C ) :   0.9004 B( 14-C , 15-C ) :   1.1632
B( 14-C , 31-H ) :   0.9027 B( 14-C , 32-H ) :   0.9348 B( 15-C , 33-H ) :   0.9464
B( 15-C , 34-H ) :   0.9385 B( 15-C , 35-H ) :   0.9399 B( 16-O , 17-C ) :   0.9169
B( 17-C , 18-C ) :   1.1636 B( 17-C , 36-H ) :   0.9258 B( 17-C , 37-H ) :   0.9342
B( 18-C , 38-H ) :   0.9336 B( 18-C , 39-H ) :   0.9355 B( 18-C , 40-H ) :   0.9431

Dispersion correction           -0.066524683
FINAL SINGLE POINT ENERGY     -2929.518229884719

DIPOLE MOMENT
-------------

Method             : SCF
Type of density    : Electron Density
Multiplicity       :   1
Irrep              :   0
Energy             : -2929.6369037901758929 Eh
Relativity type    :
Basis              : AO
                                X                 Y                 Z
Electronic contribution:     -8.403958113      -2.581343261     -13.599233783
Nuclear contribution   :      9.045291184       2.731807103      14.788011858
                        -----------------------------------------
Total Dipole Moment    :      0.641333072       0.150463841       1.188778075
                        -----------------------------------------
Magnitude (a.u.)       :      1.359095577
Magnitude (Debye)      :      3.454546419

Rotational constants in cm-1:             0.013327             0.004969             0.004777
Rotational constants in MHz :           399.527047           148.980385           143.211311

                             ****ORCA TERMINATED NORMALLY****
TOTAL RUN TIME: 0 days 0 hours 0 minutes 21 seconds 457 msec
