                         Program Version 6.0.1  -  RELEASE   -
|  1> ! pbe def2-sv(p) def2/J RI DEFGRID1 loosescf d4 GCP(DFT/SV(P)) printgap
|  2> %output
|  3>     printlevel normal
|  4> end
|  5> * xyz 0 1
|  6> C 4.1993203948 -3.7146803543 -1.067596309
|  7> C 3.1517568588 -2.9387288918 -1.8501138756
|  8> O 2.8473083402 -1.6868488457 -1.2055499846
|  9> C 1.9408243304 -1.6751083117 -0.2514869551
| 10> O 1.3283058044 -2.6452826834 0.1351998304
| 11> C 1.7137485783 -0.2682836984 0.2728748255
| 12> C 0.8979585558 0.5141548803 -0.7623202152
| 13> H 1.502933994 0.6947598797 -1.6541859812
| 14> C 0.4096620158 1.8335580623 -0.1958319807
| 15> O -0.7724907856 2.1043592155 -0.0976197121
| 16> O 1.3845591156 2.6086671008 0.1723484407
| 17> C 1.0478078747 3.8764984238 0.7832177646
| 18> C 2.3416230925 4.5586183361 1.1774691918
| 19> S -0.5614155774 -0.410599554 -1.3586611047
| 20> P -1.927741709 -0.1466270294 0.2457427691
| 21> S -1.3404959863 0.1865198732 2.0958568671
| 22> O -3.1616837818 0.6826908824 -0.3023449631
| 23> C -3.5622464679 1.9768546265 0.1538472239
| 24> O -2.6827777478 -1.5575232312 0.1282951507
| 25> C -2.0696664019 -2.7566151938 0.6075702497
| 26> H 4.454633624 -4.6189384725 -1.609948098
| 27> H 5.0928359179 -3.110802144 -0.936368967
| 28> H 3.8090835673 -3.988590055 -0.0900366674
| 29> H 2.2278545883 -3.516616407 -1.9415814079
| 30> H 3.5207776367 -2.6534053718 -2.8351499972
| 31> H 2.6692269546 0.2339924821 0.4196491174
| 32> H 1.171938762 -0.3335139353 1.2184027153
| 33> H 0.4800650457 4.4649596112 0.056943113
| 34> H 0.4071456168 3.6768379491 1.6473880577
| 35> H 2.9665550083 4.7072106954 0.3023209304
| 36> H 2.1145649067 5.5211288455 1.6232497725
| 37> H 2.8807674187 3.9509826981 1.8974857508
| 38> H -3.1823168334 2.160521351 1.1600957048
| 39> H -4.6500273924 1.9706638701 0.1527392754
| 40> H -3.174902319 2.7322838555 -0.5270461907
| 41> H -1.9538583822 -2.7048827677 1.691463443
| 42> H -1.0891675702 -2.9092431933 0.1518751801
| 43> H -2.7461957425 -3.5612003498 0.3331877715
| 44> *
| 45>
| 46>                          ****END OF INPUT****

CARTESIAN COORDINATES (ANGSTROEM)
---------------------------------
  C      4.199320   -3.714680   -1.067596
  C      3.151757   -2.938729   -1.850114
  O      2.847308   -1.686849   -1.205550
  C      1.940824   -1.675108   -0.251487
  O      1.328306   -2.645283    0.135200
  C      1.713749   -0.268284    0.272875
  C      0.897959    0.514155   -0.762320
  H      1.502934    0.694760   -1.654186
  C      0.409662    1.833558   -0.195832
  O     -0.772491    2.104359   -0.097620
  O      1.384559    2.608667    0.172348
  C      1.047808    3.876498    0.783218
  C      2.341623    4.558618    1.177469
  S     -0.561416   -0.410600   -1.358661
  P     -1.927742   -0.146627    0.245743
  S     -1.340496    0.186520    2.095857
  O     -3.161684    0.682691   -0.302345
  C     -3.562246    1.976855    0.153847
  O     -2.682778   -1.557523    0.128295
  C     -2.069666   -2.756615    0.607570
  H      4.454634   -4.618938   -1.609948
  H      5.092836   -3.110802   -0.936369
  H      3.809084   -3.988590   -0.090037
  H      2.227855   -3.516616   -1.941581
  H      3.520778   -2.653405   -2.835150
  H      2.669227    0.233992    0.419649
  H      1.171939   -0.333514    1.218403
  H      0.480065    4.464960    0.056943
  H      0.407146    3.676838    1.647388
  H      2.966555    4.707211    0.302321
  H      2.114565    5.521129    1.623250
  H      2.880767    3.950983    1.897486
  H     -3.182317    2.160521    1.160096
  H     -4.650027    1.970664    0.152739
  H     -3.174902    2.732284   -0.527046
  H     -1.953858   -2.704883    1.691463
  H     -1.089168   -2.909243    0.151875
  H     -2.746196   -3.561200    0.333188

 Total Charge           Charge          ....    0
 Multiplicity           Mult            ....    1
 Number of Electrons    NEL             ....  174
 Basis Dimension        Dim             ....  316

ORBITAL ENERGIES
----------------

  NO   OCC          E(Eh)            E(eV)
   0   2.0000     -88.032166     -2395.4770
   1   2.0000     -87.970874     -2393.8092
   2   2.0000     -76.415850     -2079.3810
   3   2.0000     -18.827936      -512.3342
   4   2.0000     -18.807908      -511.7892
   5   2.0000     -18.775589      -510.9097
   6   2.0000     -18.765942      -510.6472
   7   2.0000     -18.760605      -510.5020
   8   2.0000     -18.740409      -509.9525
   9   2.0000     -10.031399      -272.9682
  10   2.0000     -10.012267      -272.4476
  11   2.0000      -9.963625      -271.1240
  12   2.0000      -9.955341      -270.8986
  13   2.0000      -9.952007      -270.8079
  14   2.0000      -9.929648      -270.1995
  15   2.0000      -9.917016      -269.8557
  16   2.0000      -9.907314      -269.5917
  17   2.0000      -9.900553      -269.4077
  18   2.0000      -9.890326      -269.1295
  19   2.0000      -7.677112      -208.9048
  20   2.0000      -7.615987      -207.2416
  21   2.0000      -6.411536      -174.4668
  22   2.0000      -5.705289      -155.2488
  23   2.0000      -5.701732      -155.1520
  24   2.0000      -5.693635      -154.9317
  25   2.0000      -5.645065      -153.6100
  26   2.0000      -5.636941      -153.3890
  27   2.0000      -5.635606      -153.3526
  28   2.0000      -4.633880      -126.0943
  29   2.0000      -4.633743      -126.0906
  30   2.0000      -4.632176      -126.0479
  31   2.0000      -1.037789       -28.2397
  32   2.0000      -1.015102       -27.6223
  33   2.0000      -0.967179       -26.3183
  34   2.0000      -0.939719       -25.5711
  35   2.0000      -0.920672       -25.0527
  36   2.0000      -0.917762       -24.9736
  37   2.0000      -0.768626       -20.9154
  38   2.0000      -0.723409       -19.6850
  39   2.0000      -0.710736       -19.3401
  40   2.0000      -0.683841       -18.6083
  41   2.0000      -0.651616       -17.7314
  42   2.0000      -0.627874       -17.0853
  43   2.0000      -0.619127       -16.8473
  44   2.0000      -0.602195       -16.3866
  45   2.0000      -0.596980       -16.2447
  46   2.0000      -0.566932       -15.4270
  47   2.0000      -0.525928       -14.3112
  48   2.0000      -0.507134       -13.7998
  49   2.0000      -0.496698       -13.5159
  50   2.0000      -0.484420       -13.1817
  51   2.0000      -0.465942       -12.6789
  52   2.0000      -0.457551       -12.4506
  53   2.0000      -0.451931       -12.2977
  54   2.0000      -0.444059       -12.0835
  55   2.0000      -0.436690       -11.8829
  56   2.0000      -0.424113       -11.5407
  57   2.0000      -0.410501       -11.1703
  58   2.0000      -0.407931       -11.1004
  59   2.0000      -0.404584       -11.0093
  60   2.0000      -0.394273       -10.7287
  61   2.0000      -0.391549       -10.6546
  62   2.0000      -0.384127       -10.4526
  63   2.0000      -0.379989       -10.3400
  64   2.0000      -0.377132       -10.2623
  65   2.0000      -0.372432       -10.1344
  66   2.0000      -0.371132       -10.0990
  67   2.0000      -0.360009        -9.7964
  68   2.0000      -0.350386        -9.5345
  69   2.0000      -0.341142        -9.2829
  70   2.0000      -0.337902        -9.1948
  71   2.0000      -0.331590        -9.0230
  72   2.0000      -0.327634        -8.9154
  73   2.0000      -0.320466        -8.7203
  74   2.0000      -0.303729        -8.2649
  75   2.0000      -0.298860        -8.1324
  76   2.0000      -0.289640        -7.8815
  77   2.0000      -0.284786        -7.7494
  78   2.0000      -0.273085        -7.4310
  79   2.0000      -0.265095        -7.2136
  80   2.0000      -0.258790        -7.0420
  81   2.0000      -0.243973        -6.6388
  82   2.0000      -0.239785        -6.5249
  83   2.0000      -0.223173        -6.0729
  84   2.0000      -0.211940        -5.7672
  85   2.0000      -0.191808        -5.2194
  86   2.0000      -0.183587        -4.9957
  87   0.0000      -0.049282        -1.3410
  88   0.0000      -0.035579        -0.9681
  89   0.0000      -0.019960        -0.5431
  90   0.0000       0.007865         0.2140
  91   0.0000       0.030458         0.8288

MULLIKEN ATOMIC CHARGES
-----------------------
   0 C :   -0.306716
   1 C :   -0.010705
   2 O :   -0.234460
   3 C :    0.126771
   4 O :   -0.186739
   5 C :   -0.049488
   6 C :   -0.345054
   7 H :    0.150468
   8 C :    0.232491
   9 O :   -0.193140
  10 O :   -0.218462
  11 C :   -0.033395
  12 C :   -0.274403
  13 S :   -0.081808
  14 P :    0.626893
  15 S :   -0.354359
  16 O :   -0.367966
  17 C :   -0.084183
  18 O :   -0.374945
  19 C :   -0.121823
  20 H :    0.114931
  21 H :    0.113665
  22 H :    0.130029
  23 H :    0.111425
  24 H :    0.102649
  25 H :    0.108694
  26 H :    0.120261
  27 H :    0.111149
  28 H :    0.124044
  29 H :    0.117922
  30 H :    0.117598
  31 H :    0.122441
  32 H :    0.114143
  33 H :    0.117991
  34 H :    0.113743
  35 H :    0.112215
  36 H :    0.135812
  37 H :    0.112311
Sum of atomic charges:    0.0000000

LOEWDIN ATOMIC CHARGES
----------------------
   0 C :   -0.356208
   1 C :   -0.110687
   2 O :   -0.061132
   3 C :    0.024694
   4 O :   -0.155747
   5 C :   -0.254414
   6 C :   -0.260967
   7 H :    0.148763
   8 C :    0.024170
   9 O :   -0.152644
  10 O :   -0.037575
  11 C :   -0.102415
  12 C :   -0.350093
  13 S :    0.110787
  14 P :    0.591050
  15 S :   -0.336936
  16 O :   -0.238800
  17 C :   -0.207409
  18 O :   -0.258959
  19 C :   -0.227295
  20 H :    0.131705
  21 H :    0.124706
  22 H :    0.131848
  23 H :    0.121729
  24 H :    0.117936
  25 H :    0.138604
  26 H :    0.134039
  27 H :    0.119825
  28 H :    0.126097
  29 H :    0.128220
  30 H :    0.134548
  31 H :    0.130240
  32 H :    0.108119
  33 H :    0.116832
  34 H :    0.111814
  35 H :    0.108958
  36 H :    0.110304
  37 H :    0.116293

  Mayer bond orders larger than 0.100000
B(  0-C ,  1-C ) :   1.1742 B(  0-C , 20-H ) :   0.9440 B(  0-C , 21-H ) :   0.9485
B(  0-C , 22-H ) :   0.9458 B(  1-C ,  2-O ) :   0.9131 B(  1-C , 23-H ) :   0.9143
B(  1-C , 24-H ) :   0.9369 B(  2-O ,  3-C ) :   1.2206 B(  3-C ,  4-O ) :   2.0103
B(  3-C ,  5-C ) :   1.0239 B(  5-C ,  6-C ) :   1.0419 B(  5-C , 25-H ) :   0.8771
B(  5-C , 26-H ) :   0.8694 B(  6-C ,  7-H ) :   0.8637 B(  6-C ,  8-C ) :   0.9232
B(  6-C , 13-S ) :   1.0412 B(  8-C ,  9-O ) :   1.9422 B(  8-C , 10-O ) :   1.2829
B(  9-O , 14-P ) :   0.1054 B( 10-O , 11-C ) :   0.8861 B( 11-C , 12-C ) :   1.1551
B( 11-C , 27-H ) :   0.9321 B( 11-C , 28-H ) :   0.9280 B( 12-C , 29-H ) :   0.9493
B( 12-C , 30-H ) :   0.9419 B( 12-C , 31-H ) :   0.9494 B( 13-S , 14-P ) :   0.9258
B( 13-S , 15-S ) :   0.1183 B( 14-P , 15-S ) :   1.5456 B( 14-P , 16-O ) :   1.1400
B( 14-P , 18-O ) :   1.0956 B( 16-O , 17-C ) :   0.9297 B( 17-C , 32-H ) :   0.9344
B( 17-C , 33-H ) :   0.9549 B( 17-C , 34-H ) :   0.9537 B( 18-O , 19-C ) :   0.9342
B( 19-C , 35-H ) :   0.9431 B( 19-C , 36-H ) :   0.9236 B( 19-C , 37-H ) :   0.9571

Dispersion correction           -0.051829786
FINAL SINGLE POINT ENERGY     -1979.014450957017

DIPOLE MOMENT
-------------

Method             : SCF
Type of density    : Electron Density
Multiplicity       :   1
Irrep              :   0
Energy             : -1979.1450736869614957 Eh
Relativity type    :
Basis              : AO
                                X                 Y                 Z
Electronic contribution:    -15.601607744      -1.590307951      -1.446990157
Nuclear contribution   :     17.243479903       2.678396522       0.736678588
                        -----------------------------------------
Total Dipole Moment    :      1.641872159       1.088088571      -0.710311570
                        -----------------------------------------
Magnitude (a.u.)       :      2.093853732
Magnitude (Debye)      :      5.322153228

Rotational constants in cm-1:             0.011086             0.007876             0.005357
Rotational constants in MHz :           332.340897           236.116397           160.611119

                             ****ORCA TERMINATED NORMALLY****
TOTAL RUN TIME: 0 days 0 hours 0 minutes 36 seconds 926 msec
