                         Program Version 6.0.0  -   RELEASE  -
|  1> ! pbe def2-sv(p) def2/J RI DEFGRID1 loosescf d4 GCP(DFT/SV(P)) printgap
|  2> %output
|  3>     printlevel normal
|  4> end
|  5> * xyz 0 1
|  6> C 5.5733228391 -0.4114883724 -0.6588557498
|  7> C 4.3002467647 0.1448831388 -1.2622432045
|  8> O 3.454295927 0.7280464953 -0.2384860905
|  9> P 2.3021004384 -0.0479400543 0.507576062
| 10> S 1.5366796283 1.0192548877 1.9521653418
| 11> O 2.9940859182 -1.4008299826 0.9757956116
| 12> C 2.4171447026 -2.2416223308 1.989694512
| 13> C 1.2428171579 -3.0425576444 1.4634310783
| 14> S 1.0272909639 -0.7215809925 -1.0771014524
| 15> C 0.5024964544 0.8933116235 -1.7041953689
| 16> S -0.7302581783 1.7275193904 -0.6635248974
| 17> P -2.1258008878 0.1120118494 -0.5715279779
| 18> S -2.2560121632 -0.981830429 -2.1845589081
| 19> O -3.459491458 0.858074108 -0.1425150999
| 20> C -4.1787473651 1.6879018956 -1.0788539787
| 21> C -5.5739128086 1.9058643141 -0.5298338026
| 22> O -1.7683459814 -0.7231995278 0.7153744393
| 23> C -1.8350505626 -0.1768221782 2.0578458984
| 24> C -3.141790105 -0.5561873483 2.720069447
| 25> H 6.0840212375 0.3609123866 -0.0902833827
| 26> H 5.346527414 -1.2428036441 0.0027819185
| 27> H 6.2218285076 -0.7563475775 -1.458259682
| 28> H 3.7382678616 -0.6321805283 -1.7875379723
| 29> H 4.513584955 0.9736048475 -1.9401038157
| 30> H 3.2381565906 -2.8932603226 2.2922142887
| 31> H 2.1152837007 -1.6100809205 2.8318689789
| 32> H 0.9078750061 -3.7341648527 2.2298736318
| 33> H 0.4160703179 -2.3844683584 1.1983078634
| 34> H 1.5330747879 -3.6010684627 0.5770543301
| 35> H 0.0664247306 0.7001444129 -2.6835854455
| 36> H 1.3532646419 1.5682188822 -1.7717751699
| 37> H -3.6365943845 2.6316987953 -1.1831124415
| 38> H -4.2023348676 1.1778432309 -2.0475173494
| 39> H -5.5204264945 2.3861905121 0.4429698148
| 40> H -6.1289300758 2.5400231772 -1.2131119265
| 41> H -6.0877730604 0.9541624096 -0.4273523222
| 42> H -0.979499275 -0.6103469796 2.5798193933
| 43> H -1.7049598987 0.9077458665 2.0105303149
| 44> H -3.1327549453 -0.1992558674 3.7450709663
| 45> H -3.976821907 -0.1074109649 2.1889733711
| 46> H -3.260231759 -1.636191574 2.7145651664
| 47> *
| 48>
| 49>                          ****END OF INPUT****

CARTESIAN COORDINATES (ANGSTROEM)
---------------------------------
  C      5.573323   -0.411488   -0.658856
  C      4.300247    0.144883   -1.262243
  O      3.454296    0.728046   -0.238486
  P      2.302100   -0.047940    0.507576
  S      1.536680    1.019255    1.952165
  O      2.994086   -1.400830    0.975796
  C      2.417145   -2.241622    1.989695
  C      1.242817   -3.042558    1.463431
  S      1.027291   -0.721581   -1.077101
  C      0.502496    0.893312   -1.704195
  S     -0.730258    1.727519   -0.663525
  P     -2.125801    0.112012   -0.571528
  S     -2.256012   -0.981830   -2.184559
  O     -3.459491    0.858074   -0.142515
  C     -4.178747    1.687902   -1.078854
  C     -5.573913    1.905864   -0.529834
  O     -1.768346   -0.723200    0.715374
  C     -1.835051   -0.176822    2.057846
  C     -3.141790   -0.556187    2.720069
  H      6.084021    0.360912   -0.090283
  H      5.346527   -1.242804    0.002782
  H      6.221829   -0.756348   -1.458260
  H      3.738268   -0.632181   -1.787538
  H      4.513585    0.973605   -1.940104
  H      3.238157   -2.893260    2.292214
  H      2.115284   -1.610081    2.831869
  H      0.907875   -3.734165    2.229874
  H      0.416070   -2.384468    1.198308
  H      1.533075   -3.601068    0.577054
  H      0.066425    0.700144   -2.683585
  H      1.353265    1.568219   -1.771775
  H     -3.636594    2.631699   -1.183112
  H     -4.202335    1.177843   -2.047517
  H     -5.520426    2.386191    0.442970
  H     -6.128930    2.540023   -1.213112
  H     -6.087773    0.954162   -0.427352
  H     -0.979499   -0.610347    2.579819
  H     -1.704960    0.907746    2.010530
  H     -3.132755   -0.199256    3.745071
  H     -3.976822   -0.107411    2.188973
  H     -3.260232   -1.636192    2.714565

 Total Charge           Charge          ....    0
 Multiplicity           Mult            ....    1
 Number of Electrons    NEL             ....  202
 Basis Dimension        Dim             ....  334

ORBITAL ENERGIES
----------------

  NO   OCC          E(Eh)            E(eV)
   0   2.0000     -88.041467     -2395.7301
   1   2.0000     -88.035296     -2395.5622
   2   2.0000     -87.983145     -2394.1431
   3   2.0000     -87.982366     -2394.1219
   4   2.0000     -76.425092     -2079.6325
   5   2.0000     -76.423727     -2079.5953
   6   2.0000     -18.795817      -511.4602
   7   2.0000     -18.794788      -511.4322
   8   2.0000     -18.794473      -511.4236
   9   2.0000     -18.789177      -511.2795
  10   2.0000      -9.957935      -270.9692
  11   2.0000      -9.956486      -270.9298
  12   2.0000      -9.953718      -270.8544
  13   2.0000      -9.953684      -270.8535
  14   2.0000      -9.947164      -270.6761
  15   2.0000      -9.889655      -269.1112
  16   2.0000      -9.887442      -269.0510
  17   2.0000      -9.883884      -268.9542
  18   2.0000      -9.881013      -268.8760
  19   2.0000      -7.685556      -209.1346
  20   2.0000      -7.680415      -208.9947
  21   2.0000      -7.628318      -207.5771
  22   2.0000      -7.627700      -207.5603
  23   2.0000      -6.422797      -174.7732
  24   2.0000      -6.421120      -174.7275
  25   2.0000      -5.713338      -155.4678
  26   2.0000      -5.710127      -155.3804
  27   2.0000      -5.708237      -155.3290
  28   2.0000      -5.705020      -155.2415
  29   2.0000      -5.702689      -155.1781
  30   2.0000      -5.697350      -155.0328
  31   2.0000      -5.657274      -153.9423
  32   2.0000      -5.656696      -153.9265
  33   2.0000      -5.648954      -153.7159
  34   2.0000      -5.648370      -153.7000
  35   2.0000      -5.648252      -153.6967
  36   2.0000      -5.647819      -153.6850
  37   2.0000      -4.645954      -126.4228
  38   2.0000      -4.644535      -126.3842
  39   2.0000      -4.644082      -126.3719
  40   2.0000      -4.642893      -126.3396
  41   2.0000      -4.642715      -126.3347
  42   2.0000      -4.641236      -126.2945
  43   2.0000      -0.990198       -26.9446
  44   2.0000      -0.988019       -26.8854
  45   2.0000      -0.948826       -25.8189
  46   2.0000      -0.943946       -25.6861
  47   2.0000      -0.760909       -20.7054
  48   2.0000      -0.719986       -19.5918
  49   2.0000      -0.710811       -19.3421
  50   2.0000      -0.691594       -18.8192
  51   2.0000      -0.690454       -18.7882
  52   2.0000      -0.670318       -18.2403
  53   2.0000      -0.648093       -17.6355
  54   2.0000      -0.637851       -17.3568
  55   2.0000      -0.594015       -16.1640
  56   2.0000      -0.586352       -15.9555
  57   2.0000      -0.578500       -15.7418
  58   2.0000      -0.566544       -15.4164
  59   2.0000      -0.563039       -15.3211
  60   2.0000      -0.508328       -13.8323
  61   2.0000      -0.502351       -13.6697
  62   2.0000      -0.479046       -13.0355
  63   2.0000      -0.477847       -13.0029
  64   2.0000      -0.456986       -12.4352
  65   2.0000      -0.448505       -12.2044
  66   2.0000      -0.443016       -12.0551
  67   2.0000      -0.433967       -11.8089
  68   2.0000      -0.428879       -11.6704
  69   2.0000      -0.415368       -11.3027
  70   2.0000      -0.408319       -11.1109
  71   2.0000      -0.394544       -10.7361
  72   2.0000      -0.387660       -10.5488
  73   2.0000      -0.380943       -10.3660
  74   2.0000      -0.379686       -10.3318
  75   2.0000      -0.373978       -10.1764
  76   2.0000      -0.364444        -9.9170
  77   2.0000      -0.360460        -9.8086
  78   2.0000      -0.355112        -9.6631
  79   2.0000      -0.353830        -9.6282
  80   2.0000      -0.350645        -9.5415
  81   2.0000      -0.348587        -9.4855
  82   2.0000      -0.344772        -9.3817
  83   2.0000      -0.339953        -9.2506
  84   2.0000      -0.331398        -9.0178
  85   2.0000      -0.319083        -8.6827
  86   2.0000      -0.315016        -8.5720
  87   2.0000      -0.300317        -8.1720
  88   2.0000      -0.298425        -8.1206
  89   2.0000      -0.292619        -7.9626
  90   2.0000      -0.290177        -7.8961
  91   2.0000      -0.273515        -7.4427
  92   2.0000      -0.271510        -7.3882
  93   2.0000      -0.263094        -7.1592
  94   2.0000      -0.256252        -6.9730
  95   2.0000      -0.239312        -6.5120
  96   2.0000      -0.216917        -5.9026
  97   2.0000      -0.206709        -5.6248
  98   2.0000      -0.202027        -5.4974
  99   2.0000      -0.197420        -5.3721
 100   2.0000      -0.186395        -5.0721
 101   0.0000      -0.042010        -1.1431
 102   0.0000      -0.025148        -0.6843
 103   0.0000      -0.003033        -0.0825
 104   0.0000       0.004840         0.1317
 105   0.0000       0.016970         0.4618

MULLIKEN ATOMIC CHARGES
-----------------------
   0 C :   -0.290381
   1 C :   -0.015021
   2 O :   -0.363980
   3 P :    0.596314
   4 S :   -0.307240
   5 O :   -0.381402
   6 C :   -0.005470
   7 C :   -0.347595
   8 S :   -0.081248
   9 C :   -0.344104
  10 S :   -0.087810
  11 P :    0.600376
  12 S :   -0.319597
  13 O :   -0.383685
  14 C :   -0.010870
  15 C :   -0.283506
  16 O :   -0.351491
  17 C :   -0.017675
  18 C :   -0.285333
  19 H :    0.120212
  20 H :    0.124716
  21 H :    0.110041
  22 H :    0.104308
  23 H :    0.107292
  24 H :    0.104437
  25 H :    0.110544
  26 H :    0.113425
  27 H :    0.162791
  28 H :    0.119187
  29 H :    0.192512
  30 H :    0.179800
  31 H :    0.104688
  32 H :    0.105946
  33 H :    0.117023
  34 H :    0.113561
  35 H :    0.122471
  36 H :    0.112306
  37 H :    0.110694
  38 H :    0.109273
  39 H :    0.119744
  40 H :    0.114747
Sum of atomic charges:   -0.0000000

LOEWDIN ATOMIC CHARGES
----------------------
   0 C :   -0.359236
   1 C :   -0.117338
   2 O :   -0.240349
   3 P :    0.562967
   4 S :   -0.302830
   5 O :   -0.246770
   6 C :   -0.120010
   7 C :   -0.373362
   8 S :    0.093404
   9 C :   -0.478254
  10 S :    0.065170
  11 P :    0.567489
  12 S :   -0.318960
  13 O :   -0.248345
  14 C :   -0.120693
  15 C :   -0.350845
  16 O :   -0.230993
  17 C :   -0.116251
  18 C :   -0.359836
  19 H :    0.128881
  20 H :    0.127060
  21 H :    0.129922
  22 H :    0.104480
  23 H :    0.119197
  24 H :    0.117990
  25 H :    0.108431
  26 H :    0.131841
  27 H :    0.127629
  28 H :    0.126824
  29 H :    0.133288
  30 H :    0.131784
  31 H :    0.109358
  32 H :    0.109656
  33 H :    0.126217
  34 H :    0.131689
  35 H :    0.129295
  36 H :    0.112933
  37 H :    0.108178
  38 H :    0.129522
  39 H :    0.124249
  40 H :    0.126621

  Mayer bond orders larger than 0.100000
B(  0-C ,  1-C ) :   1.1690 B(  0-C , 19-H ) :   0.9472 B(  0-C , 20-H ) :   0.9414
B(  0-C , 21-H ) :   0.9393 B(  1-C ,  2-O ) :   0.8923 B(  1-C , 22-H ) :   0.9074
B(  1-C , 23-H ) :   0.9353 B(  2-O ,  3-P ) :   1.1181 B(  3-P ,  4-S ) :   1.6718
B(  3-P ,  5-O ) :   1.0761 B(  3-P ,  8-S ) :   0.9488 B(  4-S ,  8-S ) :   0.1123
B(  5-O ,  6-C ) :   0.9065 B(  6-C ,  7-C ) :   1.1639 B(  6-C , 24-H ) :   0.9325
B(  6-C , 25-H ) :   0.9117 B(  7-C , 26-H ) :   0.9383 B(  7-C , 27-H ) :   0.9223
B(  7-C , 28-H ) :   0.9437 B(  8-S ,  9-C ) :   0.9980 B(  9-C , 10-S ) :   1.0018
B(  9-C , 29-H ) :   0.8911 B(  9-C , 30-H ) :   0.9008 B( 10-S , 11-P ) :   0.9616
B( 10-S , 12-S ) :   0.1122 B( 11-P , 12-S ) :   1.6356 B( 11-P , 13-O ) :   1.0772
B( 11-P , 16-O ) :   1.1362 B( 13-O , 14-C ) :   0.9042 B( 14-C , 15-C ) :   1.1594
B( 14-C , 31-H ) :   0.9273 B( 14-C , 32-H ) :   0.9097 B( 15-C , 33-H ) :   0.9505
B( 15-C , 34-H ) :   0.9418 B( 15-C , 35-H ) :   0.9506 B( 16-O , 17-C ) :   0.8809
B( 17-C , 18-C ) :   1.1577 B( 17-C , 36-H ) :   0.9234 B( 17-C , 37-H ) :   0.9188
B( 18-C , 38-H ) :   0.9407 B( 18-C , 39-H ) :   0.9415 B( 18-C , 40-H ) :   0.9464

Dispersion correction           -0.065275627
FINAL SINGLE POINT ENERGY     -2929.520293076903

DIPOLE MOMENT
-------------

Method             : SCF
Type of density    : Electron Density
Multiplicity       :   1
Irrep              :   0
Energy             : -2929.6398645807553294 Eh
Relativity type    :
Basis              : AO
                                X                 Y                 Z
Electronic contribution:      3.329149389       4.998431684      -7.738501207
Nuclear contribution   :     -3.031753751      -4.980511386       7.837353763
                        -----------------------------------------
Total Dipole Moment    :      0.297395639       0.017920298       0.098852557
                        -----------------------------------------
Magnitude (a.u.)       :      0.313906246
Magnitude (Debye)      :      0.797886267

Rotational constants in cm-1:             0.013639             0.004826             0.004451
Rotational constants in MHz :           408.897840           144.688920           133.451306

                             ****ORCA TERMINATED NORMALLY****
TOTAL RUN TIME: 0 days 0 hours 0 minutes 21 seconds 163 msec
