                         Program Version 6.0.0  -   RELEASE  -
|  1> ! pbe def2-sv(p) def2/J RI DEFGRID1 loosescf d4 GCP(DFT/SV(P)) printgap
|  2> %output
|  3>     printlevel normal
|  4> end
|  5> * xyz 0 1
|  6> C 4.6544213291 0.3782406158 -1.8206385099
|  7> C 4.4034950513 1.1959218955 -0.5703827405
|  8> O 3.5202750589 0.5323206131 0.3512560661
|  9> P 1.9807371943 0.2816494109 0.0403535461
| 10> S 1.0725637258 1.7644229863 -0.8527570484
| 11> O 1.3858096806 -0.0188718217 1.4687732584
| 12> C 1.8567607859 -1.0706842634 2.3490744142
| 13> C 2.8903243869 -0.5426878892 3.3219043823
| 14> S 2.0058766165 -1.5903376068 -0.9733354001
| 15> C 0.2589864094 -1.6903154062 -1.4202286551
| 16> S -0.8410852449 -1.8808722363 0.020552095
| 17> P -1.9651497793 -0.1032840237 -0.1082874209
| 18> S -2.1572692958 0.5955305905 -1.9366049328
| 19> O -1.3073180514 0.7690906815 1.0323846304
| 20> C -1.9555888635 1.8651029166 1.7137696885
| 21> C -2.4100137841 2.9489203519 0.7596091725
| 22> O -3.3472743639 -0.4943408308 0.5742389115
| 23> C -4.3950372067 -1.1744495925 -0.1445287906
| 24> C -5.7210308398 -0.8055023599 0.4900679457
| 25> H 4.9618149411 -0.6309195447 -1.558335733
| 26> H 3.7475076165 0.3246476327 -2.420694449
| 27> H 5.4343475985 0.8532594902 -2.4070681811
| 28> H 3.9675723441 2.1667138231 -0.8259531224
| 29> H 5.318376003 1.3401591857 0.0061282563
| 30> H 0.9558235239 -1.4114686267 2.8634979002
| 31> H 2.2631334604 -1.8855542315 1.7432073839
| 32> H 3.7778136992 -0.2145810374 2.7878154047
| 33> H 2.4851462393 0.297350314 3.8793619595
| 34> H 3.1596813857 -1.3354202082 4.0128871877
| 35> H 0.1594115903 -2.5790271808 -2.0380544143
| 36> H -0.0436065851 -0.793770924 -1.969684553
| 37> H -2.7957859782 1.4610396802 2.2829788099
| 38> H -1.1812377953 2.2298479146 2.3911387496
| 39> H -2.8006337585 3.7901509371 1.3232866483
| 40> H -1.5738720374 3.2815939485 0.1463835971
| 41> H -3.1880897434 2.567356307 0.0991675692
| 42> H -4.3532592562 -0.8673303684 -1.1951890997
| 43> H -4.2038538522 -2.2479503486 -0.0753281479
| 44> H -5.8954220369 0.2635059176 0.403276219
| 45> H -6.5171589175 -1.3386069642 -0.0189341878
| 46> H -5.7188738867 -1.0792915637 1.5411684013
| 47> *
| 48>
| 49>                          ****END OF INPUT****

CARTESIAN COORDINATES (ANGSTROEM)
---------------------------------
  C      4.654421    0.378241   -1.820639
  C      4.403495    1.195922   -0.570383
  O      3.520275    0.532321    0.351256
  P      1.980737    0.281649    0.040354
  S      1.072564    1.764423   -0.852757
  O      1.385810   -0.018872    1.468773
  C      1.856761   -1.070684    2.349074
  C      2.890324   -0.542688    3.321904
  S      2.005877   -1.590338   -0.973335
  C      0.258986   -1.690315   -1.420229
  S     -0.841085   -1.880872    0.020552
  P     -1.965150   -0.103284   -0.108287
  S     -2.157269    0.595531   -1.936605
  O     -1.307318    0.769091    1.032385
  C     -1.955589    1.865103    1.713770
  C     -2.410014    2.948920    0.759609
  O     -3.347274   -0.494341    0.574239
  C     -4.395037   -1.174450   -0.144529
  C     -5.721031   -0.805502    0.490068
  H      4.961815   -0.630920   -1.558336
  H      3.747508    0.324648   -2.420694
  H      5.434348    0.853259   -2.407068
  H      3.967572    2.166714   -0.825953
  H      5.318376    1.340159    0.006128
  H      0.955824   -1.411469    2.863498
  H      2.263133   -1.885554    1.743207
  H      3.777814   -0.214581    2.787815
  H      2.485146    0.297350    3.879362
  H      3.159681   -1.335420    4.012887
  H      0.159412   -2.579027   -2.038054
  H     -0.043607   -0.793771   -1.969685
  H     -2.795786    1.461040    2.282979
  H     -1.181238    2.229848    2.391139
  H     -2.800634    3.790151    1.323287
  H     -1.573872    3.281594    0.146384
  H     -3.188090    2.567356    0.099168
  H     -4.353259   -0.867330   -1.195189
  H     -4.203854   -2.247950   -0.075328
  H     -5.895422    0.263506    0.403276
  H     -6.517159   -1.338607   -0.018934
  H     -5.718874   -1.079292    1.541168

 Total Charge           Charge          ....    0
 Multiplicity           Mult            ....    1
 Number of Electrons    NEL             ....  202
 Basis Dimension        Dim             ....  334

ORBITAL ENERGIES
----------------

  NO   OCC          E(Eh)            E(eV)
   0   2.0000     -88.040711     -2395.7095
   1   2.0000     -88.038216     -2395.6416
   2   2.0000     -87.978366     -2394.0130
   3   2.0000     -87.977629     -2393.9930
   4   2.0000     -76.421113     -2079.5242
   5   2.0000     -76.420771     -2079.5149
   6   2.0000     -18.791853      -511.3523
   7   2.0000     -18.790999      -511.3291
   8   2.0000     -18.785292      -511.1738
   9   2.0000     -18.779546      -511.0174
  10   2.0000      -9.951387      -270.7910
  11   2.0000      -9.951104      -270.7833
  12   2.0000      -9.949391      -270.7367
  13   2.0000      -9.948871      -270.7225
  14   2.0000      -9.946847      -270.6675
  15   2.0000      -9.887254      -269.0459
  16   2.0000      -9.883024      -268.9308
  17   2.0000      -9.882597      -268.9191
  18   2.0000      -9.873403      -268.6690
  19   2.0000      -7.685705      -209.1387
  20   2.0000      -7.683499      -209.0786
  21   2.0000      -7.623339      -207.4416
  22   2.0000      -7.622736      -207.4252
  23   2.0000      -6.418497      -174.6562
  24   2.0000      -6.418048      -174.6440
  25   2.0000      -5.713513      -155.4726
  26   2.0000      -5.711346      -155.4136
  27   2.0000      -5.710031      -155.3779
  28   2.0000      -5.708002      -155.3226
  29   2.0000      -5.702931      -155.1846
  30   2.0000      -5.700446      -155.1170
  31   2.0000      -5.652216      -153.8046
  32   2.0000      -5.651731      -153.7914
  33   2.0000      -5.644173      -153.5858
  34   2.0000      -5.643318      -153.5625
  35   2.0000      -5.643213      -153.5596
  36   2.0000      -5.642911      -153.5514
  37   2.0000      -4.641397      -126.2988
  38   2.0000      -4.640877      -126.2847
  39   2.0000      -4.640304      -126.2691
  40   2.0000      -4.639591      -126.2497
  41   2.0000      -4.638634      -126.2237
  42   2.0000      -4.638504      -126.2201
  43   2.0000      -0.984141       -26.7798
  44   2.0000      -0.982071       -26.7235
  45   2.0000      -0.941410       -25.6171
  46   2.0000      -0.937014       -25.4975
  47   2.0000      -0.759259       -20.6605
  48   2.0000      -0.717757       -19.5311
  49   2.0000      -0.706953       -19.2372
  50   2.0000      -0.687590       -18.7103
  51   2.0000      -0.685032       -18.6407
  52   2.0000      -0.671129       -18.2623
  53   2.0000      -0.646981       -17.6053
  54   2.0000      -0.629119       -17.1192
  55   2.0000      -0.593721       -16.1560
  56   2.0000      -0.586488       -15.9591
  57   2.0000      -0.572029       -15.5657
  58   2.0000      -0.567510       -15.4427
  59   2.0000      -0.558723       -15.2036
  60   2.0000      -0.501908       -13.6576
  61   2.0000      -0.494417       -13.4538
  62   2.0000      -0.471239       -12.8231
  63   2.0000      -0.466669       -12.6987
  64   2.0000      -0.447034       -12.1644
  65   2.0000      -0.444259       -12.0889
  66   2.0000      -0.439155       -11.9500
  67   2.0000      -0.434697       -11.8287
  68   2.0000      -0.425007       -11.5650
  69   2.0000      -0.413539       -11.2530
  70   2.0000      -0.405168       -11.0252
  71   2.0000      -0.402751       -10.9594
  72   2.0000      -0.388418       -10.5694
  73   2.0000      -0.381721       -10.3871
  74   2.0000      -0.377157       -10.2630
  75   2.0000      -0.365682        -9.9507
  76   2.0000      -0.362687        -9.8692
  77   2.0000      -0.356276        -9.6948
  78   2.0000      -0.351898        -9.5756
  79   2.0000      -0.350171        -9.5286
  80   2.0000      -0.344871        -9.3844
  81   2.0000      -0.338307        -9.2058
  82   2.0000      -0.335852        -9.1390
  83   2.0000      -0.334672        -9.1069
  84   2.0000      -0.328991        -8.9523
  85   2.0000      -0.313636        -8.5345
  86   2.0000      -0.311702        -8.4818
  87   2.0000      -0.297017        -8.0822
  88   2.0000      -0.293018        -7.9734
  89   2.0000      -0.288188        -7.8420
  90   2.0000      -0.277687        -7.5562
  91   2.0000      -0.269406        -7.3309
  92   2.0000      -0.265307        -7.2194
  93   2.0000      -0.259342        -7.0571
  94   2.0000      -0.254706        -6.9309
  95   2.0000      -0.234408        -6.3786
  96   2.0000      -0.220024        -5.9871
  97   2.0000      -0.210672        -5.7327
  98   2.0000      -0.197126        -5.3641
  99   2.0000      -0.188337        -5.1249
 100   2.0000      -0.180575        -4.9137
 101   0.0000      -0.036145        -0.9835
 102   0.0000      -0.027878        -0.7586
 103   0.0000      -0.006338        -0.1725
 104   0.0000       0.013904         0.3783
 105   0.0000       0.022356         0.6083

MULLIKEN ATOMIC CHARGES
-----------------------
   0 C :   -0.320206
   1 C :    0.000274
   2 O :   -0.381962
   3 P :    0.592822
   4 S :   -0.292624
   5 O :   -0.343194
   6 C :   -0.010619
   7 C :   -0.286939
   8 S :   -0.106446
   9 C :   -0.352522
  10 S :   -0.105646
  11 P :    0.627793
  12 S :   -0.313123
  13 O :   -0.350111
  14 C :    0.007958
  15 C :   -0.321912
  16 O :   -0.389311
  17 C :   -0.005886
  18 C :   -0.285021
  19 H :    0.116208
  20 H :    0.132001
  21 H :    0.113816
  22 H :    0.111649
  23 H :    0.102716
  24 H :    0.106383
  25 H :    0.100633
  26 H :    0.120885
  27 H :    0.115520
  28 H :    0.107171
  29 H :    0.180965
  30 H :    0.206966
  31 H :    0.102655
  32 H :    0.105474
  33 H :    0.105321
  34 H :    0.137432
  35 H :    0.121957
  36 H :    0.105180
  37 H :    0.099166
  38 H :    0.118064
  39 H :    0.111979
  40 H :    0.114536
Sum of atomic charges:    0.0000000

LOEWDIN ATOMIC CHARGES
----------------------
   0 C :   -0.371730
   1 C :   -0.118181
   2 O :   -0.249434
   3 P :    0.563019
   4 S :   -0.295318
   5 O :   -0.227099
   6 C :   -0.118756
   7 C :   -0.360222
   8 S :    0.075290
   9 C :   -0.481295
  10 S :    0.072085
  11 P :    0.569650
  12 S :   -0.302806
  13 O :   -0.228665
  14 C :   -0.107204
  15 C :   -0.369426
  16 O :   -0.252276
  17 C :   -0.122547
  18 C :   -0.351485
  19 H :    0.122541
  20 H :    0.123227
  21 H :    0.131529
  22 H :    0.112140
  23 H :    0.117226
  24 H :    0.117780
  25 H :    0.101126
  26 H :    0.125321
  27 H :    0.126572
  28 H :    0.128373
  29 H :    0.137210
  30 H :    0.125848
  31 H :    0.109486
  32 H :    0.120769
  33 H :    0.126767
  34 H :    0.132195
  35 H :    0.118752
  36 H :    0.105941
  37 H :    0.110454
  38 H :    0.126898
  39 H :    0.130877
  40 H :    0.125369

  Mayer bond orders larger than 0.100000
B(  0-C ,  1-C ) :   1.1667 B(  0-C , 19-H ) :   0.9437 B(  0-C , 20-H ) :   0.9345
B(  0-C , 21-H ) :   0.9373 B(  1-C ,  2-O ) :   0.9076 B(  1-C , 22-H ) :   0.9156
B(  1-C , 23-H ) :   0.9339 B(  2-O ,  3-P ) :   1.0760 B(  3-P ,  4-S ) :   1.6581
B(  3-P ,  5-O ) :   1.1431 B(  3-P ,  8-S ) :   0.9423 B(  4-S ,  8-S ) :   0.1059
B(  5-O ,  6-C ) :   0.8941 B(  6-C ,  7-C ) :   1.1631 B(  6-C , 24-H ) :   0.9330
B(  6-C , 25-H ) :   0.9083 B(  7-C , 26-H ) :   0.9410 B(  7-C , 27-H ) :   0.9477
B(  7-C , 28-H ) :   0.9400 B(  8-S ,  9-C ) :   0.9973 B(  9-C , 10-S ) :   0.9981
B(  9-C , 29-H ) :   0.9119 B(  9-C , 30-H ) :   0.8458 B( 10-S , 11-P ) :   0.9605
B( 10-S , 12-S ) :   0.1223 B( 11-P , 12-S ) :   1.6105 B( 11-P , 13-O ) :   1.1483
B( 11-P , 16-O ) :   1.0780 B( 13-O , 14-C ) :   0.9051 B( 14-C , 15-C ) :   1.1674
B( 14-C , 31-H ) :   0.9313 B( 14-C , 32-H ) :   0.9323 B( 15-C , 33-H ) :   0.9358
B( 15-C , 34-H ) :   0.9403 B( 15-C , 35-H ) :   0.9346 B( 16-O , 17-C ) :   0.9061
B( 17-C , 18-C ) :   1.1593 B( 17-C , 36-H ) :   0.9015 B( 17-C , 37-H ) :   0.9310
B( 18-C , 38-H ) :   0.9513 B( 18-C , 39-H ) :   0.9422 B( 18-C , 40-H ) :   0.9509

Dispersion correction           -0.067064195
FINAL SINGLE POINT ENERGY     -2929.516212498826

DIPOLE MOMENT
-------------

Method             : SCF
Type of density    : Electron Density
Multiplicity       :   1
Irrep              :   0
Energy             : -2929.6344399588906526 Eh
Relativity type    :
Basis              : AO
                                X                 Y                 Z
Electronic contribution:      2.113860667      -4.498599399      -9.430463248
Nuclear contribution   :     -1.927484858       3.817009386      10.512509000
                        -----------------------------------------
Total Dipole Moment    :      0.186375809      -0.681590014       1.082045752
                        -----------------------------------------
Magnitude (a.u.)       :      1.292332735
Magnitude (Debye)      :      3.284848761

Rotational constants in cm-1:             0.013254             0.005028             0.005017
Rotational constants in MHz :           397.337242           150.726630           150.416282

                             ****ORCA TERMINATED NORMALLY****
TOTAL RUN TIME: 0 days 0 hours 0 minutes 21 seconds 695 msec
