                         Program Version 6.0.0  -   RELEASE  -
|  1> ! pbe def2-sv(p) def2/J RI DEFGRID1 loosescf d4 GCP(DFT/SV(P)) printgap
|  2> %output
|  3>     printlevel normal
|  4> end
|  5> * xyz 0 1
|  6> C 4.4192050828 -0.2690894026 -1.9989461908
|  7> C 4.3866576006 0.8266416051 -0.9527405596
|  8> O 3.6005711083 0.4644705463 0.1939362848
|  9> P 2.0245825004 0.2723082299 0.1335078996
| 10> S 1.0960018958 1.581844532 -0.9957239758
| 11> O 1.6037673535 0.4141721821 1.6467205001
| 12> C 1.8009135225 -0.5731080999 2.6936693074
| 13> C 3.2411253042 -1.015697378 2.8251001101
| 14> S 1.7699496126 -1.7749782099 -0.3799105417
| 15> C 0.0232438103 -1.7134095421 -0.8339261363
| 16> S -1.0287993493 -1.1575746669 0.5445155767
| 17> P -2.1804920277 0.3650647453 -0.4037078386
| 18> S -2.0684153412 0.4066782073 -2.3573828818
| 19> O -1.8148848541 1.7410167836 0.275102725
| 20> C -2.2801369367 2.1973988658 1.5676377445
| 21> C -1.744293053 1.3497299312 2.7018524217
| 22> O -3.6473204547 0.1215392489 0.1700020778
| 23> C -4.5940447883 -0.7582044749 -0.4615761479
| 24> C -4.1518267019 -2.2069067168 -0.4364377831
| 25> H 5.1326060555 -0.0040272168 -2.7726954488
| 26> H 4.708141231 -1.2153505866 -1.5488999588
| 27> H 3.4355934741 -0.3798246955 -2.4531199927
| 28> H 3.9769250985 1.7494092033 -1.3760148345
| 29> H 5.3775433359 1.0167938628 -0.5378531049
| 30> H 1.4574494506 -0.0547844764 3.5902150483
| 31> H 1.1428023441 -1.4214472752 2.4842943625
| 32> H 3.889942179 -0.1538836765 2.9569487374
| 33> H 3.3297578089 -1.6690479285 3.68756397
| 34> H 3.5536032265 -1.5587510585 1.9357036914
| 35> H -0.2520903553 -2.730976306 -1.0998282424
| 36> H -0.1277859515 -1.0302775305 -1.6747911848
| 37> H -1.9021724161 3.2201223921 1.6164364662
| 38> H -3.3719205171 2.2015924836 1.5573757185
| 39> H -2.1493211823 0.340537782 2.6442109649
| 40> H -0.6593725998 1.2985617473 2.643846205
| 41> H -2.0337728714 1.7971266513 3.6474655426
| 42> H -5.5085578799 -0.6057495631 0.113490925
| 43> H -4.7400479272 -0.4210863539 -1.4923571296
| 44> H -3.2870173105 -2.3399827844 -1.0847983859
| 45> H -3.8888917609 -2.5084013248 0.5742272584
| 46> H -4.9611975793 -2.8311140828 -0.8011235601
| 47> *
| 48>
| 49>                          ****END OF INPUT****

CARTESIAN COORDINATES (ANGSTROEM)
---------------------------------
  C      4.419205   -0.269089   -1.998946
  C      4.386658    0.826642   -0.952741
  O      3.600571    0.464471    0.193936
  P      2.024583    0.272308    0.133508
  S      1.096002    1.581845   -0.995724
  O      1.603767    0.414172    1.646721
  C      1.800914   -0.573108    2.693669
  C      3.241125   -1.015697    2.825100
  S      1.769950   -1.774978   -0.379911
  C      0.023244   -1.713410   -0.833926
  S     -1.028799   -1.157575    0.544516
  P     -2.180492    0.365065   -0.403708
  S     -2.068415    0.406678   -2.357383
  O     -1.814885    1.741017    0.275103
  C     -2.280137    2.197399    1.567638
  C     -1.744293    1.349730    2.701852
  O     -3.647320    0.121539    0.170002
  C     -4.594045   -0.758204   -0.461576
  C     -4.151827   -2.206907   -0.436438
  H      5.132606   -0.004027   -2.772695
  H      4.708141   -1.215351   -1.548900
  H      3.435593   -0.379825   -2.453120
  H      3.976925    1.749409   -1.376015
  H      5.377543    1.016794   -0.537853
  H      1.457449   -0.054784    3.590215
  H      1.142802   -1.421447    2.484294
  H      3.889942   -0.153884    2.956949
  H      3.329758   -1.669048    3.687564
  H      3.553603   -1.558751    1.935704
  H     -0.252090   -2.730976   -1.099828
  H     -0.127786   -1.030278   -1.674791
  H     -1.902172    3.220122    1.616436
  H     -3.371921    2.201592    1.557376
  H     -2.149321    0.340538    2.644211
  H     -0.659373    1.298562    2.643846
  H     -2.033773    1.797127    3.647466
  H     -5.508558   -0.605750    0.113491
  H     -4.740048   -0.421086   -1.492357
  H     -3.287017   -2.339983   -1.084798
  H     -3.888892   -2.508401    0.574227
  H     -4.961198   -2.831114   -0.801124

 Total Charge           Charge          ....    0
 Multiplicity           Mult            ....    1
 Number of Electrons    NEL             ....  202
 Basis Dimension        Dim             ....  334

ORBITAL ENERGIES
----------------

  NO   OCC          E(Eh)            E(eV)
   0   2.0000     -88.044486     -2395.8123
   1   2.0000     -88.039764     -2395.6838
   2   2.0000     -87.980088     -2394.0599
   3   2.0000     -87.975390     -2393.9321
   4   2.0000     -76.422472     -2079.5612
   5   2.0000     -76.422122     -2079.5517
   6   2.0000     -18.789457      -511.2871
   7   2.0000     -18.789216      -511.2805
   8   2.0000     -18.788613      -511.2641
   9   2.0000     -18.782027      -511.0849
  10   2.0000      -9.955346      -270.8987
  11   2.0000      -9.952300      -270.8159
  12   2.0000      -9.951260      -270.7876
  13   2.0000      -9.950289      -270.7611
  14   2.0000      -9.949768      -270.7469
  15   2.0000      -9.887707      -269.0582
  16   2.0000      -9.883866      -268.9537
  17   2.0000      -9.883052      -268.9315
  18   2.0000      -9.881593      -268.8918
  19   2.0000      -7.689263      -209.2355
  20   2.0000      -7.683870      -209.0887
  21   2.0000      -7.625261      -207.4939
  22   2.0000      -7.620216      -207.3566
  23   2.0000      -6.419490      -174.6832
  24   2.0000      -6.419215      -174.6757
  25   2.0000      -5.717115      -155.5706
  26   2.0000      -5.713611      -155.4753
  27   2.0000      -5.711783      -155.4255
  28   2.0000      -5.708463      -155.3352
  29   2.0000      -5.706471      -155.2810
  30   2.0000      -5.700832      -155.1275
  31   2.0000      -5.654307      -153.8615
  32   2.0000      -5.649288      -153.7249
  33   2.0000      -5.645730      -153.6281
  34   2.0000      -5.645403      -153.6192
  35   2.0000      -5.640694      -153.4911
  36   2.0000      -5.640399      -153.4831
  37   2.0000      -4.642470      -126.3280
  38   2.0000      -4.641981      -126.3147
  39   2.0000      -4.641163      -126.2925
  40   2.0000      -4.640925      -126.2860
  41   2.0000      -4.639984      -126.2604
  42   2.0000      -4.639365      -126.2435
  43   2.0000      -0.983854       -26.7720
  44   2.0000      -0.982774       -26.7426
  45   2.0000      -0.942588       -25.6491
  46   2.0000      -0.937292       -25.5050
  47   2.0000      -0.760631       -20.6978
  48   2.0000      -0.716418       -19.4947
  49   2.0000      -0.708733       -19.2856
  50   2.0000      -0.688866       -18.7450
  51   2.0000      -0.687550       -18.7092
  52   2.0000      -0.677014       -18.4225
  53   2.0000      -0.647514       -17.6197
  54   2.0000      -0.629677       -17.1344
  55   2.0000      -0.596743       -16.2382
  56   2.0000      -0.590448       -16.0669
  57   2.0000      -0.576285       -15.6815
  58   2.0000      -0.574330       -15.6283
  59   2.0000      -0.558885       -15.2080
  60   2.0000      -0.493005       -13.4154
  61   2.0000      -0.489756       -13.3269
  62   2.0000      -0.469600       -12.7785
  63   2.0000      -0.465434       -12.6651
  64   2.0000      -0.448283       -12.1984
  65   2.0000      -0.446347       -12.1457
  66   2.0000      -0.443394       -12.0654
  67   2.0000      -0.439074       -11.9478
  68   2.0000      -0.430252       -11.7078
  69   2.0000      -0.421892       -11.4803
  70   2.0000      -0.410147       -11.1607
  71   2.0000      -0.398265       -10.8373
  72   2.0000      -0.395467       -10.7612
  73   2.0000      -0.386141       -10.5074
  74   2.0000      -0.377562       -10.2740
  75   2.0000      -0.366806        -9.9813
  76   2.0000      -0.362064        -9.8523
  77   2.0000      -0.359025        -9.7696
  78   2.0000      -0.354739        -9.6529
  79   2.0000      -0.350080        -9.5262
  80   2.0000      -0.347386        -9.4528
  81   2.0000      -0.345132        -9.3915
  82   2.0000      -0.339953        -9.2506
  83   2.0000      -0.334333        -9.0977
  84   2.0000      -0.333027        -9.0621
  85   2.0000      -0.315055        -8.5731
  86   2.0000      -0.306329        -8.3356
  87   2.0000      -0.294189        -8.0053
  88   2.0000      -0.292309        -7.9541
  89   2.0000      -0.289038        -7.8651
  90   2.0000      -0.287882        -7.8337
  91   2.0000      -0.274165        -7.4604
  92   2.0000      -0.266745        -7.2585
  93   2.0000      -0.258809        -7.0426
  94   2.0000      -0.254319        -6.9204
  95   2.0000      -0.232795        -6.3347
  96   2.0000      -0.218874        -5.9559
  97   2.0000      -0.209315        -5.6957
  98   2.0000      -0.195148        -5.3102
  99   2.0000      -0.189046        -5.1442
 100   2.0000      -0.182220        -4.9584
 101   0.0000      -0.042767        -1.1638
 102   0.0000      -0.034918        -0.9502
 103   0.0000      -0.006826        -0.1857
 104   0.0000       0.009296         0.2530
 105   0.0000       0.015351         0.4177

MULLIKEN ATOMIC CHARGES
-----------------------
   0 C :   -0.319309
   1 C :    0.000800
   2 O :   -0.374215
   3 P :    0.586593
   4 S :   -0.285505
   5 O :   -0.356128
   6 C :   -0.007877
   7 C :   -0.297430
   8 S :   -0.120276
   9 C :   -0.329577
  10 S :   -0.137132
  11 P :    0.633320
  12 S :   -0.298084
  13 O :   -0.348720
  14 C :    0.009972
  15 C :   -0.352495
  16 O :   -0.390372
  17 C :    0.003514
  18 C :   -0.311882
  19 H :    0.113419
  20 H :    0.113819
  21 H :    0.131961
  22 H :    0.113457
  23 H :    0.102562
  24 H :    0.107412
  25 H :    0.109607
  26 H :    0.122311
  27 H :    0.112055
  28 H :    0.119447
  29 H :    0.177560
  30 H :    0.207833
  31 H :    0.111964
  32 H :    0.106831
  33 H :    0.119186
  34 H :    0.154574
  35 H :    0.110362
  36 H :    0.101549
  37 H :    0.112144
  38 H :    0.119182
  39 H :    0.116133
  40 H :    0.111430
Sum of atomic charges:   -0.0000000

LOEWDIN ATOMIC CHARGES
----------------------
   0 C :   -0.371218
   1 C :   -0.118235
   2 O :   -0.244157
   3 P :    0.562503
   4 S :   -0.293520
   5 O :   -0.234603
   6 C :   -0.116451
   7 C :   -0.366064
   8 S :    0.073782
   9 C :   -0.479712
  10 S :    0.071417
  11 P :    0.579021
  12 S :   -0.294084
  13 O :   -0.227515
  14 C :   -0.106275
  15 C :   -0.374015
  16 O :   -0.252370
  17 C :   -0.116479
  18 C :   -0.371050
  19 H :    0.131241
  20 H :    0.121664
  21 H :    0.123170
  22 H :    0.112847
  23 H :    0.117526
  24 H :    0.119338
  25 H :    0.102489
  26 H :    0.129024
  27 H :    0.131058
  28 H :    0.117192
  29 H :    0.133587
  30 H :    0.125455
  31 H :    0.124249
  32 H :    0.112055
  33 H :    0.114585
  34 H :    0.133262
  35 H :    0.129987
  36 H :    0.116992
  37 H :    0.112220
  38 H :    0.118876
  39 H :    0.122288
  40 H :    0.129922

  Mayer bond orders larger than 0.100000
B(  0-C ,  1-C ) :   1.1656 B(  0-C , 19-H ) :   0.9377 B(  0-C , 20-H ) :   0.9449
B(  0-C , 21-H ) :   0.9344 B(  1-C ,  2-O ) :   0.9070 B(  1-C , 22-H ) :   0.9147
B(  1-C , 23-H ) :   0.9341 B(  2-O ,  3-P ) :   1.0884 B(  3-P ,  4-S ) :   1.6585
B(  3-P ,  5-O ) :   1.1247 B(  3-P ,  8-S ) :   0.9310 B(  4-S ,  8-S ) :   0.1071
B(  5-O ,  6-C ) :   0.8944 B(  6-C ,  7-C ) :   1.1753 B(  6-C , 24-H ) :   0.9308
B(  6-C , 25-H ) :   0.9123 B(  7-C , 26-H ) :   0.9426 B(  7-C , 27-H ) :   0.9359
B(  7-C , 28-H ) :   0.9372 B(  8-S ,  9-C ) :   1.0001 B(  9-C , 10-S ) :   1.0004
B(  9-C , 29-H ) :   0.9083 B(  9-C , 30-H ) :   0.8452 B( 10-S , 11-P ) :   0.9299
B( 10-S , 12-S ) :   0.1161 B( 11-P , 12-S ) :   1.6254 B( 11-P , 13-O ) :   1.1408
B( 11-P , 16-O ) :   1.0629 B( 12-S , 30-H ) :   0.1003 B( 13-O , 14-C ) :   0.9056
B( 14-C , 15-C ) :   1.1711 B( 14-C , 31-H ) :   0.9317 B( 14-C , 32-H ) :   0.9261
B( 15-C , 33-H ) :   0.9363 B( 15-C , 34-H ) :   0.9273 B( 15-C , 35-H ) :   0.9355
B( 16-O , 17-C ) :   0.9122 B( 17-C , 18-C ) :   1.1670 B( 17-C , 36-H ) :   0.9345
B( 17-C , 37-H ) :   0.9173 B( 18-C , 38-H ) :   0.9361 B( 18-C , 39-H ) :   0.9424
B( 18-C , 40-H ) :   0.9368

Dispersion correction           -0.068914311
FINAL SINGLE POINT ENERGY     -2929.512408095968

DIPOLE MOMENT
-------------

Method             : SCF
Type of density    : Electron Density
Multiplicity       :   1
Irrep              :   0
Energy             : -2929.6302779110137635 Eh
Relativity type    :
Basis              : AO
                                X                 Y                 Z
Electronic contribution:     -2.941532591       6.395580597     -10.704360217
Nuclear contribution   :      3.071356236      -7.350751544      12.198201087
                        -----------------------------------------
Total Dipole Moment    :      0.129823645      -0.955170947       1.493840870
                        -----------------------------------------
Magnitude (a.u.)       :      1.777854398
Magnitude (Debye)      :      4.518946754

Rotational constants in cm-1:             0.012905             0.005386             0.005078
Rotational constants in MHz :           386.887094           161.473615           152.237620

                             ****ORCA TERMINATED NORMALLY****
TOTAL RUN TIME: 0 days 0 hours 0 minutes 23 seconds 65 msec
