                         Program Version 6.0.0  -   RELEASE  -
|  1> ! pbe def2-sv(p) def2/J RI DEFGRID1 loosescf d4 GCP(DFT/SV(P)) printgap
|  2> %output
|  3>     printlevel normal
|  4> end
|  5> * xyz 0 1
|  6> C 3.1623585835 1.3588158259 -2.3723526693
|  7> C 2.02478475 0.3856437917 -2.1546092943
|  8> O 1.4068055057 0.5295388786 -0.857244345
|  9> P 2.1915800167 0.3664461429 0.5125466517
| 10> S 3.3378687841 1.8326498523 1.1236812037
| 11> O 2.944924481 -1.0236904233 0.2723816325
| 12> C 4.0608196723 -1.4222106347 1.0859099658
| 13> C 3.6195730601 -1.8815322721 2.4608884912
| 14> S 0.5912506295 -0.0104979825 1.8112433634
| 15> C -0.1944337023 -1.468665524 1.015861838
| 16> S -1.9867353084 -1.2981937925 0.9508928424
| 17> P -2.0611997096 -0.0674208011 -0.7867102704
| 18> S -1.1937910264 -0.8665779976 -2.3494945783
| 19> O -1.4186766737 1.3224826294 -0.3980129702
| 20> C -2.0797290941 2.4028376437 0.3045493105
| 21> C -2.5948753542 1.9998790058 1.6700352232
| 22> O -3.5959540771 0.2947375173 -0.9662739778
| 23> C -4.5087519407 -0.551103076 -1.6898003533
| 24> C -4.7430272595 -1.8739230847 -0.9906639545
| 25> H 2.8263773658 2.3785171411 -2.198188214
| 26> H 3.9815784712 1.1433892519 -1.6875835764
| 27> H 3.5184360317 1.2664563547 -3.3935935041
| 28> H 2.3638233424 -0.6477615071 -2.2586755405
| 29> H 1.2010387856 0.5648743185 -2.848421492
| 30> H 4.5285054365 -2.2289174492 0.5197453606
| 31> H 4.74875203 -0.5743252131 1.1678309546
| 32> H 3.1672582928 -1.0513153279 3.0023561016
| 33> H 2.8961828413 -2.6885359378 2.3791086923
| 34> H 4.4848380525 -2.2313972865 3.0146156716
| 35> H 0.013247346 -2.3420889751 1.6273348844
| 36> H 0.1969376075 -1.5777602355 0.0040870301
| 37> H -1.2982852279 3.1615901479 0.3798896198
| 38> H -2.8922154203 2.7662002153 -0.3278163254
| 39> H -1.7897258522 1.5940272941 2.2790465519
| 40> H -3.0007316036 2.878736634 2.1616318119
| 41> H -3.3802364834 1.2531621282 1.5744879396
| 42> H -5.4215531798 0.0437005569 -1.7456998426
| 43> H -4.1069798708 -0.7127752723 -2.6948118487
| 44> H -5.0307826951 -1.7115426681 0.0447416679
| 45> H -5.532272431 -2.4136581606 -1.504028438
| 46> H -3.834631819 -2.4734290558 -1.0119394883
| 47> *
| 48>
| 49>                          ****END OF INPUT****

CARTESIAN COORDINATES (ANGSTROEM)
---------------------------------
  C      3.162359    1.358816   -2.372353
  C      2.024785    0.385644   -2.154609
  O      1.406806    0.529539   -0.857244
  P      2.191580    0.366446    0.512547
  S      3.337869    1.832650    1.123681
  O      2.944924   -1.023690    0.272382
  C      4.060820   -1.422211    1.085910
  C      3.619573   -1.881532    2.460888
  S      0.591251   -0.010498    1.811243
  C     -0.194434   -1.468666    1.015862
  S     -1.986735   -1.298194    0.950893
  P     -2.061200   -0.067421   -0.786710
  S     -1.193791   -0.866578   -2.349495
  O     -1.418677    1.322483   -0.398013
  C     -2.079729    2.402838    0.304549
  C     -2.594875    1.999879    1.670035
  O     -3.595954    0.294738   -0.966274
  C     -4.508752   -0.551103   -1.689800
  C     -4.743027   -1.873923   -0.990664
  H      2.826377    2.378517   -2.198188
  H      3.981578    1.143389   -1.687584
  H      3.518436    1.266456   -3.393594
  H      2.363823   -0.647762   -2.258676
  H      1.201039    0.564874   -2.848421
  H      4.528505   -2.228917    0.519745
  H      4.748752   -0.574325    1.167831
  H      3.167258   -1.051315    3.002356
  H      2.896183   -2.688536    2.379109
  H      4.484838   -2.231397    3.014616
  H      0.013247   -2.342089    1.627335
  H      0.196938   -1.577760    0.004087
  H     -1.298285    3.161590    0.379890
  H     -2.892215    2.766200   -0.327816
  H     -1.789726    1.594027    2.279047
  H     -3.000732    2.878737    2.161632
  H     -3.380236    1.253162    1.574488
  H     -5.421553    0.043701   -1.745700
  H     -4.106980   -0.712775   -2.694812
  H     -5.030783   -1.711543    0.044742
  H     -5.532272   -2.413658   -1.504028
  H     -3.834632   -2.473429   -1.011939

 Total Charge           Charge          ....    0
 Multiplicity           Mult            ....    1
 Number of Electrons    NEL             ....  202
 Basis Dimension        Dim             ....  334

ORBITAL ENERGIES
----------------

  NO   OCC          E(Eh)            E(eV)
   0   2.0000     -88.047154     -2395.8849
   1   2.0000     -88.039280     -2395.6706
   2   2.0000     -87.986382     -2394.2312
   3   2.0000     -87.981177     -2394.0895
   4   2.0000     -76.430247     -2079.7728
   5   2.0000     -76.421229     -2079.5274
   6   2.0000     -18.803915      -511.6805
   7   2.0000     -18.792078      -511.3584
   8   2.0000     -18.788088      -511.2499
   9   2.0000     -18.780449      -511.0420
  10   2.0000      -9.960247      -271.0321
  11   2.0000      -9.958173      -270.9757
  12   2.0000      -9.953522      -270.8491
  13   2.0000      -9.950149      -270.7573
  14   2.0000      -9.939862      -270.4774
  15   2.0000      -9.890837      -269.1434
  16   2.0000      -9.884058      -268.9589
  17   2.0000      -9.882531      -268.9173
  18   2.0000      -9.873598      -268.6743
  19   2.0000      -7.692189      -209.3151
  20   2.0000      -7.684400      -209.1031
  21   2.0000      -7.631463      -207.6627
  22   2.0000      -7.626408      -207.5251
  23   2.0000      -6.427532      -174.9020
  24   2.0000      -6.418737      -174.6627
  25   2.0000      -5.719984      -155.6487
  26   2.0000      -5.716824      -155.5627
  27   2.0000      -5.712798      -155.4531
  28   2.0000      -5.709120      -155.3530
  29   2.0000      -5.708563      -155.3379
  30   2.0000      -5.701161      -155.1365
  31   2.0000      -5.660461      -154.0290
  32   2.0000      -5.655379      -153.8907
  33   2.0000      -5.652125      -153.8021
  34   2.0000      -5.651452      -153.7838
  35   2.0000      -5.646935      -153.6609
  36   2.0000      -5.646606      -153.6520
  37   2.0000      -4.650728      -126.5527
  38   2.0000      -4.649057      -126.5073
  39   2.0000      -4.647685      -126.4699
  40   2.0000      -4.641545      -126.3029
  41   2.0000      -4.640551      -126.2758
  42   2.0000      -4.638986      -126.2332
  43   2.0000      -0.992666       -27.0118
  44   2.0000      -0.981667       -26.7125
  45   2.0000      -0.946805       -25.7639
  46   2.0000      -0.937240       -25.5036
  47   2.0000      -0.763573       -20.7779
  48   2.0000      -0.721189       -19.6245
  49   2.0000      -0.707552       -19.2535
  50   2.0000      -0.693883       -18.8815
  51   2.0000      -0.684759       -18.6332
  52   2.0000      -0.672707       -18.3053
  53   2.0000      -0.653308       -17.7774
  54   2.0000      -0.635481       -17.2923
  55   2.0000      -0.601003       -16.3541
  56   2.0000      -0.587551       -15.9881
  57   2.0000      -0.580404       -15.7936
  58   2.0000      -0.570124       -15.5139
  59   2.0000      -0.560649       -15.2560
  60   2.0000      -0.498957       -13.5773
  61   2.0000      -0.492366       -13.3979
  62   2.0000      -0.472274       -12.8512
  63   2.0000      -0.464824       -12.6485
  64   2.0000      -0.457334       -12.4447
  65   2.0000      -0.448737       -12.2108
  66   2.0000      -0.447193       -12.1687
  67   2.0000      -0.427824       -11.6417
  68   2.0000      -0.426800       -11.6138
  69   2.0000      -0.419494       -11.4150
  70   2.0000      -0.412032       -11.2120
  71   2.0000      -0.402569       -10.9545
  72   2.0000      -0.399198       -10.8627
  73   2.0000      -0.389666       -10.6033
  74   2.0000      -0.383538       -10.4366
  75   2.0000      -0.371779       -10.1166
  76   2.0000      -0.365263        -9.9393
  77   2.0000      -0.359440        -9.7809
  78   2.0000      -0.350700        -9.5430
  79   2.0000      -0.348935        -9.4950
  80   2.0000      -0.344873        -9.3845
  81   2.0000      -0.338973        -9.2239
  82   2.0000      -0.336991        -9.1700
  83   2.0000      -0.333854        -9.0846
  84   2.0000      -0.327960        -8.9243
  85   2.0000      -0.324027        -8.8172
  86   2.0000      -0.316071        -8.6007
  87   2.0000      -0.300767        -8.1843
  88   2.0000      -0.295088        -8.0298
  89   2.0000      -0.291974        -7.9450
  90   2.0000      -0.279240        -7.5985
  91   2.0000      -0.273402        -7.4396
  92   2.0000      -0.270420        -7.3585
  93   2.0000      -0.262008        -7.1296
  94   2.0000      -0.257916        -7.0183
  95   2.0000      -0.236670        -6.4401
  96   2.0000      -0.219678        -5.9778
  97   2.0000      -0.208966        -5.6863
  98   2.0000      -0.201904        -5.4941
  99   2.0000      -0.196780        -5.3546
 100   2.0000      -0.193485        -5.2650
 101   0.0000      -0.042796        -1.1645
 102   0.0000      -0.023942        -0.6515
 103   0.0000      -0.018685        -0.5084
 104   0.0000       0.002603         0.0708
 105   0.0000       0.018572         0.5054

MULLIKEN ATOMIC CHARGES
-----------------------
   0 C :   -0.306475
   1 C :   -0.006872
   2 O :   -0.362911
   3 P :    0.612431
   4 S :   -0.324612
   5 O :   -0.390365
   6 C :   -0.006667
   7 C :   -0.313252
   8 S :   -0.075167
   9 C :   -0.355307
  10 S :   -0.098455
  11 P :    0.622464
  12 S :   -0.318212
  13 O :   -0.353265
  14 C :    0.012629
  15 C :   -0.331553
  16 O :   -0.382040
  17 C :   -0.001100
  18 C :   -0.326903
  19 H :    0.122062
  20 H :    0.121845
  21 H :    0.106748
  22 H :    0.101444
  23 H :    0.117531
  24 H :    0.102774
  25 H :    0.111487
  26 H :    0.129509
  27 H :    0.110699
  28 H :    0.112624
  29 H :    0.186703
  30 H :    0.198292
  31 H :    0.115824
  32 H :    0.105489
  33 H :    0.138104
  34 H :    0.111792
  35 H :    0.118250
  36 H :    0.107140
  37 H :    0.115689
  38 H :    0.119838
  39 H :    0.118327
  40 H :    0.133459
Sum of atomic charges:   -0.0000000

LOEWDIN ATOMIC CHARGES
----------------------
   0 C :   -0.368579
   1 C :   -0.118550
   2 O :   -0.235348
   3 P :    0.564188
   4 S :   -0.321145
   5 O :   -0.252370
   6 C :   -0.122914
   7 C :   -0.366901
   8 S :    0.091016
   9 C :   -0.475062
  10 S :    0.084633
  11 P :    0.584019
  12 S :   -0.306801
  13 O :   -0.230367
  14 C :   -0.106290
  15 C :   -0.374319
  16 O :   -0.243424
  17 C :   -0.116858
  18 C :   -0.372543
  19 H :    0.128709
  20 H :    0.117783
  21 H :    0.127983
  22 H :    0.109377
  23 H :    0.115465
  24 H :    0.116781
  25 H :    0.109098
  26 H :    0.122988
  27 H :    0.121385
  28 H :    0.131054
  29 H :    0.135224
  30 H :    0.127848
  31 H :    0.125844
  32 H :    0.113208
  33 H :    0.122185
  34 H :    0.130955
  35 H :    0.115858
  36 H :    0.119661
  37 H :    0.114170
  38 H :    0.124358
  39 H :    0.134228
  40 H :    0.123454

  Mayer bond orders larger than 0.100000
B(  0-C ,  1-C ) :   1.1653 B(  0-C , 19-H ) :   0.9447 B(  0-C , 20-H ) :   0.9351
B(  0-C , 21-H ) :   0.9363 B(  1-C ,  2-O ) :   0.8993 B(  1-C , 22-H ) :   0.9312
B(  1-C , 23-H ) :   0.9183 B(  2-O ,  3-P ) :   1.1314 B(  3-P ,  4-S ) :   1.6431
B(  3-P ,  5-O ) :   1.0426 B(  3-P ,  8-S ) :   0.9938 B(  5-O ,  6-C ) :   0.9150
B(  6-C ,  7-C ) :   1.1649 B(  6-C , 24-H ) :   0.9330 B(  6-C , 25-H ) :   0.9093
B(  7-C , 26-H ) :   0.9354 B(  7-C , 27-H ) :   0.9463 B(  7-C , 28-H ) :   0.9391
B(  8-S ,  9-C ) :   0.9554 B(  9-C , 10-S ) :   1.0155 B(  9-C , 29-H ) :   0.9086
B(  9-C , 30-H ) :   0.8646 B( 10-S , 11-P ) :   0.9392 B( 10-S , 12-S ) :   0.1045
B( 11-P , 12-S ) :   1.6243 B( 11-P , 13-O ) :   1.1490 B( 11-P , 16-O ) :   1.0813
B( 13-O , 14-C ) :   0.8923 B( 14-C , 15-C ) :   1.1699 B( 14-C , 31-H ) :   0.9322
B( 14-C , 32-H ) :   0.9305 B( 15-C , 33-H ) :   0.9340 B( 15-C , 34-H ) :   0.9347
B( 15-C , 35-H ) :   0.9391 B( 16-O , 17-C ) :   0.9007 B( 17-C , 18-C ) :   1.1661
B( 17-C , 36-H ) :   0.9334 B( 17-C , 37-H ) :   0.9166 B( 18-C , 38-H ) :   0.9443
B( 18-C , 39-H ) :   0.9368 B( 18-C , 40-H ) :   0.9321

Dispersion correction           -0.066833883
FINAL SINGLE POINT ENERGY     -2929.515276363577

DIPOLE MOMENT
-------------

Method             : SCF
Type of density    : Electron Density
Multiplicity       :   1
Irrep              :   0
Energy             : -2929.6358149432912796 Eh
Relativity type    :
Basis              : AO
                                X                 Y                 Z
Electronic contribution:      1.345026898       2.886522481       1.233476235
Nuclear contribution   :     -2.362480195      -3.620725006      -1.250530678
                        -----------------------------------------
Total Dipole Moment    :     -1.017453297      -0.734202525      -0.017054443
                        -----------------------------------------
Magnitude (a.u.)       :      1.254812900
Magnitude (Debye)      :      3.189480919

Rotational constants in cm-1:             0.013101             0.004995             0.004810
Rotational constants in MHz :           392.750673           149.741017           144.204416

                             ****ORCA TERMINATED NORMALLY****
TOTAL RUN TIME: 0 days 0 hours 0 minutes 21 seconds 380 msec
