                         Program Version 6.0.0  -   RELEASE  -
|  1> ! wb97x-v def2-tzvp def2/J RIJCOSX DEFGRID2 scfconv7 GCP(DFT/TZ) printgap
|  2> %output
|  3>     printlevel normal
|  4> end
|  5> * xyz 0 1
|  6> C 0.7534482235891036 -2.3949928644207716 2.4714578074712
|  7> C 1.923948109431282 -1.4801915827691892 2.2194940176428015
|  8> O 1.4778769980917348 -0.40968853112046755 1.309054908466727
|  9> P 2.341682653829793 0.010147932390607125 0.026220677001036558
| 10> S 3.002482479174028 -1.4169050187340617 -1.1228344909244534
| 11> O 3.450022303034453 0.9624442570519397 0.7090420093289765
| 12> C 4.584667624321567 1.4672107045769767 -0.0783523599860631
| 13> C 5.361825161678709 2.403103006480006 0.8098581904199129
| 14> S 1.0683368693462314 1.4386244168035605 -0.8768783353099594
| 15> C 0.19291037866199273 0.41793568667989245 -2.126219337229196
| 16> S -0.8669828427669702 -0.9491729331925927 -1.5125973341166516
| 17> P -2.3373386043069337 0.10228188218673881 -0.41290871475785346
| 18> S -2.8578356074339566 1.849552461961271 -1.0981854815157248
| 19> O -1.7223601243097304 0.039983545685047035 1.0660199008123443
| 20> C -2.3650622747514416 0.7330386333704225 2.19687071519695
| 21> C -1.2758528782376592 1.3417343811073132 3.042176084046891
| 22> O -3.4994506991110805 -1.010893780725757 -0.301738941578344
| 23> C -4.467821984974703 -1.190878366630081 -1.3939420906624151
| 24> C -5.292569235421399 -2.406004455837479 -1.05977133899424
| 25> H -0.090574277509786 -1.8445521726085743 2.897570944249898
| 26> H 0.4321134271964655 -2.8786196022715287 1.5441322642041173
| 27> H 1.05430261562278 -3.1707073861824555 3.1828258489693537
| 28> H 2.763505815463979 -2.015768912236097 1.7658266635603266
| 29> H 2.2663984847266634 -0.981687658924457 3.130545401855683
| 30> H 5.185073667817191 0.6094021936192412 -0.3947266133621892
| 31> H 4.194200133626325 1.9803612622421118 -0.9636999076264245
| 32> H 5.733642256869909 1.881424753345552 1.6962161093197587
| 33> H 6.219625513800138 2.7890416483543707 0.2508455510172173
| 34> H 4.744943495050115 3.249502128619832 1.1243062614324715
| 35> H 0.9226093412583866 -0.061119589297384425 -2.785377322979803
| 36> H -0.4121665434264442 1.1251945094403901 -2.7007487157417116
| 37> H -3.0481811333219024 1.4964271924621317 1.8109263377617626
| 38> H -2.9395831713805705 -0.023028382126736465 2.7400123999221715
| 39> H -0.7163851532295817 2.0911212687600145 2.473907667766627
| 40> H -1.73043356033903 1.8312471585929382 3.909333420443667
| 41> H -0.5821587343837834 0.5761880150534697 3.4029261985803916
| 42> H -5.077936175040861 -0.28525115003335944 -1.4560870463827993
| 43> H -3.9183799141719042 -1.3206076876031276 -2.332513505085717
| 44> H -6.0310614309936845 -2.561389706926766 -1.8521349091800752
| 45> H -4.665396025009121 -3.299252509514853 -0.9918973765098534
| 46> H -5.824712705928925 -2.2688348040191344 -0.11420766008058576
| 47> *
| 48>
| 49>                          ****END OF INPUT****

CARTESIAN COORDINATES (ANGSTROEM)
---------------------------------
  C      0.753448   -2.394993    2.471458
  C      1.923948   -1.480192    2.219494
  O      1.477877   -0.409689    1.309055
  P      2.341683    0.010148    0.026221
  S      3.002482   -1.416905   -1.122834
  O      3.450022    0.962444    0.709042
  C      4.584668    1.467211   -0.078352
  C      5.361825    2.403103    0.809858
  S      1.068337    1.438624   -0.876878
  C      0.192910    0.417936   -2.126219
  S     -0.866983   -0.949173   -1.512597
  P     -2.337339    0.102282   -0.412909
  S     -2.857836    1.849552   -1.098185
  O     -1.722360    0.039984    1.066020
  C     -2.365062    0.733039    2.196871
  C     -1.275853    1.341734    3.042176
  O     -3.499451   -1.010894   -0.301739
  C     -4.467822   -1.190878   -1.393942
  C     -5.292569   -2.406004   -1.059771
  H     -0.090574   -1.844552    2.897571
  H      0.432113   -2.878620    1.544132
  H      1.054303   -3.170707    3.182826
  H      2.763506   -2.015769    1.765827
  H      2.266398   -0.981688    3.130545
  H      5.185074    0.609402   -0.394727
  H      4.194200    1.980361   -0.963700
  H      5.733642    1.881425    1.696216
  H      6.219626    2.789042    0.250846
  H      4.744943    3.249502    1.124306
  H      0.922609   -0.061120   -2.785377
  H     -0.412167    1.125195   -2.700749
  H     -3.048181    1.496427    1.810926
  H     -2.939583   -0.023028    2.740012
  H     -0.716385    2.091121    2.473908
  H     -1.730434    1.831247    3.909333
  H     -0.582159    0.576188    3.402926
  H     -5.077936   -0.285251   -1.456087
  H     -3.918380   -1.320608   -2.332514
  H     -6.031061   -2.561390   -1.852135
  H     -4.665396   -3.299253   -0.991897
  H     -5.824713   -2.268835   -0.114208

 Total Charge           Charge          ....    0
 Multiplicity           Mult            ....    1
 Number of Electrons    NEL             ....  202
 Basis Dimension        Dim             ....  757

ORBITAL ENERGIES
----------------

  NO   OCC          E(Eh)            E(eV)
   0   2.0000     -94.141568     -2561.7223
   1   2.0000     -94.141393     -2561.7176
   2   2.0000     -94.081400     -2560.0850
   3   2.0000     -94.081190     -2560.0793
   4   2.0000     -82.117167     -2234.5217
   5   2.0000     -82.116981     -2234.5167
   6   2.0000     -21.709562      -590.7472
   7   2.0000     -21.709495      -590.7454
   8   2.0000     -21.703809      -590.5907
   9   2.0000     -21.703628      -590.5857
  10   2.0000     -12.123045      -329.8848
  11   2.0000     -12.114678      -329.6571
  12   2.0000     -12.114498      -329.6523
  13   2.0000     -12.112841      -329.6072
  14   2.0000     -12.112420      -329.5957
  15   2.0000     -12.049470      -327.8828
  16   2.0000     -12.049441      -327.8819
  17   2.0000     -12.043441      -327.7187
  18   2.0000     -12.042902      -327.7040
  19   2.0000      -9.652895      -262.6686
  20   2.0000      -9.652709      -262.6636
  21   2.0000      -9.594309      -261.0744
  22   2.0000      -9.594085      -261.0683
  23   2.0000      -8.230427      -223.9613
  24   2.0000      -8.230234      -223.9561
  25   2.0000      -7.630676      -207.6412
  26   2.0000      -7.630420      -207.6343
  27   2.0000      -7.629830      -207.6182
  28   2.0000      -7.629122      -207.5990
  29   2.0000      -7.628292      -207.5764
  30   2.0000      -7.627590      -207.5573
  31   2.0000      -7.571890      -206.0416
  32   2.0000      -7.571660      -206.0354
  33   2.0000      -7.570209      -205.9959
  34   2.0000      -7.570118      -205.9934
  35   2.0000      -7.569948      -205.9888
  36   2.0000      -7.569786      -205.9843
  37   2.0000      -6.394616      -174.0063
  38   2.0000      -6.394503      -174.0033
  39   2.0000      -6.394432      -174.0013
  40   2.0000      -6.394303      -173.9978
  41   2.0000      -6.394007      -173.9898
  42   2.0000      -6.393799      -173.9841
  43   2.0000      -1.717683       -46.7405
  44   2.0000      -1.717462       -46.7345
  45   2.0000      -1.693864       -46.0924
  46   2.0000      -1.693671       -46.0871
  47   2.0000      -1.328557       -36.1519
  48   2.0000      -1.313995       -35.7556
  49   2.0000      -1.302127       -35.4327
  50   2.0000      -1.287835       -35.0438
  51   2.0000      -1.287482       -35.0342
  52   2.0000      -1.249651       -34.0047
  53   2.0000      -1.225912       -33.3588
  54   2.0000      -1.205137       -32.7934
  55   2.0000      -1.167532       -31.7702
  56   2.0000      -1.164281       -31.6817
  57   2.0000      -1.146855       -31.2075
  58   2.0000      -1.146011       -31.1846
  59   2.0000      -1.114220       -30.3195
  60   2.0000      -1.080388       -29.3988
  61   2.0000      -1.074921       -29.2501
  62   2.0000      -1.051308       -28.6075
  63   2.0000      -1.050841       -28.5948
  64   2.0000      -0.990476       -26.9522
  65   2.0000      -0.986113       -26.8335
  66   2.0000      -0.983262       -26.7559
  67   2.0000      -0.982412       -26.7328
  68   2.0000      -0.971003       -26.4223
  69   2.0000      -0.969774       -26.3889
  70   2.0000      -0.956282       -26.0218
  71   2.0000      -0.955489       -26.0002
  72   2.0000      -0.920300       -25.0426
  73   2.0000      -0.888793       -24.1853
  74   2.0000      -0.876427       -23.8488
  75   2.0000      -0.874595       -23.7990
  76   2.0000      -0.874192       -23.7880
  77   2.0000      -0.863983       -23.5102
  78   2.0000      -0.861567       -23.4444
  79   2.0000      -0.845319       -23.0023
  80   2.0000      -0.844786       -22.9878
  81   2.0000      -0.839000       -22.8303
  82   2.0000      -0.838653       -22.8209
  83   2.0000      -0.834192       -22.6995
  84   2.0000      -0.825267       -22.4566
  85   2.0000      -0.823150       -22.3990
  86   2.0000      -0.821877       -22.3644
  87   2.0000      -0.818959       -22.2850
  88   2.0000      -0.817336       -22.2408
  89   2.0000      -0.789600       -21.4861
  90   2.0000      -0.787304       -21.4236
  91   2.0000      -0.784537       -21.3483
  92   2.0000      -0.783030       -21.3073
  93   2.0000      -0.774373       -21.0717
  94   2.0000      -0.750544       -20.4233
  95   2.0000      -0.687393       -18.7049
  96   2.0000      -0.672415       -18.2973
  97   2.0000      -0.644778       -17.5453
  98   2.0000      -0.644401       -17.5350
  99   2.0000      -0.639506       -17.4018
 100   2.0000      -0.637495       -17.3471
 101   0.0000      -0.312629        -8.5071
 102   0.0000      -0.310479        -8.4486
 103   0.0000      -0.269743        -7.3401
 104   0.0000      -0.239335        -6.5126
 105   0.0000      -0.229506        -6.2452

MULLIKEN ATOMIC CHARGES
-----------------------
   0 C :   -0.312265
   1 C :   -0.044148
   2 O :   -0.275066
   3 P :    0.609447
   4 S :   -0.423928
   5 O :   -0.313780
   6 C :   -0.058363
   7 C :   -0.310734
   8 S :   -0.116153
   9 C :   -0.196650
  10 S :   -0.115609
  11 P :    0.609360
  12 S :   -0.423224
  13 O :   -0.274624
  14 C :   -0.045902
  15 C :   -0.308095
  16 O :   -0.315030
  17 C :   -0.057829
  18 C :   -0.310501
  19 H :    0.107688
  20 H :    0.129056
  21 H :    0.113370
  22 H :    0.118466
  23 H :    0.112390
  24 H :    0.126915
  25 H :    0.112347
  26 H :    0.117008
  27 H :    0.112809
  28 H :    0.119356
  29 H :    0.173706
  30 H :    0.173928
  31 H :    0.118964
  32 H :    0.111790
  33 H :    0.127648
  34 H :    0.114247
  35 H :    0.104514
  36 H :    0.126609
  37 H :    0.112862
  38 H :    0.113016
  39 H :    0.119572
  40 H :    0.116832
Sum of atomic charges:    0.0000000

LOEWDIN ATOMIC CHARGES
----------------------
   0 C :   -0.304478
   1 C :   -0.312804
   2 O :    0.035227
   3 P :   -0.035573
   4 S :   -0.122639
   5 O :    0.023292
   6 C :   -0.324424
   7 C :   -0.304171
   8 S :    0.359364
   9 C :   -0.703576
  10 S :    0.359390
  11 P :   -0.035753
  12 S :   -0.123368
  13 O :    0.034839
  14 C :   -0.312881
  15 C :   -0.304218
  16 O :    0.023088
  17 C :   -0.324005
  18 C :   -0.304216
  19 H :    0.118532
  20 H :    0.126185
  21 H :    0.123731
  22 H :    0.120533
  23 H :    0.122780
  24 H :    0.121757
  25 H :    0.119312
  26 H :    0.121925
  27 H :    0.125698
  28 H :    0.122146
  29 H :    0.115839
  30 H :    0.115988
  31 H :    0.120379
  32 H :    0.122373
  33 H :    0.126135
  34 H :    0.123838
  35 H :    0.118250
  36 H :    0.122143
  37 H :    0.119537
  38 H :    0.125651
  39 H :    0.122271
  40 H :    0.121901

  Mayer bond orders larger than 0.100000
B(  0-C ,  1-C ) :   1.0157 B(  0-C , 19-H ) :   0.9762 B(  0-C , 20-H ) :   0.9725
B(  0-C , 21-H ) :   0.9701 B(  1-C ,  2-O ) :   0.8735 B(  1-C , 22-H ) :   0.9550
B(  1-C , 23-H ) :   0.9699 B(  2-O ,  3-P ) :   1.2299 B(  3-P ,  4-S ) :   1.7979
B(  3-P ,  5-O ) :   1.1819 B(  3-P ,  8-S ) :   1.0908 B(  5-O ,  6-C ) :   0.8871
B(  6-C ,  7-C ) :   1.0050 B(  6-C , 24-H ) :   0.9658 B(  6-C , 25-H ) :   0.9645
B(  7-C , 26-H ) :   0.9750 B(  7-C , 27-H ) :   0.9702 B(  7-C , 28-H ) :   0.9752
B(  8-S ,  9-C ) :   1.0120 B(  9-C , 10-S ) :   1.0124 B(  9-C , 29-H ) :   0.9350
B(  9-C , 30-H ) :   0.9350 B( 10-S , 11-P ) :   1.0914 B( 11-P , 12-S ) :   1.8041
B( 11-P , 13-O ) :   1.2275 B( 11-P , 16-O ) :   1.1795 B( 13-O , 14-C ) :   0.8800
B( 14-C , 15-C ) :   1.0161 B( 14-C , 31-H ) :   0.9544 B( 14-C , 32-H ) :   0.9702
B( 15-C , 33-H ) :   0.9731 B( 15-C , 34-H ) :   0.9698 B( 15-C , 35-H ) :   0.9769
B( 16-O , 17-C ) :   0.8856 B( 17-C , 18-C ) :   1.0048 B( 17-C , 36-H ) :   0.9663
B( 17-C , 37-H ) :   0.9646 B( 18-C , 38-H ) :   0.9703 B( 18-C , 39-H ) :   0.9751
B( 18-C , 40-H ) :   0.9748

FINAL SINGLE POINT ENERGY     -2932.536681807703

DIPOLE MOMENT
-------------

Method             : SCF
Type of density    : Electron Density
Multiplicity       :   1
Irrep              :   0
Energy             : -2932.5663342800030478 Eh
Relativity type    :
Basis              : AO
                                X                 Y                 Z
Electronic contribution:      1.280776749       3.331411391     -16.201032469
Nuclear contribution   :     -1.345634586      -3.509178111      17.107445486
                        -----------------------------------------
Total Dipole Moment    :     -0.064857837      -0.177766719       0.906413018
                        -----------------------------------------
Magnitude (a.u.)       :      0.925954699
Magnitude (Debye)      :      2.353589802

Rotational constants in cm-1:             0.012249             0.004468             0.004400
Rotational constants in MHz :           367.218718           133.942904           131.913862

                             ****ORCA TERMINATED NORMALLY****
TOTAL RUN TIME: 0 days 0 hours 14 minutes 29 seconds 622 msec
