                         Program Version 6.0.0  -   RELEASE  -
|  1> ! wb97x-v def2-tzvp def2/J RIJCOSX DEFGRID2 scfconv7 GCP(DFT/TZ) printgap
|  2> %output
|  3>     printlevel normal
|  4> end
|  5> %cpcm
|  6>     smd true
|  7>     smdsolvent "water"
|  8> end
|  9> * xyz 0 1
| 10> C 0.7534482235891036 -2.3949928644207716 2.4714578074712
| 11> C 1.923948109431282 -1.4801915827691892 2.2194940176428015
| 12> O 1.4778769980917348 -0.40968853112046755 1.309054908466727
| 13> P 2.341682653829793 0.010147932390607125 0.026220677001036558
| 14> S 3.002482479174028 -1.4169050187340617 -1.1228344909244534
| 15> O 3.450022303034453 0.9624442570519397 0.7090420093289765
| 16> C 4.584667624321567 1.4672107045769767 -0.0783523599860631
| 17> C 5.361825161678709 2.403103006480006 0.8098581904199129
| 18> S 1.0683368693462314 1.4386244168035605 -0.8768783353099594
| 19> C 0.19291037866199273 0.41793568667989245 -2.126219337229196
| 20> S -0.8669828427669702 -0.9491729331925927 -1.5125973341166516
| 21> P -2.3373386043069337 0.10228188218673881 -0.41290871475785346
| 22> S -2.8578356074339566 1.849552461961271 -1.0981854815157248
| 23> O -1.7223601243097304 0.039983545685047035 1.0660199008123443
| 24> C -2.3650622747514416 0.7330386333704225 2.19687071519695
| 25> C -1.2758528782376592 1.3417343811073132 3.042176084046891
| 26> O -3.4994506991110805 -1.010893780725757 -0.301738941578344
| 27> C -4.467821984974703 -1.190878366630081 -1.3939420906624151
| 28> C -5.292569235421399 -2.406004455837479 -1.05977133899424
| 29> H -0.090574277509786 -1.8445521726085743 2.897570944249898
| 30> H 0.4321134271964655 -2.8786196022715287 1.5441322642041173
| 31> H 1.05430261562278 -3.1707073861824555 3.1828258489693537
| 32> H 2.763505815463979 -2.015768912236097 1.7658266635603266
| 33> H 2.2663984847266634 -0.981687658924457 3.130545401855683
| 34> H 5.185073667817191 0.6094021936192412 -0.3947266133621892
| 35> H 4.194200133626325 1.9803612622421118 -0.9636999076264245
| 36> H 5.733642256869909 1.881424753345552 1.6962161093197587
| 37> H 6.219625513800138 2.7890416483543707 0.2508455510172173
| 38> H 4.744943495050115 3.249502128619832 1.1243062614324715
| 39> H 0.9226093412583866 -0.061119589297384425 -2.785377322979803
| 40> H -0.4121665434264442 1.1251945094403901 -2.7007487157417116
| 41> H -3.0481811333219024 1.4964271924621317 1.8109263377617626
| 42> H -2.9395831713805705 -0.023028382126736465 2.7400123999221715
| 43> H -0.7163851532295817 2.0911212687600145 2.473907667766627
| 44> H -1.73043356033903 1.8312471585929382 3.909333420443667
| 45> H -0.5821587343837834 0.5761880150534697 3.4029261985803916
| 46> H -5.077936175040861 -0.28525115003335944 -1.4560870463827993
| 47> H -3.9183799141719042 -1.3206076876031276 -2.332513505085717
| 48> H -6.0310614309936845 -2.561389706926766 -1.8521349091800752
| 49> H -4.665396025009121 -3.299252509514853 -0.9918973765098534
| 50> H -5.824712705928925 -2.2688348040191344 -0.11420766008058576
| 51> *
| 52>
| 53>                          ****END OF INPUT****

CARTESIAN COORDINATES (ANGSTROEM)
---------------------------------
  C      0.753448   -2.394993    2.471458
  C      1.923948   -1.480192    2.219494
  O      1.477877   -0.409689    1.309055
  P      2.341683    0.010148    0.026221
  S      3.002482   -1.416905   -1.122834
  O      3.450022    0.962444    0.709042
  C      4.584668    1.467211   -0.078352
  C      5.361825    2.403103    0.809858
  S      1.068337    1.438624   -0.876878
  C      0.192910    0.417936   -2.126219
  S     -0.866983   -0.949173   -1.512597
  P     -2.337339    0.102282   -0.412909
  S     -2.857836    1.849552   -1.098185
  O     -1.722360    0.039984    1.066020
  C     -2.365062    0.733039    2.196871
  C     -1.275853    1.341734    3.042176
  O     -3.499451   -1.010894   -0.301739
  C     -4.467822   -1.190878   -1.393942
  C     -5.292569   -2.406004   -1.059771
  H     -0.090574   -1.844552    2.897571
  H      0.432113   -2.878620    1.544132
  H      1.054303   -3.170707    3.182826
  H      2.763506   -2.015769    1.765827
  H      2.266398   -0.981688    3.130545
  H      5.185074    0.609402   -0.394727
  H      4.194200    1.980361   -0.963700
  H      5.733642    1.881425    1.696216
  H      6.219626    2.789042    0.250846
  H      4.744943    3.249502    1.124306
  H      0.922609   -0.061120   -2.785377
  H     -0.412167    1.125195   -2.700749
  H     -3.048181    1.496427    1.810926
  H     -2.939583   -0.023028    2.740012
  H     -0.716385    2.091121    2.473908
  H     -1.730434    1.831247    3.909333
  H     -0.582159    0.576188    3.402926
  H     -5.077936   -0.285251   -1.456087
  H     -3.918380   -1.320608   -2.332514
  H     -6.031061   -2.561390   -1.852135
  H     -4.665396   -3.299253   -0.991897
  H     -5.824713   -2.268835   -0.114208

 Total Charge           Charge          ....    0
 Multiplicity           Mult            ....    1
 Number of Electrons    NEL             ....  202
 Basis Dimension        Dim             ....  757

ORBITAL ENERGIES
----------------

  NO   OCC          E(Eh)            E(eV)
   0   2.0000     -94.148859     -2561.9207
   1   2.0000     -94.148810     -2561.9194
   2   2.0000     -94.091713     -2560.3657
   3   2.0000     -94.091664     -2560.3644
   4   2.0000     -82.125540     -2234.7496
   5   2.0000     -82.125515     -2234.7489
   6   2.0000     -21.713406      -590.8518
   7   2.0000     -21.713358      -590.8505
   8   2.0000     -21.711054      -590.7878
   9   2.0000     -21.710948      -590.7849
  10   2.0000     -12.124858      -329.9342
  11   2.0000     -12.106127      -329.4245
  12   2.0000     -12.106038      -329.4220
  13   2.0000     -12.105896      -329.4182
  14   2.0000     -12.105845      -329.4168
  15   2.0000     -12.035342      -327.4983
  16   2.0000     -12.035318      -327.4977
  17   2.0000     -12.034438      -327.4737
  18   2.0000     -12.034298      -327.4699
  19   2.0000      -9.660231      -262.8683
  20   2.0000      -9.660161      -262.8663
  21   2.0000      -9.604850      -261.3612
  22   2.0000      -9.604805      -261.3600
  23   2.0000      -8.238851      -224.1905
  24   2.0000      -8.238817      -224.1896
  25   2.0000      -7.638067      -207.8424
  26   2.0000      -7.637868      -207.8369
  27   2.0000      -7.637241      -207.8199
  28   2.0000      -7.636501      -207.7998
  29   2.0000      -7.635731      -207.7788
  30   2.0000      -7.635009      -207.7592
  31   2.0000      -7.582439      -206.3287
  32   2.0000      -7.582397      -206.3275
  33   2.0000      -7.580851      -206.2855
  34   2.0000      -7.580769      -206.2832
  35   2.0000      -7.580717      -206.2818
  36   2.0000      -7.580521      -206.2765
  37   2.0000      -6.403033      -174.2354
  38   2.0000      -6.402987      -174.2341
  39   2.0000      -6.402928      -174.2325
  40   2.0000      -6.402891      -174.2315
  41   2.0000      -6.402457      -174.2197
  42   2.0000      -6.402398      -174.2181
  43   2.0000      -1.723423       -46.8967
  44   2.0000      -1.723286       -46.8930
  45   2.0000      -1.699641       -46.2496
  46   2.0000      -1.699544       -46.2469
  47   2.0000      -1.332830       -36.2682
  48   2.0000      -1.313134       -35.7322
  49   2.0000      -1.300048       -35.3761
  50   2.0000      -1.281325       -34.8666
  51   2.0000      -1.281256       -34.8647
  52   2.0000      -1.252837       -34.0914
  53   2.0000      -1.231353       -33.5068
  54   2.0000      -1.213764       -33.0282
  55   2.0000      -1.168392       -31.7936
  56   2.0000      -1.163227       -31.6530
  57   2.0000      -1.142713       -31.0948
  58   2.0000      -1.142111       -31.0784
  59   2.0000      -1.116455       -30.3803
  60   2.0000      -1.079536       -29.3757
  61   2.0000      -1.074864       -29.2485
  62   2.0000      -1.052977       -28.6530
  63   2.0000      -1.052346       -28.6358
  64   2.0000      -0.992801       -27.0155
  65   2.0000      -0.988780       -26.9061
  66   2.0000      -0.987312       -26.8661
  67   2.0000      -0.985692       -26.8220
  68   2.0000      -0.971556       -26.4374
  69   2.0000      -0.970330       -26.4040
  70   2.0000      -0.959464       -26.1083
  71   2.0000      -0.958766       -26.0894
  72   2.0000      -0.923860       -25.1395
  73   2.0000      -0.890512       -24.2321
  74   2.0000      -0.873991       -23.7825
  75   2.0000      -0.867549       -23.6072
  76   2.0000      -0.867277       -23.5998
  77   2.0000      -0.859725       -23.3943
  78   2.0000      -0.858309       -23.3558
  79   2.0000      -0.841554       -22.8998
  80   2.0000      -0.839086       -22.8327
  81   2.0000      -0.834713       -22.7137
  82   2.0000      -0.833263       -22.6742
  83   2.0000      -0.831601       -22.6290
  84   2.0000      -0.828318       -22.5397
  85   2.0000      -0.811220       -22.0744
  86   2.0000      -0.810256       -22.0482
  87   2.0000      -0.810254       -22.0481
  88   2.0000      -0.809384       -22.0245
  89   2.0000      -0.787881       -21.4393
  90   2.0000      -0.777106       -21.1461
  91   2.0000      -0.776452       -21.1283
  92   2.0000      -0.775557       -21.1040
  93   2.0000      -0.773526       -21.0487
  94   2.0000      -0.757844       -20.6220
  95   2.0000      -0.695476       -18.9249
  96   2.0000      -0.680539       -18.5184
  97   2.0000      -0.656069       -17.8525
  98   2.0000      -0.655834       -17.8462
  99   2.0000      -0.650639       -17.7048
 100   2.0000      -0.648513       -17.6469
 101   0.0000      -0.320483        -8.7208
 102   0.0000      -0.317773        -8.6471
 103   0.0000      -0.275408        -7.4942
 104   0.0000      -0.245399        -6.6777
 105   0.0000      -0.235589        -6.4107

MULLIKEN ATOMIC CHARGES
-----------------------
   0 C :   -0.376569
   1 C :   -0.033257
   2 O :   -0.324940
   3 P :    0.645286
   4 S :   -0.467208
   5 O :   -0.343368
   6 C :   -0.049198
   7 C :   -0.363237
   8 S :   -0.134274
   9 C :   -0.202112
  10 S :   -0.133529
  11 P :    0.644852
  12 S :   -0.467307
  13 O :   -0.323489
  14 C :   -0.034805
  15 C :   -0.374373
  16 O :   -0.344294
  17 C :   -0.049187
  18 C :   -0.363100
  19 H :    0.134294
  20 H :    0.129156
  21 H :    0.142541
  22 H :    0.129207
  23 H :    0.141981
  24 H :    0.135335
  25 H :    0.132163
  26 H :    0.132968
  27 H :    0.136957
  28 H :    0.132816
  29 H :    0.200253
  30 H :    0.200383
  31 H :    0.127316
  32 H :    0.140982
  33 H :    0.129007
  34 H :    0.142967
  35 H :    0.134355
  36 H :    0.136221
  37 H :    0.132317
  38 H :    0.137115
  39 H :    0.132859
  40 H :    0.132916
Sum of atomic charges:    0.0000000

LOEWDIN ATOMIC CHARGES
----------------------
   0 C :   -0.310289
   1 C :   -0.306085
   2 O :    0.015310
   3 P :   -0.030595
   4 S :   -0.148535
   5 O :    0.012568
   6 C :   -0.319207
   7 C :   -0.306230
   8 S :    0.350313
   9 C :   -0.694450
  10 S :    0.350340
  11 P :   -0.030744
  12 S :   -0.149843
  13 O :    0.015118
  14 C :   -0.306364
  15 C :   -0.309995
  16 O :    0.012417
  17 C :   -0.318908
  18 C :   -0.306218
  19 H :    0.122675
  20 H :    0.122783
  21 H :    0.132835
  22 H :    0.123939
  23 H :    0.132554
  24 H :    0.124552
  25 H :    0.124932
  26 H :    0.124764
  27 H :    0.133165
  28 H :    0.124385
  29 H :    0.124028
  30 H :    0.124129
  31 H :    0.123149
  32 H :    0.131979
  33 H :    0.123038
  34 H :    0.132858
  35 H :    0.123092
  36 H :    0.125206
  37 H :    0.124963
  38 H :    0.133127
  39 H :    0.124451
  40 H :    0.124793

  Mayer bond orders larger than 0.100000
B(  0-C ,  1-C ) :   1.0105 B(  0-C , 19-H ) :   0.9730 B(  0-C , 20-H ) :   0.9711
B(  0-C , 21-H ) :   0.9664 B(  1-C ,  2-O ) :   0.8352 B(  1-C , 22-H ) :   0.9556
B(  1-C , 23-H ) :   0.9644 B(  2-O ,  3-P ) :   1.2235 B(  3-P ,  4-S ) :   1.7678
B(  3-P ,  5-O ) :   1.1901 B(  3-P ,  8-S ) :   1.0950 B(  5-O ,  6-C ) :   0.8590
B(  6-C ,  7-C ) :   1.0118 B(  6-C , 24-H ) :   0.9624 B(  6-C , 25-H ) :   0.9598
B(  7-C , 26-H ) :   0.9716 B(  7-C , 27-H ) :   0.9656 B(  7-C , 28-H ) :   0.9728
B(  8-S ,  9-C ) :   0.9992 B(  9-C , 10-S ) :   0.9996 B(  9-C , 29-H ) :   0.9289
B(  9-C , 30-H ) :   0.9289 B( 10-S , 11-P ) :   1.0962 B( 11-P , 12-S ) :   1.7726
B( 11-P , 13-O ) :   1.2215 B( 11-P , 16-O ) :   1.1880 B( 13-O , 14-C ) :   0.8425
B( 14-C , 15-C ) :   1.0107 B( 14-C , 31-H ) :   0.9556 B( 14-C , 32-H ) :   0.9652
B( 15-C , 33-H ) :   0.9714 B( 15-C , 34-H ) :   0.9658 B( 15-C , 35-H ) :   0.9733
B( 16-O , 17-C ) :   0.8572 B( 17-C , 18-C ) :   1.0120 B( 17-C , 36-H ) :   0.9623
B( 17-C , 37-H ) :   0.9597 B( 18-C , 38-H ) :   0.9655 B( 18-C , 39-H ) :   0.9729
B( 18-C , 40-H ) :   0.9715

FINAL SINGLE POINT ENERGY     -2932.549927572490

DIPOLE MOMENT
-------------

Method             : SCF
Type of density    : Electron Density
Multiplicity       :   1
Irrep              :   0
Energy             : -2932.5795800447899637 Eh
Relativity type    :
Basis              : AO
                                X                 Y                 Z
Electronic contribution:      1.276733682       3.310315720     -16.097235297
Nuclear contribution   :     -1.345634586      -3.509178111      17.107445486
                        -----------------------------------------
Total Dipole Moment    :     -0.068900905      -0.198862391       1.010210189
                        -----------------------------------------
Magnitude (a.u.)       :      1.031900291
Magnitude (Debye)      :      2.622882097

Rotational constants in cm-1:             0.012249             0.004468             0.004400
Rotational constants in MHz :           367.218718           133.942904           131.913862

                             ****ORCA TERMINATED NORMALLY****
TOTAL RUN TIME: 0 days 0 hours 14 minutes 58 seconds 851 msec
