                         Program Version 6.0.0  -   RELEASE  -
|  1> ! pbe def2-sv(p) def2/J RI DEFGRID1 loosescf d4 GCP(DFT/SV(P)) printgap
|  2> %output
|  3>     printlevel normal
|  4> end
|  5> * xyz 0 1
|  6> C 3.8317758861 0.265125674 -2.7773339395
|  7> C 4.2250518501 0.9964157263 -1.5089985556
|  8> O 3.9191253477 0.234076393 -0.3294751457
|  9> P 2.4334278448 -0.024890134 0.1418661888
| 10> S 1.2178986098 1.4939763604 -0.161741572
| 11> O 2.8224798791 -0.3875151818 1.6325356355
| 12> C 1.983908037 -1.0790042052 2.5742198528
| 13> C 1.0314926183 -0.1319559956 3.2780349365
| 14> S 1.8672534518 -1.8715052997 -0.7510971198
| 15> C 0.1289926584 -1.5427795576 -1.1168982224
| 16> S -0.9200740874 -1.5304469351 0.3854346383
| 17> P -2.0900522632 0.1855055902 0.0071231044
| 18> S -2.019936234 0.9701097349 -1.7916119071
| 19> O -1.6598848561 1.0846461112 1.2384002305
| 20> C -1.8458748712 2.5120130766 1.2545783174
| 21> C -3.309843685 2.8966917596 1.2397054222
| 22> O -3.55183028 -0.2446576449 0.4709639182
| 23> C -4.5098645996 -0.8307644257 -0.4246456347
| 24> C -4.0818817099 -2.2007124174 -0.9112142632
| 25> H 2.7466345833 0.2019353386 -2.8504987905
| 26> H 4.2083104166 0.8093896322 -3.6375354479
| 27> H 4.244249012 -0.7405438167 -2.775481382
| 28> H 3.7119220368 1.9619284552 -1.4457657212
| 29> H 5.3037274936 1.1472486912 -1.44940646
| 30> H 1.4342852171 -1.8751058488 2.0603045743
| 31> H 2.691621856 -1.5210496848 3.2780901552
| 32> H 1.5857046631 0.6791626441 3.7428170739
| 33> H 0.3214538504 0.292930677 2.5706906479
| 34> H 0.4812907677 -0.6774520167 4.0379025324
| 35> H -0.1918859948 -2.3589621283 -1.7587553348
| 36> H 0.0203498227 -0.5773434555 -1.61769863
| 37> H -1.3511900687 2.8283714351 2.1742186792
| 38> H -1.315785977 2.935983393 0.3946858625
| 39> H -3.8354363431 2.3979709691 2.0499414599
| 40> H -3.3989821726 3.9723719912 1.3546048886
| 41> H -3.76065777 2.603816748 0.2920298617
| 42> H -5.424526476 -0.880674416 0.1675863549
| 43> H -4.6497749786 -0.1516196707 -1.2718959835
| 44> H -3.8288685138 -2.8400582468 -0.0691598196
| 45> H -4.8925139342 -2.6498991488 -1.475962754
| 46> H -3.2112144098 -2.1070174911 -1.5593322327
| 47> *
| 48>
| 49>                          ****END OF INPUT****

CARTESIAN COORDINATES (ANGSTROEM)
---------------------------------
  C      3.831776    0.265126   -2.777334
  C      4.225052    0.996416   -1.508999
  O      3.919125    0.234076   -0.329475
  P      2.433428   -0.024890    0.141866
  S      1.217899    1.493976   -0.161742
  O      2.822480   -0.387515    1.632536
  C      1.983908   -1.079004    2.574220
  C      1.031493   -0.131956    3.278035
  S      1.867253   -1.871505   -0.751097
  C      0.128993   -1.542780   -1.116898
  S     -0.920074   -1.530447    0.385435
  P     -2.090052    0.185506    0.007123
  S     -2.019936    0.970110   -1.791612
  O     -1.659885    1.084646    1.238400
  C     -1.845875    2.512013    1.254578
  C     -3.309844    2.896692    1.239705
  O     -3.551830   -0.244658    0.470964
  C     -4.509865   -0.830764   -0.424646
  C     -4.081882   -2.200712   -0.911214
  H      2.746635    0.201935   -2.850499
  H      4.208310    0.809390   -3.637535
  H      4.244249   -0.740544   -2.775481
  H      3.711922    1.961928   -1.445766
  H      5.303727    1.147249   -1.449406
  H      1.434285   -1.875106    2.060305
  H      2.691622   -1.521050    3.278090
  H      1.585705    0.679163    3.742817
  H      0.321454    0.292931    2.570691
  H      0.481291   -0.677452    4.037903
  H     -0.191886   -2.358962   -1.758755
  H      0.020350   -0.577343   -1.617699
  H     -1.351190    2.828371    2.174219
  H     -1.315786    2.935983    0.394686
  H     -3.835436    2.397971    2.049941
  H     -3.398982    3.972372    1.354605
  H     -3.760658    2.603817    0.292030
  H     -5.424526   -0.880674    0.167586
  H     -4.649775   -0.151620   -1.271896
  H     -3.828869   -2.840058   -0.069160
  H     -4.892514   -2.649899   -1.475963
  H     -3.211214   -2.107017   -1.559332

 Total Charge           Charge          ....    0
 Multiplicity           Mult            ....    1
 Number of Electrons    NEL             ....  202
 Basis Dimension        Dim             ....  334

ORBITAL ENERGIES
----------------

  NO   OCC          E(Eh)            E(eV)
   0   2.0000     -88.047733     -2395.9006
   1   2.0000     -88.044112     -2395.8021
   2   2.0000     -87.990443     -2394.3417
   3   2.0000     -87.984808     -2394.1883
   4   2.0000     -76.427301     -2079.6926
   5   2.0000     -76.424847     -2079.6258
   6   2.0000     -18.790556      -511.3170
   7   2.0000     -18.788365      -511.2574
   8   2.0000     -18.787212      -511.2260
   9   2.0000     -18.785854      -511.1891
  10   2.0000      -9.957009      -270.9440
  11   2.0000      -9.952155      -270.8119
  12   2.0000      -9.948705      -270.7180
  13   2.0000      -9.947953      -270.6976
  14   2.0000      -9.947733      -270.6916
  15   2.0000      -9.885191      -268.9897
  16   2.0000      -9.881581      -268.8915
  17   2.0000      -9.881020      -268.8762
  18   2.0000      -9.872616      -268.6476
  19   2.0000      -7.692598      -209.3262
  20   2.0000      -7.688912      -209.2259
  21   2.0000      -7.635277      -207.7665
  22   2.0000      -7.629308      -207.6040
  23   2.0000      -6.424625      -174.8229
  24   2.0000      -6.421992      -174.7513
  25   2.0000      -5.720534      -155.6636
  26   2.0000      -5.716830      -155.5628
  27   2.0000      -5.716766      -155.5611
  28   2.0000      -5.713617      -155.4754
  29   2.0000      -5.709824      -155.3722
  30   2.0000      -5.705694      -155.2598
  31   2.0000      -5.664161      -154.1297
  32   2.0000      -5.658170      -153.9666
  33   2.0000      -5.656080      -153.9098
  34   2.0000      -5.655308      -153.8887
  35   2.0000      -5.649832      -153.7397
  36   2.0000      -5.649692      -153.7359
  37   2.0000      -4.646807      -126.4460
  38   2.0000      -4.646305      -126.4324
  39   2.0000      -4.645561      -126.4121
  40   2.0000      -4.644226      -126.3758
  41   2.0000      -4.644208      -126.3753
  42   2.0000      -4.642337      -126.3244
  43   2.0000      -0.985889       -26.8274
  44   2.0000      -0.985703       -26.8223
  45   2.0000      -0.943634       -25.6776
  46   2.0000      -0.940818       -25.6010
  47   2.0000      -0.762771       -20.7560
  48   2.0000      -0.719921       -19.5901
  49   2.0000      -0.708257       -19.2727
  50   2.0000      -0.686308       -18.6754
  51   2.0000      -0.678921       -18.4744
  52   2.0000      -0.675280       -18.3753
  53   2.0000      -0.651675       -17.7330
  54   2.0000      -0.636878       -17.3303
  55   2.0000      -0.603794       -16.4301
  56   2.0000      -0.592860       -16.1325
  57   2.0000      -0.571185       -15.5427
  58   2.0000      -0.566489       -15.4149
  59   2.0000      -0.560573       -15.2540
  60   2.0000      -0.496479       -13.5099
  61   2.0000      -0.489470       -13.3192
  62   2.0000      -0.470586       -12.8053
  63   2.0000      -0.465299       -12.6614
  64   2.0000      -0.452357       -12.3093
  65   2.0000      -0.445806       -12.1310
  66   2.0000      -0.439453       -11.9581
  67   2.0000      -0.434681       -11.8283
  68   2.0000      -0.420873       -11.4525
  69   2.0000      -0.414842       -11.2884
  70   2.0000      -0.412658       -11.2290
  71   2.0000      -0.401473       -10.9246
  72   2.0000      -0.391411       -10.6508
  73   2.0000      -0.389848       -10.6083
  74   2.0000      -0.382382       -10.4051
  75   2.0000      -0.381452       -10.3798
  76   2.0000      -0.365001        -9.9322
  77   2.0000      -0.353546        -9.6205
  78   2.0000      -0.350599        -9.5403
  79   2.0000      -0.347364        -9.4522
  80   2.0000      -0.344387        -9.3713
  81   2.0000      -0.341296        -9.2871
  82   2.0000      -0.338877        -9.2213
  83   2.0000      -0.335347        -9.1252
  84   2.0000      -0.327994        -8.9252
  85   2.0000      -0.313002        -8.5172
  86   2.0000      -0.311969        -8.4891
  87   2.0000      -0.295688        -8.0461
  88   2.0000      -0.292862        -7.9692
  89   2.0000      -0.286731        -7.8024
  90   2.0000      -0.281571        -7.6619
  91   2.0000      -0.271957        -7.4003
  92   2.0000      -0.266945        -7.2639
  93   2.0000      -0.265339        -7.2203
  94   2.0000      -0.257239        -6.9998
  95   2.0000      -0.238053        -6.4777
  96   2.0000      -0.220743        -6.0067
  97   2.0000      -0.217515        -5.9189
  98   2.0000      -0.205135        -5.5820
  99   2.0000      -0.199719        -5.4346
 100   2.0000      -0.191476        -5.2103
 101   0.0000      -0.047017        -1.2794
 102   0.0000      -0.037473        -1.0197
 103   0.0000      -0.014177        -0.3858
 104   0.0000       0.011013         0.2997
 105   0.0000       0.015950         0.4340

MULLIKEN ATOMIC CHARGES
-----------------------
   0 C :   -0.317210
   1 C :   -0.001521
   2 O :   -0.356055
   3 P :    0.601287
   4 S :   -0.326329
   5 O :   -0.351881
   6 C :   -0.011011
   7 C :   -0.324976
   8 S :   -0.110944
   9 C :   -0.348049
  10 S :   -0.104264
  11 P :    0.624996
  12 S :   -0.317461
  13 O :   -0.358175
  14 C :   -0.002631
  15 C :   -0.304258
  16 O :   -0.371651
  17 C :   -0.001178
  18 C :   -0.312548
  19 H :    0.127026
  20 H :    0.112346
  21 H :    0.117059
  22 H :    0.113603
  23 H :    0.106003
  24 H :    0.106940
  25 H :    0.103605
  26 H :    0.110725
  27 H :    0.157559
  28 H :    0.102699
  29 H :    0.181900
  30 H :    0.214231
  31 H :    0.106389
  32 H :    0.120554
  33 H :    0.115641
  34 H :    0.111761
  35 H :    0.121917
  36 H :    0.104819
  37 H :    0.108885
  38 H :    0.119896
  39 H :    0.112454
  40 H :    0.117846
Sum of atomic charges:    0.0000000

LOEWDIN ATOMIC CHARGES
----------------------
   0 C :   -0.368740
   1 C :   -0.119172
   2 O :   -0.234026
   3 P :    0.564785
   4 S :   -0.301680
   5 O :   -0.231417
   6 C :   -0.118025
   7 C :   -0.370275
   8 S :    0.082519
   9 C :   -0.477776
  10 S :    0.085281
  11 P :    0.578283
  12 S :   -0.304505
  13 O :   -0.232107
  14 C :   -0.115471
  15 C :   -0.366202
  16 O :   -0.246124
  17 C :   -0.119360
  18 C :   -0.369334
  19 H :    0.120951
  20 H :    0.130505
  21 H :    0.124142
  22 H :    0.110744
  23 H :    0.119331
  24 H :    0.096156
  25 H :    0.117719
  26 H :    0.124728
  27 H :    0.124495
  28 H :    0.127342
  29 H :    0.134252
  30 H :    0.123607
  31 H :    0.119855
  32 H :    0.110812
  33 H :    0.125937
  34 H :    0.130538
  35 H :    0.121187
  36 H :    0.118613
  37 H :    0.109307
  38 H :    0.124597
  39 H :    0.130309
  40 H :    0.118220

  Mayer bond orders larger than 0.100000
B(  0-C ,  1-C ) :   1.1631 B(  0-C , 19-H ) :   0.9373 B(  0-C , 20-H ) :   0.9384
B(  0-C , 21-H ) :   0.9446 B(  1-C ,  2-O ) :   0.9128 B(  1-C , 22-H ) :   0.9140
B(  1-C , 23-H ) :   0.9339 B(  2-O ,  3-P ) :   1.1294 B(  3-P ,  4-S ) :   1.6253
B(  3-P ,  5-O ) :   1.1368 B(  3-P ,  8-S ) :   0.9260 B(  4-S ,  8-S ) :   0.1186
B(  5-O ,  6-C ) :   0.9172 B(  6-C ,  7-C ) :   1.1636 B(  6-C , 24-H ) :   0.9058
B(  6-C , 25-H ) :   0.9348 B(  7-C , 26-H ) :   0.9452 B(  7-C , 27-H ) :   0.9221
B(  7-C , 28-H ) :   0.9391 B(  8-S ,  9-C ) :   1.0129 B(  9-C , 10-S ) :   0.9893
B(  9-C , 29-H ) :   0.9059 B(  9-C , 30-H ) :   0.8483 B( 10-S , 11-P ) :   0.9534
B( 10-S , 12-S ) :   0.1152 B( 11-P , 12-S ) :   1.5881 B( 11-P , 13-O ) :   1.1296
B( 11-P , 16-O ) :   1.0994 B( 13-O , 14-C ) :   0.9003 B( 14-C , 15-C ) :   1.1627
B( 14-C , 31-H ) :   0.9344 B( 14-C , 32-H ) :   0.9179 B( 15-C , 33-H ) :   0.9448
B( 15-C , 34-H ) :   0.9387 B( 15-C , 35-H ) :   0.9352 B( 16-O , 17-C ) :   0.9161
B( 17-C , 18-C ) :   1.1659 B( 17-C , 36-H ) :   0.9341 B( 17-C , 37-H ) :   0.9161
B( 18-C , 38-H ) :   0.9428 B( 18-C , 39-H ) :   0.9377 B( 18-C , 40-H ) :   0.9377

Dispersion correction           -0.067898266
FINAL SINGLE POINT ENERGY     -2929.523002942491

DIPOLE MOMENT
-------------

Method             : SCF
Type of density    : Electron Density
Multiplicity       :   1
Irrep              :   0
Energy             : -2929.6404056754231533 Eh
Relativity type    :
Basis              : AO
                                X                 Y                 Z
Electronic contribution:      8.406329447      -3.581655778      -1.878484680
Nuclear contribution   :     -8.836303795       3.131796986       2.053274910
                        -----------------------------------------
Total Dipole Moment    :     -0.429974348      -0.449858792       0.174790231
                        -----------------------------------------
Magnitude (a.u.)       :      0.646376436
Magnitude (Debye)      :      1.642958332

Rotational constants in cm-1:             0.012118             0.005234             0.005081
Rotational constants in MHz :           363.291256           156.902208           152.318598

                             ****ORCA TERMINATED NORMALLY****
TOTAL RUN TIME: 0 days 0 hours 0 minutes 21 seconds 304 msec
