                         Program Version 6.0.0  -   RELEASE  -
|  1> ! pbe def2-sv(p) def2/J RI DEFGRID1 loosescf d4 GCP(DFT/SV(P)) printgap
|  2> %output
|  3>     printlevel normal
|  4> end
|  5> * xyz 0 1
|  6> C 4.4063626634 1.6198462237 -0.6247237745
|  7> C 4.5167080016 0.1594917797 -0.240021527
|  8> O 3.51153285 -0.251235415 0.7038022977
|  9> P 1.9389543557 -0.0697835736 0.524863903
| 10> S 1.2051380754 1.7188564441 0.8279751957
| 11> O 1.4075501527 -1.0899053604 1.6051069828
| 12> C 1.8174873163 -2.4771854255 1.6379879823
| 13> C 2.8364694277 -2.7023753123 2.7362053789
| 14> S 1.6055605621 -0.9352869443 -1.3985637419
| 15> C 0.3052593078 0.1479558996 -2.0294034128
| 16> S -1.3323767691 -0.656294695 -2.1112803129
| 17> P -2.2424371397 0.1176463951 -0.3909310201
| 18> S -4.1411667462 -0.292518361 -0.1471535691
| 19> O -1.9141456481 1.679266441 -0.3521064005
| 20> C -2.8106800698 2.6583558731 -0.9018459147
| 21> C -2.799304299 2.6429371927 -2.4172413076
| 22> O -1.2413905026 -0.4364571794 0.7169904423
| 23> C -1.5677528632 -0.2457415155 2.1137927547
| 24> C -2.1506988114 -1.5144936428 2.6996003655
| 25> H 5.2441770714 1.8885533268 -1.2600213819
| 26> H 3.4784869976 1.7992030464 -1.1655168999
| 27> H 4.4111875922 2.2480579906 0.2629348975
| 28> H 5.4544768612 -0.0429165328 0.2805104685
| 29> H 4.4369717845 -0.480396068 -1.1230833455
| 30> H 0.8995281613 -3.038218486 1.82515679
| 31> H 2.2188541873 -2.756769393 0.6595742356
| 32> H 2.4253908699 -2.3964909043 3.6942484556
| 33> H 3.0903576023 -3.7570515747 2.7745459053
| 34> H 3.7340908965 -2.1223266919 2.5395495702
| 35> H 0.5658792569 0.3979035814 -3.0540624453
| 36> H 0.2464063209 1.03569134 -1.3935690835
| 37> H -3.8177394911 2.4562225017 -0.5221579744
| 38> H -2.4431486986 3.6042521755 -0.5014524594
| 39> H -3.1743233382 1.6865549847 -2.7811533493
| 40> H -3.4413916739 3.4359470198 -2.7867646901
| 41> H -1.7900555054 2.7946373569 -2.7911406647
| 42> H -0.6239771045 0.0255885787 2.5907273539
| 43> H -2.2679179743 0.5895518894 2.2044057336
| 44> H -2.3329000732 -1.3654308461 3.7590142865
| 45> H -3.08981685 -1.7569210453 2.2061842092
| 46> H -1.4586694947 -2.3408972196 2.5650456846
| 47> *
| 48>
| 49>                          ****END OF INPUT****

CARTESIAN COORDINATES (ANGSTROEM)
---------------------------------
  C      4.406363    1.619846   -0.624724
  C      4.516708    0.159492   -0.240022
  O      3.511533   -0.251235    0.703802
  P      1.938954   -0.069784    0.524864
  S      1.205138    1.718856    0.827975
  O      1.407550   -1.089905    1.605107
  C      1.817487   -2.477185    1.637988
  C      2.836469   -2.702375    2.736205
  S      1.605561   -0.935287   -1.398564
  C      0.305259    0.147956   -2.029403
  S     -1.332377   -0.656295   -2.111280
  P     -2.242437    0.117646   -0.390931
  S     -4.141167   -0.292518   -0.147154
  O     -1.914146    1.679266   -0.352106
  C     -2.810680    2.658356   -0.901846
  C     -2.799304    2.642937   -2.417241
  O     -1.241391   -0.436457    0.716990
  C     -1.567753   -0.245742    2.113793
  C     -2.150699   -1.514494    2.699600
  H      5.244177    1.888553   -1.260021
  H      3.478487    1.799203   -1.165517
  H      4.411188    2.248058    0.262935
  H      5.454477   -0.042917    0.280510
  H      4.436972   -0.480396   -1.123083
  H      0.899528   -3.038218    1.825157
  H      2.218854   -2.756769    0.659574
  H      2.425391   -2.396491    3.694248
  H      3.090358   -3.757052    2.774546
  H      3.734091   -2.122327    2.539550
  H      0.565879    0.397904   -3.054062
  H      0.246406    1.035691   -1.393569
  H     -3.817739    2.456223   -0.522158
  H     -2.443149    3.604252   -0.501452
  H     -3.174323    1.686555   -2.781153
  H     -3.441392    3.435947   -2.786765
  H     -1.790056    2.794637   -2.791141
  H     -0.623977    0.025589    2.590727
  H     -2.267918    0.589552    2.204406
  H     -2.332900   -1.365431    3.759014
  H     -3.089817   -1.756921    2.206184
  H     -1.458669   -2.340897    2.565046

 Total Charge           Charge          ....    0
 Multiplicity           Mult            ....    1
 Number of Electrons    NEL             ....  202
 Basis Dimension        Dim             ....  334

ORBITAL ENERGIES
----------------

  NO   OCC          E(Eh)            E(eV)
   0   2.0000     -88.049178     -2395.9399
   1   2.0000     -88.041769     -2395.7383
   2   2.0000     -87.988981     -2394.3019
   3   2.0000     -87.982064     -2394.1137
   4   2.0000     -76.431162     -2079.7977
   5   2.0000     -76.419567     -2079.4821
   6   2.0000     -18.799235      -511.5532
   7   2.0000     -18.794355      -511.4204
   8   2.0000     -18.786214      -511.1989
   9   2.0000     -18.779031      -511.0034
  10   2.0000      -9.961680      -271.0711
  11   2.0000      -9.960473      -271.0382
  12   2.0000      -9.959165      -271.0027
  13   2.0000      -9.946133      -270.6480
  14   2.0000      -9.936824      -270.3947
  15   2.0000      -9.890280      -269.1282
  16   2.0000      -9.887614      -269.0556
  17   2.0000      -9.881695      -268.8946
  18   2.0000      -9.872745      -268.6510
  19   2.0000      -7.694113      -209.3675
  20   2.0000      -7.687361      -209.1837
  21   2.0000      -7.634034      -207.7326
  22   2.0000      -7.627245      -207.5479
  23   2.0000      -6.428244      -174.9214
  24   2.0000      -6.417600      -174.6318
  25   2.0000      -5.721893      -155.7006
  26   2.0000      -5.718412      -155.6059
  27   2.0000      -5.715631      -155.5302
  28   2.0000      -5.711497      -155.4177
  29   2.0000      -5.711429      -155.4159
  30   2.0000      -5.704201      -155.2192
  31   2.0000      -5.663130      -154.1016
  32   2.0000      -5.656219      -153.9135
  33   2.0000      -5.654798      -153.8749
  34   2.0000      -5.653808      -153.8479
  35   2.0000      -5.647922      -153.6878
  36   2.0000      -5.647277      -153.6702
  37   2.0000      -4.650961      -126.5591
  38   2.0000      -4.650222      -126.5390
  39   2.0000      -4.648439      -126.4905
  40   2.0000      -4.639999      -126.2608
  41   2.0000      -4.639557      -126.2488
  42   2.0000      -4.638011      -126.2067
  43   2.0000      -0.993631       -27.0381
  44   2.0000      -0.977950       -26.6114
  45   2.0000      -0.948959       -25.8225
  46   2.0000      -0.935438       -25.4546
  47   2.0000      -0.763916       -20.7872
  48   2.0000      -0.723552       -19.6888
  49   2.0000      -0.707068       -19.2403
  50   2.0000      -0.695144       -18.9158
  51   2.0000      -0.681733       -18.5509
  52   2.0000      -0.673446       -18.3254
  53   2.0000      -0.653342       -17.7783
  54   2.0000      -0.639651       -17.4058
  55   2.0000      -0.595149       -16.1948
  56   2.0000      -0.587335       -15.9822
  57   2.0000      -0.579094       -15.7579
  58   2.0000      -0.571986       -15.5645
  59   2.0000      -0.558838       -15.2068
  60   2.0000      -0.508535       -13.8379
  61   2.0000      -0.493320       -13.4239
  62   2.0000      -0.478313       -13.0156
  63   2.0000      -0.462637       -12.5890
  64   2.0000      -0.460997       -12.5444
  65   2.0000      -0.447443       -12.1755
  66   2.0000      -0.444514       -12.0958
  67   2.0000      -0.434629       -11.8268
  68   2.0000      -0.427605       -11.6357
  69   2.0000      -0.415831       -11.3153
  70   2.0000      -0.412503       -11.2248
  71   2.0000      -0.407619       -11.0919
  72   2.0000      -0.391171       -10.6443
  73   2.0000      -0.390062       -10.6141
  74   2.0000      -0.375387       -10.2148
  75   2.0000      -0.368381       -10.0242
  76   2.0000      -0.363252        -9.8846
  77   2.0000      -0.361241        -9.8299
  78   2.0000      -0.352312        -9.5869
  79   2.0000      -0.350193        -9.5292
  80   2.0000      -0.346727        -9.4349
  81   2.0000      -0.344645        -9.3783
  82   2.0000      -0.342383        -9.3167
  83   2.0000      -0.334215        -9.0944
  84   2.0000      -0.327285        -8.9059
  85   2.0000      -0.324785        -8.8378
  86   2.0000      -0.310548        -8.4504
  87   2.0000      -0.302102        -8.2206
  88   2.0000      -0.290164        -7.8958
  89   2.0000      -0.287440        -7.8216
  90   2.0000      -0.285039        -7.7563
  91   2.0000      -0.277514        -7.5515
  92   2.0000      -0.267957        -7.2915
  93   2.0000      -0.263749        -7.1770
  94   2.0000      -0.260715        -7.0944
  95   2.0000      -0.237827        -6.4716
  96   2.0000      -0.220965        -6.0128
  97   2.0000      -0.208535        -5.6745
  98   2.0000      -0.203783        -5.5452
  99   2.0000      -0.200077        -5.4444
 100   2.0000      -0.196374        -5.3436
 101   0.0000      -0.040859        -1.1118
 102   0.0000      -0.030295        -0.8244
 103   0.0000      -0.017245        -0.4693
 104   0.0000       0.001736         0.0472
 105   0.0000       0.011200         0.3048

MULLIKEN ATOMIC CHARGES
-----------------------
   0 C :   -0.307740
   1 C :   -0.005009
   2 O :   -0.380810
   3 P :    0.606510
   4 S :   -0.292768
   5 O :   -0.352443
   6 C :   -0.022305
   7 C :   -0.285574
   8 S :   -0.104622
   9 C :   -0.369464
  10 S :   -0.067398
  11 P :    0.603499
  12 S :   -0.325908
  13 O :   -0.368031
  14 C :   -0.004853
  15 C :   -0.316184
  16 O :   -0.376611
  17 C :   -0.003711
  18 C :   -0.294851
  19 H :    0.111727
  20 H :    0.118483
  21 H :    0.128061
  22 H :    0.107715
  23 H :    0.109367
  24 H :    0.123264
  25 H :    0.101340
  26 H :    0.119607
  27 H :    0.110975
  28 H :    0.120779
  29 H :    0.183305
  30 H :    0.212733
  31 H :    0.111364
  32 H :    0.105575
  33 H :    0.126792
  34 H :    0.112267
  35 H :    0.112585
  36 H :    0.115225
  37 H :    0.099195
  38 H :    0.103893
  39 H :    0.122796
  40 H :    0.111226
Sum of atomic charges:    0.0000000

LOEWDIN ATOMIC CHARGES
----------------------
   0 C :   -0.368823
   1 C :   -0.117524
   2 O :   -0.247143
   3 P :    0.575091
   4 S :   -0.281125
   5 O :   -0.226180
   6 C :   -0.113641
   7 C :   -0.357376
   8 S :    0.070008
   9 C :   -0.483376
  10 S :    0.092179
  11 P :    0.565565
  12 S :   -0.321561
  13 O :   -0.239861
  14 C :   -0.122391
  15 C :   -0.367472
  16 O :   -0.247917
  17 C :   -0.122410
  18 C :   -0.360244
  19 H :    0.130168
  20 H :    0.118721
  21 H :    0.130658
  22 H :    0.120311
  23 H :    0.106453
  24 H :    0.120803
  25 H :    0.103939
  26 H :    0.128778
  27 H :    0.129943
  28 H :    0.126790
  29 H :    0.137235
  30 H :    0.126454
  31 H :    0.108677
  32 H :    0.118814
  33 H :    0.121779
  34 H :    0.130672
  35 H :    0.122175
  36 H :    0.113431
  37 H :    0.107159
  38 H :    0.127398
  39 H :    0.123871
  40 H :    0.119971

  Mayer bond orders larger than 0.100000
B(  0-C ,  1-C ) :   1.1677 B(  0-C , 19-H ) :   0.9349 B(  0-C , 20-H ) :   0.9350
B(  0-C , 21-H ) :   0.9430 B(  1-C ,  2-O ) :   0.9138 B(  1-C , 22-H ) :   0.9326
B(  1-C , 23-H ) :   0.9237 B(  2-O ,  3-P ) :   1.0736 B(  3-P ,  4-S ) :   1.6407
B(  3-P ,  5-O ) :   1.1209 B(  3-P ,  8-S ) :   0.9495 B(  4-S ,  8-S ) :   0.1148
B(  4-S , 30-H ) :   0.1027 B(  5-O ,  6-C ) :   0.8959 B(  6-C ,  7-C ) :   1.1645
B(  6-C , 24-H ) :   0.9249 B(  6-C , 25-H ) :   0.9145 B(  7-C , 26-H ) :   0.9472
B(  7-C , 27-H ) :   0.9402 B(  7-C , 28-H ) :   0.9430 B(  8-S ,  9-C ) :   1.0022
B(  9-C , 10-S ) :   0.9785 B(  9-C , 29-H ) :   0.9094 B(  9-C , 30-H ) :   0.8396
B( 10-S , 11-P ) :   0.9920 B( 11-P , 12-S ) :   1.6327 B( 11-P , 13-O ) :   1.0748
B( 11-P , 16-O ) :   1.1180 B( 13-O , 14-C ) :   0.9121 B( 14-C , 15-C ) :   1.1623
B( 14-C , 31-H ) :   0.9104 B( 14-C , 32-H ) :   0.9325 B( 15-C , 33-H ) :   0.9357
B( 15-C , 34-H ) :   0.9397 B( 15-C , 35-H ) :   0.9478 B( 16-O , 17-C ) :   0.8785
B( 17-C , 18-C ) :   1.1737 B( 17-C , 36-H ) :   0.9139 B( 17-C , 37-H ) :   0.9128
B( 18-C , 38-H ) :   0.9407 B( 18-C , 39-H ) :   0.9334 B( 18-C , 40-H ) :   0.9438

Dispersion correction           -0.067002447
FINAL SINGLE POINT ENERGY     -2929.518304508811

DIPOLE MOMENT
-------------

Method             : SCF
Type of density    : Electron Density
Multiplicity       :   1
Irrep              :   0
Energy             : -2929.6396113910650456 Eh
Relativity type    :
Basis              : AO
                                X                 Y                 Z
Electronic contribution:     -9.605002564      -1.795723165      -7.647206340
Nuclear contribution   :     11.412768858       1.747539358       7.491224278
                        -----------------------------------------
Total Dipole Moment    :      1.807766294      -0.048183807      -0.155982062
                        -----------------------------------------
Magnitude (a.u.)       :      1.815122877
Magnitude (Debye)      :      4.613675698

Rotational constants in cm-1:             0.011897             0.005680             0.004827
Rotational constants in MHz :           356.673607           170.284235           144.718335

                             ****ORCA TERMINATED NORMALLY****
TOTAL RUN TIME: 0 days 0 hours 0 minutes 21 seconds 907 msec
