                         Program Version 6.0.0  -   RELEASE  -
|  1> ! r2scan-3c def2/J RI DEFGRID2 scfconv6 printgap
|  2> %output
|  3>     printlevel normal
|  4> end
|  5> * xyz 0 1
|  6> C 5.1152078347 -2.4626339609 -1.4287506243
|  7> C 4.0648756658 -1.3863880257 -1.6133403735
|  8> O 3.2554682086 -1.3535180129 -0.4194811313
|  9> P 2.2654995686 -0.1519611346 -0.1372810735
| 10> S 3.0576953843 1.645525948 -0.1552314311
| 11> O 1.6865707562 -0.6566902219 1.2411218445
| 12> C 1.5439167246 0.1608465607 2.4256327723
| 13> C 0.3079761924 -0.2968936277 3.1721775622
| 14> S 0.7323409988 -0.4791315638 -1.5790982694
| 15> C 0.0255361654 1.1856482374 -1.4951190308
| 16> S -0.7540155679 1.523969484 0.0964041676
| 17> P -2.5336152777 0.374810641 -0.2006690721
| 18> S -3.117920766 0.2473076998 -2.0619525631
| 19> O -3.6023725803 1.0746127009 0.7178126676
| 20> C -3.6124949298 1.0646415534 2.1698803083
| 21> C -2.8299320989 2.2313694969 2.7365062118
| 22> O -2.2977220644 -1.0179250423 0.5423830167
| 23> C -1.9994195785 -2.2646226282 -0.1202029331
| 24> C -0.9083517547 -2.9886636514 0.6419542345
| 25> H 4.6347669931 -3.4204231016 -1.2524789301
| 26> H 5.7244531216 -2.5236339425 -2.3244914178
| 27> H 5.7479598748 -2.2243575824 -0.5786900926
| 28> H 3.414607953 -1.6046011003 -2.4654053442
| 29> H 4.5201186312 -0.4001700283 -1.7539110858
| 30> H 2.4456048853 0.0200654276 3.0256149457
| 31> H 1.4724558205 1.2124256122 2.1300228194
| 32> H -0.5707238661 -0.19222151 2.5412579964
| 33> H 0.4127878587 -1.3388687556 3.4594952969
| 34> H 0.1851224605 0.3132053479 4.0608823419
| 35> H -0.7196099294 1.2560688904 -2.2881456004
| 36> H 0.8189865708 1.9224901072 -1.6198001941
| 37> H -4.672310556 1.1426315105 2.4179393452
| 38> H -3.2206198192 0.108223719 2.5191247901
| 39> H -2.9340715236 2.233653435 3.8169555552
| 40> H -1.7756191726 2.1521630838 2.480095002
| 41> H -3.2128586253 3.1667660748 2.3377584545
| 42> H -2.9268277448 -2.8423432084 -0.1223390348
| 43> H -1.7064425245 -2.0663740303 -1.1554593499
| 44> H -1.2140529764 -3.142297634 1.6728318098
| 45> H -0.7338225191 -3.9509149782 0.1718199304
| 46> H 0.0170392123 -2.4183762054 0.6283927046
| 47> *
| 48>
| 49>                          ****END OF INPUT****

CARTESIAN COORDINATES (ANGSTROEM)
---------------------------------
  C      5.115208   -2.462634   -1.428751
  C      4.064876   -1.386388   -1.613340
  O      3.255468   -1.353518   -0.419481
  P      2.265500   -0.151961   -0.137281
  S      3.057695    1.645526   -0.155231
  O      1.686571   -0.656690    1.241122
  C      1.543917    0.160847    2.425633
  C      0.307976   -0.296894    3.172178
  S      0.732341   -0.479132   -1.579098
  C      0.025536    1.185648   -1.495119
  S     -0.754016    1.523969    0.096404
  P     -2.533615    0.374811   -0.200669
  S     -3.117921    0.247308   -2.061953
  O     -3.602373    1.074613    0.717813
  C     -3.612495    1.064642    2.169880
  C     -2.829932    2.231369    2.736506
  O     -2.297722   -1.017925    0.542383
  C     -1.999420   -2.264623   -0.120203
  C     -0.908352   -2.988664    0.641954
  H      4.634767   -3.420423   -1.252479
  H      5.724453   -2.523634   -2.324491
  H      5.747960   -2.224358   -0.578690
  H      3.414608   -1.604601   -2.465405
  H      4.520119   -0.400170   -1.753911
  H      2.445605    0.020065    3.025615
  H      1.472456    1.212426    2.130023
  H     -0.570724   -0.192222    2.541258
  H      0.412788   -1.338869    3.459495
  H      0.185122    0.313205    4.060882
  H     -0.719610    1.256069   -2.288146
  H      0.818987    1.922490   -1.619800
  H     -4.672311    1.142632    2.417939
  H     -3.220620    0.108224    2.519125
  H     -2.934072    2.233653    3.816956
  H     -1.775619    2.152163    2.480095
  H     -3.212859    3.166766    2.337758
  H     -2.926828   -2.842343   -0.122339
  H     -1.706443   -2.066374   -1.155459
  H     -1.214053   -3.142298    1.672832
  H     -0.733823   -3.950915    0.171820
  H      0.017039   -2.418376    0.628393

 Total Charge           Charge          ....    0
 Multiplicity           Mult            ....    1
 Number of Electrons    NEL             ....  202
 Basis Dimension        Dim             ....  539

ORBITAL ENERGIES
----------------

  NO   OCC          E(Eh)            E(eV)
   0   2.0000     -88.577585     -2410.3186
   1   2.0000     -88.575874     -2410.2721
   2   2.0000     -88.525219     -2408.8937
   3   2.0000     -88.521319     -2408.7875
   4   2.0000     -76.917834     -2093.0407
   5   2.0000     -76.917504     -2093.0317
   6   2.0000     -18.996178      -516.9123
   7   2.0000     -18.996128      -516.9109
   8   2.0000     -18.994938      -516.8785
   9   2.0000     -18.991347      -516.7808
  10   2.0000     -10.109772      -275.1009
  11   2.0000     -10.103269      -274.9239
  12   2.0000     -10.102071      -274.8913
  13   2.0000     -10.101956      -274.8882
  14   2.0000     -10.096299      -274.7343
  15   2.0000     -10.039665      -273.1932
  16   2.0000     -10.035451      -273.0785
  17   2.0000     -10.034014      -273.0394
  18   2.0000     -10.026147      -272.8253
  19   2.0000      -7.871843      -214.2037
  20   2.0000      -7.870260      -214.1607
  21   2.0000      -7.819915      -212.7907
  22   2.0000      -7.816136      -212.6879
  23   2.0000      -6.596410      -179.4974
  24   2.0000      -6.595550      -179.4740
  25   2.0000      -5.818590      -158.3319
  26   2.0000      -5.817107      -158.2915
  27   2.0000      -5.815697      -158.2532
  28   2.0000      -5.814088      -158.2094
  29   2.0000      -5.809127      -158.0744
  30   2.0000      -5.807432      -158.0283
  31   2.0000      -5.767504      -156.9418
  32   2.0000      -5.763879      -156.8431
  33   2.0000      -5.760236      -156.7440
  34   2.0000      -5.759949      -156.7362
  35   2.0000      -5.756371      -156.6388
  36   2.0000      -5.756073      -156.6307
  37   2.0000      -4.741685      -129.0278
  38   2.0000      -4.741476      -129.0221
  39   2.0000      -4.741458      -129.0216
  40   2.0000      -4.740178      -128.9868
  41   2.0000      -4.740163      -128.9864
  42   2.0000      -4.739258      -128.9618
  43   2.0000      -1.055468       -28.7207
  44   2.0000      -1.051996       -28.6263
  45   2.0000      -1.014558       -27.6075
  46   2.0000      -1.010001       -27.4835
  47   2.0000      -0.803452       -21.8630
  48   2.0000      -0.765174       -20.8214
  49   2.0000      -0.758055       -20.6277
  50   2.0000      -0.737178       -20.0596
  51   2.0000      -0.735687       -20.0191
  52   2.0000      -0.711394       -19.3580
  53   2.0000      -0.685581       -18.6556
  54   2.0000      -0.670298       -18.2397
  55   2.0000      -0.633662       -17.2428
  56   2.0000      -0.624388       -16.9905
  57   2.0000      -0.611358       -16.6359
  58   2.0000      -0.600678       -16.3453
  59   2.0000      -0.592235       -16.1155
  60   2.0000      -0.538001       -14.6398
  61   2.0000      -0.530536       -14.4366
  62   2.0000      -0.503548       -13.7022
  63   2.0000      -0.501019       -13.6334
  64   2.0000      -0.479274       -13.0417
  65   2.0000      -0.468698       -12.7539
  66   2.0000      -0.462029       -12.5724
  67   2.0000      -0.456315       -12.4170
  68   2.0000      -0.447227       -12.1697
  69   2.0000      -0.439222       -11.9518
  70   2.0000      -0.423893       -11.5347
  71   2.0000      -0.420362       -11.4386
  72   2.0000      -0.410691       -11.1755
  73   2.0000      -0.399488       -10.8706
  74   2.0000      -0.397835       -10.8257
  75   2.0000      -0.391408       -10.6507
  76   2.0000      -0.381738       -10.3876
  77   2.0000      -0.380739       -10.3604
  78   2.0000      -0.375169       -10.2089
  79   2.0000      -0.372482       -10.1357
  80   2.0000      -0.371349       -10.1049
  81   2.0000      -0.363123        -9.8811
  82   2.0000      -0.356192        -9.6925
  83   2.0000      -0.355149        -9.6641
  84   2.0000      -0.349020        -9.4973
  85   2.0000      -0.342629        -9.3234
  86   2.0000      -0.328379        -8.9357
  87   2.0000      -0.321569        -8.7503
  88   2.0000      -0.318011        -8.6535
  89   2.0000      -0.309969        -8.4347
  90   2.0000      -0.304334        -8.2814
  91   2.0000      -0.292570        -7.9612
  92   2.0000      -0.289838        -7.8869
  93   2.0000      -0.280855        -7.6424
  94   2.0000      -0.272092        -7.4040
  95   2.0000      -0.249985        -6.8024
  96   2.0000      -0.232141        -6.3169
  97   2.0000      -0.230106        -6.2615
  98   2.0000      -0.220205        -5.9921
  99   2.0000      -0.217779        -5.9261
 100   2.0000      -0.213954        -5.8220
 101   0.0000      -0.052712        -1.4344
 102   0.0000      -0.028765        -0.7827
 103   0.0000      -0.007141        -0.1943
 104   0.0000      -0.005073        -0.1380
 105   0.0000       0.004895         0.1332

MULLIKEN ATOMIC CHARGES
-----------------------
   0 C :   -0.435992
   1 C :   -0.154489
   2 O :   -0.302688
   3 P :    0.695370
   4 S :   -0.471444
   5 O :   -0.273884
   6 C :   -0.089109
   7 C :   -0.490480
   8 S :   -0.171617
   9 C :   -0.228524
  10 S :   -0.164514
  11 P :    0.668649
  12 S :   -0.446006
  13 O :   -0.281449
  14 C :   -0.178569
  15 C :   -0.408272
  16 O :   -0.281372
  17 C :   -0.099572
  18 C :   -0.480355
  19 H :    0.153385
  20 H :    0.147308
  21 H :    0.157159
  22 H :    0.153620
  23 H :    0.168356
  24 H :    0.151272
  25 H :    0.172763
  26 H :    0.171871
  27 H :    0.152872
  28 H :    0.148306
  29 H :    0.219221
  30 H :    0.221744
  31 H :    0.155166
  32 H :    0.167848
  33 H :    0.150291
  34 H :    0.145918
  35 H :    0.164890
  36 H :    0.149586
  37 H :    0.168031
  38 H :    0.145347
  39 H :    0.145644
  40 H :    0.183720
Sum of atomic charges:    0.0000000

LOEWDIN ATOMIC CHARGES
----------------------
   0 C :   -0.384373
   1 C :    0.020529
   2 O :   -0.657623
   3 P :    0.378102
   4 S :   -0.126280
   5 O :   -0.664369
   6 C :    0.018479
   7 C :   -0.397447
   8 S :    0.139873
   9 C :   -0.428456
  10 S :    0.133411
  11 P :    0.388435
  12 S :   -0.098900
  13 O :   -0.644903
  14 C :    0.029544
  15 C :   -0.398460
  16 O :   -0.684511
  17 C :    0.016500
  18 C :   -0.398434
  19 H :    0.160175
  20 H :    0.160385
  21 H :    0.161482
  22 H :    0.172648
  23 H :    0.179887
  24 H :    0.174066
  25 H :    0.182139
  26 H :    0.166259
  27 H :    0.159897
  28 H :    0.159540
  29 H :    0.194491
  30 H :    0.192648
  31 H :    0.183295
  32 H :    0.179244
  33 H :    0.160826
  34 H :    0.161061
  35 H :    0.165273
  36 H :    0.173295
  37 H :    0.181261
  38 H :    0.156771
  39 H :    0.160096
  40 H :    0.174146

  Mayer bond orders larger than 0.100000
B(  0-C ,  1-C ) :   0.9580 B(  0-C , 19-H ) :   0.9716 B(  0-C , 20-H ) :   0.9639
B(  0-C , 21-H ) :   0.9713 B(  1-C ,  2-O ) :   0.7812 B(  1-C , 22-H ) :   0.9424
B(  1-C , 23-H ) :   0.9524 B(  2-O ,  3-P ) :   1.1275 B(  3-P ,  4-S ) :   1.7707
B(  3-P ,  5-O ) :   1.1529 B(  3-P ,  8-S ) :   1.0104 B(  5-O ,  6-C ) :   0.7641
B(  6-C ,  7-C ) :   0.9094 B(  6-C , 24-H ) :   0.9467 B(  6-C , 25-H ) :   0.9703
B(  7-C , 26-H ) :   0.9723 B(  7-C , 27-H ) :   0.9623 B(  7-C , 28-H ) :   0.9641
B(  8-S ,  9-C ) :   0.8929 B(  9-C , 10-S ) :   0.9030 B(  9-C , 29-H ) :   0.9039
B(  9-C , 30-H ) :   0.9096 B( 10-S , 11-P ) :   0.9848 B( 11-P , 12-S ) :   1.8503
B( 11-P , 13-O ) :   1.1775 B( 11-P , 16-O ) :   1.0413 B( 13-O , 14-C ) :   0.7672
B( 14-C , 15-C ) :   0.9541 B( 14-C , 31-H ) :   0.9612 B( 14-C , 32-H ) :   0.9690
B( 15-C , 33-H ) :   0.9664 B( 15-C , 34-H ) :   0.9460 B( 15-C , 35-H ) :   0.9693
B( 16-O , 17-C ) :   0.7551 B( 17-C , 18-C ) :   0.9305 B( 17-C , 36-H ) :   0.9531
B( 17-C , 37-H ) :   0.9615 B( 18-C , 38-H ) :   0.9664 B( 18-C , 39-H ) :   0.9667
B( 18-C , 40-H ) :   0.9614

Dispersion correction           -0.022047806
FINAL SINGLE POINT ENERGY     -2932.462598691387

DIPOLE MOMENT
-------------

Method             : SCF
Type of density    : Electron Density
Multiplicity       :   1
Irrep              :   0
Energy             : -2932.4872379976154662 Eh
Relativity type    :
Basis              : AO
                                X                 Y                 Z
Electronic contribution:     -5.208963553      11.133494590     -15.673965105
Nuclear contribution   :      5.581838608     -12.131132579      17.046913794
                        -----------------------------------------
Total Dipole Moment    :      0.372875055      -0.997637989       1.372948690
                        -----------------------------------------
Magnitude (a.u.)       :      1.737614879
Magnitude (Debye)      :      4.416666024

Rotational constants in cm-1:             0.012134             0.005177             0.004827
Rotational constants in MHz :           363.764993           155.193061           144.699813

                             ****ORCA TERMINATED NORMALLY****
TOTAL RUN TIME: 0 days 0 hours 1 minutes 26 seconds 605 msec
