                         Program Version 6.0.0  -   RELEASE  -
|  1> ! r2scan-3c def2/J RI DEFGRID2 scfconv6 printgap
|  2> %output
|  3>     printlevel normal
|  4> end
|  5> %cpcm
|  6>     smd true
|  7>     smdsolvent "water"
|  8> end
|  9> * xyz 0 1
| 10> C 5.1152078347 -2.4626339609 -1.4287506243
| 11> C 4.0648756658 -1.3863880257 -1.6133403735
| 12> O 3.2554682086 -1.3535180129 -0.4194811313
| 13> P 2.2654995686 -0.1519611346 -0.1372810735
| 14> S 3.0576953843 1.645525948 -0.1552314311
| 15> O 1.6865707562 -0.6566902219 1.2411218445
| 16> C 1.5439167246 0.1608465607 2.4256327723
| 17> C 0.3079761924 -0.2968936277 3.1721775622
| 18> S 0.7323409988 -0.4791315638 -1.5790982694
| 19> C 0.0255361654 1.1856482374 -1.4951190308
| 20> S -0.7540155679 1.523969484 0.0964041676
| 21> P -2.5336152777 0.374810641 -0.2006690721
| 22> S -3.117920766 0.2473076998 -2.0619525631
| 23> O -3.6023725803 1.0746127009 0.7178126676
| 24> C -3.6124949298 1.0646415534 2.1698803083
| 25> C -2.8299320989 2.2313694969 2.7365062118
| 26> O -2.2977220644 -1.0179250423 0.5423830167
| 27> C -1.9994195785 -2.2646226282 -0.1202029331
| 28> C -0.9083517547 -2.9886636514 0.6419542345
| 29> H 4.6347669931 -3.4204231016 -1.2524789301
| 30> H 5.7244531216 -2.5236339425 -2.3244914178
| 31> H 5.7479598748 -2.2243575824 -0.5786900926
| 32> H 3.414607953 -1.6046011003 -2.4654053442
| 33> H 4.5201186312 -0.4001700283 -1.7539110858
| 34> H 2.4456048853 0.0200654276 3.0256149457
| 35> H 1.4724558205 1.2124256122 2.1300228194
| 36> H -0.5707238661 -0.19222151 2.5412579964
| 37> H 0.4127878587 -1.3388687556 3.4594952969
| 38> H 0.1851224605 0.3132053479 4.0608823419
| 39> H -0.7196099294 1.2560688904 -2.2881456004
| 40> H 0.8189865708 1.9224901072 -1.6198001941
| 41> H -4.672310556 1.1426315105 2.4179393452
| 42> H -3.2206198192 0.108223719 2.5191247901
| 43> H -2.9340715236 2.233653435 3.8169555552
| 44> H -1.7756191726 2.1521630838 2.480095002
| 45> H -3.2128586253 3.1667660748 2.3377584545
| 46> H -2.9268277448 -2.8423432084 -0.1223390348
| 47> H -1.7064425245 -2.0663740303 -1.1554593499
| 48> H -1.2140529764 -3.142297634 1.6728318098
| 49> H -0.7338225191 -3.9509149782 0.1718199304
| 50> H 0.0170392123 -2.4183762054 0.6283927046
| 51> *
| 52>
| 53>                          ****END OF INPUT****

CARTESIAN COORDINATES (ANGSTROEM)
---------------------------------
  C      5.115208   -2.462634   -1.428751
  C      4.064876   -1.386388   -1.613340
  O      3.255468   -1.353518   -0.419481
  P      2.265500   -0.151961   -0.137281
  S      3.057695    1.645526   -0.155231
  O      1.686571   -0.656690    1.241122
  C      1.543917    0.160847    2.425633
  C      0.307976   -0.296894    3.172178
  S      0.732341   -0.479132   -1.579098
  C      0.025536    1.185648   -1.495119
  S     -0.754016    1.523969    0.096404
  P     -2.533615    0.374811   -0.200669
  S     -3.117921    0.247308   -2.061953
  O     -3.602373    1.074613    0.717813
  C     -3.612495    1.064642    2.169880
  C     -2.829932    2.231369    2.736506
  O     -2.297722   -1.017925    0.542383
  C     -1.999420   -2.264623   -0.120203
  C     -0.908352   -2.988664    0.641954
  H      4.634767   -3.420423   -1.252479
  H      5.724453   -2.523634   -2.324491
  H      5.747960   -2.224358   -0.578690
  H      3.414608   -1.604601   -2.465405
  H      4.520119   -0.400170   -1.753911
  H      2.445605    0.020065    3.025615
  H      1.472456    1.212426    2.130023
  H     -0.570724   -0.192222    2.541258
  H      0.412788   -1.338869    3.459495
  H      0.185122    0.313205    4.060882
  H     -0.719610    1.256069   -2.288146
  H      0.818987    1.922490   -1.619800
  H     -4.672311    1.142632    2.417939
  H     -3.220620    0.108224    2.519125
  H     -2.934072    2.233653    3.816956
  H     -1.775619    2.152163    2.480095
  H     -3.212859    3.166766    2.337758
  H     -2.926828   -2.842343   -0.122339
  H     -1.706443   -2.066374   -1.155459
  H     -1.214053   -3.142298    1.672832
  H     -0.733823   -3.950915    0.171820
  H      0.017039   -2.418376    0.628393

 Total Charge           Charge          ....    0
 Multiplicity           Mult            ....    1
 Number of Electrons    NEL             ....  202
 Basis Dimension        Dim             ....  539

ORBITAL ENERGIES
----------------

  NO   OCC          E(Eh)            E(eV)
   0   2.0000     -88.579901     -2410.3816
   1   2.0000     -88.579123     -2410.3605
   2   2.0000     -88.531670     -2409.0692
   3   2.0000     -88.531395     -2409.0617
   4   2.0000     -76.923149     -2093.1853
   5   2.0000     -76.921411     -2093.1380
   6   2.0000     -18.997706      -516.9538
   7   2.0000     -18.997562      -516.9499
   8   2.0000     -18.995597      -516.8965
   9   2.0000     -18.992510      -516.8125
  10   2.0000     -10.103213      -274.9224
  11   2.0000     -10.094139      -274.6755
  12   2.0000     -10.091720      -274.6097
  13   2.0000     -10.091289      -274.5979
  14   2.0000     -10.089428      -274.5473
  15   2.0000     -10.021766      -272.7061
  16   2.0000     -10.020145      -272.6620
  17   2.0000     -10.018231      -272.6099
  18   2.0000     -10.016506      -272.5630
  19   2.0000      -7.874172      -214.2671
  20   2.0000      -7.873476      -214.2482
  21   2.0000      -7.826861      -212.9797
  22   2.0000      -7.826379      -212.9666
  23   2.0000      -6.601225      -179.6285
  24   2.0000      -6.600041      -179.5962
  25   2.0000      -5.820922      -158.3953
  26   2.0000      -5.820316      -158.3788
  27   2.0000      -5.818031      -158.3167
  28   2.0000      -5.817287      -158.2964
  29   2.0000      -5.811447      -158.1375
  30   2.0000      -5.810678      -158.1166
  31   2.0000      -5.774475      -157.1315
  32   2.0000      -5.773894      -157.1156
  33   2.0000      -5.767106      -156.9309
  34   2.0000      -5.766844      -156.9238
  35   2.0000      -5.766697      -156.9198
  36   2.0000      -5.766434      -156.9127
  37   2.0000      -4.747083      -129.1747
  38   2.0000      -4.745809      -129.1400
  39   2.0000      -4.745290      -129.1259
  40   2.0000      -4.745100      -129.1207
  41   2.0000      -4.745062      -129.1197
  42   2.0000      -4.743873      -129.0873
  43   2.0000      -1.056462       -28.7478
  44   2.0000      -1.052942       -28.6520
  45   2.0000      -1.014611       -27.6090
  46   2.0000      -1.010398       -27.4943
  47   2.0000      -0.805205       -21.9108
  48   2.0000      -0.759906       -20.6781
  49   2.0000      -0.749695       -20.4002
  50   2.0000      -0.727339       -19.7919
  51   2.0000      -0.723864       -19.6973
  52   2.0000      -0.709994       -19.3199
  53   2.0000      -0.688615       -18.7382
  54   2.0000      -0.675714       -18.3871
  55   2.0000      -0.629864       -17.1395
  56   2.0000      -0.617761       -16.8101
  57   2.0000      -0.602844       -16.4042
  58   2.0000      -0.592997       -16.1363
  59   2.0000      -0.587487       -15.9863
  60   2.0000      -0.533238       -14.5102
  61   2.0000      -0.525847       -14.3090
  62   2.0000      -0.499651       -13.5962
  63   2.0000      -0.494864       -13.4659
  64   2.0000      -0.479471       -13.0471
  65   2.0000      -0.460119       -12.5205
  66   2.0000      -0.455405       -12.3922
  67   2.0000      -0.451142       -12.2762
  68   2.0000      -0.440432       -11.9848
  69   2.0000      -0.435459       -11.8494
  70   2.0000      -0.420030       -11.4296
  71   2.0000      -0.416847       -11.3430
  72   2.0000      -0.407545       -11.0899
  73   2.0000      -0.395006       -10.7487
  74   2.0000      -0.392316       -10.6755
  75   2.0000      -0.387416       -10.5421
  76   2.0000      -0.376727       -10.2512
  77   2.0000      -0.369608       -10.0576
  78   2.0000      -0.364684        -9.9236
  79   2.0000      -0.361196        -9.8286
  80   2.0000      -0.360172        -9.8008
  81   2.0000      -0.353794        -9.6272
  82   2.0000      -0.349971        -9.5232
  83   2.0000      -0.346738        -9.4352
  84   2.0000      -0.341002        -9.2791
  85   2.0000      -0.336093        -9.1456
  86   2.0000      -0.324301        -8.8247
  87   2.0000      -0.316105        -8.6017
  88   2.0000      -0.311204        -8.4683
  89   2.0000      -0.306228        -8.3329
  90   2.0000      -0.300003        -8.1635
  91   2.0000      -0.289902        -7.8886
  92   2.0000      -0.286165        -7.7870
  93   2.0000      -0.280091        -7.6217
  94   2.0000      -0.272300        -7.4097
  95   2.0000      -0.252348        -6.8667
  96   2.0000      -0.240215        -6.5366
  97   2.0000      -0.238383        -6.4867
  98   2.0000      -0.228981        -6.2309
  99   2.0000      -0.225920        -6.1476
 100   2.0000      -0.220444        -5.9986
 101   0.0000      -0.056823        -1.5462
 102   0.0000      -0.033813        -0.9201
 103   0.0000      -0.011634        -0.3166
 104   0.0000      -0.005794        -0.1577
 105   0.0000       0.005964         0.1623

MULLIKEN ATOMIC CHARGES
-----------------------
   0 C :   -0.479743
   1 C :   -0.144892
   2 O :   -0.332252
   3 P :    0.720658
   4 S :   -0.516095
   5 O :   -0.296512
   6 C :   -0.086118
   7 C :   -0.521401
   8 S :   -0.173132
   9 C :   -0.236926
  10 S :   -0.169679
  11 P :    0.681816
  12 S :   -0.503066
  13 O :   -0.318070
  14 C :   -0.155804
  15 C :   -0.455380
  16 O :   -0.295081
  17 C :   -0.087769
  18 C :   -0.519112
  19 H :    0.166252
  20 H :    0.170117
  21 H :    0.166515
  22 H :    0.170857
  23 H :    0.172779
  24 H :    0.173557
  25 H :    0.171788
  26 H :    0.172964
  27 H :    0.168199
  28 H :    0.172669
  29 H :    0.233036
  30 H :    0.239499
  31 H :    0.177433
  32 H :    0.182188
  33 H :    0.176300
  34 H :    0.151219
  35 H :    0.174041
  36 H :    0.172029
  37 H :    0.166023
  38 H :    0.167555
  39 H :    0.169306
  40 H :    0.174231
Sum of atomic charges:    0.0000000

LOEWDIN ATOMIC CHARGES
----------------------
   0 C :   -0.388110
   1 C :    0.025062
   2 O :   -0.672835
   3 P :    0.381648
   4 S :   -0.156769
   5 O :   -0.675219
   6 C :    0.022019
   7 C :   -0.397331
   8 S :    0.140783
   9 C :   -0.425337
  10 S :    0.134586
  11 P :    0.389308
  12 S :   -0.143133
  13 O :   -0.665727
  14 C :    0.038551
  15 C :   -0.399986
  16 O :   -0.685811
  17 C :    0.019960
  18 C :   -0.401018
  19 H :    0.163604
  20 H :    0.169414
  21 H :    0.163208
  22 H :    0.179862
  23 H :    0.181738
  24 H :    0.182571
  25 H :    0.182024
  26 H :    0.165589
  27 H :    0.163587
  28 H :    0.169639
  29 H :    0.198099
  30 H :    0.197621
  31 H :    0.192852
  32 H :    0.187355
  33 H :    0.171800
  34 H :    0.161003
  35 H :    0.165604
  36 H :    0.182179
  37 H :    0.180156
  38 H :    0.163384
  39 H :    0.168866
  40 H :    0.169206

  Mayer bond orders larger than 0.100000
B(  0-C ,  1-C ) :   0.9537 B(  0-C , 19-H ) :   0.9690 B(  0-C , 20-H ) :   0.9578
B(  0-C , 21-H ) :   0.9695 B(  1-C ,  2-O ) :   0.7751 B(  1-C , 22-H ) :   0.9340
B(  1-C , 23-H ) :   0.9475 B(  2-O ,  3-P ) :   1.1311 B(  3-P ,  4-S ) :   1.7387
B(  3-P ,  5-O ) :   1.1609 B(  3-P ,  8-S ) :   1.0246 B(  5-O ,  6-C ) :   0.7512
B(  6-C ,  7-C ) :   0.9076 B(  6-C , 24-H ) :   0.9365 B(  6-C , 25-H ) :   0.9662
B(  7-C , 26-H ) :   0.9698 B(  7-C , 27-H ) :   0.9610 B(  7-C , 28-H ) :   0.9582
B(  8-S ,  9-C ) :   0.8869 B(  9-C , 10-S ) :   0.8893 B(  9-C , 29-H ) :   0.9009
B(  9-C , 30-H ) :   0.9044 B( 10-S , 11-P ) :   0.9983 B( 11-P , 12-S ) :   1.8252
B( 11-P , 13-O ) :   1.1854 B( 11-P , 16-O ) :   1.0497 B( 13-O , 14-C ) :   0.7588
B( 14-C , 15-C ) :   0.9426 B( 14-C , 31-H ) :   0.9525 B( 14-C , 32-H ) :   0.9570
B( 15-C , 33-H ) :   0.9585 B( 15-C , 34-H ) :   0.9458 B( 15-C , 35-H ) :   0.9708
B( 16-O , 17-C ) :   0.7428 B( 17-C , 18-C ) :   0.9276 B( 17-C , 36-H ) :   0.9434
B( 17-C , 37-H ) :   0.9592 B( 18-C , 38-H ) :   0.9629 B( 18-C , 39-H ) :   0.9612
B( 18-C , 40-H ) :   0.9635

Dispersion correction           -0.022047806
FINAL SINGLE POINT ENERGY     -2932.472197773134

DIPOLE MOMENT
-------------

Method             : SCF
Type of density    : Electron Density
Multiplicity       :   1
Irrep              :   0
Energy             : -2932.4968370793621943 Eh
Relativity type    :
Basis              : AO
                                X                 Y                 Z
Electronic contribution:     -5.094760444      10.801019922     -15.172581540
Nuclear contribution   :      5.581838608     -12.131132579      17.046913794
                        -----------------------------------------
Total Dipole Moment    :      0.487078164      -1.330112657       1.874332255
                        -----------------------------------------
Magnitude (a.u.)       :      2.349375708
Magnitude (Debye)      :      5.971638476

Rotational constants in cm-1:             0.012134             0.005177             0.004827
Rotational constants in MHz :           363.764993           155.193061           144.699813

                             ****ORCA TERMINATED NORMALLY****
TOTAL RUN TIME: 0 days 0 hours 1 minutes 53 seconds 904 msec
