                         Program Version 6.0.0  -   RELEASE  -
|  1> ! pbe def2-sv(p) def2/J RI DEFGRID1 loosescf d4 GCP(DFT/SV(P)) printgap
|  2> %output
|  3>     printlevel normal
|  4> end
|  5> * xyz 0 1
|  6> C 1.6722137513 -1.3667438644 -2.5668205191
|  7> C 3.0960260549 -1.1130880852 -2.1163896601
|  8> O 3.2356749567 -1.1873733471 -0.6864287824
|  9> P 2.6171945966 -0.1024543526 0.2961317522
| 10> S 2.7596534685 1.7635409965 -0.2706628847
| 11> O 3.4056163594 -0.3392074428 1.6422846567
| 12> C 3.5051228207 -1.6183643494 2.3184562908
| 13> C 4.7338614975 -2.3819708923 1.869505533
| 14> S 0.6628357888 -0.8362567821 0.7155405627
| 15> C 0.0337465969 0.7157387923 1.4407703383
| 16> S -1.7496955495 0.6642409809 1.6399639998
| 17> P -2.3383714209 0.8306627185 -0.4143696688
| 18> S -0.9277011487 1.4371574227 -1.6314625002
| 19> O -3.5745402329 1.8013100889 -0.4273660368
| 20> C -4.9216861728 1.4559444524 -0.0138171934
| 21> C -4.9978680477 1.0651166142 1.4460124147
| 22> O -3.0062788239 -0.5654129902 -0.7775188296
| 23> C -2.2337172409 -1.7421003166 -1.0850759135
| 24> C -3.1713364709 -2.7584432738 -1.7042645858
| 25> H 1.2909049683 -2.2792748091 -2.1148173733
| 26> H 1.0340811187 -0.5307242481 -2.2808444329
| 27> H 1.6497850094 -1.4608921462 -3.6477376532
| 28> H 3.4348637929 -0.1267598717 -2.4478959599
| 29> H 3.7765872367 -1.8830178282 -2.4831576274
| 30> H 3.5666428704 -1.3554714694 3.3760163617
| 31> H 2.591777844 -2.1894678391 2.1282717408
| 32> H 4.8228906921 -3.2871386601 2.4621734223
| 33> H 4.6528977075 -2.6469051085 0.8191207046
| 34> H 5.6223892757 -1.7724434492 2.0097990481
| 35> H 0.3121174389 1.5369593904 0.7749696564
| 36> H 0.4559275913 0.8521400031 2.4339440069
| 37> H -5.4823475634 2.3695280757 -0.2170195664
| 38> H -5.2769525017 0.648677019 -0.6560955776
| 39> H -4.4376888151 0.1487350363 1.6228263057
| 40> H -4.5843904603 1.8509049693 2.0729573451
| 41> H -6.0369108969 0.9020113113 1.7149342351
| 42> H -1.431550611 -1.4613272125 -1.7745934498
| 43> H -1.7882478901 -2.1165630006 -0.1586696342
| 44> H -3.6040893993 -2.359623756 -2.6173423619
| 45> H -2.6133027991 -3.6592151553 -1.9365290519
| 46> H -3.9704881896 -2.9997930649 -1.0098088269
| 47> *
| 48>
| 49>                          ****END OF INPUT****

CARTESIAN COORDINATES (ANGSTROEM)
---------------------------------
  C      1.672214   -1.366744   -2.566821
  C      3.096026   -1.113088   -2.116390
  O      3.235675   -1.187373   -0.686429
  P      2.617195   -0.102454    0.296132
  S      2.759653    1.763541   -0.270663
  O      3.405616   -0.339207    1.642285
  C      3.505123   -1.618364    2.318456
  C      4.733861   -2.381971    1.869506
  S      0.662836   -0.836257    0.715541
  C      0.033747    0.715739    1.440770
  S     -1.749696    0.664241    1.639964
  P     -2.338371    0.830663   -0.414370
  S     -0.927701    1.437157   -1.631463
  O     -3.574540    1.801310   -0.427366
  C     -4.921686    1.455944   -0.013817
  C     -4.997868    1.065117    1.446012
  O     -3.006279   -0.565413   -0.777519
  C     -2.233717   -1.742100   -1.085076
  C     -3.171336   -2.758443   -1.704265
  H      1.290905   -2.279275   -2.114817
  H      1.034081   -0.530724   -2.280844
  H      1.649785   -1.460892   -3.647738
  H      3.434864   -0.126760   -2.447896
  H      3.776587   -1.883018   -2.483158
  H      3.566643   -1.355471    3.376016
  H      2.591778   -2.189468    2.128272
  H      4.822891   -3.287139    2.462173
  H      4.652898   -2.646905    0.819121
  H      5.622389   -1.772443    2.009799
  H      0.312117    1.536959    0.774970
  H      0.455928    0.852140    2.433944
  H     -5.482348    2.369528   -0.217020
  H     -5.276953    0.648677   -0.656096
  H     -4.437689    0.148735    1.622826
  H     -4.584390    1.850905    2.072957
  H     -6.036911    0.902011    1.714934
  H     -1.431551   -1.461327   -1.774593
  H     -1.788248   -2.116563   -0.158670
  H     -3.604089   -2.359624   -2.617342
  H     -2.613303   -3.659215   -1.936529
  H     -3.970488   -2.999793   -1.009809

 Total Charge           Charge          ....    0
 Multiplicity           Mult            ....    1
 Number of Electrons    NEL             ....  202
 Basis Dimension        Dim             ....  334

ORBITAL ENERGIES
----------------

  NO   OCC          E(Eh)            E(eV)
   0   2.0000     -88.045693     -2395.8451
   1   2.0000     -88.038718     -2395.6553
   2   2.0000     -87.981944     -2394.1104
   3   2.0000     -87.979538     -2394.0449
   4   2.0000     -76.425897     -2079.6544
   5   2.0000     -76.422317     -2079.5570
   6   2.0000     -18.794240      -511.4173
   7   2.0000     -18.794042      -511.4119
   8   2.0000     -18.793391      -511.3942
   9   2.0000     -18.788305      -511.2558
  10   2.0000      -9.960878      -271.0493
  11   2.0000      -9.954204      -270.8677
  12   2.0000      -9.953832      -270.8575
  13   2.0000      -9.951143      -270.7844
  14   2.0000      -9.949630      -270.7432
  15   2.0000      -9.894480      -269.2425
  16   2.0000      -9.891158      -269.1521
  17   2.0000      -9.885182      -268.9895
  18   2.0000      -9.879226      -268.8274
  19   2.0000      -7.690403      -209.2665
  20   2.0000      -7.683253      -209.0719
  21   2.0000      -7.626652      -207.5317
  22   2.0000      -7.624789      -207.4811
  23   2.0000      -6.423441      -174.7907
  24   2.0000      -6.419844      -174.6928
  25   2.0000      -5.718363      -155.6046
  26   2.0000      -5.714728      -155.5056
  27   2.0000      -5.711012      -155.4045
  28   2.0000      -5.707997      -155.3225
  29   2.0000      -5.707605      -155.3118
  30   2.0000      -5.700208      -155.1106
  31   2.0000      -5.655776      -153.9015
  32   2.0000      -5.653825      -153.8484
  33   2.0000      -5.647056      -153.6642
  34   2.0000      -5.646829      -153.6580
  35   2.0000      -5.645302      -153.6165
  36   2.0000      -5.644910      -153.6058
  37   2.0000      -4.646369      -126.4341
  38   2.0000      -4.645044      -126.3981
  39   2.0000      -4.643692      -126.3613
  40   2.0000      -4.642819      -126.3375
  41   2.0000      -4.641541      -126.3028
  42   2.0000      -4.639986      -126.2604
  43   2.0000      -0.990605       -26.9557
  44   2.0000      -0.985964       -26.8294
  45   2.0000      -0.946271       -25.7494
  46   2.0000      -0.944025       -25.6882
  47   2.0000      -0.761092       -20.7104
  48   2.0000      -0.722531       -19.6611
  49   2.0000      -0.712395       -19.3853
  50   2.0000      -0.697027       -18.9671
  51   2.0000      -0.688231       -18.7277
  52   2.0000      -0.675864       -18.3912
  53   2.0000      -0.648392       -17.6436
  54   2.0000      -0.632668       -17.2158
  55   2.0000      -0.596285       -16.2257
  56   2.0000      -0.590597       -16.0710
  57   2.0000      -0.576749       -15.6941
  58   2.0000      -0.573840       -15.6150
  59   2.0000      -0.558314       -15.1925
  60   2.0000      -0.507829       -13.8187
  61   2.0000      -0.497255       -13.5310
  62   2.0000      -0.477976       -13.0064
  63   2.0000      -0.473472       -12.8838
  64   2.0000      -0.448981       -12.2174
  65   2.0000      -0.447645       -12.1810
  66   2.0000      -0.447039       -12.1645
  67   2.0000      -0.439562       -11.9611
  68   2.0000      -0.431544       -11.7429
  69   2.0000      -0.425249       -11.5716
  70   2.0000      -0.413557       -11.2535
  71   2.0000      -0.397431       -10.8147
  72   2.0000      -0.393647       -10.7117
  73   2.0000      -0.387516       -10.5449
  74   2.0000      -0.378986       -10.3127
  75   2.0000      -0.369048       -10.0423
  76   2.0000      -0.364423        -9.9165
  77   2.0000      -0.361058        -9.8249
  78   2.0000      -0.356448        -9.6994
  79   2.0000      -0.352937        -9.6039
  80   2.0000      -0.351330        -9.5602
  81   2.0000      -0.347092        -9.4448
  82   2.0000      -0.345189        -9.3931
  83   2.0000      -0.341422        -9.2906
  84   2.0000      -0.333545        -9.0762
  85   2.0000      -0.316842        -8.6217
  86   2.0000      -0.310817        -8.4578
  87   2.0000      -0.304284        -8.2800
  88   2.0000      -0.297588        -8.0978
  89   2.0000      -0.293701        -7.9920
  90   2.0000      -0.288442        -7.8489
  91   2.0000      -0.276685        -7.5290
  92   2.0000      -0.269356        -7.3296
  93   2.0000      -0.262971        -7.1558
  94   2.0000      -0.257778        -7.0145
  95   2.0000      -0.233189        -6.3454
  96   2.0000      -0.218986        -5.9589
  97   2.0000      -0.205596        -5.5945
  98   2.0000      -0.199084        -5.4174
  99   2.0000      -0.195228        -5.3124
 100   2.0000      -0.190070        -5.1721
 101   0.0000      -0.043389        -1.1807
 102   0.0000      -0.031137        -0.8473
 103   0.0000      -0.009043        -0.2461
 104   0.0000       0.007739         0.2106
 105   0.0000       0.012793         0.3481

MULLIKEN ATOMIC CHARGES
-----------------------
   0 C :   -0.362730
   1 C :    0.009759
   2 O :   -0.381756
   3 P :    0.607589
   4 S :   -0.299654
   5 O :   -0.359694
   6 C :   -0.011723
   7 C :   -0.292435
   8 S :   -0.129110
   9 C :   -0.335191
  10 S :   -0.125078
  11 P :    0.604696
  12 S :   -0.285877
  13 O :   -0.359132
  14 C :    0.005876
  15 C :   -0.337186
  16 O :   -0.388576
  17 C :   -0.033035
  18 C :   -0.272717
  19 H :    0.108330
  20 H :    0.173750
  21 H :    0.112373
  22 H :    0.114032
  23 H :    0.101432
  24 H :    0.107173
  25 H :    0.099089
  26 H :    0.107723
  27 H :    0.123297
  28 H :    0.120160
  29 H :    0.215822
  30 H :    0.178363
  31 H :    0.114130
  32 H :    0.112115
  33 H :    0.131098
  34 H :    0.132350
  35 H :    0.119741
  36 H :    0.124053
  37 H :    0.108316
  38 H :    0.118758
  39 H :    0.111350
  40 H :    0.112519
Sum of atomic charges:    0.0000000

LOEWDIN ATOMIC CHARGES
----------------------
   0 C :   -0.378698
   1 C :   -0.115213
   2 O :   -0.246211
   3 P :    0.569015
   4 S :   -0.294220
   5 O :   -0.241019
   6 C :   -0.117174
   7 C :   -0.360916
   8 S :    0.061211
   9 C :   -0.482802
  10 S :    0.072645
  11 P :    0.565163
  12 S :   -0.281292
  13 O :   -0.235026
  14 C :   -0.107527
  15 C :   -0.372804
  16 O :   -0.251638
  17 C :   -0.122798
  18 C :   -0.350074
  19 H :    0.118457
  20 H :    0.123044
  21 H :    0.131205
  22 H :    0.114505
  23 H :    0.116514
  24 H :    0.119948
  25 H :    0.100881
  26 H :    0.128539
  27 H :    0.125886
  28 H :    0.128953
  29 H :    0.124951
  30 H :    0.133267
  31 H :    0.124513
  32 H :    0.115621
  33 H :    0.118062
  34 H :    0.130051
  35 H :    0.134892
  36 H :    0.113099
  37 H :    0.103140
  38 H :    0.128138
  39 H :    0.130888
  40 H :    0.124823

  Mayer bond orders larger than 0.100000
B(  0-C ,  1-C ) :   1.1635 B(  0-C , 19-H ) :   0.9427 B(  0-C , 20-H ) :   0.9127
B(  0-C , 21-H ) :   0.9365 B(  1-C ,  2-O ) :   0.9046 B(  1-C , 22-H ) :   0.9168
B(  1-C , 23-H ) :   0.9334 B(  2-O ,  3-P ) :   1.0862 B(  3-P ,  4-S ) :   1.6583
B(  3-P ,  5-O ) :   1.1298 B(  3-P ,  8-S ) :   0.9460 B(  4-S ,  8-S ) :   0.1128
B(  5-O ,  6-C ) :   0.9009 B(  6-C ,  7-C ) :   1.1639 B(  6-C , 24-H ) :   0.9368
B(  6-C , 25-H ) :   0.9081 B(  7-C , 26-H ) :   0.9394 B(  7-C , 27-H ) :   0.9410
B(  7-C , 28-H ) :   0.9472 B(  8-S ,  9-C ) :   0.9726 B(  9-C , 10-S ) :   1.0201
B(  9-C , 29-H ) :   0.8486 B(  9-C , 30-H ) :   0.9053 B( 10-S , 11-P ) :   0.9211
B( 10-S , 12-S ) :   0.1155 B( 11-P , 12-S ) :   1.6738 B( 11-P , 13-O ) :   1.1482
B( 11-P , 16-O ) :   1.0658 B( 13-O , 14-C ) :   0.8972 B( 14-C , 15-C ) :   1.1700
B( 14-C , 31-H ) :   0.9335 B( 14-C , 32-H ) :   0.9270 B( 15-C , 33-H ) :   0.9306
B( 15-C , 34-H ) :   0.9416 B( 15-C , 35-H ) :   0.9350 B( 16-O , 17-C ) :   0.9016
B( 17-C , 18-C ) :   1.1569 B( 17-C , 36-H ) :   0.9117 B( 17-C , 37-H ) :   0.9200
B( 18-C , 38-H ) :   0.9503 B( 18-C , 39-H ) :   0.9421 B( 18-C , 40-H ) :   0.9509

Dispersion correction           -0.064055535
FINAL SINGLE POINT ENERGY     -2929.514479364792

DIPOLE MOMENT
-------------

Method             : SCF
Type of density    : Electron Density
Multiplicity       :   1
Irrep              :   0
Energy             : -2929.6353809947163427 Eh
Relativity type    :
Basis              : AO
                                X                 Y                 Z
Electronic contribution:      4.898263656      19.186343835       2.250076514
Nuclear contribution   :     -5.913003336     -21.213226520      -1.721367320
                        -----------------------------------------
Total Dipole Moment    :     -1.014739679      -2.026882685       0.528709194
                        -----------------------------------------
Magnitude (a.u.)       :      2.327548807
Magnitude (Debye)      :      5.916158902

Rotational constants in cm-1:             0.013138             0.004436             0.004286
Rotational constants in MHz :           393.864829           132.983015           128.491616

                             ****ORCA TERMINATED NORMALLY****
TOTAL RUN TIME: 0 days 0 hours 0 minutes 21 seconds 35 msec
