                         Program Version 6.0.0  -   RELEASE  -
|  1> ! pbe def2-sv(p) def2/J RI DEFGRID1 loosescf d4 GCP(DFT/SV(P)) printgap
|  2> %output
|  3>     printlevel normal
|  4> end
|  5> * xyz 0 1
|  6> C 5.3913401478 -0.199670709 -0.8807185437
|  7> C 4.200716224 -1.0516395238 -1.2756500454
|  8> O 3.1190440525 -0.842943265 -0.3500996978
|  9> P 1.8427629189 0.0589162889 -0.6899035122
| 10> S 2.1968558041 1.498816521 -1.9671234554
| 11> O 1.3266440148 0.373617501 0.7720421069
| 12> C 2.1128344082 1.0969736692 1.7470598905
| 13> C 1.968128288 2.5945074035 1.5701497327
| 14> S 0.3850388342 -1.3288667437 -1.3263812346
| 15> C 0.1881475028 -2.3161947226 0.1803387585
| 16> S -0.7850607752 -1.5155758317 1.505424718
| 17> P -2.0063767089 -0.1769849068 0.4269902745
| 18> S -1.3488351327 1.4943238863 -0.3906065539
| 19> O -3.1651358659 0.0954089429 1.4830995398
| 20> C -3.1243190914 1.1992944147 2.4020767081
| 21> C -1.9822146051 1.0663202323 3.3886701474
| 22> O -2.6820668258 -1.2173863002 -0.5578377226
| 23> C -3.3349456513 -0.8210136498 -1.7793277934
| 24> C -4.6308928794 -0.0873740078 -1.5056103276
| 25> H 5.1324872848 0.8542763191 -0.9612614467
| 26> H 5.6879284491 -0.4178489324 0.1414976471
| 27> H 6.2199557272 -0.4112453655 -1.5485773982
| 28> H 4.4307613836 -2.1167050814 -1.2174593635
| 29> H 3.8660574263 -0.7986896906 -2.2856138785
| 30> H 1.7048753392 0.7635304447 2.7038356293
| 31> H 3.1559559514 0.7844562509 1.6605820015
| 32> H 2.4743313991 3.1047358984 2.3831912083
| 33> H 2.4016506068 2.909070852 0.622700406
| 34> H 0.9161573869 2.8713974194 1.5675029741
| 35> H 1.1651461041 -2.5424531856 0.602568537
| 36> H -0.3302336481 -3.2203262225 -0.1306396482
| 37> H -3.0273616189 2.1251896376 1.8252781425
| 38> H -4.0960643777 1.1677939307 2.8961346081
| 39> H -2.0364575088 0.1106154937 3.9040718595
| 40> H -1.0339479068 1.121373074 2.8533588425
| 41> H -2.0286268699 1.8747505445 4.1111250634
| 42> H -2.6455060822 -0.1942834426 -2.3553845488
| 43> H -3.5012550783 -1.7624863613 -2.3043238598
| 44> H -4.4201451063 0.8623055481 -1.0151070294
| 45> H -5.1415587967 0.1055227394 -2.4437738978
| 46> H -5.2687118426 -0.6834481854 -0.8584378177
| 47> *
| 48>
| 49>                          ****END OF INPUT****

CARTESIAN COORDINATES (ANGSTROEM)
---------------------------------
  C      5.391340   -0.199671   -0.880719
  C      4.200716   -1.051640   -1.275650
  O      3.119044   -0.842943   -0.350100
  P      1.842763    0.058916   -0.689904
  S      2.196856    1.498817   -1.967123
  O      1.326644    0.373618    0.772042
  C      2.112834    1.096974    1.747060
  C      1.968128    2.594507    1.570150
  S      0.385039   -1.328867   -1.326381
  C      0.188148   -2.316195    0.180339
  S     -0.785061   -1.515576    1.505425
  P     -2.006377   -0.176985    0.426990
  S     -1.348835    1.494324   -0.390607
  O     -3.165136    0.095409    1.483100
  C     -3.124319    1.199294    2.402077
  C     -1.982215    1.066320    3.388670
  O     -2.682067   -1.217386   -0.557838
  C     -3.334946   -0.821014   -1.779328
  C     -4.630893   -0.087374   -1.505610
  H      5.132487    0.854276   -0.961261
  H      5.687928   -0.417849    0.141498
  H      6.219956   -0.411245   -1.548577
  H      4.430761   -2.116705   -1.217459
  H      3.866057   -0.798690   -2.285614
  H      1.704875    0.763530    2.703836
  H      3.155956    0.784456    1.660582
  H      2.474331    3.104736    2.383191
  H      2.401651    2.909071    0.622700
  H      0.916157    2.871397    1.567503
  H      1.165146   -2.542453    0.602569
  H     -0.330234   -3.220326   -0.130640
  H     -3.027362    2.125190    1.825278
  H     -4.096064    1.167794    2.896135
  H     -2.036458    0.110615    3.904072
  H     -1.033948    1.121373    2.853359
  H     -2.028627    1.874751    4.111125
  H     -2.645506   -0.194283   -2.355385
  H     -3.501255   -1.762486   -2.304324
  H     -4.420145    0.862306   -1.015107
  H     -5.141559    0.105523   -2.443774
  H     -5.268712   -0.683448   -0.858438

 Total Charge           Charge          ....    0
 Multiplicity           Mult            ....    1
 Number of Electrons    NEL             ....  202
 Basis Dimension        Dim             ....  334

ORBITAL ENERGIES
----------------

  NO   OCC          E(Eh)            E(eV)
   0   2.0000     -88.043405     -2395.7828
   1   2.0000     -88.036119     -2395.5846
   2   2.0000     -87.983503     -2394.1528
   3   2.0000     -87.977708     -2393.9951
   4   2.0000     -76.424621     -2079.6197
   5   2.0000     -76.421800     -2079.5429
   6   2.0000     -18.789500      -511.2883
   7   2.0000     -18.787491      -511.2336
   8   2.0000     -18.787013      -511.2206
   9   2.0000     -18.786675      -511.2114
  10   2.0000      -9.959221      -271.0042
  11   2.0000      -9.952623      -270.8246
  12   2.0000      -9.951101      -270.7832
  13   2.0000      -9.949194      -270.7313
  14   2.0000      -9.945884      -270.6413
  15   2.0000      -9.885374      -268.9947
  16   2.0000      -9.883462      -268.9427
  17   2.0000      -9.878435      -268.8059
  18   2.0000      -9.875595      -268.7286
  19   2.0000      -7.688203      -209.2066
  20   2.0000      -7.681309      -209.0190
  21   2.0000      -7.628681      -207.5870
  22   2.0000      -7.622304      -207.4134
  23   2.0000      -6.421849      -174.7474
  24   2.0000      -6.418710      -174.6620
  25   2.0000      -5.716564      -155.5556
  26   2.0000      -5.712445      -155.4435
  27   2.0000      -5.709570      -155.3653
  28   2.0000      -5.705879      -155.2649
  29   2.0000      -5.704939      -155.2393
  30   2.0000      -5.697786      -155.0446
  31   2.0000      -5.657639      -153.9522
  32   2.0000      -5.651279      -153.7791
  33   2.0000      -5.649425      -153.7287
  34   2.0000      -5.648675      -153.7083
  35   2.0000      -5.642892      -153.5509
  36   2.0000      -5.642493      -153.5400
  37   2.0000      -4.644542      -126.3844
  38   2.0000      -4.643669      -126.3607
  39   2.0000      -4.642232      -126.3216
  40   2.0000      -4.641350      -126.2975
  41   2.0000      -4.640550      -126.2758
  42   2.0000      -4.639134      -126.2372
  43   2.0000      -0.984806       -26.7979
  44   2.0000      -0.981745       -26.7146
  45   2.0000      -0.942171       -25.6378
  46   2.0000      -0.940516       -25.5927
  47   2.0000      -0.761871       -20.7316
  48   2.0000      -0.718110       -19.5408
  49   2.0000      -0.704695       -19.1757
  50   2.0000      -0.684750       -18.6330
  51   2.0000      -0.683661       -18.6034
  52   2.0000      -0.669546       -18.2193
  53   2.0000      -0.651877       -17.7385
  54   2.0000      -0.634481       -17.2651
  55   2.0000      -0.594812       -16.1857
  56   2.0000      -0.586663       -15.9639
  57   2.0000      -0.573029       -15.5929
  58   2.0000      -0.569491       -15.4966
  59   2.0000      -0.563104       -15.3228
  60   2.0000      -0.502489       -13.6734
  61   2.0000      -0.488913       -13.3040
  62   2.0000      -0.472881       -12.8677
  63   2.0000      -0.469087       -12.7645
  64   2.0000      -0.455362       -12.3910
  65   2.0000      -0.439576       -11.9615
  66   2.0000      -0.435657       -11.8548
  67   2.0000      -0.435009       -11.8372
  68   2.0000      -0.421627       -11.4730
  69   2.0000      -0.418526       -11.3887
  70   2.0000      -0.412971       -11.2375
  71   2.0000      -0.390034       -10.6134
  72   2.0000      -0.389107       -10.5881
  73   2.0000      -0.388794       -10.5796
  74   2.0000      -0.380474       -10.3532
  75   2.0000      -0.373978       -10.1764
  76   2.0000      -0.363173        -9.8824
  77   2.0000      -0.355372        -9.6702
  78   2.0000      -0.349814        -9.5189
  79   2.0000      -0.347765        -9.4632
  80   2.0000      -0.345639        -9.4053
  81   2.0000      -0.344983        -9.3875
  82   2.0000      -0.340718        -9.2714
  83   2.0000      -0.334111        -9.0916
  84   2.0000      -0.326317        -8.8795
  85   2.0000      -0.318668        -8.6714
  86   2.0000      -0.308999        -8.4083
  87   2.0000      -0.295003        -8.0274
  88   2.0000      -0.292601        -7.9621
  89   2.0000      -0.290617        -7.9081
  90   2.0000      -0.277643        -7.5551
  91   2.0000      -0.274595        -7.4721
  92   2.0000      -0.268487        -7.3059
  93   2.0000      -0.259910        -7.0725
  94   2.0000      -0.257636        -7.0106
  95   2.0000      -0.233720        -6.3598
  96   2.0000      -0.215959        -5.8765
  97   2.0000      -0.204093        -5.5537
  98   2.0000      -0.197010        -5.3609
  99   2.0000      -0.191159        -5.2017
 100   2.0000      -0.184199        -5.0123
 101   0.0000      -0.048653        -1.3239
 102   0.0000      -0.024455        -0.6654
 103   0.0000      -0.012099        -0.3292
 104   0.0000       0.001460         0.0397
 105   0.0000       0.015255         0.4151

MULLIKEN ATOMIC CHARGES
-----------------------
   0 C :   -0.292249
   1 C :   -0.003510
   2 O :   -0.390826
   3 P :    0.641079
   4 S :   -0.306244
   5 O :   -0.366729
   6 C :   -0.011173
   7 C :   -0.307080
   8 S :   -0.089370
   9 C :   -0.311765
  10 S :   -0.106359
  11 P :    0.604982
  12 S :   -0.309985
  13 O :   -0.369570
  14 C :    0.003149
  15 C :   -0.350950
  16 O :   -0.372570
  17 C :   -0.002959
  18 C :   -0.303289
  19 H :    0.118972
  20 H :    0.111240
  21 H :    0.109813
  22 H :    0.100392
  23 H :    0.104093
  24 H :    0.108482
  25 H :    0.103730
  26 H :    0.103173
  27 H :    0.126167
  28 H :    0.130679
  29 H :    0.179403
  30 H :    0.185458
  31 H :    0.108682
  32 H :    0.104474
  33 H :    0.121956
  34 H :    0.150671
  35 H :    0.114010
  36 H :    0.116944
  37 H :    0.099998
  38 H :    0.122343
  39 H :    0.110360
  40 H :    0.114373
Sum of atomic charges:   -0.0000000

LOEWDIN ATOMIC CHARGES
----------------------
   0 C :   -0.359846
   1 C :   -0.120419
   2 O :   -0.257772
   3 P :    0.568815
   4 S :   -0.305117
   5 O :   -0.236298
   6 C :   -0.110804
   7 C :   -0.365578
   8 S :    0.101386
   9 C :   -0.467761
  10 S :    0.079058
  11 P :    0.565317
  12 S :   -0.305977
  13 O :   -0.245892
  14 C :   -0.121086
  15 C :   -0.374085
  16 O :   -0.244523
  17 C :   -0.118657
  18 C :   -0.364384
  19 H :    0.124343
  20 H :    0.122267
  21 H :    0.129615
  22 H :    0.114794
  23 H :    0.107989
  24 H :    0.116050
  25 H :    0.108544
  26 H :    0.126032
  27 H :    0.124021
  28 H :    0.128113
  29 H :    0.132394
  30 H :    0.137371
  31 H :    0.108770
  32 H :    0.118419
  33 H :    0.124601
  34 H :    0.122343
  35 H :    0.131444
  36 H :    0.112302
  37 H :    0.116500
  38 H :    0.122748
  39 H :    0.129520
  40 H :    0.125439

  Mayer bond orders larger than 0.100000
B(  0-C ,  1-C ) :   1.1666 B(  0-C , 19-H ) :   0.9401 B(  0-C , 20-H ) :   0.9474
B(  0-C , 21-H ) :   0.9407 B(  1-C ,  2-O ) :   0.9077 B(  1-C , 22-H ) :   0.9340
B(  1-C , 23-H ) :   0.9081 B(  2-O ,  3-P ) :   1.0552 B(  3-P ,  4-S ) :   1.6527
B(  3-P ,  5-O ) :   1.1180 B(  3-P ,  8-S ) :   0.9605 B(  5-O ,  6-C ) :   0.8981
B(  6-C ,  7-C ) :   1.1723 B(  6-C , 24-H ) :   0.9260 B(  6-C , 25-H ) :   0.9218
B(  7-C , 26-H ) :   0.9383 B(  7-C , 27-H ) :   0.9330 B(  7-C , 28-H ) :   0.9411
B(  8-S ,  9-C ) :   1.0040 B(  9-C , 10-S ) :   0.9703 B(  9-C , 29-H ) :   0.9047
B(  9-C , 30-H ) :   0.9093 B( 10-S , 11-P ) :   0.9741 B( 10-S , 12-S ) :   0.1192
B( 11-P , 12-S ) :   1.5830 B( 11-P , 13-O ) :   1.0975 B( 11-P , 16-O ) :   1.1141
B( 13-O , 14-C ) :   0.9121 B( 14-C , 15-C ) :   1.1650 B( 14-C , 31-H ) :   0.9120
B( 14-C , 32-H ) :   0.9327 B( 15-C , 33-H ) :   0.9416 B( 15-C , 34-H ) :   0.9253
B( 15-C , 35-H ) :   0.9375 B( 16-O , 17-C ) :   0.9027 B( 17-C , 18-C ) :   1.1664
B( 17-C , 36-H ) :   0.9149 B( 17-C , 37-H ) :   0.9349 B( 18-C , 38-H ) :   0.9357
B( 18-C , 39-H ) :   0.9396 B( 18-C , 40-H ) :   0.9461

Dispersion correction           -0.068758938
FINAL SINGLE POINT ENERGY     -2929.511949094343

DIPOLE MOMENT
-------------

Method             : SCF
Type of density    : Electron Density
Multiplicity       :   1
Irrep              :   0
Energy             : -2929.6281819081523281 Eh
Relativity type    :
Basis              : AO
                                X                 Y                 Z
Electronic contribution:     -3.258297619      -7.061658631      -8.874738237
Nuclear contribution   :      3.513748692       6.182805842       9.841567002
                        -----------------------------------------
Total Dipole Moment    :      0.255451073      -0.878852789       0.966828765
                        -----------------------------------------
Magnitude (a.u.)       :      1.331313388
Magnitude (Debye)      :      3.383929707

Rotational constants in cm-1:             0.012837             0.005576             0.005094
Rotational constants in MHz :           384.833738           167.149513           152.711090

                             ****ORCA TERMINATED NORMALLY****
TOTAL RUN TIME: 0 days 0 hours 0 minutes 21 seconds 856 msec
