                         Program Version 6.0.0  -   RELEASE  -
|  1> ! pbe def2-sv(p) def2/J RI DEFGRID1 loosescf d4 GCP(DFT/SV(P)) printgap
|  2> %output
|  3>     printlevel normal
|  4> end
|  5> * xyz 0 1
|  6> C 4.424260475 -0.7733170054 -2.0628295588
|  7> C 4.7562310932 -0.7211879512 -0.5859275833
|  8> O 3.6018528962 -0.9488152476 0.2431316761
|  9> P 2.393175043 0.0816856105 0.3125214716
| 10> S 2.9055849813 1.9701692798 0.255126662
| 11> O 1.6972064736 -0.3052961266 1.6769055406
| 12> C 1.7072060275 -1.6139058512 2.2978130676
| 13> C 1.1913296509 -2.7085379194 1.3875075625
| 14> S 1.0521929025 -0.5393019109 -1.2333630944
| 15> C 0.2277428519 1.0536390247 -1.4519961599
| 16> S -0.6620356672 1.6001287985 0.0303721177
| 17> P -2.2407130081 0.1922615805 -0.0636429447
| 18> S -2.7171510285 -0.4379558923 -1.8632342712
| 19> O -3.4475169494 0.8449121189 0.7412406528
| 20> C -4.4490053799 1.6458823548 0.090834122
| 21> C -3.8992168016 2.9817939361 -0.3645532212
| 22> O -1.7057918738 -0.8673763536 0.9884601032
| 23> C -2.5525668525 -1.8018577281 1.6980260386
| 24> C -3.1027425073 -2.8805281728 0.7872929878
| 25> H 3.8962164189 -1.6925509335 -2.3033072695
| 26> H 3.7949733137 0.0734360661 -2.3323315226
| 27> H 5.343367909 -0.7238584807 -2.6376814407
| 28> H 5.182244047 0.2518024033 -0.3227836476
| 29> H 5.4421650836 -1.5191361126 -0.2980858291
| 30> H 2.7289537099 -1.8249453887 2.620134671
| 31> H 1.0636409919 -1.4761920752 3.1685079692
| 32> H 0.2070197849 -2.4505057037 1.006532939
| 33> H 1.8637929496 -2.8471709264 0.5434384879
| 34> H 1.1296019176 -3.6360494619 1.9483989958
| 35> H -0.472668279 0.9276555832 -2.2777828885
| 36> H 0.9660389666 1.8263284896 -1.6628033323
| 37> H -4.8423312985 1.0819881459 -0.761235535
| 38> H -5.2237266631 1.7659297868 0.8492707224
| 39> H -4.7111142663 3.5963645184 -0.7397984615
| 40> H -3.4105471769 3.4919974024 0.4618107644
| 41> H -3.1715841321 2.8326344524 -1.1612339994
| 42> H -1.8915280018 -2.2205574889 2.4590418615
| 43> H -3.3584049027 -1.2421643967 2.1773601793
| 44> H -3.6563377794 -3.6018214628 1.3801582327
| 45> H -3.7688404973 -2.4451953653 0.0443204524
| 46> H -2.2940609492 -3.3879235781 0.2666173903
| 47> *
| 48>
| 49>                          ****END OF INPUT****

CARTESIAN COORDINATES (ANGSTROEM)
---------------------------------
  C      4.424260   -0.773317   -2.062830
  C      4.756231   -0.721188   -0.585928
  O      3.601853   -0.948815    0.243132
  P      2.393175    0.081686    0.312521
  S      2.905585    1.970169    0.255127
  O      1.697206   -0.305296    1.676906
  C      1.707206   -1.613906    2.297813
  C      1.191330   -2.708538    1.387508
  S      1.052193   -0.539302   -1.233363
  C      0.227743    1.053639   -1.451996
  S     -0.662036    1.600129    0.030372
  P     -2.240713    0.192262   -0.063643
  S     -2.717151   -0.437956   -1.863234
  O     -3.447517    0.844912    0.741241
  C     -4.449005    1.645882    0.090834
  C     -3.899217    2.981794   -0.364553
  O     -1.705792   -0.867376    0.988460
  C     -2.552567   -1.801858    1.698026
  C     -3.102743   -2.880528    0.787293
  H      3.896216   -1.692551   -2.303307
  H      3.794973    0.073436   -2.332332
  H      5.343368   -0.723858   -2.637681
  H      5.182244    0.251802   -0.322784
  H      5.442165   -1.519136   -0.298086
  H      2.728954   -1.824945    2.620135
  H      1.063641   -1.476192    3.168508
  H      0.207020   -2.450506    1.006533
  H      1.863793   -2.847171    0.543438
  H      1.129602   -3.636049    1.948399
  H     -0.472668    0.927656   -2.277783
  H      0.966039    1.826328   -1.662803
  H     -4.842331    1.081988   -0.761236
  H     -5.223727    1.765930    0.849271
  H     -4.711114    3.596365   -0.739798
  H     -3.410547    3.491997    0.461811
  H     -3.171584    2.832634   -1.161234
  H     -1.891528   -2.220557    2.459042
  H     -3.358405   -1.242164    2.177360
  H     -3.656338   -3.601821    1.380158
  H     -3.768840   -2.445195    0.044320
  H     -2.294061   -3.387924    0.266617

 Total Charge           Charge          ....    0
 Multiplicity           Mult            ....    1
 Number of Electrons    NEL             ....  202
 Basis Dimension        Dim             ....  334

ORBITAL ENERGIES
----------------

  NO   OCC          E(Eh)            E(eV)
   0   2.0000     -88.038428     -2395.6474
   1   2.0000     -88.036565     -2395.5967
   2   2.0000     -87.988271     -2394.2826
   3   2.0000     -87.982938     -2394.1374
   4   2.0000     -76.426841     -2079.6801
   5   2.0000     -76.424818     -2079.6250
   6   2.0000     -18.797400      -511.5033
   7   2.0000     -18.796538      -511.4798
   8   2.0000     -18.791194      -511.3344
   9   2.0000     -18.784810      -511.1607
  10   2.0000      -9.957723      -270.9634
  11   2.0000      -9.954628      -270.8792
  12   2.0000      -9.954016      -270.8625
  13   2.0000      -9.953772      -270.8559
  14   2.0000      -9.948260      -270.7059
  15   2.0000      -9.885060      -268.9862
  16   2.0000      -9.884216      -268.9632
  17   2.0000      -9.883649      -268.9478
  18   2.0000      -9.883618      -268.9469
  19   2.0000      -7.683320      -209.0738
  20   2.0000      -7.681241      -209.0172
  21   2.0000      -7.633221      -207.7105
  22   2.0000      -7.628188      -207.5735
  23   2.0000      -6.424429      -174.8176
  24   2.0000      -6.421964      -174.7505
  25   2.0000      -5.711272      -155.4116
  26   2.0000      -5.709036      -155.3508
  27   2.0000      -5.707942      -155.3210
  28   2.0000      -5.705936      -155.2664
  29   2.0000      -5.700111      -155.1079
  30   2.0000      -5.698166      -155.0550
  31   2.0000      -5.661984      -154.0704
  32   2.0000      -5.657161      -153.9392
  33   2.0000      -5.653933      -153.8513
  34   2.0000      -5.653470      -153.8387
  35   2.0000      -5.648755      -153.7105
  36   2.0000      -5.648313      -153.6984
  37   2.0000      -4.647343      -126.4606
  38   2.0000      -4.645897      -126.4213
  39   2.0000      -4.645128      -126.4004
  40   2.0000      -4.644837      -126.3924
  41   2.0000      -4.643424      -126.3540
  42   2.0000      -4.642243      -126.3219
  43   2.0000      -0.989983       -26.9388
  44   2.0000      -0.986871       -26.8541
  45   2.0000      -0.946125       -25.7454
  46   2.0000      -0.941806       -25.6278
  47   2.0000      -0.761061       -20.7095
  48   2.0000      -0.719497       -19.5785
  49   2.0000      -0.708114       -19.2688
  50   2.0000      -0.690405       -18.7869
  51   2.0000      -0.689491       -18.7620
  52   2.0000      -0.674232       -18.3468
  53   2.0000      -0.650542       -17.7022
  54   2.0000      -0.635593       -17.2954
  55   2.0000      -0.599830       -16.3222
  56   2.0000      -0.592259       -16.1162
  57   2.0000      -0.579547       -15.7703
  58   2.0000      -0.578120       -15.7315
  59   2.0000      -0.554550       -15.0901
  60   2.0000      -0.499658       -13.5964
  61   2.0000      -0.493910       -13.4400
  62   2.0000      -0.472455       -12.8562
  63   2.0000      -0.468999       -12.7621
  64   2.0000      -0.459998       -12.5172
  65   2.0000      -0.450140       -12.2489
  66   2.0000      -0.440293       -11.9810
  67   2.0000      -0.433709       -11.8018
  68   2.0000      -0.423157       -11.5147
  69   2.0000      -0.419289       -11.4094
  70   2.0000      -0.410179       -11.1615
  71   2.0000      -0.408182       -11.1072
  72   2.0000      -0.399595       -10.8735
  73   2.0000      -0.377214       -10.2645
  74   2.0000      -0.372987       -10.1495
  75   2.0000      -0.372438       -10.1346
  76   2.0000      -0.367814       -10.0087
  77   2.0000      -0.359535        -9.7835
  78   2.0000      -0.355568        -9.6755
  79   2.0000      -0.351998        -9.5783
  80   2.0000      -0.349632        -9.5140
  81   2.0000      -0.342464        -9.3189
  82   2.0000      -0.341297        -9.2872
  83   2.0000      -0.339282        -9.2323
  84   2.0000      -0.335326        -9.1247
  85   2.0000      -0.323853        -8.8125
  86   2.0000      -0.307053        -8.3553
  87   2.0000      -0.298071        -8.1109
  88   2.0000      -0.294782        -8.0214
  89   2.0000      -0.294368        -8.0102
  90   2.0000      -0.289726        -7.8838
  91   2.0000      -0.277187        -7.5426
  92   2.0000      -0.270997        -7.3742
  93   2.0000      -0.262630        -7.1465
  94   2.0000      -0.255546        -6.9538
  95   2.0000      -0.232455        -6.3254
  96   2.0000      -0.213551        -5.8110
  97   2.0000      -0.210508        -5.7282
  98   2.0000      -0.203743        -5.5441
  99   2.0000      -0.196510        -5.3473
 100   2.0000      -0.195580        -5.3220
 101   0.0000      -0.043537        -1.1847
 102   0.0000      -0.025399        -0.6911
 103   0.0000      -0.001013        -0.0276
 104   0.0000       0.000430         0.0117
 105   0.0000       0.012877         0.3504

MULLIKEN ATOMIC CHARGES
-----------------------
   0 C :   -0.313244
   1 C :   -0.001766
   2 O :   -0.385999
   3 P :    0.618935
   4 S :   -0.319454
   5 O :   -0.359888
   6 C :    0.018620
   7 C :   -0.377743
   8 S :   -0.090655
   9 C :   -0.365215
  10 S :   -0.058401
  11 P :    0.630529
  12 S :   -0.338036
  13 O :   -0.382568
  14 C :   -0.006780
  15 C :   -0.310923
  16 O :   -0.368607
  17 C :   -0.010563
  18 C :   -0.309757
  19 H :    0.117455
  20 H :    0.126822
  21 H :    0.113141
  22 H :    0.114545
  23 H :    0.103719
  24 H :    0.105999
  25 H :    0.107077
  26 H :    0.173264
  27 H :    0.123437
  28 H :    0.109129
  29 H :    0.191475
  30 H :    0.191476
  31 H :    0.111574
  32 H :    0.103852
  33 H :    0.113012
  34 H :    0.120190
  35 H :    0.124915
  36 H :    0.105793
  37 H :    0.114008
  38 H :    0.108448
  39 H :    0.128747
  40 H :    0.123437
Sum of atomic charges:    0.0000000

LOEWDIN ATOMIC CHARGES
----------------------
   0 C :   -0.369762
   1 C :   -0.117389
   2 O :   -0.247149
   3 P :    0.577699
   4 S :   -0.313209
   5 O :   -0.237163
   6 C :   -0.103368
   7 C :   -0.381119
   8 S :    0.081477
   9 C :   -0.487243
  10 S :    0.105123
  11 P :    0.573176
  12 S :   -0.319151
  13 O :   -0.245785
  14 C :   -0.120970
  15 C :   -0.367840
  16 O :   -0.240985
  17 C :   -0.112679
  18 C :   -0.365854
  19 H :    0.123813
  20 H :    0.121389
  21 H :    0.131227
  22 H :    0.112927
  23 H :    0.117908
  24 H :    0.113717
  25 H :    0.120764
  26 H :    0.129479
  27 H :    0.119179
  28 H :    0.129120
  29 H :    0.127429
  30 H :    0.128791
  31 H :    0.109711
  32 H :    0.117726
  33 H :    0.131130
  34 H :    0.126244
  35 H :    0.120988
  36 H :    0.115912
  37 H :    0.114049
  38 H :    0.128581
  39 H :    0.123206
  40 H :    0.128900

  Mayer bond orders larger than 0.100000
B(  0-C ,  1-C ) :   1.1664 B(  0-C , 19-H ) :   0.9448 B(  0-C , 20-H ) :   0.9339
B(  0-C , 21-H ) :   0.9369 B(  1-C ,  2-O ) :   0.9030 B(  1-C , 22-H ) :   0.9163
B(  1-C , 23-H ) :   0.9342 B(  2-O ,  3-P ) :   1.0740 B(  3-P ,  4-S ) :   1.6221
B(  3-P ,  5-O ) :   1.1345 B(  3-P ,  8-S ) :   0.9390 B(  4-S ,  8-S ) :   0.1124
B(  5-O ,  6-C ) :   0.9022 B(  6-C ,  7-C ) :   1.1680 B(  6-C , 24-H ) :   0.9312
B(  6-C , 25-H ) :   0.9337 B(  7-C , 26-H ) :   0.9135 B(  7-C , 27-H ) :   0.9353
B(  7-C , 28-H ) :   0.9347 B(  8-S ,  9-C ) :   1.0091 B(  9-C , 10-S ) :   1.0089
B(  9-C , 29-H ) :   0.8743 B(  9-C , 30-H ) :   0.8802 B( 10-S , 11-P ) :   0.9613
B( 10-S , 12-S ) :   0.1175 B( 11-P , 12-S ) :   1.6006 B( 11-P , 13-O ) :   1.0883
B( 11-P , 16-O ) :   1.1140 B( 13-O , 14-C ) :   0.9074 B( 14-C , 15-C ) :   1.1664
B( 14-C , 31-H ) :   0.9130 B( 14-C , 32-H ) :   0.9328 B( 15-C , 33-H ) :   0.9379
B( 15-C , 34-H ) :   0.9451 B( 15-C , 35-H ) :   0.9354 B( 16-O , 17-C ) :   0.8966
B( 17-C , 18-C ) :   1.1677 B( 17-C , 36-H ) :   0.9323 B( 17-C , 37-H ) :   0.9262
B( 18-C , 38-H ) :   0.9368 B( 18-C , 39-H ) :   0.9322 B( 18-C , 40-H ) :   0.9490

Dispersion correction           -0.066831401
FINAL SINGLE POINT ENERGY     -2929.518958302707

DIPOLE MOMENT
-------------

Method             : SCF
Type of density    : Electron Density
Multiplicity       :   1
Irrep              :   0
Energy             : -2929.6383926741359573 Eh
Relativity type    :
Basis              : AO
                                X                 Y                 Z
Electronic contribution:      4.653535886      11.674003957      -1.563538739
Nuclear contribution   :     -5.013480984     -12.741310741       2.191448597
                        -----------------------------------------
Total Dipole Moment    :     -0.359945098      -1.067306784       0.627909858
                        -----------------------------------------
Magnitude (a.u.)       :      1.289563893
Magnitude (Debye)      :      3.277810924

Rotational constants in cm-1:             0.012977             0.005122             0.004560
Rotational constants in MHz :           389.054166           153.550722           136.704927

                             ****ORCA TERMINATED NORMALLY****
TOTAL RUN TIME: 0 days 0 hours 0 minutes 21 seconds 320 msec
