                         Program Version 6.0.0  -   RELEASE  -
|  1> ! pbe def2-sv(p) def2/J RI DEFGRID1 loosescf d4 GCP(DFT/SV(P)) printgap
|  2> %output
|  3>     printlevel normal
|  4> end
|  5> * xyz 0 1
|  6> C 3.8277301139 1.0034919886 -2.2986075931
|  7> C 4.3299053733 1.0010086545 -0.868689568
|  8> O 3.746372136 -0.0627139176 -0.1033969447
|  9> P 2.2134818085 -0.0599991135 0.3294279053
| 10> S 1.5831544753 1.7100027983 0.8975170403
| 11> O 2.167726679 -1.2160613828 1.4061621047
| 12> C 2.2589221901 -0.9441721801 2.8221538361
| 13> C 3.6520779028 -0.5013107168 3.214731174
| 14> S 1.2442424912 -1.032419528 -1.2859103739
| 15> C -0.0605308518 -1.9316682653 -0.3885722829
| 16> S -1.0191790662 -0.9207346575 0.7594578791
| 17> P -2.2305859268 0.1668304532 -0.6324478275
| 18> S -2.0688950854 -0.4471011032 -2.4848592866
| 19> O -1.8729948221 1.6946515342 -0.5171900961
| 20> C -2.3411833148 2.5996544697 0.5141849745
| 21> C -1.9440214852 2.1658767521 1.9085670007
| 22> O -3.6746267467 0.1290156077 0.0342258622
| 23> C -4.401403501 -1.0782559921 0.3290251125
| 24> C -5.0930408052 -1.6411861327 -0.8968713189
| 25> H 4.0036350597 0.0369787425 -2.7639751685
| 26> H 2.7554744411 1.2045455012 -2.3156878879
| 27> H 4.3391409465 1.7764290985 -2.8632600051
| 28> H 4.0972074583 1.952352876 -0.3774255437
| 29> H 5.4024514699 0.8092641134 -0.8177980374
| 30> H 1.5202177142 -0.1774643454 3.0760198626
| 31> H 1.9849353547 -1.8915059766 3.2875802174
| 32> H 3.7063658896 -0.3971670999 4.2937527064
| 33> H 4.3863746476 -1.229959217 2.8817689325
| 34> H 3.8768970739 0.4599458279 2.7541530261
| 35> H 0.3887782361 -2.7266374095 0.2004453183
| 36> H -0.7141477682 -2.3243242374 -1.168039307
| 37> H -1.8697037757 3.5457692822 0.2443948881
| 38> H -3.4258736913 2.6785449248 0.4203900308
| 39> H -2.2958539632 2.9054318979 2.620783451
| 40> H -2.3854838628 1.2005054482 2.1498960629
| 41> H -0.8619657587 2.0893515357 1.9844663738
| 42> H -3.7124969336 -1.8082235449 0.7641138099
| 43> H -5.1280799983 -0.7676698207 1.0825428463
| 44> H -5.7473527529 -0.8923227078 -1.3349703074
| 45> H -4.3622451725 -1.9388865178 -1.6452657734
| 46> H -5.6807739911 -2.5068303073 -0.6087682673
| 47> *
| 48>
| 49>                          ****END OF INPUT****

CARTESIAN COORDINATES (ANGSTROEM)
---------------------------------
  C      3.827730    1.003492   -2.298608
  C      4.329905    1.001009   -0.868690
  O      3.746372   -0.062714   -0.103397
  P      2.213482   -0.059999    0.329428
  S      1.583154    1.710003    0.897517
  O      2.167727   -1.216061    1.406162
  C      2.258922   -0.944172    2.822154
  C      3.652078   -0.501311    3.214731
  S      1.244242   -1.032420   -1.285910
  C     -0.060531   -1.931668   -0.388572
  S     -1.019179   -0.920735    0.759458
  P     -2.230586    0.166830   -0.632448
  S     -2.068895   -0.447101   -2.484859
  O     -1.872995    1.694652   -0.517190
  C     -2.341183    2.599654    0.514185
  C     -1.944021    2.165877    1.908567
  O     -3.674627    0.129016    0.034226
  C     -4.401404   -1.078256    0.329025
  C     -5.093041   -1.641186   -0.896871
  H      4.003635    0.036979   -2.763975
  H      2.755474    1.204546   -2.315688
  H      4.339141    1.776429   -2.863260
  H      4.097207    1.952353   -0.377426
  H      5.402451    0.809264   -0.817798
  H      1.520218   -0.177464    3.076020
  H      1.984935   -1.891506    3.287580
  H      3.706366   -0.397167    4.293753
  H      4.386375   -1.229959    2.881769
  H      3.876897    0.459946    2.754153
  H      0.388778   -2.726637    0.200445
  H     -0.714148   -2.324324   -1.168039
  H     -1.869704    3.545769    0.244395
  H     -3.425874    2.678545    0.420390
  H     -2.295854    2.905432    2.620783
  H     -2.385484    1.200505    2.149896
  H     -0.861966    2.089352    1.984466
  H     -3.712497   -1.808224    0.764114
  H     -5.128080   -0.767670    1.082543
  H     -5.747353   -0.892323   -1.334970
  H     -4.362245   -1.938887   -1.645266
  H     -5.680774   -2.506830   -0.608768

 Total Charge           Charge          ....    0
 Multiplicity           Mult            ....    1
 Number of Electrons    NEL             ....  202
 Basis Dimension        Dim             ....  334

ORBITAL ENERGIES
----------------

  NO   OCC          E(Eh)            E(eV)
   0   2.0000     -88.043204     -2395.7774
   1   2.0000     -88.034359     -2395.5367
   2   2.0000     -87.984239     -2394.1729
   3   2.0000     -87.981567     -2394.1002
   4   2.0000     -76.424923     -2079.6279
   5   2.0000     -76.424553     -2079.6178
   6   2.0000     -18.794838      -511.4336
   7   2.0000     -18.794506      -511.4245
   8   2.0000     -18.788739      -511.2676
   9   2.0000     -18.785670      -511.1841
  10   2.0000      -9.956288      -270.9244
  11   2.0000      -9.953940      -270.8605
  12   2.0000      -9.953317      -270.8435
  13   2.0000      -9.950208      -270.7589
  14   2.0000      -9.949469      -270.7388
  15   2.0000      -9.884898      -268.9817
  16   2.0000      -9.882454      -268.9152
  17   2.0000      -9.880950      -268.8743
  18   2.0000      -9.879461      -268.8338
  19   2.0000      -7.687360      -209.1837
  20   2.0000      -7.679590      -208.9723
  21   2.0000      -7.629133      -207.5993
  22   2.0000      -7.626774      -207.5351
  23   2.0000      -6.422106      -174.7544
  24   2.0000      -6.422081      -174.7537
  25   2.0000      -5.715217      -155.5190
  26   2.0000      -5.711754      -155.4247
  27   2.0000      -5.707819      -155.3177
  28   2.0000      -5.704609      -155.2303
  29   2.0000      -5.704147      -155.2177
  30   2.0000      -5.696144      -154.9999
  31   2.0000      -5.657823      -153.9572
  32   2.0000      -5.655862      -153.9038
  33   2.0000      -5.649925      -153.7423
  34   2.0000      -5.649348      -153.7266
  35   2.0000      -5.647179      -153.6676
  36   2.0000      -5.646925      -153.6607
  37   2.0000      -4.645029      -126.3977
  38   2.0000      -4.644763      -126.3904
  39   2.0000      -4.643936      -126.3679
  40   2.0000      -4.643819      -126.3647
  41   2.0000      -4.642415      -126.3265
  42   2.0000      -4.642314      -126.3238
  43   2.0000      -0.987077       -26.8597
  44   2.0000      -0.986714       -26.8499
  45   2.0000      -0.946975       -25.7685
  46   2.0000      -0.940963       -25.6049
  47   2.0000      -0.759495       -20.6669
  48   2.0000      -0.718379       -19.5481
  49   2.0000      -0.707192       -19.2437
  50   2.0000      -0.688728       -18.7412
  51   2.0000      -0.686433       -18.6788
  52   2.0000      -0.671414       -18.2701
  53   2.0000      -0.651176       -17.7194
  54   2.0000      -0.635556       -17.2944
  55   2.0000      -0.598368       -16.2824
  56   2.0000      -0.588093       -16.0028
  57   2.0000      -0.577334       -15.7101
  58   2.0000      -0.572367       -15.5749
  59   2.0000      -0.560060       -15.2400
  60   2.0000      -0.499753       -13.5990
  61   2.0000      -0.492554       -13.4031
  62   2.0000      -0.473715       -12.8905
  63   2.0000      -0.470429       -12.8010
  64   2.0000      -0.457534       -12.4501
  65   2.0000      -0.447303       -12.1717
  66   2.0000      -0.438566       -11.9340
  67   2.0000      -0.432369       -11.7654
  68   2.0000      -0.423340       -11.5197
  69   2.0000      -0.412964       -11.2373
  70   2.0000      -0.410127       -11.1601
  71   2.0000      -0.400133       -10.8882
  72   2.0000      -0.394024       -10.7219
  73   2.0000      -0.389540       -10.5999
  74   2.0000      -0.384267       -10.4564
  75   2.0000      -0.371211       -10.1012
  76   2.0000      -0.363066        -9.8795
  77   2.0000      -0.354955        -9.6588
  78   2.0000      -0.350870        -9.5477
  79   2.0000      -0.348497        -9.4831
  80   2.0000      -0.347501        -9.4560
  81   2.0000      -0.345474        -9.4008
  82   2.0000      -0.337887        -9.1944
  83   2.0000      -0.336399        -9.1539
  84   2.0000      -0.330803        -9.0016
  85   2.0000      -0.323768        -8.8102
  86   2.0000      -0.306825        -8.3491
  87   2.0000      -0.296848        -8.0776
  88   2.0000      -0.294211        -8.0059
  89   2.0000      -0.287556        -7.8248
  90   2.0000      -0.283852        -7.7240
  91   2.0000      -0.274751        -7.4764
  92   2.0000      -0.274405        -7.4670
  93   2.0000      -0.259898        -7.0722
  94   2.0000      -0.258043        -7.0217
  95   2.0000      -0.236640        -6.4393
  96   2.0000      -0.217828        -5.9274
  97   2.0000      -0.203520        -5.5381
  98   2.0000      -0.199405        -5.4261
  99   2.0000      -0.196772        -5.3544
 100   2.0000      -0.188843        -5.1387
 101   0.0000      -0.046080        -1.2539
 102   0.0000      -0.021862        -0.5949
 103   0.0000      -0.016841        -0.4583
 104   0.0000       0.001158         0.0315
 105   0.0000       0.015891         0.4324

MULLIKEN ATOMIC CHARGES
-----------------------
   0 C :   -0.327112
   1 C :   -0.006247
   2 O :   -0.367736
   3 P :    0.614369
   4 S :   -0.326595
   5 O :   -0.375109
   6 C :   -0.006178
   7 C :   -0.303280
   8 S :   -0.077832
   9 C :   -0.318981
  10 S :   -0.124332
  11 P :    0.626047
  12 S :   -0.306680
  13 O :   -0.354558
  14 C :    0.017811
  15 C :   -0.348319
  16 O :   -0.383628
  17 C :   -0.008622
  18 C :   -0.297495
  19 H :    0.122743
  20 H :    0.137592
  21 H :    0.115629
  22 H :    0.109514
  23 H :    0.104621
  24 H :    0.114050
  25 H :    0.102809
  26 H :    0.111752
  27 H :    0.117772
  28 H :    0.123549
  29 H :    0.183002
  30 H :    0.180913
  31 H :    0.111389
  32 H :    0.105879
  33 H :    0.109287
  34 H :    0.114437
  35 H :    0.154407
  36 H :    0.099819
  37 H :    0.104292
  38 H :    0.116306
  39 H :    0.128117
  40 H :    0.106597
Sum of atomic charges:    0.0000000

LOEWDIN ATOMIC CHARGES
----------------------
   0 C :   -0.369715
   1 C :   -0.122936
   2 O :   -0.243709
   3 P :    0.570440
   4 S :   -0.312099
   5 O :   -0.241305
   6 C :   -0.117718
   7 C :   -0.364194
   8 S :    0.089276
   9 C :   -0.478788
  10 S :    0.076076
  11 P :    0.572841
  12 S :   -0.298428
  13 O :   -0.228935
  14 C :   -0.104766
  15 C :   -0.377439
  16 O :   -0.245269
  17 C :   -0.118199
  18 C :   -0.366438
  19 H :    0.126675
  20 H :    0.124301
  21 H :    0.132598
  22 H :    0.108008
  23 H :    0.118501
  24 H :    0.110945
  25 H :    0.117395
  26 H :    0.130497
  27 H :    0.127232
  28 H :    0.123505
  29 H :    0.133392
  30 H :    0.126918
  31 H :    0.124724
  32 H :    0.112771
  33 H :    0.130632
  34 H :    0.113024
  35 H :    0.122556
  36 H :    0.101724
  37 H :    0.117678
  38 H :    0.127683
  39 H :    0.122316
  40 H :    0.128229

  Mayer bond orders larger than 0.100000
B(  0-C ,  1-C ) :   1.1630 B(  0-C , 19-H ) :   0.9445 B(  0-C , 20-H ) :   0.9321
B(  0-C , 21-H ) :   0.9388 B(  1-C ,  2-O ) :   0.9138 B(  1-C , 22-H ) :   0.9120
B(  1-C , 23-H ) :   0.9323 B(  2-O ,  3-P ) :   1.0999 B(  3-P ,  4-S ) :   1.6020
B(  3-P ,  5-O ) :   1.1119 B(  3-P ,  8-S ) :   0.9745 B(  4-S ,  8-S ) :   0.1029
B(  5-O ,  6-C ) :   0.8988 B(  6-C ,  7-C ) :   1.1660 B(  6-C , 24-H ) :   0.9152
B(  6-C , 25-H ) :   0.9344 B(  7-C , 26-H ) :   0.9390 B(  7-C , 27-H ) :   0.9459
B(  7-C , 28-H ) :   0.9352 B(  8-S ,  9-C ) :   0.9984 B(  9-C , 10-S ) :   1.0125
B(  9-C , 29-H ) :   0.9005 B(  9-C , 30-H ) :   0.8790 B( 10-S , 11-P ) :   0.9240
B( 10-S , 12-S ) :   0.1159 B( 11-P , 12-S ) :   1.6537 B( 11-P , 13-O ) :   1.1588
B( 11-P , 16-O ) :   1.0673 B( 13-O , 14-C ) :   0.8925 B( 14-C , 15-C ) :   1.1708
B( 14-C , 31-H ) :   0.9318 B( 14-C , 32-H ) :   0.9308 B( 15-C , 33-H ) :   0.9348
B( 15-C , 34-H ) :   0.9365 B( 15-C , 35-H ) :   0.9211 B( 16-O , 17-C ) :   0.9115
B( 17-C , 18-C ) :   1.1664 B( 17-C , 36-H ) :   0.9132 B( 17-C , 37-H ) :   0.9356
B( 18-C , 38-H ) :   0.9472 B( 18-C , 39-H ) :   0.9301 B( 18-C , 40-H ) :   0.9381

Dispersion correction           -0.066299073
FINAL SINGLE POINT ENERGY     -2929.517636112741

DIPOLE MOMENT
-------------

Method             : SCF
Type of density    : Electron Density
Multiplicity       :   1
Irrep              :   0
Energy             : -2929.6362162565378640 Eh
Relativity type    :
Basis              : AO
                                X                 Y                 Z
Electronic contribution:     -0.321568878      -2.205199522     -10.053821227
Nuclear contribution   :      0.288599330       1.807183984      11.475598260
                        -----------------------------------------
Total Dipole Moment    :     -0.032969549      -0.398015539       1.421777033
                        -----------------------------------------
Magnitude (a.u.)       :      1.476805096
Magnitude (Debye)      :      3.753740241

Rotational constants in cm-1:             0.012752             0.005006             0.004723
Rotational constants in MHz :           382.290754           150.074618           141.593648

                             ****ORCA TERMINATED NORMALLY****
TOTAL RUN TIME: 0 days 0 hours 0 minutes 20 seconds 854 msec
