                         Program Version 6.0.0  -   RELEASE  -
|  1> ! pbe def2-sv(p) def2/J RI DEFGRID1 loosescf d4 GCP(DFT/SV(P)) printgap
|  2> %output
|  3>     printlevel normal
|  4> end
|  5> * xyz 0 1
|  6> C 2.9611152926 -2.7709457852 1.1400022894
|  7> C 1.6997358303 -2.2814921924 0.4585362253
|  8> O 1.52184793 -0.86881501 0.6610322104
|  9> P 2.3201810821 0.2333698792 -0.1833949063
| 10> S 3.2151363044 -0.3848526712 -1.8040063192
| 11> O 3.3460028527 0.883822362 0.829999303
| 12> C 3.0561435371 1.2158227535 2.2110720281
| 13> C 2.5560101666 2.6397320196 2.3458608486
| 14> S 0.8012176124 1.6938278249 -0.4449807274
| 15> C 0.1239886586 1.0179455095 -1.9809702324
| 16> S -0.5153813916 -0.6698107313 -1.7994045492
| 17> P -2.1030874757 -0.2094315549 -0.469830641
| 18> S -2.9779883174 1.5311093187 -0.6943885538
| 19> O -1.5726387185 -0.5139312175 0.9983573913
| 20> C -1.2676650002 0.4738697598 1.9984913233
| 21> C -1.9237176756 0.0754503497 3.305849759
| 22> O -2.953279024 -1.5015934664 -0.7997987903
| 23> C -4.3802449611 -1.5616834103 -0.5902715644
| 24> C -4.7467321721 -1.4649563724 0.8758861337
| 25> H 3.0578138356 -3.8416361121 0.9911673449
| 26> H 3.8270644462 -2.2734768567 0.7038823698
| 27> H 2.9277936314 -2.5563554405 2.2048572702
| 28> H 0.7998651776 -2.7300138299 0.8829520167
| 29> H 1.73553386 -2.4814314429 -0.6171000637
| 30> H 2.3314841236 0.4984176668 2.6029154762
| 31> H 4.0149995662 1.0854702754 2.715664163
| 32> H 3.2717501585 3.3282893532 1.9056347918
| 33> H 1.6002798304 2.7643117413 1.8401820104
| 34> H 2.4347959846 2.8739418437 3.3988671331
| 35> H 0.9093000178 0.9706086923 -2.7345668711
| 36> H -0.6801556732 1.6880635339 -2.2836403016
| 37> H -0.1799757405 0.5026914354 2.0970591971
| 38> H -1.6225682626 1.4513142107 1.6540742628
| 39> H -1.6132549808 -0.926244583 3.5885106531
| 40> H -1.6229484058 0.7768386973 4.0772966875
| 41> H -3.0058255564 0.0954141826 3.2106536132
| 42> H -4.8465542571 -0.7507940105 -1.1582801144
| 43> H -4.6635392831 -2.5243661428 -1.0179423677
| 44> H -4.5006302008 -0.4717798487 1.2495432955
| 45> H -5.813445745 -1.6298817748 0.9917912669
| 46> H -4.1999326737 -2.2081987411 1.4502871715
| 47> *
| 48>
| 49>                          ****END OF INPUT****

CARTESIAN COORDINATES (ANGSTROEM)
---------------------------------
  C      2.961115   -2.770946    1.140002
  C      1.699736   -2.281492    0.458536
  O      1.521848   -0.868815    0.661032
  P      2.320181    0.233370   -0.183395
  S      3.215136   -0.384853   -1.804006
  O      3.346003    0.883822    0.829999
  C      3.056144    1.215823    2.211072
  C      2.556010    2.639732    2.345861
  S      0.801218    1.693828   -0.444981
  C      0.123989    1.017946   -1.980970
  S     -0.515381   -0.669811   -1.799405
  P     -2.103087   -0.209432   -0.469831
  S     -2.977988    1.531109   -0.694389
  O     -1.572639   -0.513931    0.998357
  C     -1.267665    0.473870    1.998491
  C     -1.923718    0.075450    3.305850
  O     -2.953279   -1.501593   -0.799799
  C     -4.380245   -1.561683   -0.590272
  C     -4.746732   -1.464956    0.875886
  H      3.057814   -3.841636    0.991167
  H      3.827064   -2.273477    0.703882
  H      2.927794   -2.556355    2.204857
  H      0.799865   -2.730014    0.882952
  H      1.735534   -2.481431   -0.617100
  H      2.331484    0.498418    2.602915
  H      4.015000    1.085470    2.715664
  H      3.271750    3.328289    1.905635
  H      1.600280    2.764312    1.840182
  H      2.434796    2.873942    3.398867
  H      0.909300    0.970609   -2.734567
  H     -0.680156    1.688064   -2.283640
  H     -0.179976    0.502691    2.097059
  H     -1.622568    1.451314    1.654074
  H     -1.613255   -0.926245    3.588511
  H     -1.622948    0.776839    4.077297
  H     -3.005826    0.095414    3.210654
  H     -4.846554   -0.750794   -1.158280
  H     -4.663539   -2.524366   -1.017942
  H     -4.500630   -0.471780    1.249543
  H     -5.813446   -1.629882    0.991791
  H     -4.199933   -2.208199    1.450287

 Total Charge           Charge          ....    0
 Multiplicity           Mult            ....    1
 Number of Electrons    NEL             ....  202
 Basis Dimension        Dim             ....  334

ORBITAL ENERGIES
----------------

  NO   OCC          E(Eh)            E(eV)
   0   2.0000     -88.042649     -2395.7623
   1   2.0000     -88.038519     -2395.6499
   2   2.0000     -87.992040     -2394.3851
   3   2.0000     -87.987385     -2394.2585
   4   2.0000     -76.427951     -2079.7103
   5   2.0000     -76.427534     -2079.6989
   6   2.0000     -18.798114      -511.5227
   7   2.0000     -18.793337      -511.3927
   8   2.0000     -18.791556      -511.3442
   9   2.0000     -18.791140      -511.3329
  10   2.0000      -9.964357      -271.1439
  11   2.0000      -9.956815      -270.9387
  12   2.0000      -9.952739      -270.8278
  13   2.0000      -9.949734      -270.7460
  14   2.0000      -9.948372      -270.7090
  15   2.0000      -9.895195      -269.2619
  16   2.0000      -9.889229      -269.0996
  17   2.0000      -9.888982      -269.0929
  18   2.0000      -9.884599      -268.9736
  19   2.0000      -7.687310      -209.1823
  20   2.0000      -7.683486      -209.0783
  21   2.0000      -7.636957      -207.8122
  22   2.0000      -7.632664      -207.6953
  23   2.0000      -6.425465      -174.8458
  24   2.0000      -6.425149      -174.8372
  25   2.0000      -5.715127      -155.5165
  26   2.0000      -5.711948      -155.4300
  27   2.0000      -5.711487      -155.4175
  28   2.0000      -5.708172      -155.3272
  29   2.0000      -5.704254      -155.2207
  30   2.0000      -5.700138      -155.1086
  31   2.0000      -5.665704      -154.1717
  32   2.0000      -5.661711      -154.0630
  33   2.0000      -5.657806      -153.9567
  34   2.0000      -5.657068      -153.9366
  35   2.0000      -5.653176      -153.8307
  36   2.0000      -5.652742      -153.8189
  37   2.0000      -4.648442      -126.4905
  38   2.0000      -4.647530      -126.4657
  39   2.0000      -4.646873      -126.4478
  40   2.0000      -4.646821      -126.4464
  41   2.0000      -4.645978      -126.4235
  42   2.0000      -4.645799      -126.4186
  43   2.0000      -0.987985       -26.8844
  44   2.0000      -0.986603       -26.8468
  45   2.0000      -0.946431       -25.7537
  46   2.0000      -0.945169       -25.7193
  47   2.0000      -0.764452       -20.8018
  48   2.0000      -0.725442       -19.7403
  49   2.0000      -0.713688       -19.4204
  50   2.0000      -0.692920       -18.8553
  51   2.0000      -0.690764       -18.7967
  52   2.0000      -0.673291       -18.3212
  53   2.0000      -0.653778       -17.7902
  54   2.0000      -0.640257       -17.4223
  55   2.0000      -0.604196       -16.4410
  56   2.0000      -0.592560       -16.1244
  57   2.0000      -0.582723       -15.8567
  58   2.0000      -0.569921       -15.5083
  59   2.0000      -0.560775       -15.2595
  60   2.0000      -0.504767       -13.7354
  61   2.0000      -0.498722       -13.5709
  62   2.0000      -0.481241       -13.0952
  63   2.0000      -0.478118       -13.0103
  64   2.0000      -0.456710       -12.4277
  65   2.0000      -0.452091       -12.3020
  66   2.0000      -0.442483       -12.0406
  67   2.0000      -0.434778       -11.8309
  68   2.0000      -0.429694       -11.6926
  69   2.0000      -0.414221       -11.2715
  70   2.0000      -0.408064       -11.1040
  71   2.0000      -0.398263       -10.8373
  72   2.0000      -0.396117       -10.7789
  73   2.0000      -0.380226       -10.3465
  74   2.0000      -0.379015       -10.3135
  75   2.0000      -0.377804       -10.2806
  76   2.0000      -0.374922       -10.2021
  77   2.0000      -0.363030        -9.8785
  78   2.0000      -0.361003        -9.8234
  79   2.0000      -0.360478        -9.8091
  80   2.0000      -0.353706        -9.6248
  81   2.0000      -0.351453        -9.5635
  82   2.0000      -0.346309        -9.4235
  83   2.0000      -0.342097        -9.3089
  84   2.0000      -0.334693        -9.1075
  85   2.0000      -0.324050        -8.8178
  86   2.0000      -0.315901        -8.5961
  87   2.0000      -0.304036        -8.2733
  88   2.0000      -0.295925        -8.0525
  89   2.0000      -0.287161        -7.8141
  90   2.0000      -0.282859        -7.6970
  91   2.0000      -0.277220        -7.5435
  92   2.0000      -0.274659        -7.4739
  93   2.0000      -0.271255        -7.3812
  94   2.0000      -0.258964        -7.0468
  95   2.0000      -0.231869        -6.3095
  96   2.0000      -0.218209        -5.9378
  97   2.0000      -0.213537        -5.8106
  98   2.0000      -0.209118        -5.6904
  99   2.0000      -0.201612        -5.4861
 100   2.0000      -0.199373        -5.4252
 101   0.0000      -0.046614        -1.2684
 102   0.0000      -0.025431        -0.6920
 103   0.0000      -0.001216        -0.0331
 104   0.0000       0.004165         0.1133
 105   0.0000       0.006628         0.1804

MULLIKEN ATOMIC CHARGES
-----------------------
   0 C :   -0.303752
   1 C :   -0.006137
   2 O :   -0.388010
   3 P :    0.632229
   4 S :   -0.309183
   5 O :   -0.365110
   6 C :   -0.034579
   7 C :   -0.311691
   8 S :   -0.119857
   9 C :   -0.346954
  10 S :   -0.076625
  11 P :    0.635087
  12 S :   -0.338023
  13 O :   -0.371470
  14 C :   -0.030473
  15 C :   -0.282758
  16 O :   -0.378407
  17 C :    0.003045
  18 C :   -0.324556
  19 H :    0.112948
  20 H :    0.125646
  21 H :    0.107254
  22 H :    0.103068
  23 H :    0.117718
  24 H :    0.121638
  25 H :    0.113184
  26 H :    0.127810
  27 H :    0.140038
  28 H :    0.113209
  29 H :    0.193193
  30 H :    0.192820
  31 H :    0.110076
  32 H :    0.110896
  33 H :    0.112919
  34 H :    0.106286
  35 H :    0.120829
  36 H :    0.113956
  37 H :    0.108573
  38 H :    0.131391
  39 H :    0.114496
  40 H :    0.119274
Sum of atomic charges:   -0.0000000

LOEWDIN ATOMIC CHARGES
----------------------
   0 C :   -0.363937
   1 C :   -0.123437
   2 O :   -0.248646
   3 P :    0.572885
   4 S :   -0.304120
   5 O :   -0.241579
   6 C :   -0.115471
   7 C :   -0.363446
   8 S :    0.085051
   9 C :   -0.480555
  10 S :    0.097441
  11 P :    0.573970
  12 S :   -0.320461
  13 O :   -0.240487
  14 C :   -0.127946
  15 C :   -0.352789
  16 O :   -0.246709
  17 C :   -0.111462
  18 C :   -0.367345
  19 H :    0.131178
  20 H :    0.124788
  21 H :    0.120119
  22 H :    0.116498
  23 H :    0.108521
  24 H :    0.108992
  25 H :    0.123574
  26 H :    0.133192
  27 H :    0.118022
  28 H :    0.131971
  29 H :    0.132775
  30 H :    0.130945
  31 H :    0.102081
  32 H :    0.103969
  33 H :    0.124764
  34 H :    0.128604
  35 H :    0.124908
  36 H :    0.113686
  37 H :    0.120834
  38 H :    0.120935
  39 H :    0.131899
  40 H :    0.126790

  Mayer bond orders larger than 0.100000
B(  0-C ,  1-C ) :   1.1613 B(  0-C , 19-H ) :   0.9411 B(  0-C , 20-H ) :   0.9373
B(  0-C , 21-H ) :   0.9474 B(  1-C ,  2-O ) :   0.8967 B(  1-C , 22-H ) :   0.9323
B(  1-C , 23-H ) :   0.9096 B(  2-O ,  3-P ) :   1.0612 B(  3-P ,  4-S ) :   1.6371
B(  3-P ,  5-O ) :   1.1302 B(  3-P ,  8-S ) :   0.9485 B(  4-S ,  8-S ) :   0.1019
B(  5-O ,  6-C ) :   0.9046 B(  6-C ,  7-C ) :   1.1696 B(  6-C , 24-H ) :   0.9107
B(  6-C , 25-H ) :   0.9325 B(  7-C , 26-H ) :   0.9451 B(  7-C , 27-H ) :   0.9292
B(  7-C , 28-H ) :   0.9377 B(  8-S ,  9-C ) :   0.9952 B(  9-C , 10-S ) :   1.0142
B(  9-C , 29-H ) :   0.8850 B(  9-C , 30-H ) :   0.8829 B( 10-S , 11-P ) :   0.9425
B( 10-S , 12-S ) :   0.1042 B( 11-P , 12-S ) :   1.5923 B( 11-P , 13-O ) :   1.1081
B( 11-P , 16-O ) :   1.1306 B( 13-O , 14-C ) :   0.9051 B( 14-C , 15-C ) :   1.1583
B( 14-C , 31-H ) :   0.9125 B( 14-C , 32-H ) :   0.9025 B( 15-C , 33-H ) :   0.9488
B( 15-C , 34-H ) :   0.9413 B( 15-C , 35-H ) :   0.9451 B( 16-O , 17-C ) :   0.9088
B( 17-C , 18-C ) :   1.1618 B( 17-C , 36-H ) :   0.9207 B( 17-C , 37-H ) :   0.9354
B( 18-C , 38-H ) :   0.9281 B( 18-C , 39-H ) :   0.9364 B( 18-C , 40-H ) :   0.9456

Dispersion correction           -0.067440164
FINAL SINGLE POINT ENERGY     -2929.522610015971

DIPOLE MOMENT
-------------

Method             : SCF
Type of density    : Electron Density
Multiplicity       :   1
Irrep              :   0
Energy             : -2929.6414188442727209 Eh
Relativity type    :
Basis              : AO
                                X                 Y                 Z
Electronic contribution:      5.153961761       5.555797927     -24.883976323
Nuclear contribution   :     -5.681236963      -6.079503421      26.783814949
                        -----------------------------------------
Total Dipole Moment    :     -0.527275202      -0.523705494       1.899838626
                        -----------------------------------------
Magnitude (a.u.)       :      2.040017987
Magnitude (Debye)      :      5.185313640

Rotational constants in cm-1:             0.011842             0.005432             0.005156
Rotational constants in MHz :           355.015788           162.859159           154.582917

                             ****ORCA TERMINATED NORMALLY****
TOTAL RUN TIME: 0 days 0 hours 0 minutes 22 seconds 94 msec
