                         Program Version 6.0.0  -   RELEASE  -
|  1> ! wb97x-v def2-tzvp def2/J RIJCOSX DEFGRID2 scfconv7 GCP(DFT/TZ) printgap
|  2> %output
|  3>     printlevel normal
|  4> end
|  5> * xyz 0 1
|  6> C -1.9248898598184598 -0.00016821411032934036 -0.0014810734126364069
|  7> C -1.0649759580800386 1.2240692234547093 0.36904415119570894
|  8> C 0.28025293408032464 1.2182874270279054 -0.3637278878488782
|  9> C 1.0862348762104832 8.519035150715158e-05 0.0009542900144977882
| 10> O 2.3147990648144794 0.00029750644209556725 0.002508537582567167
| 11> C 0.27981721336485826 -1.218490453977129 0.3635065023951799
| 12> C -1.0643203136451607 -1.2241674943414307 -0.37119939717686573
| 13> H -2.5780890841601707 0.24442551546563135 -0.8457945940752083
| 14> H -2.5787994873066875 -0.2449605254494485 0.8422249215066843
| 15> H -1.6026632971411374 2.150499363217255 0.1478977057840846
| 16> H -0.8663031280762561 1.2274518898974676 1.4469572464965326
| 17> H 0.11439012893865717 1.168266770082011 -1.4513626431616566
| 18> H 0.8748428017789521 2.1158503438437433 -0.1710542367707736
| 19> H 0.8748619083295595 -2.1158339890435562 0.17116260829262597
| 20> H 0.11245641266403844 -1.1691931992053612 1.450945068475627
| 21> H -0.8640968027024138 -1.2271225887702213 -1.448826856353455
| 22> H -1.6022641046393422 -2.150723622674962 -0.15119683558756847
| 23> *
| 24>
| 25>                          ****END OF INPUT****

CARTESIAN COORDINATES (ANGSTROEM)
---------------------------------
  C     -1.924890   -0.000168   -0.001481
  C     -1.064976    1.224069    0.369044
  C      0.280253    1.218287   -0.363728
  C      1.086235    0.000085    0.000954
  O      2.314799    0.000298    0.002509
  C      0.279817   -1.218490    0.363507
  C     -1.064320   -1.224167   -0.371199
  H     -2.578089    0.244426   -0.845795
  H     -2.578799   -0.244961    0.842225
  H     -1.602663    2.150499    0.147898
  H     -0.866303    1.227452    1.446957
  H      0.114390    1.168267   -1.451363
  H      0.874843    2.115850   -0.171054
  H      0.874862   -2.115834    0.171163
  H      0.112456   -1.169193    1.450945
  H     -0.864097   -1.227123   -1.448827
  H     -1.602264   -2.150724   -0.151197

 Total Charge           Charge          ....    0
 Multiplicity           Mult            ....    1
 Number of Electrons    NEL             ....   54
 Basis Dimension        Dim             ....  277

ORBITAL ENERGIES
----------------

  NO   OCC          E(Eh)            E(eV)
   0   2.0000     -21.654192      -589.2405
   1   2.0000     -12.132868      -330.1521
   2   2.0000     -12.056899      -328.0849
   3   2.0000     -12.056778      -328.0816
   4   2.0000     -12.054700      -328.0251
   5   2.0000     -12.054500      -328.0196
   6   2.0000     -12.053682      -327.9974
   7   2.0000      -1.695954       -46.1493
   8   2.0000      -1.351092       -36.7651
   9   2.0000      -1.269045       -34.5325
  10   2.0000      -1.247356       -33.9423
  11   2.0000      -1.132332       -30.8123
  12   2.0000      -1.099318       -29.9140
  13   2.0000      -1.036276       -28.1985
  14   2.0000      -0.968493       -26.3540
  15   2.0000      -0.956550       -26.0291
  16   2.0000      -0.920047       -25.0357
  17   2.0000      -0.892927       -24.2978
  18   2.0000      -0.889627       -24.2080
  19   2.0000      -0.851612       -23.1736
  20   2.0000      -0.844673       -22.9847
  21   2.0000      -0.836508       -22.7625
  22   2.0000      -0.811835       -22.0912
  23   2.0000      -0.806796       -21.9540
  24   2.0000      -0.782428       -21.2910
  25   2.0000      -0.774013       -21.0620
  26   2.0000      -0.749420       -20.3927
  27   0.0000      -0.304179        -8.2771
  28   0.0000      -0.069510        -1.8915
  29   0.0000      -0.047247        -1.2856
  30   0.0000      -0.040312        -1.0970
  31   0.0000      -0.031638        -0.8609

MULLIKEN ATOMIC CHARGES
-----------------------
   0 C :   -0.207637
   1 C :   -0.203926
   2 C :   -0.144752
   3 C :    0.099128
   4 O :   -0.310936
   5 C :   -0.144864
   6 C :   -0.203853
   7 H :    0.101514
   8 H :    0.101509
   9 H :    0.111638
  10 H :    0.106127
  11 H :    0.111541
  12 H :    0.127590
  13 H :    0.127622
  14 H :    0.111557
  15 H :    0.106108
  16 H :    0.111634
Sum of atomic charges:    0.0000000

LOEWDIN ATOMIC CHARGES
----------------------
   0 C :   -0.254385
   1 C :   -0.251299
   2 C :   -0.218959
   3 C :   -0.312853
   4 O :    0.099304
   5 C :   -0.218968
   6 C :   -0.251327
   7 H :    0.132864
   8 H :    0.132864
   9 H :    0.133948
  10 H :    0.135826
  11 H :    0.155250
  12 H :    0.146342
  13 H :    0.146360
  14 H :    0.155262
  15 H :    0.135820
  16 H :    0.133951

  Mayer bond orders larger than 0.100000
B(  0-C ,  1-C ) :   0.9816 B(  0-C ,  6-C ) :   0.9816 B(  0-C ,  7-H ) :   0.9781
B(  0-C ,  8-H ) :   0.9781 B(  1-C ,  2-C ) :   0.9667 B(  1-C ,  9-H ) :   0.9729
B(  1-C , 10-H ) :   0.9728 B(  2-C ,  3-C ) :   0.9634 B(  2-C , 11-H ) :   0.9452
B(  2-C , 12-H ) :   0.9582 B(  3-C ,  4-O ) :   2.1652 B(  3-C ,  5-C ) :   0.9633
B(  5-C ,  6-C ) :   0.9667 B(  5-C , 13-H ) :   0.9582 B(  5-C , 14-H ) :   0.9452
B(  6-C , 15-H ) :   0.9728 B(  6-C , 16-H ) :   0.9729

FINAL SINGLE POINT ENERGY      -309.905028571061

DIPOLE MOMENT
-------------

Method             : SCF
Type of density    : Electron Density
Multiplicity       :   1
Irrep              :   0
Energy             :  -309.9162291676610721 Eh
Relativity type    :
Basis              : AO
                                X                 Y                 Z
Electronic contribution:      6.207769423       0.000869516       0.006414796
Nuclear contribution   :     -7.573259037      -0.001137232      -0.008081711
                        -----------------------------------------
Total Dipole Moment    :     -1.365489614      -0.000267716      -0.001666914
                        -----------------------------------------
Magnitude (a.u.)       :      1.365490657
Magnitude (Debye)      :      3.470801422

Rotational constants in cm-1:             0.149985             0.079648             0.057912
Rotational constants in MHz :          4496.441681          2387.791601          1736.166056

                             ****ORCA TERMINATED NORMALLY****
TOTAL RUN TIME: 0 days 0 hours 2 minutes 20 seconds 665 msec
