                         Program Version 6.0.0  -   RELEASE  -
|  1> ! wb97x-v def2-tzvp def2/J RIJCOSX DEFGRID2 scfconv7 GCP(DFT/TZ) printgap
|  2> %output
|  3>     printlevel normal
|  4> end
|  5> %cpcm
|  6>     smd true
|  7>     smdsolvent "water"
|  8> end
|  9> * xyz 0 1
| 10> C -1.9248898598184598 -0.00016821411032934036 -0.0014810734126364069
| 11> C -1.0649759580800386 1.2240692234547093 0.36904415119570894
| 12> C 0.28025293408032464 1.2182874270279054 -0.3637278878488782
| 13> C 1.0862348762104832 8.519035150715158e-05 0.0009542900144977882
| 14> O 2.3147990648144794 0.00029750644209556725 0.002508537582567167
| 15> C 0.27981721336485826 -1.218490453977129 0.3635065023951799
| 16> C -1.0643203136451607 -1.2241674943414307 -0.37119939717686573
| 17> H -2.5780890841601707 0.24442551546563135 -0.8457945940752083
| 18> H -2.5787994873066875 -0.2449605254494485 0.8422249215066843
| 19> H -1.6026632971411374 2.150499363217255 0.1478977057840846
| 20> H -0.8663031280762561 1.2274518898974676 1.4469572464965326
| 21> H 0.11439012893865717 1.168266770082011 -1.4513626431616566
| 22> H 0.8748428017789521 2.1158503438437433 -0.1710542367707736
| 23> H 0.8748619083295595 -2.1158339890435562 0.17116260829262597
| 24> H 0.11245641266403844 -1.1691931992053612 1.450945068475627
| 25> H -0.8640968027024138 -1.2271225887702213 -1.448826856353455
| 26> H -1.6022641046393422 -2.150723622674962 -0.15119683558756847
| 27> *
| 28>
| 29>                          ****END OF INPUT****

CARTESIAN COORDINATES (ANGSTROEM)
---------------------------------
  C     -1.924890   -0.000168   -0.001481
  C     -1.064976    1.224069    0.369044
  C      0.280253    1.218287   -0.363728
  C      1.086235    0.000085    0.000954
  O      2.314799    0.000298    0.002509
  C      0.279817   -1.218490    0.363507
  C     -1.064320   -1.224167   -0.371199
  H     -2.578089    0.244426   -0.845795
  H     -2.578799   -0.244961    0.842225
  H     -1.602663    2.150499    0.147898
  H     -0.866303    1.227452    1.446957
  H      0.114390    1.168267   -1.451363
  H      0.874843    2.115850   -0.171054
  H      0.874862   -2.115834    0.171163
  H      0.112456   -1.169193    1.450945
  H     -0.864097   -1.227123   -1.448827
  H     -1.602264   -2.150724   -0.151197

 Total Charge           Charge          ....    0
 Multiplicity           Mult            ....    1
 Number of Electrons    NEL             ....   54
 Basis Dimension        Dim             ....  277

ORBITAL ENERGIES
----------------

  NO   OCC          E(Eh)            E(eV)
   0   2.0000     -21.666421      -589.5733
   1   2.0000     -12.141066      -330.3752
   2   2.0000     -12.044141      -327.7377
   3   2.0000     -12.043691      -327.7255
   4   2.0000     -12.038881      -327.5946
   5   2.0000     -12.038869      -327.5943
   6   2.0000     -12.034415      -327.4731
   7   2.0000      -1.711959       -46.5848
   8   2.0000      -1.338318       -36.4175
   9   2.0000      -1.255742       -34.1705
  10   2.0000      -1.236414       -33.6445
  11   2.0000      -1.120170       -30.4814
  12   2.0000      -1.101167       -29.9643
  13   2.0000      -1.033924       -28.1345
  14   2.0000      -0.960257       -26.1299
  15   2.0000      -0.958806       -26.0905
  16   2.0000      -0.924636       -25.1606
  17   2.0000      -0.884413       -24.0661
  18   2.0000      -0.878341       -23.9009
  19   2.0000      -0.844889       -22.9906
  20   2.0000      -0.829013       -22.5586
  21   2.0000      -0.822804       -22.3896
  22   2.0000      -0.800501       -21.7827
  23   2.0000      -0.795880       -21.6570
  24   2.0000      -0.766067       -20.8457
  25   2.0000      -0.762295       -20.7431
  26   2.0000      -0.734150       -19.9772
  27   0.0000      -0.302220        -8.2238
  28   0.0000      -0.060178        -1.6375
  29   0.0000      -0.033051        -0.8994
  30   0.0000      -0.025279        -0.6879
  31   0.0000      -0.018409        -0.5009

MULLIKEN ATOMIC CHARGES
-----------------------
   0 C :   -0.226676
   1 C :   -0.215976
   2 C :   -0.171256
   3 C :    0.196441
   4 O :   -0.459880
   5 C :   -0.171361
   6 C :   -0.215924
   7 H :    0.111106
   8 H :    0.111097
   9 H :    0.124794
  10 H :    0.117989
  11 H :    0.142979
  12 H :    0.135432
  13 H :    0.135488
  14 H :    0.142975
  15 H :    0.117981
  16 H :    0.124790
Sum of atomic charges:    0.0000000

LOEWDIN ATOMIC CHARGES
----------------------
   0 C :   -0.253365
   1 C :   -0.247838
   2 C :   -0.214991
   3 C :   -0.290834
   4 O :    0.013897
   5 C :   -0.215000
   6 C :   -0.247867
   7 H :    0.135253
   8 H :    0.135254
   9 H :    0.137643
  10 H :    0.140027
  11 H :    0.167165
  12 H :    0.147896
  13 H :    0.147921
  14 H :    0.167168
  15 H :    0.140026
  16 H :    0.137644

  Mayer bond orders larger than 0.100000
B(  0-C ,  1-C ) :   0.9892 B(  0-C ,  6-C ) :   0.9892 B(  0-C ,  7-H ) :   0.9761
B(  0-C ,  8-H ) :   0.9761 B(  1-C ,  2-C ) :   0.9738 B(  1-C ,  9-H ) :   0.9669
B(  1-C , 10-H ) :   0.9696 B(  2-C ,  3-C ) :   0.9867 B(  2-C , 11-H ) :   0.9269
B(  2-C , 12-H ) :   0.9541 B(  3-C ,  4-O ) :   1.9898 B(  3-C ,  5-C ) :   0.9866
B(  5-C ,  6-C ) :   0.9738 B(  5-C , 13-H ) :   0.9541 B(  5-C , 14-H ) :   0.9268
B(  6-C , 15-H ) :   0.9696 B(  6-C , 16-H ) :   0.9669

FINAL SINGLE POINT ENERGY      -309.914395972805

DIPOLE MOMENT
-------------

Method             : SCF
Type of density    : Electron Density
Multiplicity       :   1
Irrep              :   0
Energy             :  -309.9255965694047177 Eh
Relativity type    :
Basis              : AO
                                X                 Y                 Z
Electronic contribution:      5.663348026       0.000744786       0.005717960
Nuclear contribution   :     -7.573259037      -0.001137232      -0.008081711
                        -----------------------------------------
Total Dipole Moment    :     -1.909911011      -0.000392446      -0.002363751
                        -----------------------------------------
Magnitude (a.u.)       :      1.909912514
Magnitude (Debye)      :      4.854611809

Rotational constants in cm-1:             0.149985             0.079648             0.057912
Rotational constants in MHz :          4496.441681          2387.791601          1736.166056

                             ****ORCA TERMINATED NORMALLY****
TOTAL RUN TIME: 0 days 0 hours 2 minutes 8 seconds 982 msec
