                         Program Version 6.0.0  -   RELEASE  -
|  1> ! pbe def2-sv(p) def2/J RI DEFGRID1 loosescf d4 GCP(DFT/SV(P)) printgap
|  2> %output
|  3>     printlevel normal
|  4> end
|  5> * xyz 0 1
|  6> C -0.7253731347 -1.8173169324 5.19921e-05
|  7> C 0.5997696771 -1.4264122658 -6.36902e-05
|  8> C 0.9030898757 -0.0631022753 -4.95786e-05
|  9> C -0.1087245263 0.892949679 -3.24612e-05
| 10> C -1.4386791103 0.4849219477 5.3132e-05
| 11> C -1.7403107147 -0.8756909458 0.0001283793
| 12> O -2.3923868713 1.4430297058 -2.85868e-05
| 13> C 2.2511684485 0.3536871629 -0.0002054187
| 14> N 3.3510894558 0.6850231634 0.0001867401
| 15> H -0.9731191194 -2.867004376 -0.0001319735
| 16> H 1.3962714487 -2.1534250074 -0.0002172474
| 17> H 0.1224053839 1.9464638446 -6.94559e-05
| 18> H -2.7708193418 -1.1976839321 -0.0003348648
| 19> H -3.2804728169 1.0525556297 1.41766e-05
| 20> *
| 21>
| 22>                          ****END OF INPUT****

CARTESIAN COORDINATES (ANGSTROEM)
---------------------------------
  C     -0.725373   -1.817317    0.000052
  C      0.599770   -1.426412   -0.000064
  C      0.903090   -0.063102   -0.000050
  C     -0.108725    0.892950   -0.000032
  C     -1.438679    0.484922    0.000053
  C     -1.740311   -0.875691    0.000128
  O     -2.392387    1.443030   -0.000029
  C      2.251168    0.353687   -0.000205
  N      3.351089    0.685023    0.000187
  H     -0.973119   -2.867004   -0.000132
  H      1.396271   -2.153425   -0.000217
  H      0.122405    1.946464   -0.000069
  H     -2.770819   -1.197684   -0.000335
  H     -3.280473    1.052556    0.000014

 Total Charge           Charge          ....    0
 Multiplicity           Mult            ....    1
 Number of Electrons    NEL             ....   62
 Basis Dimension        Dim             ....  136

ORBITAL ENERGIES
----------------

  NO   OCC          E(Eh)            E(eV)
   0   2.0000     -18.806385      -511.7477
   1   2.0000     -13.982947      -380.4953
   2   2.0000      -9.980807      -271.5916
   3   2.0000      -9.944812      -270.6121
   4   2.0000      -9.927466      -270.1401
   5   2.0000      -9.918219      -269.8885
   6   2.0000      -9.917699      -269.8743
   7   2.0000      -9.917087      -269.8577
   8   2.0000      -9.914080      -269.7758
   9   2.0000      -0.989215       -26.9179
  10   2.0000      -0.821352       -22.3501
  11   2.0000      -0.796311       -21.6687
  12   2.0000      -0.712061       -19.3762
  13   2.0000      -0.693679       -18.8760
  14   2.0000      -0.606580       -16.5059
  15   2.0000      -0.572452       -15.5772
  16   2.0000      -0.545828       -14.8527
  17   2.0000      -0.471723       -12.8362
  18   2.0000      -0.453412       -12.3380
  19   2.0000      -0.444877       -12.1057
  20   2.0000      -0.406174       -11.0526
  21   2.0000      -0.393184       -10.6991
  22   2.0000      -0.367122        -9.9899
  23   2.0000      -0.353173        -9.6103
  24   2.0000      -0.347404        -9.4533
  25   2.0000      -0.323435        -8.8011
  26   2.0000      -0.302107        -8.2207
  27   2.0000      -0.297985        -8.1086
  28   2.0000      -0.296496        -8.0681
  29   2.0000      -0.247333        -6.7303
  30   2.0000      -0.220907        -6.0112
  31   0.0000      -0.081297        -2.2122
  32   0.0000      -0.047073        -1.2809
  33   0.0000       0.001810         0.0492
  34   0.0000       0.009687         0.2636
  35   0.0000       0.032892         0.8950

MULLIKEN ATOMIC CHARGES
-----------------------
   0 C :   -0.043878
   1 C :   -0.053971
   2 C :   -0.036404
   3 C :   -0.143318
   4 C :    0.260914
   5 C :   -0.158834
   6 O :   -0.321861
   7 C :   -0.121820
   8 N :    0.066071
   9 H :    0.066107
  10 H :    0.061173
  11 H :    0.060919
  12 H :    0.041134
  13 H :    0.323767
Sum of atomic charges:    0.0000000

LOEWDIN ATOMIC CHARGES
----------------------
   0 C :   -0.106414
   1 C :   -0.113976
   2 C :   -0.067894
   3 C :   -0.113842
   4 C :    0.026416
   5 C :   -0.160900
   6 O :   -0.221353
   7 C :   -0.031892
   8 N :   -0.053337
   9 H :    0.132018
  10 H :    0.137144
  11 H :    0.144908
  12 H :    0.126090
  13 H :    0.303031

  Mayer bond orders larger than 0.100000
B(  0-C ,  1-C ) :   1.3584 B(  0-C ,  5-C ) :   1.3676 B(  0-C ,  9-H ) :   0.9590
B(  1-C ,  2-C ) :   1.3405 B(  1-C , 10-H ) :   0.9672 B(  2-C ,  3-C ) :   1.3339
B(  2-C ,  7-C ) :   1.1112 B(  3-C ,  4-C ) :   1.3213 B(  3-C , 11-H ) :   0.9684
B(  4-C ,  5-C ) :   1.3061 B(  4-C ,  6-O ) :   1.2038 B(  5-C , 12-H ) :   0.9587
B(  6-O , 13-H ) :   0.8373 B(  7-C ,  8-N ) :   2.9942

Dispersion correction           -0.014800842
FINAL SINGLE POINT ENERGY      -398.882540849903

DIPOLE MOMENT
-------------

Method             : SCF
Type of density    : Electron Density
Multiplicity       :   1
Irrep              :   0
Energy             :  -398.9212838388745581 Eh
Relativity type    :
Basis              : AO
                                X                 Y                 Z
Electronic contribution:      3.068344254       2.242494018       0.000368088
Nuclear contribution   :     -5.182340684      -2.994916131      -0.000693049
                        -----------------------------------------
Total Dipole Moment    :     -2.113996430      -0.752422113      -0.000324960
                        -----------------------------------------
Magnitude (a.u.)       :      2.243907317
Magnitude (Debye)      :      5.703559131

Rotational constants in cm-1:             0.115071             0.040810             0.030126
Rotational constants in MHz :          3449.733458          1223.464302           903.155821

                             ****ORCA TERMINATED NORMALLY****
TOTAL RUN TIME: 0 days 0 hours 0 minutes 22 seconds 805 msec
