                         Program Version 6.0.0  -   RELEASE  -
|  1> ! pbe def2-sv(p) def2/J RI DEFGRID1 loosescf d4 GCP(DFT/SV(P)) printgap
|  2> %output
|  3>     printlevel normal
|  4> end
|  5> * xyz 0 1
|  6> C 1.852990363 2.6703689957 0.508208715
|  7> C 2.666985344 2.013731857 1.6034751565
|  8> O 3.0047258416 0.6516008373 1.2860255715
|  9> P 1.9041010526 -0.487140606 1.1512393815
| 10> S 0.4474171148 -0.433569492 2.4520349175
| 11> O 2.7327584637 -1.822835108 1.3059378651
| 12> C 3.9098260155 -2.1479520797 0.5256905966
| 13> C 5.1736709809 -1.7018707408 1.2317778688
| 14> S 1.3808233085 -0.4456884272 -0.9155416723
| 15> C 0.0606177484 -1.6945744828 -0.8097881765
| 16> S -1.3207786749 -1.3704428063 -1.9423664115
| 17> P -2.2487434505 0.2718259398 -1.0103001173
| 18> S -3.9641431607 0.8456542493 -1.7616371544
| 19> O -1.1752233105 1.453068695 -0.9015276002
| 20> C -1.068770236 2.4565900607 -1.9268427286
| 21> C -0.4820836712 1.8929471588 -3.2051218191
| 22> O -2.2786693395 -0.2717468184 0.4770850401
| 23> C -2.9534236837 0.4634346133 1.5225465761
| 24> C -3.349678521 -0.5183580774 2.6042182583
| 25> H 1.7165193082 3.7211589237 0.7441409215
| 26> H 2.3609070366 2.5759130221 -0.4485994807
| 27> H 0.8759501018 2.1935195155 0.4386513006
| 28> H 2.1171872808 2.0211768501 2.5498514998
| 29> H 3.6349607573 2.4998701285 1.7334602888
| 30> H 3.8740998334 -3.2344522931 0.4276783264
| 31> H 3.8212889677 -1.6809948604 -0.4593577014
| 32> H 5.2128793546 -2.1286401516 2.2303718496
| 33> H 6.0342489011 -2.0413430796 0.6637221612
| 34> H 5.2016747429 -0.6188028796 1.3116171419
| 35> H -0.3103164944 -1.7251491522 0.2155897429
| 36> H 0.4542849445 -2.6588605492 -1.1219491825
| 37> H -2.06762982 2.8659538932 -2.109325503
| 38> H -0.4261475266 3.2208328417 -1.4884591414
| 39> H -1.165503117 1.1594529006 -3.6330553826
| 40> H -0.3374297648 2.697326462 -3.9187544677
| 41> H 0.4709974125 1.4089239534 -3.0046638959
| 42> H -2.2565262986 1.2118969104 1.9064701651
| 43> H -3.8264131787 0.9621442914 1.0876438901
| 44> H -2.4588893114 -0.9886683274 3.0133962634
| 45> H -3.8679501744 0.0144010484 3.3944788221
| 46> H -4.0026744393 -1.2843170183 2.1951995842
| 47> *
| 48>
| 49>                          ****END OF INPUT****

CARTESIAN COORDINATES (ANGSTROEM)
---------------------------------
  C      1.852990    2.670369    0.508209
  C      2.666985    2.013732    1.603475
  O      3.004726    0.651601    1.286026
  P      1.904101   -0.487141    1.151239
  S      0.447417   -0.433569    2.452035
  O      2.732758   -1.822835    1.305938
  C      3.909826   -2.147952    0.525691
  C      5.173671   -1.701871    1.231778
  S      1.380823   -0.445688   -0.915542
  C      0.060618   -1.694574   -0.809788
  S     -1.320779   -1.370443   -1.942366
  P     -2.248743    0.271826   -1.010300
  S     -3.964143    0.845654   -1.761637
  O     -1.175223    1.453069   -0.901528
  C     -1.068770    2.456590   -1.926843
  C     -0.482084    1.892947   -3.205122
  O     -2.278669   -0.271747    0.477085
  C     -2.953424    0.463435    1.522547
  C     -3.349679   -0.518358    2.604218
  H      1.716519    3.721159    0.744141
  H      2.360907    2.575913   -0.448599
  H      0.875950    2.193520    0.438651
  H      2.117187    2.021177    2.549851
  H      3.634961    2.499870    1.733460
  H      3.874100   -3.234452    0.427678
  H      3.821289   -1.680995   -0.459358
  H      5.212879   -2.128640    2.230372
  H      6.034249   -2.041343    0.663722
  H      5.201675   -0.618803    1.311617
  H     -0.310316   -1.725149    0.215590
  H      0.454285   -2.658861   -1.121949
  H     -2.067630    2.865954   -2.109326
  H     -0.426148    3.220833   -1.488459
  H     -1.165503    1.159453   -3.633055
  H     -0.337430    2.697326   -3.918754
  H      0.470997    1.408924   -3.004664
  H     -2.256526    1.211897    1.906470
  H     -3.826413    0.962144    1.087644
  H     -2.458889   -0.988668    3.013396
  H     -3.867950    0.014401    3.394479
  H     -4.002674   -1.284317    2.195200

 Total Charge           Charge          ....    0
 Multiplicity           Mult            ....    1
 Number of Electrons    NEL             ....  202
 Basis Dimension        Dim             ....  334

ORBITAL ENERGIES
----------------

  NO   OCC          E(Eh)            E(eV)
   0   2.0000     -88.046825     -2395.8759
   1   2.0000     -88.046736     -2395.8735
   2   2.0000     -87.991802     -2394.3787
   3   2.0000     -87.984259     -2394.1734
   4   2.0000     -76.432742     -2079.8406
   5   2.0000     -76.422710     -2079.5677
   6   2.0000     -18.804043      -511.6840
   7   2.0000     -18.796773      -511.4862
   8   2.0000     -18.787877      -511.2441
   9   2.0000     -18.785566      -511.1812
  10   2.0000      -9.960940      -271.0510
  11   2.0000      -9.960502      -271.0390
  12   2.0000      -9.958710      -270.9903
  13   2.0000      -9.947807      -270.6936
  14   2.0000      -9.943572      -270.5784
  15   2.0000      -9.890497      -269.1341
  16   2.0000      -9.889977      -269.1200
  17   2.0000      -9.880523      -268.8627
  18   2.0000      -9.877132      -268.7704
  19   2.0000      -7.692208      -209.3156
  20   2.0000      -7.691351      -209.2923
  21   2.0000      -7.636860      -207.8095
  22   2.0000      -7.629423      -207.6072
  23   2.0000      -6.430227      -174.9754
  24   2.0000      -6.420753      -174.7176
  25   2.0000      -5.720523      -155.6633
  26   2.0000      -5.719193      -155.6272
  27   2.0000      -5.716414      -155.5515
  28   2.0000      -5.716018      -155.5408
  29   2.0000      -5.709003      -155.3499
  30   2.0000      -5.708250      -155.3294
  31   2.0000      -5.665809      -154.1745
  32   2.0000      -5.658347      -153.9714
  33   2.0000      -5.657489      -153.9481
  34   2.0000      -5.656920      -153.9326
  35   2.0000      -5.650237      -153.7508
  36   2.0000      -5.649395      -153.7278
  37   2.0000      -4.653249      -126.6213
  38   2.0000      -4.651898      -126.5846
  39   2.0000      -4.650381      -126.5433
  40   2.0000      -4.643179      -126.3473
  41   2.0000      -4.642708      -126.3345
  42   2.0000      -4.641117      -126.2912
  43   2.0000      -0.995272       -27.0827
  44   2.0000      -0.981728       -26.7142
  45   2.0000      -0.953252       -25.9393
  46   2.0000      -0.940110       -25.5817
  47   2.0000      -0.764901       -20.8140
  48   2.0000      -0.725537       -19.7429
  49   2.0000      -0.709667       -19.3110
  50   2.0000      -0.696892       -18.9634
  51   2.0000      -0.682996       -18.5853
  52   2.0000      -0.676718       -18.4144
  53   2.0000      -0.654352       -17.8058
  54   2.0000      -0.639957       -17.4141
  55   2.0000      -0.601934       -16.3795
  56   2.0000      -0.590123       -16.0581
  57   2.0000      -0.581222       -15.8159
  58   2.0000      -0.566577       -15.4173
  59   2.0000      -0.558820       -15.2063
  60   2.0000      -0.506897       -13.7934
  61   2.0000      -0.498876       -13.5751
  62   2.0000      -0.481736       -13.1087
  63   2.0000      -0.468821       -12.7573
  64   2.0000      -0.456731       -12.4283
  65   2.0000      -0.450413       -12.2564
  66   2.0000      -0.442242       -12.0340
  67   2.0000      -0.439583       -11.9617
  68   2.0000      -0.433642       -11.8000
  69   2.0000      -0.422930       -11.5085
  70   2.0000      -0.411578       -11.1996
  71   2.0000      -0.402961       -10.9651
  72   2.0000      -0.394627       -10.7383
  73   2.0000      -0.387952       -10.5567
  74   2.0000      -0.382560       -10.4100
  75   2.0000      -0.372703       -10.1418
  76   2.0000      -0.364618        -9.9218
  77   2.0000      -0.360433        -9.8079
  78   2.0000      -0.357861        -9.7379
  79   2.0000      -0.352931        -9.6038
  80   2.0000      -0.348973        -9.4960
  81   2.0000      -0.346500        -9.4287
  82   2.0000      -0.344001        -9.3607
  83   2.0000      -0.332783        -9.0555
  84   2.0000      -0.328009        -8.9256
  85   2.0000      -0.320855        -8.7309
  86   2.0000      -0.315876        -8.5954
  87   2.0000      -0.302420        -8.2293
  88   2.0000      -0.298315        -8.1176
  89   2.0000      -0.293803        -7.9948
  90   2.0000      -0.287982        -7.8364
  91   2.0000      -0.276154        -7.5145
  92   2.0000      -0.268372        -7.3028
  93   2.0000      -0.267146        -7.2694
  94   2.0000      -0.265771        -7.2320
  95   2.0000      -0.230520        -6.2728
  96   2.0000      -0.223615        -6.0849
  97   2.0000      -0.212414        -5.7801
  98   2.0000      -0.207985        -5.6596
  99   2.0000      -0.203022        -5.5245
 100   2.0000      -0.198935        -5.4133
 101   0.0000      -0.042855        -1.1661
 102   0.0000      -0.031866        -0.8671
 103   0.0000      -0.023387        -0.6364
 104   0.0000       0.002038         0.0555
 105   0.0000       0.015306         0.4165

MULLIKEN ATOMIC CHARGES
-----------------------
   0 C :   -0.374988
   1 C :    0.012432
   2 O :   -0.381012
   3 P :    0.596584
   4 S :   -0.303535
   5 O :   -0.359076
   6 C :   -0.012762
   7 C :   -0.293267
   8 S :   -0.098206
   9 C :   -0.355935
  10 S :   -0.074851
  11 P :    0.622659
  12 S :   -0.322938
  13 O :   -0.374762
  14 C :   -0.009382
  15 C :   -0.321710
  16 O :   -0.374532
  17 C :   -0.002295
  18 C :   -0.287864
  19 H :    0.116489
  20 H :    0.117661
  21 H :    0.168498
  22 H :    0.113752
  23 H :    0.105606
  24 H :    0.109026
  25 H :    0.101056
  26 H :    0.121076
  27 H :    0.110564
  28 H :    0.123252
  29 H :    0.210140
  30 H :    0.182778
  31 H :    0.112855
  32 H :    0.105950
  33 H :    0.123827
  34 H :    0.110088
  35 H :    0.124547
  36 H :    0.104275
  37 H :    0.102310
  38 H :    0.128306
  39 H :    0.106871
  40 H :    0.116513
Sum of atomic charges:    0.0000000

LOEWDIN ATOMIC CHARGES
----------------------
   0 C :   -0.379741
   1 C :   -0.114856
   2 O :   -0.244377
   3 P :    0.573754
   4 S :   -0.295007
   5 O :   -0.240174
   6 C :   -0.117450
   7 C :   -0.360231
   8 S :    0.078370
   9 C :   -0.478424
  10 S :    0.100539
  11 P :    0.568266
  12 S :   -0.320148
  13 O :   -0.245585
  14 C :   -0.123163
  15 C :   -0.370634
  16 O :   -0.239891
  17 C :   -0.118279
  18 C :   -0.352555
  19 H :    0.132276
  20 H :    0.123019
  21 H :    0.127965
  22 H :    0.114023
  23 H :    0.118838
  24 H :    0.120722
  25 H :    0.102142
  26 H :    0.129313
  27 H :    0.130038
  28 H :    0.126043
  29 H :    0.129202
  30 H :    0.135659
  31 H :    0.108886
  32 H :    0.114675
  33 H :    0.120574
  34 H :    0.129509
  35 H :    0.117964
  36 H :    0.110693
  37 H :    0.106181
  38 H :    0.125164
  39 H :    0.129127
  40 H :    0.127571

  Mayer bond orders larger than 0.100000
B(  0-C ,  1-C ) :   1.1625 B(  0-C , 19-H ) :   0.9357 B(  0-C , 20-H ) :   0.9428
B(  0-C , 21-H ) :   0.9151 B(  1-C ,  2-O ) :   0.9014 B(  1-C , 22-H ) :   0.9187
B(  1-C , 23-H ) :   0.9323 B(  2-O ,  3-P ) :   1.0880 B(  3-P ,  4-S ) :   1.6330
B(  3-P ,  5-O ) :   1.1290 B(  3-P ,  8-S ) :   0.9591 B(  4-S ,  8-S ) :   0.1109
B(  5-O ,  6-C ) :   0.8988 B(  6-C ,  7-C ) :   1.1648 B(  6-C , 24-H ) :   0.9360
B(  6-C , 25-H ) :   0.9072 B(  7-C , 26-H ) :   0.9473 B(  7-C , 27-H ) :   0.9392
B(  7-C , 28-H ) :   0.9415 B(  8-S ,  9-C ) :   0.9768 B(  9-C , 10-S ) :   1.0022
B(  9-C , 29-H ) :   0.8565 B(  9-C , 30-H ) :   0.9106 B( 10-S , 11-P ) :   0.9689
B( 11-P , 12-S ) :   1.6548 B( 11-P , 13-O ) :   1.0701 B( 11-P , 16-O ) :   1.1218
B( 13-O , 14-C ) :   0.9072 B( 14-C , 15-C ) :   1.1643 B( 14-C , 31-H ) :   0.9118
B( 14-C , 32-H ) :   0.9267 B( 15-C , 33-H ) :   0.9351 B( 15-C , 34-H ) :   0.9385
B( 15-C , 35-H ) :   0.9399 B( 16-O , 17-C ) :   0.8887 B( 17-C , 18-C ) :   1.1685
B( 17-C , 36-H ) :   0.9239 B( 17-C , 37-H ) :   0.9090 B( 18-C , 38-H ) :   0.9455
B( 18-C , 39-H ) :   0.9408 B( 18-C , 40-H ) :   0.9496

Dispersion correction           -0.065653453
FINAL SINGLE POINT ENERGY     -2929.519407759847

DIPOLE MOMENT
-------------

Method             : SCF
Type of density    : Electron Density
Multiplicity       :   1
Irrep              :   0
Energy             : -2929.6407592917762486 Eh
Relativity type    :
Basis              : AO
                                X                 Y                 Z
Electronic contribution:    -12.570180731      -9.289533263      -5.220168671
Nuclear contribution   :     14.566484468       9.794407648       5.342863391
                        -----------------------------------------
Total Dipole Moment    :      1.996303737       0.504874386       0.122694719
                        -----------------------------------------
Magnitude (a.u.)       :      2.062808947
Magnitude (Debye)      :      5.243243655

Rotational constants in cm-1:             0.012104             0.005155             0.004856
Rotational constants in MHz :           362.854279           154.542411           145.581705

                             ****ORCA TERMINATED NORMALLY****
TOTAL RUN TIME: 0 days 0 hours 0 minutes 21 seconds 796 msec
