                         Program Version 6.0.0  -   RELEASE  -
|  1> ! pbe def2-sv(p) def2/J RI DEFGRID1 loosescf d4 GCP(DFT/SV(P)) printgap
|  2> %output
|  3>     printlevel normal
|  4> end
|  5> * xyz 0 1
|  6> C 2.723202447 0.5044723801 -3.3585678699
|  7> C 2.8480775877 0.8575965964 -1.891699791
|  8> O 2.4510643011 -0.2972996409 -1.1240440842
|  9> P 2.1181449314 -0.2284369578 0.4231712901
| 10> S 1.1067387732 1.3759273139 0.9558940742
| 11> O 3.5736276541 -0.3302254628 1.0555785403
| 12> C 3.8888662576 -0.780370977 2.3880937262
| 13> C 2.9860530092 -0.1869814756 3.4487220944
| 14> S 1.3215550425 -2.1448212387 0.7285474996
| 15> C -0.2764297997 -1.9832241285 -0.1169128959
| 16> S -1.504307073 -1.0176637173 0.8113810887
| 17> P -1.9010740897 0.5620513577 -0.5698909
| 18> S -0.7837252839 0.5775073699 -2.1761560658
| 19> O -1.8590772888 1.9227476806 0.2168431696
| 20> C -2.8543357834 2.3925810879 1.157322675
| 21> C -2.9681185668 1.4975730004 2.3722984594
| 22> O -3.4652603522 0.44149402 -0.8719444621
| 23> C -4.0096971427 -0.3804287143 -1.9167421725
| 24> C -3.8056838823 -1.8602697545 -1.662196244
| 25> H 1.6825782462 0.3029876971 -3.6022399344
| 26> H 3.0738668184 1.339529928 -3.9558283698
| 27> H 3.3179490095 -0.3770816465 -3.5781487858
| 28> H 2.1953790202 1.6963742857 -1.6250049517
| 29> H 3.8773433726 1.1046874409 -1.6204240257
| 30> H 3.8250148138 -1.871843747 2.3921595048
| 31> H 4.9258200786 -0.4685767243 2.526146106
| 32> H 1.959227549 -0.517820834 3.2945220348
| 33> H 3.3195714654 -0.5138504488 4.4283545425
| 34> H 3.0077463057 0.8995680069 3.4032084362
| 35> H -0.6489009233 -3.0000216767 -0.210959459
| 36> H -0.1229908247 -1.515254931 -1.0936719747
| 37> H -2.4874700747 3.3850904456 1.4236870967
| 38> H -3.8089706853 2.4716722231 0.6329990359
| 39> H -3.3612725704 0.5219416635 2.0899801996
| 40> H -1.9902281105 1.363672932 2.8292513998
| 41> H -3.6398546468 1.9567421023 3.0907524765
| 42> H -5.0684708941 -0.1169859002 -1.9247966536
| 43> H -3.5466138564 -0.0858527045 -2.8638541215
| 44> H -2.7508167829 -2.1121054861 -1.7575278526
| 45> H -4.1457008938 -2.1242596577 -0.6641530515
| 46> H -4.3682338331 -2.4275213514 -2.3967684914
| 47> *
| 48>
| 49>                          ****END OF INPUT****

CARTESIAN COORDINATES (ANGSTROEM)
---------------------------------
  C      2.723202    0.504472   -3.358568
  C      2.848078    0.857597   -1.891700
  O      2.451064   -0.297300   -1.124044
  P      2.118145   -0.228437    0.423171
  S      1.106739    1.375927    0.955894
  O      3.573628   -0.330225    1.055579
  C      3.888866   -0.780371    2.388094
  C      2.986053   -0.186981    3.448722
  S      1.321555   -2.144821    0.728547
  C     -0.276430   -1.983224   -0.116913
  S     -1.504307   -1.017664    0.811381
  P     -1.901074    0.562051   -0.569891
  S     -0.783725    0.577507   -2.176156
  O     -1.859077    1.922748    0.216843
  C     -2.854336    2.392581    1.157323
  C     -2.968119    1.497573    2.372298
  O     -3.465260    0.441494   -0.871944
  C     -4.009697   -0.380429   -1.916742
  C     -3.805684   -1.860270   -1.662196
  H      1.682578    0.302988   -3.602240
  H      3.073867    1.339530   -3.955828
  H      3.317949   -0.377082   -3.578149
  H      2.195379    1.696374   -1.625005
  H      3.877343    1.104687   -1.620424
  H      3.825015   -1.871844    2.392160
  H      4.925820   -0.468577    2.526146
  H      1.959228   -0.517821    3.294522
  H      3.319571   -0.513850    4.428355
  H      3.007746    0.899568    3.403208
  H     -0.648901   -3.000022   -0.210959
  H     -0.122991   -1.515255   -1.093672
  H     -2.487470    3.385090    1.423687
  H     -3.808971    2.471672    0.632999
  H     -3.361273    0.521942    2.089980
  H     -1.990228    1.363673    2.829251
  H     -3.639855    1.956742    3.090752
  H     -5.068471   -0.116986   -1.924797
  H     -3.546614   -0.085853   -2.863854
  H     -2.750817   -2.112105   -1.757528
  H     -4.145701   -2.124260   -0.664153
  H     -4.368234   -2.427521   -2.396768

 Total Charge           Charge          ....    0
 Multiplicity           Mult            ....    1
 Number of Electrons    NEL             ....  202
 Basis Dimension        Dim             ....  334

ORBITAL ENERGIES
----------------

  NO   OCC          E(Eh)            E(eV)
   0   2.0000     -88.041035     -2395.7184
   1   2.0000     -88.038427     -2395.6474
   2   2.0000     -87.983828     -2394.1617
   3   2.0000     -87.971719     -2393.8322
   4   2.0000     -76.424848     -2079.6258
   5   2.0000     -76.416463     -2079.3977
   6   2.0000     -18.787511      -511.2342
   7   2.0000     -18.787091      -511.2227
   8   2.0000     -18.781471      -511.0698
   9   2.0000     -18.775396      -510.9045
  10   2.0000      -9.954646      -270.8797
  11   2.0000      -9.954203      -270.8676
  12   2.0000      -9.953436      -270.8468
  13   2.0000      -9.952446      -270.8198
  14   2.0000      -9.936523      -270.3865
  15   2.0000      -9.886503      -269.0254
  16   2.0000      -9.886250      -269.0185
  17   2.0000      -9.878559      -268.8093
  18   2.0000      -9.872618      -268.6476
  19   2.0000      -7.686723      -209.1664
  20   2.0000      -7.682987      -209.0647
  21   2.0000      -7.628779      -207.5896
  22   2.0000      -7.616421      -207.2534
  23   2.0000      -6.421816      -174.7465
  24   2.0000      -6.413896      -174.5310
  25   2.0000      -5.714510      -155.4997
  26   2.0000      -5.711125      -155.4076
  27   2.0000      -5.710985      -155.4038
  28   2.0000      -5.707591      -155.3115
  29   2.0000      -5.703771      -155.2075
  30   2.0000      -5.699835      -155.1004
  31   2.0000      -5.657622      -153.9517
  32   2.0000      -5.649472      -153.7300
  33   2.0000      -5.648855      -153.7132
  34   2.0000      -5.645335      -153.6174
  35   2.0000      -5.637061      -153.3922
  36   2.0000      -5.636620      -153.3802
  37   2.0000      -4.644750      -126.3901
  38   2.0000      -4.643260      -126.3495
  39   2.0000      -4.642351      -126.3248
  40   2.0000      -4.636544      -126.1668
  41   2.0000      -4.635937      -126.1503
  42   2.0000      -4.634032      -126.0984
  43   2.0000      -0.984613       -26.7927
  44   2.0000      -0.974723       -26.5235
  45   2.0000      -0.939546       -25.5663
  46   2.0000      -0.932880       -25.3850
  47   2.0000      -0.759334       -20.6625
  48   2.0000      -0.717493       -19.5240
  49   2.0000      -0.705772       -19.2050
  50   2.0000      -0.689756       -18.7692
  51   2.0000      -0.681827       -18.5535
  52   2.0000      -0.672212       -18.2918
  53   2.0000      -0.646862       -17.6020
  54   2.0000      -0.630121       -17.1465
  55   2.0000      -0.596991       -16.2449
  56   2.0000      -0.581919       -15.8348
  57   2.0000      -0.578590       -15.7442
  58   2.0000      -0.567477       -15.4418
  59   2.0000      -0.553330       -15.0569
  60   2.0000      -0.495028       -13.4704
  61   2.0000      -0.493030       -13.4160
  62   2.0000      -0.467340       -12.7170
  63   2.0000      -0.462267       -12.5789
  64   2.0000      -0.450343       -12.2545
  65   2.0000      -0.447513       -12.1775
  66   2.0000      -0.443464       -12.0673
  67   2.0000      -0.426056       -11.5936
  68   2.0000      -0.425051       -11.5662
  69   2.0000      -0.420691       -11.4476
  70   2.0000      -0.409050       -11.1308
  71   2.0000      -0.398910       -10.8549
  72   2.0000      -0.393141       -10.6979
  73   2.0000      -0.384881       -10.4731
  74   2.0000      -0.373503       -10.1635
  75   2.0000      -0.368555       -10.0289
  76   2.0000      -0.358233        -9.7480
  77   2.0000      -0.354823        -9.6552
  78   2.0000      -0.351098        -9.5539
  79   2.0000      -0.344449        -9.3729
  80   2.0000      -0.342797        -9.3280
  81   2.0000      -0.338267        -9.2047
  82   2.0000      -0.337219        -9.1762
  83   2.0000      -0.334927        -9.1138
  84   2.0000      -0.324526        -8.8308
  85   2.0000      -0.310066        -8.4373
  86   2.0000      -0.307268        -8.3612
  87   2.0000      -0.294964        -8.0264
  88   2.0000      -0.292195        -7.9510
  89   2.0000      -0.292005        -7.9459
  90   2.0000      -0.282922        -7.6987
  91   2.0000      -0.270648        -7.3647
  92   2.0000      -0.259250        -7.0545
  93   2.0000      -0.255710        -6.9582
  94   2.0000      -0.252425        -6.8688
  95   2.0000      -0.235950        -6.4205
  96   2.0000      -0.218089        -5.9345
  97   2.0000      -0.204040        -5.5522
  98   2.0000      -0.200867        -5.4659
  99   2.0000      -0.185033        -5.0350
 100   2.0000      -0.177928        -4.8417
 101   0.0000      -0.037561        -1.0221
 102   0.0000      -0.032641        -0.8882
 103   0.0000      -0.012258        -0.3336
 104   0.0000       0.002787         0.0758
 105   0.0000       0.014336         0.3901

MULLIKEN ATOMIC CHARGES
-----------------------
   0 C :   -0.288250
   1 C :   -0.001492
   2 O :   -0.370678
   3 P :    0.608679
   4 S :   -0.321061
   5 O :   -0.380739
   6 C :   -0.006282
   7 C :   -0.316637
   8 S :   -0.097775
   9 C :   -0.352624
  10 S :   -0.101720
  11 P :    0.632909
  12 S :   -0.317312
  13 O :   -0.350275
  14 C :    0.006756
  15 C :   -0.335139
  16 O :   -0.389069
  17 C :    0.005202
  18 C :   -0.320281
  19 H :    0.129651
  20 H :    0.105267
  21 H :    0.109176
  22 H :    0.116409
  23 H :    0.096582
  24 H :    0.110531
  25 H :    0.107990
  26 H :    0.126939
  27 H :    0.108474
  28 H :    0.128904
  29 H :    0.182922
  30 H :    0.202792
  31 H :    0.112612
  32 H :    0.108939
  33 H :    0.126338
  34 H :    0.139967
  35 H :    0.115358
  36 H :    0.102184
  37 H :    0.110706
  38 H :    0.122883
  39 H :    0.118874
  40 H :    0.112289
Sum of atomic charges:   -0.0000000

LOEWDIN ATOMIC CHARGES
----------------------
   0 C :   -0.353212
   1 C :   -0.117553
   2 O :   -0.244949
   3 P :    0.563508
   4 S :   -0.313532
   5 O :   -0.252078
   6 C :   -0.111641
   7 C :   -0.373698
   8 S :    0.079364
   9 C :   -0.482632
  10 S :    0.078186
  11 P :    0.580830
  12 S :   -0.293098
  13 O :   -0.224799
  14 C :   -0.106838
  15 C :   -0.371479
  16 O :   -0.255319
  17 C :   -0.116470
  18 C :   -0.370046
  19 H :    0.123040
  20 H :    0.128215
  21 H :    0.123629
  22 H :    0.110257
  23 H :    0.109250
  24 H :    0.109424
  25 H :    0.120934
  26 H :    0.120598
  27 H :    0.128446
  28 H :    0.129443
  29 H :    0.135787
  30 H :    0.123743
  31 H :    0.124362
  32 H :    0.113526
  33 H :    0.116018
  34 H :    0.133438
  35 H :    0.132578
  36 H :    0.117521
  37 H :    0.110966
  38 H :    0.119675
  39 H :    0.124177
  40 H :    0.130429

  Mayer bond orders larger than 0.100000
B(  0-C ,  1-C ) :   1.1634 B(  0-C , 19-H ) :   0.9444 B(  0-C , 20-H ) :   0.9417
B(  0-C , 21-H ) :   0.9494 B(  1-C ,  2-O ) :   0.8960 B(  1-C , 22-H ) :   0.9071
B(  1-C , 23-H ) :   0.9313 B(  2-O ,  3-P ) :   1.1247 B(  3-P ,  4-S ) :   1.6415
B(  3-P ,  5-O ) :   1.0998 B(  3-P ,  8-S ) :   0.9594 B(  4-S ,  8-S ) :   0.1196
B(  5-O ,  6-C ) :   0.9192 B(  6-C ,  7-C ) :   1.1649 B(  6-C , 24-H ) :   0.9313
B(  6-C , 25-H ) :   0.9348 B(  7-C , 26-H ) :   0.9319 B(  7-C , 27-H ) :   0.9333
B(  7-C , 28-H ) :   0.9394 B(  8-S ,  9-C ) :   0.9981 B(  9-C , 10-S ) :   1.0062
B(  9-C , 29-H ) :   0.9075 B(  9-C , 30-H ) :   0.8423 B( 10-S , 11-P ) :   0.9416
B( 10-S , 12-S ) :   0.1160 B( 11-P , 12-S ) :   1.6042 B( 11-P , 13-O ) :   1.1470
B( 11-P , 16-O ) :   1.0558 B( 12-S , 30-H ) :   0.1146 B( 13-O , 14-C ) :   0.9004
B( 14-C , 15-C ) :   1.1709 B( 14-C , 31-H ) :   0.9324 B( 14-C , 32-H ) :   0.9260
B( 15-C , 33-H ) :   0.9319 B( 15-C , 34-H ) :   0.9395 B( 15-C , 35-H ) :   0.9354
B( 16-O , 17-C ) :   0.9198 B( 17-C , 18-C ) :   1.1644 B( 17-C , 36-H ) :   0.9346
B( 17-C , 37-H ) :   0.9167 B( 18-C , 38-H ) :   0.9376 B( 18-C , 39-H ) :   0.9418
B( 18-C , 40-H ) :   0.9367

Dispersion correction           -0.067702515
FINAL SINGLE POINT ENERGY     -2929.509999467900

DIPOLE MOMENT
-------------

Method             : SCF
Type of density    : Electron Density
Multiplicity       :   1
Irrep              :   0
Energy             : -2929.6271655912482856 Eh
Relativity type    :
Basis              : AO
                                X                 Y                 Z
Electronic contribution:      3.987473962      -0.228453305      -0.439098150
Nuclear contribution   :     -4.648674366      -0.320777747       0.878252544
                        -----------------------------------------
Total Dipole Moment    :     -0.661200404      -0.549231052       0.439154394
                        -----------------------------------------
Magnitude (a.u.)       :      0.965244686
Magnitude (Debye)      :      2.453457013

Rotational constants in cm-1:             0.011363             0.005724             0.005139
Rotational constants in MHz :           340.649891           171.615631           154.052883

                             ****ORCA TERMINATED NORMALLY****
TOTAL RUN TIME: 0 days 0 hours 0 minutes 21 seconds 358 msec
