                         Program Version 6.0.0  -   RELEASE  -
|  1> ! pbe def2-sv(p) def2/J RI DEFGRID1 loosescf d4 GCP(DFT/SV(P)) printgap
|  2> %output
|  3>     printlevel normal
|  4> end
|  5> * xyz 0 1
|  6> C 2.607699088 -2.8149639988 -1.6556497809
|  7> C 3.7549432272 -2.205622114 -0.8793079574
|  8> O 3.6559308541 -0.7647278623 -0.7676385493
|  9> P 2.4613164984 0.0404095351 -0.1146180067
| 10> S 3.0309068828 1.8174419442 0.4698634788
| 11> O 1.8552758092 -0.9108246002 1.0224898532
| 12> C 1.9265815384 -0.5923554174 2.4237166118
| 13> C 3.27588052 -0.9779825893 2.9952529132
| 14> S 0.9309991441 0.0180561425 -1.5820631886
| 15> C 7.42373e-05 1.4260732287 -0.9256762737
| 16> S -0.7361698656 1.0972615892 0.6961561747
| 17> P -2.5530167165 0.1677596529 0.0538403164
| 18> S -3.0722077928 0.527639085 -1.8078583133
| 19> O -3.6275363566 0.5850077115 1.1345385899
| 20> C -4.4690757551 1.7377430478 0.9624485769
| 21> C -3.6976444914 3.0331774349 1.1205833774
| 22> O -2.4502425562 -1.3363491687 0.5360620745
| 23> C -1.4188205285 -2.2670034738 0.1675428445
| 24> C -1.5365087654 -2.715515359 -1.2764622264
| 25> H 2.8038679432 -3.871932258 -1.8070811573
| 26> H 1.6774756967 -2.7012932155 -1.1030773378
| 27> H 2.501236062 -2.3281941695 -2.6221466244
| 28> H 4.7088299041 -2.347216944 -1.3895734631
| 29> H 3.8074505806 -2.6234935516 0.128374836
| 30> H 1.7418873089 0.4784539076 2.5535812934
| 31> H 1.1136582043 -1.161794676 2.8765113261
| 32> H 3.2993895676 -0.7402604903 4.0539037727
| 33> H 3.4569161601 -2.0413284842 2.862373036
| 34> H 4.0611232469 -0.4160657578 2.4901592467
| 35> H -0.7911361688 1.6392159062 -1.6467196654
| 36> H 0.6727165969 2.2738473784 -0.8003262263
| 37> H -4.9372042043 1.6862867503 -0.0261966326
| 38> H -5.2287637499 1.6257133609 1.7371623405
| 39> H -2.9950488176 3.1529098197 0.296910458
| 40> H -4.3911255012 3.8679797269 1.1136660919
| 41> H -3.1443253133 3.0308964119 2.0563277199
| 42> H -0.4411667733 -1.8130892469 0.3602331863
| 43> H -1.5728090702 -3.1019052401 0.8541029159
| 44> H -0.8403638894 -3.5275720705 -1.4606553015
| 45> H -2.5481469226 -3.0593251796 -1.4764413888
| 46> H -1.306902729 -1.8950221078 -1.9540582925
| 47> *
| 48>
| 49>                          ****END OF INPUT****

CARTESIAN COORDINATES (ANGSTROEM)
---------------------------------
  C      2.607699   -2.814964   -1.655650
  C      3.754943   -2.205622   -0.879308
  O      3.655931   -0.764728   -0.767639
  P      2.461316    0.040410   -0.114618
  S      3.030907    1.817442    0.469863
  O      1.855276   -0.910825    1.022490
  C      1.926582   -0.592355    2.423717
  C      3.275881   -0.977983    2.995253
  S      0.930999    0.018056   -1.582063
  C      0.000074    1.426073   -0.925676
  S     -0.736170    1.097262    0.696156
  P     -2.553017    0.167760    0.053840
  S     -3.072208    0.527639   -1.807858
  O     -3.627536    0.585008    1.134539
  C     -4.469076    1.737743    0.962449
  C     -3.697644    3.033177    1.120583
  O     -2.450243   -1.336349    0.536062
  C     -1.418821   -2.267003    0.167543
  C     -1.536509   -2.715515   -1.276462
  H      2.803868   -3.871932   -1.807081
  H      1.677476   -2.701293   -1.103077
  H      2.501236   -2.328194   -2.622147
  H      4.708830   -2.347217   -1.389573
  H      3.807451   -2.623494    0.128375
  H      1.741887    0.478454    2.553581
  H      1.113658   -1.161795    2.876511
  H      3.299390   -0.740260    4.053904
  H      3.456916   -2.041328    2.862373
  H      4.061123   -0.416066    2.490159
  H     -0.791136    1.639216   -1.646720
  H      0.672717    2.273847   -0.800326
  H     -4.937204    1.686287   -0.026197
  H     -5.228764    1.625713    1.737162
  H     -2.995049    3.152910    0.296910
  H     -4.391126    3.867980    1.113666
  H     -3.144325    3.030896    2.056328
  H     -0.441167   -1.813089    0.360233
  H     -1.572809   -3.101905    0.854103
  H     -0.840364   -3.527572   -1.460655
  H     -2.548147   -3.059325   -1.476441
  H     -1.306903   -1.895022   -1.954058

 Total Charge           Charge          ....    0
 Multiplicity           Mult            ....    1
 Number of Electrons    NEL             ....  202
 Basis Dimension        Dim             ....  334

ORBITAL ENERGIES
----------------

  NO   OCC          E(Eh)            E(eV)
   0   2.0000     -88.045212     -2395.8320
   1   2.0000     -88.044702     -2395.8182
   2   2.0000     -87.992268     -2394.3913
   3   2.0000     -87.990993     -2394.3566
   4   2.0000     -76.431962     -2079.8194
   5   2.0000     -76.428673     -2079.7299
   6   2.0000     -18.799766      -511.5676
   7   2.0000     -18.799216      -511.5527
   8   2.0000     -18.791116      -511.3323
   9   2.0000     -18.789516      -511.2887
  10   2.0000      -9.966715      -271.2081
  11   2.0000      -9.955234      -270.8957
  12   2.0000      -9.952413      -270.8189
  13   2.0000      -9.951632      -270.7977
  14   2.0000      -9.951463      -270.7931
  15   2.0000      -9.898234      -269.3446
  16   2.0000      -9.889507      -269.1072
  17   2.0000      -9.883055      -268.9316
  18   2.0000      -9.879147      -268.8252
  19   2.0000      -7.689620      -209.2452
  20   2.0000      -7.689516      -209.2424
  21   2.0000      -7.637104      -207.8162
  22   2.0000      -7.636181      -207.7910
  23   2.0000      -6.429508      -174.9558
  24   2.0000      -6.425917      -174.8581
  25   2.0000      -5.717456      -155.5799
  26   2.0000      -5.717366      -155.5774
  27   2.0000      -5.714148      -155.4899
  28   2.0000      -5.714117      -155.4890
  29   2.0000      -5.706757      -155.2888
  30   2.0000      -5.706430      -155.2799
  31   2.0000      -5.665881      -154.1765
  32   2.0000      -5.665246      -154.1592
  33   2.0000      -5.657698      -153.9538
  34   2.0000      -5.657457      -153.9472
  35   2.0000      -5.656619      -153.9244
  36   2.0000      -5.656329      -153.9165
  37   2.0000      -4.652536      -126.6020
  38   2.0000      -4.650800      -126.5547
  39   2.0000      -4.650026      -126.5336
  40   2.0000      -4.648168      -126.4831
  41   2.0000      -4.647985      -126.4781
  42   2.0000      -4.646380      -126.4344
  43   2.0000      -0.991835       -26.9892
  44   2.0000      -0.989662       -26.9301
  45   2.0000      -0.950947       -25.8766
  46   2.0000      -0.944686       -25.7062
  47   2.0000      -0.765439       -20.8286
  48   2.0000      -0.725537       -19.7429
  49   2.0000      -0.714165       -19.4334
  50   2.0000      -0.698599       -19.0098
  51   2.0000      -0.682165       -18.5627
  52   2.0000      -0.678627       -18.4664
  53   2.0000      -0.655590       -17.8395
  54   2.0000      -0.641428       -17.4541
  55   2.0000      -0.604347       -16.4451
  56   2.0000      -0.597419       -16.2566
  57   2.0000      -0.586151       -15.9500
  58   2.0000      -0.569866       -15.5068
  59   2.0000      -0.561668       -15.2838
  60   2.0000      -0.503075       -13.6894
  61   2.0000      -0.494567       -13.4578
  62   2.0000      -0.484295       -13.1783
  63   2.0000      -0.468780       -12.7561
  64   2.0000      -0.459712       -12.5094
  65   2.0000      -0.452728       -12.3194
  66   2.0000      -0.444369       -12.0919
  67   2.0000      -0.435673       -11.8553
  68   2.0000      -0.424687       -11.5563
  69   2.0000      -0.420982       -11.4555
  70   2.0000      -0.413601       -11.2547
  71   2.0000      -0.408493       -11.1157
  72   2.0000      -0.401183       -10.9168
  73   2.0000      -0.388077       -10.5601
  74   2.0000      -0.381824       -10.3900
  75   2.0000      -0.380122       -10.3436
  76   2.0000      -0.372413       -10.1339
  77   2.0000      -0.365898        -9.9566
  78   2.0000      -0.358036        -9.7426
  79   2.0000      -0.356229        -9.6935
  80   2.0000      -0.350792        -9.5455
  81   2.0000      -0.347879        -9.4663
  82   2.0000      -0.342531        -9.3207
  83   2.0000      -0.338702        -9.2166
  84   2.0000      -0.335931        -9.1411
  85   2.0000      -0.322566        -8.7775
  86   2.0000      -0.313527        -8.5315
  87   2.0000      -0.309472        -8.4212
  88   2.0000      -0.298783        -8.1303
  89   2.0000      -0.291357        -7.9282
  90   2.0000      -0.288698        -7.8559
  91   2.0000      -0.279598        -7.6082
  92   2.0000      -0.270454        -7.3594
  93   2.0000      -0.267740        -7.2856
  94   2.0000      -0.260789        -7.0964
  95   2.0000      -0.236146        -6.4258
  96   2.0000      -0.219047        -5.9606
  97   2.0000      -0.217071        -5.9068
  98   2.0000      -0.206985        -5.6323
  99   2.0000      -0.205401        -5.5892
 100   2.0000      -0.204720        -5.5707
 101   0.0000      -0.049086        -1.3357
 102   0.0000      -0.029842        -0.8120
 103   0.0000      -0.007265        -0.1977
 104   0.0000      -0.003200        -0.0871
 105   0.0000       0.006766         0.1841

MULLIKEN ATOMIC CHARGES
-----------------------
   0 C :   -0.359898
   1 C :    0.002117
   2 O :   -0.367676
   3 P :    0.623925
   4 S :   -0.308395
   5 O :   -0.386215
   6 C :   -0.009007
   7 C :   -0.304792
   8 S :   -0.099930
   9 C :   -0.352175
  10 S :   -0.101875
  11 P :    0.604382
  12 S :   -0.328893
  13 O :   -0.356624
  14 C :   -0.005218
  15 C :   -0.309729
  16 O :   -0.352195
  17 C :   -0.051389
  18 C :   -0.308884
  19 H :    0.120672
  20 H :    0.148469
  21 H :    0.135808
  22 H :    0.115707
  23 H :    0.108231
  24 H :    0.117934
  25 H :    0.103916
  26 H :    0.115279
  27 H :    0.113151
  28 H :    0.126403
  29 H :    0.192527
  30 H :    0.196359
  31 H :    0.114386
  32 H :    0.106993
  33 H :    0.121578
  34 H :    0.112447
  35 H :    0.117859
  36 H :    0.144215
  37 H :    0.102317
  38 H :    0.108869
  39 H :    0.117846
  40 H :    0.131504
Sum of atomic charges:    0.0000000

LOEWDIN ATOMIC CHARGES
----------------------
   0 C :   -0.375702
   1 C :   -0.107666
   2 O :   -0.242033
   3 P :    0.574765
   4 S :   -0.301052
   5 O :   -0.253255
   6 C :   -0.123176
   7 C :   -0.363503
   8 S :    0.094609
   9 C :   -0.488660
  10 S :    0.082445
  11 P :    0.571811
  12 S :   -0.307306
  13 O :   -0.233149
  14 C :   -0.119345
  15 C :   -0.367401
  16 O :   -0.231529
  17 C :   -0.124362
  18 C :   -0.369215
  19 H :    0.135281
  20 H :    0.122500
  21 H :    0.129992
  22 H :    0.125236
  23 H :    0.112810
  24 H :    0.108138
  25 H :    0.116773
  26 H :    0.132737
  27 H :    0.120610
  28 H :    0.125451
  29 H :    0.126097
  30 H :    0.130951
  31 H :    0.110522
  32 H :    0.119720
  33 H :    0.119897
  34 H :    0.130529
  35 H :    0.125188
  36 H :    0.103602
  37 H :    0.118261
  38 H :    0.125677
  39 H :    0.127790
  40 H :    0.115961

  Mayer bond orders larger than 0.100000
B(  0-C ,  1-C ) :   1.1667 B(  0-C , 19-H ) :   0.9337 B(  0-C , 20-H ) :   0.9288
B(  0-C , 21-H ) :   0.9385 B(  1-C ,  2-O ) :   0.9005 B(  1-C , 22-H ) :   0.9335
B(  1-C , 23-H ) :   0.9263 B(  2-O ,  3-P ) :   1.1346 B(  3-P ,  4-S ) :   1.6324
B(  3-P ,  5-O ) :   1.0498 B(  3-P ,  8-S ) :   0.9625 B(  4-S ,  8-S ) :   0.1027
B(  5-O ,  6-C ) :   0.8963 B(  6-C ,  7-C ) :   1.1631 B(  6-C , 24-H ) :   0.9079
B(  6-C , 25-H ) :   0.9325 B(  7-C , 26-H ) :   0.9399 B(  7-C , 27-H ) :   0.9434
B(  7-C , 28-H ) :   0.9378 B(  8-S ,  9-C ) :   1.0052 B(  9-C , 10-S ) :   1.0074
B(  9-C , 29-H ) :   0.8609 B(  9-C , 30-H ) :   0.8739 B( 10-S , 11-P ) :   0.9293
B( 10-S , 12-S ) :   0.1201 B( 11-P , 12-S ) :   1.5984 B( 11-P , 13-O ) :   1.1342
B( 11-P , 16-O ) :   1.1354 B( 13-O , 14-C ) :   0.9115 B( 14-C , 15-C ) :   1.1632
B( 14-C , 31-H ) :   0.9144 B( 14-C , 32-H ) :   0.9338 B( 15-C , 33-H ) :   0.9387
B( 15-C , 34-H ) :   0.9386 B( 15-C , 35-H ) :   0.9451 B( 16-O , 17-C ) :   0.9163
B( 17-C , 18-C ) :   1.1635 B( 17-C , 36-H ) :   0.8949 B( 17-C , 37-H ) :   0.9343
B( 18-C , 38-H ) :   0.9332 B( 18-C , 39-H ) :   0.9429 B( 18-C , 40-H ) :   0.9305

Dispersion correction           -0.066977136
FINAL SINGLE POINT ENERGY     -2929.522463297942

DIPOLE MOMENT
-------------

Method             : SCF
Type of density    : Electron Density
Multiplicity       :   1
Irrep              :   0
Energy             : -2929.6415236049911073 Eh
Relativity type    :
Basis              : AO
                                X                 Y                 Z
Electronic contribution:     -1.393899138      12.036540826      -6.017476405
Nuclear contribution   :      1.614791967     -13.337547821       6.805430865
                        -----------------------------------------
Total Dipole Moment    :      0.220892829      -1.301006994       0.787954460
                        -----------------------------------------
Magnitude (a.u.)       :      1.536972697
Magnitude (Debye)      :      3.906674128

Rotational constants in cm-1:             0.012428             0.005118             0.004639
Rotational constants in MHz :           372.588629           153.435464           139.086358

                             ****ORCA TERMINATED NORMALLY****
TOTAL RUN TIME: 0 days 0 hours 0 minutes 21 seconds 823 msec
