                         Program Version 6.0.0  -   RELEASE  -
|  1> ! pbe def2-sv(p) def2/J RI DEFGRID1 loosescf d4 GCP(DFT/SV(P)) printgap
|  2> %output
|  3>     printlevel normal
|  4> end
|  5> * xyz 0 1
|  6> C 5.122391568 -0.7493439521 -1.6723015608
|  7> C 4.4723501974 -0.8985678036 -0.3110542924
|  8> O 3.6260520038 0.2211260933 0.0109791193
|  9> P 2.1342263514 0.4178377806 -0.5163224012
| 10> S 1.883547009 0.6787987125 -2.4368553893
| 11> O 1.708499914 1.6723311504 0.3318008601
| 12> C 1.8818816673 1.7331428505 1.7708710937
| 13> C 0.9171125248 2.7658899821 2.3135410948
| 14> S 1.1825950261 -1.2974181136 0.3112670487
| 15> C -0.0133076221 -1.7006083998 -1.0040858134
| 16> S -1.6776733825 -1.937576308 -0.359032633
| 17> P -2.0129947362 0.0649806234 0.2846351404
| 18> S -1.30626697 1.4729504684 -0.8869326001
| 19> O -1.3819249076 0.2327475243 1.7183895863
| 20> C -1.3547724211 -0.744750912 2.7917649371
| 21> C -2.711104966 -1.3329381178 3.1130056368
| 22> O -3.5688964372 0.105549428 0.5894501148
| 23> C -4.6057512355 -0.3756409245 -0.2842678595
| 24> C -4.5441439936 0.2388162329 -1.6669363439
| 25> H 4.3679999441 -0.7434387105 -2.4559867383
| 26> H 5.6774147228 0.1836255543 -1.7222336902
| 27> H 5.8005724441 -1.5804617026 -1.836472784
| 28> H 5.2187483469 -0.8967130927 0.4857895046
| 29> H 3.880688881 -1.8167629227 -0.2559272183
| 30> H 1.6830337295 0.7407320694 2.1880908426
| 31> H 2.9205665523 2.0070853584 1.9652362908
| 32> H 1.0419199945 2.8425802709 3.3887419613
| 33> H 1.1103108445 3.7314298012 1.854647995
| 34> H -0.1059293177 2.4755143783 2.0853976018
| 35> H 0.2772314685 -2.6449393028 -1.457460638
| 36> H -0.0003183555 -0.8881678589 -1.7368934418
| 37> H -0.6443341089 -1.5281170846 2.5108885242
| 38> H -0.9586338223 -0.1727880201 3.6324296339
| 39> H -3.4334283453 -0.5407854888 3.291472729
| 40> H -3.0620724144 -1.9565869738 2.2936602384
| 41> H -2.621460184 -1.944595034 4.0056106791
| 42> H -4.5243246304 -1.4646177111 -0.3427984027
| 43> H -5.5259866842 -0.0985206703 0.2329222585
| 44> H -4.5623551932 1.3243448543 -1.6016681473
| 45> H -3.624324574 -0.0557561459 -2.1707549164
| 46> H -5.3922750199 -0.1012196104 -2.2523904122
| 47> *
| 48>
| 49>                          ****END OF INPUT****

CARTESIAN COORDINATES (ANGSTROEM)
---------------------------------
  C      5.122392   -0.749344   -1.672302
  C      4.472350   -0.898568   -0.311054
  O      3.626052    0.221126    0.010979
  P      2.134226    0.417838   -0.516322
  S      1.883547    0.678799   -2.436855
  O      1.708500    1.672331    0.331801
  C      1.881882    1.733143    1.770871
  C      0.917113    2.765890    2.313541
  S      1.182595   -1.297418    0.311267
  C     -0.013308   -1.700608   -1.004086
  S     -1.677673   -1.937576   -0.359033
  P     -2.012995    0.064981    0.284635
  S     -1.306267    1.472950   -0.886933
  O     -1.381925    0.232748    1.718390
  C     -1.354772   -0.744751    2.791765
  C     -2.711105   -1.332938    3.113006
  O     -3.568896    0.105549    0.589450
  C     -4.605751   -0.375641   -0.284268
  C     -4.544144    0.238816   -1.666936
  H      4.368000   -0.743439   -2.455987
  H      5.677415    0.183626   -1.722234
  H      5.800572   -1.580462   -1.836473
  H      5.218748   -0.896713    0.485790
  H      3.880689   -1.816763   -0.255927
  H      1.683034    0.740732    2.188091
  H      2.920567    2.007085    1.965236
  H      1.041920    2.842580    3.388742
  H      1.110311    3.731430    1.854648
  H     -0.105929    2.475514    2.085398
  H      0.277231   -2.644939   -1.457461
  H     -0.000318   -0.888168   -1.736893
  H     -0.644334   -1.528117    2.510889
  H     -0.958634   -0.172788    3.632430
  H     -3.433428   -0.540785    3.291473
  H     -3.062072   -1.956587    2.293660
  H     -2.621460   -1.944595    4.005611
  H     -4.524325   -1.464618   -0.342798
  H     -5.525987   -0.098521    0.232922
  H     -4.562355    1.324345   -1.601668
  H     -3.624325   -0.055756   -2.170755
  H     -5.392275   -0.101220   -2.252390

 Total Charge           Charge          ....    0
 Multiplicity           Mult            ....    1
 Number of Electrons    NEL             ....  202
 Basis Dimension        Dim             ....  334

ORBITAL ENERGIES
----------------

  NO   OCC          E(Eh)            E(eV)
   0   2.0000     -88.049406     -2395.9461
   1   2.0000     -88.043250     -2395.7786
   2   2.0000     -87.978933     -2394.0285
   3   2.0000     -87.975038     -2393.9225
   4   2.0000     -76.424790     -2079.6243
   5   2.0000     -76.420844     -2079.5169
   6   2.0000     -18.792819      -511.3786
   7   2.0000     -18.790702      -511.3210
   8   2.0000     -18.788343      -511.2568
   9   2.0000     -18.782106      -511.0871
  10   2.0000      -9.959709      -271.0175
  11   2.0000      -9.957688      -270.9625
  12   2.0000      -9.955840      -270.9122
  13   2.0000      -9.951638      -270.7978
  14   2.0000      -9.948219      -270.7048
  15   2.0000      -9.891326      -269.1567
  16   2.0000      -9.881777      -268.8968
  17   2.0000      -9.877292      -268.7748
  18   2.0000      -9.875115      -268.7155
  19   2.0000      -7.694220      -209.3704
  20   2.0000      -7.687607      -209.1904
  21   2.0000      -7.624130      -207.4631
  22   2.0000      -7.619868      -207.3472
  23   2.0000      -6.421663      -174.7423
  24   2.0000      -6.418091      -174.6451
  25   2.0000      -5.721977      -155.7029
  26   2.0000      -5.718486      -155.6079
  27   2.0000      -5.715403      -155.5240
  28   2.0000      -5.711942      -155.4298
  29   2.0000      -5.711624      -155.4212
  30   2.0000      -5.704904      -155.2383
  31   2.0000      -5.653269      -153.8333
  32   2.0000      -5.649092      -153.7196
  33   2.0000      -5.644607      -153.5976
  34   2.0000      -5.644158      -153.5853
  35   2.0000      -5.640428      -153.4838
  36   2.0000      -5.639826      -153.4675
  37   2.0000      -4.644412      -126.3809
  38   2.0000      -4.643963      -126.3687
  39   2.0000      -4.641505      -126.3018
  40   2.0000      -4.640750      -126.2812
  41   2.0000      -4.640042      -126.2620
  42   2.0000      -4.638369      -126.2164
  43   2.0000      -0.987167       -26.8622
  44   2.0000      -0.982299       -26.7297
  45   2.0000      -0.945426       -25.7263
  46   2.0000      -0.936459       -25.4824
  47   2.0000      -0.764221       -20.7955
  48   2.0000      -0.719658       -19.5829
  49   2.0000      -0.710681       -19.3386
  50   2.0000      -0.692488       -18.8435
  51   2.0000      -0.683199       -18.5908
  52   2.0000      -0.677400       -18.4330
  53   2.0000      -0.647710       -17.6251
  54   2.0000      -0.632507       -17.2114
  55   2.0000      -0.589955       -16.0535
  56   2.0000      -0.582750       -15.8574
  57   2.0000      -0.579973       -15.7819
  58   2.0000      -0.570390       -15.5211
  59   2.0000      -0.562809       -15.3148
  60   2.0000      -0.505497       -13.7553
  61   2.0000      -0.492980       -13.4147
  62   2.0000      -0.475080       -12.9276
  63   2.0000      -0.472592       -12.8599
  64   2.0000      -0.453130       -12.3303
  65   2.0000      -0.449376       -12.2282
  66   2.0000      -0.440378       -11.9833
  67   2.0000      -0.434408       -11.8208
  68   2.0000      -0.428859       -11.6699
  69   2.0000      -0.415343       -11.3021
  70   2.0000      -0.410389       -11.1673
  71   2.0000      -0.403334       -10.9753
  72   2.0000      -0.399562       -10.8726
  73   2.0000      -0.392057       -10.6684
  74   2.0000      -0.379772       -10.3341
  75   2.0000      -0.364377        -9.9152
  76   2.0000      -0.355579        -9.6758
  77   2.0000      -0.350787        -9.5454
  78   2.0000      -0.349600        -9.5131
  79   2.0000      -0.347300        -9.4505
  80   2.0000      -0.346160        -9.4195
  81   2.0000      -0.343606        -9.3500
  82   2.0000      -0.340037        -9.2529
  83   2.0000      -0.331774        -9.0280
  84   2.0000      -0.331577        -9.0227
  85   2.0000      -0.319146        -8.6844
  86   2.0000      -0.311764        -8.4835
  87   2.0000      -0.295208        -8.0330
  88   2.0000      -0.291839        -7.9413
  89   2.0000      -0.290518        -7.9054
  90   2.0000      -0.287919        -7.8347
  91   2.0000      -0.277406        -7.5486
  92   2.0000      -0.266659        -7.2561
  93   2.0000      -0.263504        -7.1703
  94   2.0000      -0.256761        -6.9868
  95   2.0000      -0.239652        -6.5213
  96   2.0000      -0.224091        -6.0978
  97   2.0000      -0.207689        -5.6515
  98   2.0000      -0.196193        -5.3387
  99   2.0000      -0.187754        -5.1090
 100   2.0000      -0.179601        -4.8872
 101   0.0000      -0.043454        -1.1824
 102   0.0000      -0.031931        -0.8689
 103   0.0000      -0.010105        -0.2750
 104   0.0000       0.008899         0.2422
 105   0.0000       0.017641         0.4800

MULLIKEN ATOMIC CHARGES
-----------------------
   0 C :   -0.297597
   1 C :   -0.008928
   2 O :   -0.384370
   3 P :    0.617098
   4 S :   -0.286882
   5 O :   -0.344751
   6 C :   -0.013852
   7 C :   -0.289220
   8 S :   -0.140036
   9 C :   -0.330912
  10 S :   -0.131034
  11 P :    0.582604
  12 S :   -0.274598
  13 O :   -0.354622
  14 C :   -0.005035
  15 C :   -0.304699
  16 O :   -0.372224
  17 C :   -0.013526
  18 C :   -0.306496
  19 H :    0.127987
  20 H :    0.115857
  21 H :    0.104484
  22 H :    0.102183
  23 H :    0.099092
  24 H :    0.097350
  25 H :    0.104921
  26 H :    0.098169
  27 H :    0.118737
  28 H :    0.141173
  29 H :    0.178793
  30 H :    0.211685
  31 H :    0.112381
  32 H :    0.106208
  33 H :    0.124956
  34 H :    0.115856
  35 H :    0.113452
  36 H :    0.109846
  37 H :    0.109442
  38 H :    0.128446
  39 H :    0.128128
  40 H :    0.109936
Sum of atomic charges:    0.0000000

LOEWDIN ATOMIC CHARGES
----------------------
   0 C :   -0.366661
   1 C :   -0.118629
   2 O :   -0.249560
   3 P :    0.568186
   4 S :   -0.287328
   5 O :   -0.225294
   6 C :   -0.111793
   7 C :   -0.355987
   8 S :    0.062809
   9 C :   -0.477695
  10 S :    0.061928
  11 P :    0.558867
  12 S :   -0.284106
  13 O :   -0.232618
  14 C :   -0.115492
  15 C :   -0.366979
  16 O :   -0.242047
  17 C :   -0.114873
  18 C :   -0.368960
  19 H :    0.122459
  20 H :    0.127383
  21 H :    0.127184
  22 H :    0.116837
  23 H :    0.100924
  24 H :    0.100431
  25 H :    0.113031
  26 H :    0.124272
  27 H :    0.129703
  28 H :    0.131108
  29 H :    0.135471
  30 H :    0.126133
  31 H :    0.102945
  32 H :    0.119797
  33 H :    0.129312
  34 H :    0.116712
  35 H :    0.131593
  36 H :    0.106127
  37 H :    0.121407
  38 H :    0.131602
  39 H :    0.122396
  40 H :    0.129407

  Mayer bond orders larger than 0.100000
B(  0-C ,  1-C ) :   1.1648 B(  0-C , 19-H ) :   0.9298 B(  0-C , 20-H ) :   0.9474
B(  0-C , 21-H ) :   0.9381 B(  1-C ,  2-O ) :   0.9185 B(  1-C , 22-H ) :   0.9361
B(  1-C , 23-H ) :   0.9142 B(  2-O ,  3-P ) :   1.0698 B(  3-P ,  4-S ) :   1.6548
B(  3-P ,  5-O ) :   1.1450 B(  3-P ,  8-S ) :   0.9351 B(  4-S ,  8-S ) :   0.1144
B(  5-O ,  6-C ) :   0.8924 B(  6-C ,  7-C ) :   1.1665 B(  6-C , 24-H ) :   0.9147
B(  6-C , 25-H ) :   0.9314 B(  7-C , 26-H ) :   0.9399 B(  7-C , 27-H ) :   0.9479
B(  7-C , 28-H ) :   0.9328 B(  8-S ,  9-C ) :   0.9938 B(  9-C , 10-S ) :   1.0061
B(  9-C , 29-H ) :   0.9100 B(  9-C , 30-H ) :   0.8413 B( 10-S , 11-P ) :   0.9169
B( 10-S , 12-S ) :   0.1075 B( 11-P , 12-S ) :   1.6728 B( 11-P , 13-O ) :   1.1196
B( 11-P , 16-O ) :   1.0908 B( 13-O , 14-C ) :   0.9013 B( 14-C , 15-C ) :   1.1703
B( 14-C , 31-H ) :   0.9131 B( 14-C , 32-H ) :   0.9336 B( 15-C , 33-H ) :   0.9419
B( 15-C , 34-H ) :   0.9396 B( 15-C , 35-H ) :   0.9353 B( 16-O , 17-C ) :   0.9136
B( 17-C , 18-C ) :   1.1671 B( 17-C , 36-H ) :   0.9258 B( 17-C , 37-H ) :   0.9336
B( 18-C , 38-H ) :   0.9424 B( 18-C , 39-H ) :   0.9323 B( 18-C , 40-H ) :   0.9347

Dispersion correction           -0.067923970
FINAL SINGLE POINT ENERGY     -2929.513610995716

DIPOLE MOMENT
-------------

Method             : SCF
Type of density    : Electron Density
Multiplicity       :   1
Irrep              :   0
Energy             : -2929.6318670889750138 Eh
Relativity type    :
Basis              : AO
                                X                 Y                 Z
Electronic contribution:      2.109551489       1.827306987     -10.080840581
Nuclear contribution   :     -2.428827527      -3.301740877      11.697905526
                        -----------------------------------------
Total Dipole Moment    :     -0.319276037      -1.474433890       1.617064945
                        -----------------------------------------
Magnitude (a.u.)       :      2.211513400
Magnitude (Debye)      :      5.621220338

Rotational constants in cm-1:             0.012845             0.005277             0.004986
Rotational constants in MHz :           385.070078           158.200415           149.461814

                             ****ORCA TERMINATED NORMALLY****
TOTAL RUN TIME: 0 days 0 hours 0 minutes 21 seconds 623 msec
