                         Program Version 6.0.1  -  RELEASE   -
|  1> ! pbe def2-sv(p) def2/J RI DEFGRID1 loosescf d4 GCP(DFT/SV(P)) printgap
|  2> %output
|  3>     printlevel normal
|  4> end
|  5> * xyz 0 1
|  6> C 4.150665509 -3.8411300375 -0.64026791
|  7> C 2.6377397275 -3.7062631479 -0.7097192311
|  8> O 2.2087664737 -2.4296291228 -0.1969838029
|  9> C 2.2257331445 -1.3925624677 -1.0092100595
| 10> O 2.5355859491 -1.4332135727 -2.1783713734
| 11> C 1.7829718433 -0.1262119742 -0.2984834723
| 12> C 0.7134850562 0.5736754079 -1.1346613178
| 13> H 1.0986351796 0.7378739506 -2.1456562998
| 14> C 0.2933682059 1.8950539115 -0.5257644509
| 15> O -0.8589141922 2.1288290828 -0.213048538
| 16> O 1.2928225338 2.7157062306 -0.3901315197
| 17> C 1.0621959838 3.9795599865 0.2747178265
| 18> C 1.2279700572 3.8212011238 1.7769682219
| 19> S -0.7754301035 -0.4584861115 -1.3541415681
| 20> P -1.82792621 -0.0965064318 0.462732214
| 21> S -0.8673929097 0.3152945855 2.131229676
| 22> O -3.1698184927 0.6856714387 0.1500168428
| 23> C -3.5038291593 1.9932187526 0.6199781456
| 24> O -2.5678891983 -1.5173782563 0.5686772945
| 25> C -1.8375561586 -2.7045441598 0.881127611
| 26> H 4.4366428671 -4.8365935142 -0.9633197891
| 27> H 4.6215332486 -3.1096580709 -1.2929197047
| 28> H 4.4939927597 -3.6820121673 0.3782443072
| 29> H 2.1436862174 -4.4365291848 -0.0688575605
| 30> H 2.2866773741 -3.8015626057 -1.7412151969
| 31> H 2.6432526217 0.5401507141 -0.2070266795
| 32> H 1.4127629925 -0.3775072871 0.6965054662
| 33> H 1.8152186293 4.6462777423 -0.1445821642
| 34> H 0.0570539688 4.3283198988 0.025832698
| 35> H 2.2334658966 3.4855995593 2.0130471644
| 36> H 1.0460820209 4.7749605274 2.2606038749
| 37> H 0.5190735823 3.0895781668 2.1613653527
| 38> H -2.9216099639 2.2402810795 1.5091139841
| 39> H -4.565068556 1.9632101593 0.8575725633
| 40> H -3.3011850745 2.7192718895 -0.1650282434
| 41> H -1.2328936408 -2.5490265066 1.7772771552
| 42> H -1.1945790394 -2.9846968847 0.0455312176
| 43> H -2.5872266605 -3.4713982751 1.0579760485
| 44> *
| 45>
| 46>                          ****END OF INPUT****

CARTESIAN COORDINATES (ANGSTROEM)
---------------------------------
  C      4.150666   -3.841130   -0.640268
  C      2.637740   -3.706263   -0.709719
  O      2.208766   -2.429629   -0.196984
  C      2.225733   -1.392562   -1.009210
  O      2.535586   -1.433214   -2.178371
  C      1.782972   -0.126212   -0.298483
  C      0.713485    0.573675   -1.134661
  H      1.098635    0.737874   -2.145656
  C      0.293368    1.895054   -0.525764
  O     -0.858914    2.128829   -0.213049
  O      1.292823    2.715706   -0.390132
  C      1.062196    3.979560    0.274718
  C      1.227970    3.821201    1.776968
  S     -0.775430   -0.458486   -1.354142
  P     -1.827926   -0.096506    0.462732
  S     -0.867393    0.315295    2.131230
  O     -3.169818    0.685671    0.150017
  C     -3.503829    1.993219    0.619978
  O     -2.567889   -1.517378    0.568677
  C     -1.837556   -2.704544    0.881128
  H      4.436643   -4.836594   -0.963320
  H      4.621533   -3.109658   -1.292920
  H      4.493993   -3.682012    0.378244
  H      2.143686   -4.436529   -0.068858
  H      2.286677   -3.801563   -1.741215
  H      2.643253    0.540151   -0.207027
  H      1.412763   -0.377507    0.696505
  H      1.815219    4.646278   -0.144582
  H      0.057054    4.328320    0.025833
  H      2.233466    3.485600    2.013047
  H      1.046082    4.774961    2.260604
  H      0.519074    3.089578    2.161365
  H     -2.921610    2.240281    1.509114
  H     -4.565069    1.963210    0.857573
  H     -3.301185    2.719272   -0.165028
  H     -1.232894   -2.549027    1.777277
  H     -1.194579   -2.984697    0.045531
  H     -2.587227   -3.471398    1.057976

 Total Charge           Charge          ....    0
 Multiplicity           Mult            ....    1
 Number of Electrons    NEL             ....  174
 Basis Dimension        Dim             ....  316

ORBITAL ENERGIES
----------------

  NO   OCC          E(Eh)            E(eV)
   0   2.0000     -88.035894     -2395.5785
   1   2.0000     -87.976599     -2393.9650
   2   2.0000     -76.421458     -2079.5336
   3   2.0000     -18.827578      -512.3245
   4   2.0000     -18.806719      -511.7568
   5   2.0000     -18.780572      -511.0453
   6   2.0000     -18.773941      -510.8649
   7   2.0000     -18.762815      -510.5622
   8   2.0000     -18.741506      -509.9823
   9   2.0000     -10.033409      -273.0229
  10   2.0000     -10.012593      -272.4565
  11   2.0000      -9.961880      -271.0765
  12   2.0000      -9.952465      -270.8203
  13   2.0000      -9.950516      -270.7673
  14   2.0000      -9.933625      -270.3077
  15   2.0000      -9.931178      -270.2411
  16   2.0000      -9.908267      -269.6176
  17   2.0000      -9.891449      -269.1600
  18   2.0000      -9.889654      -269.1112
  19   2.0000      -7.680623      -209.0004
  20   2.0000      -7.621617      -207.3947
  21   2.0000      -6.416982      -174.6150
  22   2.0000      -5.708704      -155.3417
  23   2.0000      -5.705162      -155.2453
  24   2.0000      -5.697394      -155.0340
  25   2.0000      -5.650602      -153.7607
  26   2.0000      -5.642562      -153.5419
  27   2.0000      -5.641316      -153.5080
  28   2.0000      -4.639395      -126.2444
  29   2.0000      -4.639152      -126.2377
  30   2.0000      -4.637624      -126.1962
  31   2.0000      -1.037571       -28.2337
  32   2.0000      -1.013806       -27.5871
  33   2.0000      -0.973519       -26.4908
  34   2.0000      -0.942366       -25.6431
  35   2.0000      -0.927420       -25.2364
  36   2.0000      -0.919496       -25.0208
  37   2.0000      -0.767466       -20.8838
  38   2.0000      -0.717731       -19.5305
  39   2.0000      -0.710396       -19.3308
  40   2.0000      -0.688103       -18.7242
  41   2.0000      -0.654256       -17.8032
  42   2.0000      -0.630639       -17.1606
  43   2.0000      -0.624084       -16.9822
  44   2.0000      -0.611370       -16.6362
  45   2.0000      -0.599410       -16.3108
  46   2.0000      -0.568463       -15.4687
  47   2.0000      -0.513369       -13.9695
  48   2.0000      -0.507270       -13.8035
  49   2.0000      -0.499367       -13.5885
  50   2.0000      -0.489346       -13.3158
  51   2.0000      -0.465846       -12.6763
  52   2.0000      -0.462012       -12.5720
  53   2.0000      -0.450692       -12.2639
  54   2.0000      -0.441404       -12.0112
  55   2.0000      -0.432090       -11.7578
  56   2.0000      -0.423720       -11.5300
  57   2.0000      -0.416977       -11.3465
  58   2.0000      -0.415625       -11.3097
  59   2.0000      -0.405995       -11.0477
  60   2.0000      -0.399902       -10.8819
  61   2.0000      -0.398678       -10.8486
  62   2.0000      -0.390054       -10.6139
  63   2.0000      -0.386880       -10.5275
  64   2.0000      -0.381751       -10.3880
  65   2.0000      -0.371462       -10.1080
  66   2.0000      -0.363353        -9.8873
  67   2.0000      -0.357936        -9.7399
  68   2.0000      -0.352608        -9.5950
  69   2.0000      -0.341216        -9.2850
  70   2.0000      -0.337748        -9.1906
  71   2.0000      -0.334793        -9.1102
  72   2.0000      -0.329071        -8.9545
  73   2.0000      -0.310375        -8.4457
  74   2.0000      -0.303965        -8.2713
  75   2.0000      -0.297160        -8.0861
  76   2.0000      -0.294877        -8.0240
  77   2.0000      -0.286438        -7.7944
  78   2.0000      -0.277500        -7.5512
  79   2.0000      -0.265054        -7.2125
  80   2.0000      -0.261320        -7.1109
  81   2.0000      -0.247996        -6.7483
  82   2.0000      -0.244723        -6.6593
  83   2.0000      -0.228736        -6.2242
  84   2.0000      -0.220157        -5.9908
  85   2.0000      -0.195974        -5.3327
  86   2.0000      -0.189557        -5.1581
  87   0.0000      -0.050755        -1.3811
  88   0.0000      -0.036951        -1.0055
  89   0.0000      -0.019733        -0.5370
  90   0.0000       0.004252         0.1157
  91   0.0000       0.030574         0.8320

MULLIKEN ATOMIC CHARGES
-----------------------
   0 C :   -0.307510
   1 C :   -0.012599
   2 O :   -0.219342
   3 C :    0.129744
   4 O :   -0.207174
   5 C :   -0.090022
   6 C :   -0.318050
   7 H :    0.159529
   8 C :    0.233160
   9 O :   -0.196199
  10 O :   -0.216258
  11 C :   -0.013918
  12 C :   -0.315679
  13 S :   -0.082348
  14 P :    0.623039
  15 S :   -0.347501
  16 O :   -0.365547
  17 C :   -0.085015
  18 O :   -0.373176
  19 C :   -0.101212
  20 H :    0.114636
  21 H :    0.127766
  22 H :    0.115982
  23 H :    0.104483
  24 H :    0.111454
  25 H :    0.122286
  26 H :    0.117809
  27 H :    0.110434
  28 H :    0.113844
  29 H :    0.116078
  30 H :    0.115060
  31 H :    0.145645
  32 H :    0.114283
  33 H :    0.119518
  34 H :    0.116504
  35 H :    0.111616
  36 H :    0.108023
  37 H :    0.120656
Sum of atomic charges:   -0.0000000

LOEWDIN ATOMIC CHARGES
----------------------
   0 C :   -0.356367
   1 C :   -0.110857
   2 O :   -0.051099
   3 C :    0.027333
   4 O :   -0.170375
   5 C :   -0.258303
   6 C :   -0.259949
   7 H :    0.155552
   8 C :    0.028581
   9 O :   -0.156526
  10 O :   -0.032259
  11 C :   -0.105104
  12 C :   -0.359191
  13 S :    0.111741
  14 P :    0.590144
  15 S :   -0.334803
  16 O :   -0.235979
  17 C :   -0.207227
  18 O :   -0.258123
  19 C :   -0.222804
  20 H :    0.131575
  21 H :    0.130615
  22 H :    0.125669
  23 H :    0.118568
  24 H :    0.121419
  25 H :    0.146022
  26 H :    0.130039
  27 H :    0.121523
  28 H :    0.122195
  29 H :    0.126491
  30 H :    0.132503
  31 H :    0.131852
  32 H :    0.108216
  33 H :    0.117606
  34 H :    0.113061
  35 H :    0.106450
  36 H :    0.101736
  37 H :    0.120074

  Mayer bond orders larger than 0.100000
B(  0-C ,  1-C ) :   1.1734 B(  0-C , 20-H ) :   0.9441 B(  0-C , 21-H ) :   0.9458
B(  0-C , 22-H ) :   0.9484 B(  1-C ,  2-O ) :   0.9154 B(  1-C , 23-H ) :   0.9365
B(  1-C , 24-H ) :   0.9149 B(  2-O ,  3-C ) :   1.2487 B(  3-C ,  4-O ) :   2.0335
B(  3-C ,  5-C ) :   1.0013 B(  5-C ,  6-C ) :   1.0579 B(  5-C , 25-H ) :   0.8691
B(  5-C , 26-H ) :   0.8810 B(  6-C ,  7-H ) :   0.8514 B(  6-C ,  8-C ) :   0.9207
B(  6-C , 13-S ) :   1.0250 B(  8-C ,  9-O ) :   1.9279 B(  8-C , 10-O ) :   1.2884
B(  9-O , 14-P ) :   0.1157 B( 10-O , 11-C ) :   0.8931 B( 11-C , 12-C ) :   1.1779
B( 11-C , 27-H ) :   0.9361 B( 11-C , 28-H ) :   0.9145 B( 12-C , 29-H ) :   0.9483
B( 12-C , 30-H ) :   0.9410 B( 12-C , 31-H ) :   0.9297 B( 13-S , 14-P ) :   0.9294
B( 13-S , 15-S ) :   0.1168 B( 14-P , 15-S ) :   1.5416 B( 14-P , 16-O ) :   1.1422
B( 14-P , 18-O ) :   1.0824 B( 16-O , 17-C ) :   0.9281 B( 17-C , 32-H ) :   0.9358
B( 17-C , 33-H ) :   0.9542 B( 17-C , 34-H ) :   0.9538 B( 18-O , 19-C ) :   0.9466
B( 19-C , 35-H ) :   0.9342 B( 19-C , 36-H ) :   0.9410 B( 19-C , 37-H ) :   0.9589

Dispersion correction           -0.052021918
FINAL SINGLE POINT ENERGY     -1979.018568610348

DIPOLE MOMENT
-------------

Method             : SCF
Type of density    : Electron Density
Multiplicity       :   1
Irrep              :   0
Energy             : -1979.1489847882435242 Eh
Relativity type    :
Basis              : AO
                                X                 Y                 Z
Electronic contribution:    -13.013805865       1.076681861      -5.061866982
Nuclear contribution   :     13.873936699      -0.586134506       5.210706332
                        -----------------------------------------
Total Dipole Moment    :      0.860130834       0.490547355       0.148839350
                        -----------------------------------------
Magnitude (a.u.)       :      1.001306602
Magnitude (Debye)      :      2.545119119

Rotational constants in cm-1:             0.012258             0.007480             0.005628
Rotational constants in MHz :           367.491174           224.233826           168.710119

                             ****ORCA TERMINATED NORMALLY****
TOTAL RUN TIME: 0 days 0 hours 0 minutes 37 seconds 679 msec
