                         Program Version 6.0.0  -   RELEASE  -
|  1> ! pbe def2-sv(p) def2/J RI DEFGRID1 loosescf d4 GCP(DFT/SV(P)) printgap
|  2> %output
|  3>     printlevel normal
|  4> end
|  5> * xyz 0 1
|  6> C 1.3247329979 -1.6878957444 -2.191448944
|  7> C 2.5597845284 -0.8191015609 -2.0720436637
|  8> O 2.4745286237 0.1221548918 -0.9772347933
|  9> P 2.4733823742 -0.2113518284 0.56611676
| 10> S 2.9666224017 1.409064269 1.5514624232
| 11> O 3.445948669 -1.465812876 0.6193022291
| 12> C 3.5449923498 -2.3909250877 1.7195333757
| 13> C 3.8685219853 -1.7083639745 3.0316331953
| 14> S 0.5860383846 -1.0259267332 1.1303487888
| 15> C -0.2433080499 0.554172401 1.3776182373
| 16> S -0.4433706094 1.5090555328 -0.1632894579
| 17> P -2.2552460217 0.6461202549 -0.8104300743
| 18> S -2.977432107 1.2518590903 -2.528280242
| 19> O -3.2835297883 0.771611314 0.4105376818
| 20> C -4.2004970844 1.8716413341 0.512361922
| 21> C -3.4892805431 3.1687723769 0.8414363768
| 22> O -1.8552276523 -0.8815927371 -0.7141933862
| 23> C -2.8213548114 -1.922685942 -0.9981441176
| 24> C -2.0785743277 -3.2419099282 -1.0143141639
| 25> H 1.244506551 -2.3594098685 -1.3392198498
| 26> H 0.4304302329 -1.0683316697 -2.2372536034
| 27> H 1.3940493655 -2.2750492017 -3.1022411817
| 28> H 2.6786935612 -0.1734141181 -2.9439878729
| 29> H 3.4557627704 -1.4269959317 -1.9338143248
| 30> H 2.6009887435 -2.9377953164 1.7911473986
| 31> H 4.3452822135 -3.0668221874 1.4129553921
| 32> H 4.0142595861 -2.4586257437 3.8019616857
| 33> H 4.7710445216 -1.1094997246 2.9360015654
| 34> H 3.052078182 -1.0503828913 3.324800161
| 35> H 0.3680363509 1.1763705327 2.0323147474
| 36> H -1.2183243122 0.3456253447 1.810081831
| 37> H -4.7390878118 1.9612197536 -0.4364756231
| 38> H -4.887869162 1.5736691666 1.3052398039
| 39> H -4.2217866244 3.9591669539 0.9693656594
| 40> H -2.907245733 3.0673983771 1.7540656516
| 41> H -2.8185978657 3.4393743146 0.0256537836
| 42> H -3.583789693 -1.9011944177 -0.216023276
| 43> H -3.2908445037 -1.7039567924 -1.9627482113
| 44> H -1.3546520705 -3.2559885837 -1.823473844
| 45> H -1.556623977 -3.3793269057 -0.0713610641
| 46> H -2.7909358644 -4.0480382481 -1.1558092858
| 47> *
| 48>
| 49>                          ****END OF INPUT****

CARTESIAN COORDINATES (ANGSTROEM)
---------------------------------
  C      1.324733   -1.687896   -2.191449
  C      2.559785   -0.819102   -2.072044
  O      2.474529    0.122155   -0.977235
  P      2.473382   -0.211352    0.566117
  S      2.966622    1.409064    1.551462
  O      3.445949   -1.465813    0.619302
  C      3.544992   -2.390925    1.719533
  C      3.868522   -1.708364    3.031633
  S      0.586038   -1.025927    1.130349
  C     -0.243308    0.554172    1.377618
  S     -0.443371    1.509056   -0.163289
  P     -2.255246    0.646120   -0.810430
  S     -2.977432    1.251859   -2.528280
  O     -3.283530    0.771611    0.410538
  C     -4.200497    1.871641    0.512362
  C     -3.489281    3.168772    0.841436
  O     -1.855228   -0.881593   -0.714193
  C     -2.821355   -1.922686   -0.998144
  C     -2.078574   -3.241910   -1.014314
  H      1.244507   -2.359410   -1.339220
  H      0.430430   -1.068332   -2.237254
  H      1.394049   -2.275049   -3.102241
  H      2.678694   -0.173414   -2.943988
  H      3.455763   -1.426996   -1.933814
  H      2.600989   -2.937795    1.791147
  H      4.345282   -3.066822    1.412955
  H      4.014260   -2.458626    3.801962
  H      4.771045   -1.109500    2.936002
  H      3.052078   -1.050383    3.324800
  H      0.368036    1.176371    2.032315
  H     -1.218324    0.345625    1.810082
  H     -4.739088    1.961220   -0.436476
  H     -4.887869    1.573669    1.305240
  H     -4.221787    3.959167    0.969366
  H     -2.907246    3.067398    1.754066
  H     -2.818598    3.439374    0.025654
  H     -3.583790   -1.901194   -0.216023
  H     -3.290845   -1.703957   -1.962748
  H     -1.354652   -3.255989   -1.823474
  H     -1.556624   -3.379327   -0.071361
  H     -2.790936   -4.048038   -1.155809

 Total Charge           Charge          ....    0
 Multiplicity           Mult            ....    1
 Number of Electrons    NEL             ....  202
 Basis Dimension        Dim             ....  334

ORBITAL ENERGIES
----------------

  NO   OCC          E(Eh)            E(eV)
   0   2.0000     -88.043883     -2395.7959
   1   2.0000     -88.043358     -2395.7816
   2   2.0000     -87.986925     -2394.2459
   3   2.0000     -87.980953     -2394.0834
   4   2.0000     -76.427531     -2079.6989
   5   2.0000     -76.426171     -2079.6618
   6   2.0000     -18.800022      -511.5746
   7   2.0000     -18.795307      -511.4463
   8   2.0000     -18.793702      -511.4026
   9   2.0000     -18.787021      -511.2208
  10   2.0000      -9.963204      -271.1126
  11   2.0000      -9.956793      -270.9381
  12   2.0000      -9.956685      -270.9352
  13   2.0000      -9.952891      -270.8319
  14   2.0000      -9.951977      -270.8071
  15   2.0000      -9.891416      -269.1591
  16   2.0000      -9.885746      -269.0048
  17   2.0000      -9.884518      -268.9714
  18   2.0000      -9.882872      -268.9266
  19   2.0000      -7.688699      -209.2201
  20   2.0000      -7.688340      -209.2104
  21   2.0000      -7.632085      -207.6796
  22   2.0000      -7.626307      -207.5224
  23   2.0000      -6.424417      -174.8173
  24   2.0000      -6.423988      -174.8056
  25   2.0000      -5.716541      -155.5550
  26   2.0000      -5.716377      -155.5505
  27   2.0000      -5.713284      -155.4664
  28   2.0000      -5.712760      -155.4521
  29   2.0000      -5.705816      -155.2631
  30   2.0000      -5.705092      -155.2434
  31   2.0000      -5.661018      -154.0441
  32   2.0000      -5.655368      -153.8904
  33   2.0000      -5.652759      -153.8194
  34   2.0000      -5.652202      -153.8042
  35   2.0000      -5.646962      -153.6617
  36   2.0000      -5.646244      -153.6421
  37   2.0000      -4.647519      -126.4654
  38   2.0000      -4.646587      -126.4400
  39   2.0000      -4.646266      -126.4313
  40   2.0000      -4.645899      -126.4213
  41   2.0000      -4.644412      -126.3809
  42   2.0000      -4.644231      -126.3759
  43   2.0000      -0.990075       -26.9413
  44   2.0000      -0.989663       -26.9301
  45   2.0000      -0.947340       -25.7784
  46   2.0000      -0.943952       -25.6862
  47   2.0000      -0.765831       -20.8393
  48   2.0000      -0.724303       -19.7093
  49   2.0000      -0.712098       -19.3772
  50   2.0000      -0.692021       -18.8309
  51   2.0000      -0.689429       -18.7603
  52   2.0000      -0.677627       -18.4392
  53   2.0000      -0.652973       -17.7683
  54   2.0000      -0.636673       -17.3247
  55   2.0000      -0.595319       -16.1994
  56   2.0000      -0.590419       -16.0661
  57   2.0000      -0.582050       -15.8384
  58   2.0000      -0.575300       -15.6547
  59   2.0000      -0.562234       -15.2992
  60   2.0000      -0.508458       -13.8358
  61   2.0000      -0.499867       -13.6021
  62   2.0000      -0.475927       -12.9506
  63   2.0000      -0.471945       -12.8423
  64   2.0000      -0.461991       -12.5714
  65   2.0000      -0.448142       -12.1946
  66   2.0000      -0.445508       -12.1229
  67   2.0000      -0.434212       -11.8155
  68   2.0000      -0.432295       -11.7633
  69   2.0000      -0.420302       -11.4370
  70   2.0000      -0.411867       -11.2075
  71   2.0000      -0.408633       -11.1195
  72   2.0000      -0.395789       -10.7700
  73   2.0000      -0.392281       -10.6745
  74   2.0000      -0.386253       -10.5105
  75   2.0000      -0.368205       -10.0194
  76   2.0000      -0.359829        -9.7914
  77   2.0000      -0.358416        -9.7530
  78   2.0000      -0.353500        -9.6192
  79   2.0000      -0.352681        -9.5969
  80   2.0000      -0.351031        -9.5520
  81   2.0000      -0.343271        -9.3409
  82   2.0000      -0.340986        -9.2787
  83   2.0000      -0.339395        -9.2354
  84   2.0000      -0.333698        -9.0804
  85   2.0000      -0.326734        -8.8909
  86   2.0000      -0.319497        -8.6940
  87   2.0000      -0.302138        -8.2216
  88   2.0000      -0.299671        -8.1545
  89   2.0000      -0.295808        -8.0493
  90   2.0000      -0.288878        -7.8608
  91   2.0000      -0.277580        -7.5533
  92   2.0000      -0.275333        -7.4922
  93   2.0000      -0.266613        -7.2549
  94   2.0000      -0.257161        -6.9977
  95   2.0000      -0.232914        -6.3379
  96   2.0000      -0.218449        -5.9443
  97   2.0000      -0.207351        -5.6423
  98   2.0000      -0.202742        -5.5169
  99   2.0000      -0.201844        -5.4925
 100   2.0000      -0.194129        -5.2825
 101   0.0000      -0.043945        -1.1958
 102   0.0000      -0.026189        -0.7126
 103   0.0000      -0.014088        -0.3834
 104   0.0000      -0.000509        -0.0138
 105   0.0000       0.007907         0.2152

MULLIKEN ATOMIC CHARGES
-----------------------
   0 C :   -0.343587
   1 C :    0.014840
   2 O :   -0.350160
   3 P :    0.611781
   4 S :   -0.314999
   5 O :   -0.384235
   6 C :   -0.012370
   7 C :   -0.306925
   8 S :   -0.100329
   9 C :   -0.368091
  10 S :   -0.037171
  11 P :    0.602974
  12 S :   -0.324248
  13 O :   -0.390861
  14 C :   -0.006999
  15 C :   -0.311463
  16 O :   -0.374296
  17 C :   -0.013418
  18 C :   -0.285447
  19 H :    0.117914
  20 H :    0.141874
  21 H :    0.109621
  22 H :    0.111458
  23 H :    0.105736
  24 H :    0.111928
  25 H :    0.109619
  26 H :    0.111202
  27 H :    0.127835
  28 H :    0.125854
  29 H :    0.197930
  30 H :    0.183627
  31 H :    0.112438
  32 H :    0.102502
  33 H :    0.113837
  34 H :    0.113693
  35 H :    0.129478
  36 H :    0.102406
  37 H :    0.106771
  38 H :    0.130378
  39 H :    0.118092
  40 H :    0.110808
Sum of atomic charges:    0.0000000

LOEWDIN ATOMIC CHARGES
----------------------
   0 C :   -0.372198
   1 C :   -0.108059
   2 O :   -0.231824
   3 P :    0.567784
   4 S :   -0.310327
   5 O :   -0.245282
   6 C :   -0.114367
   7 C :   -0.368575
   8 S :    0.077890
   9 C :   -0.483506
  10 S :    0.112807
  11 P :    0.560735
  12 S :   -0.324952
  13 O :   -0.253644
  14 C :   -0.123128
  15 C :   -0.366531
  16 O :   -0.243928
  17 C :   -0.114796
  18 C :   -0.350726
  19 H :    0.113799
  20 H :    0.128082
  21 H :    0.128565
  22 H :    0.123860
  23 H :    0.111977
  24 H :    0.106924
  25 H :    0.121243
  26 H :    0.130147
  27 H :    0.131481
  28 H :    0.121693
  29 H :    0.130635
  30 H :    0.131161
  31 H :    0.110037
  32 H :    0.116762
  33 H :    0.131434
  34 H :    0.123507
  35 H :    0.123124
  36 H :    0.111396
  37 H :    0.111503
  38 H :    0.129545
  39 H :    0.125447
  40 H :    0.130302

  Mayer bond orders larger than 0.100000
B(  0-C ,  1-C ) :   1.1672 B(  0-C , 19-H ) :   0.9397 B(  0-C , 20-H ) :   0.9322
B(  0-C , 21-H ) :   0.9358 B(  1-C ,  2-O ) :   0.9010 B(  1-C , 22-H ) :   0.9330
B(  1-C , 23-H ) :   0.9272 B(  2-O ,  3-P ) :   1.1398 B(  3-P ,  4-S ) :   1.6389
B(  3-P ,  5-O ) :   1.0806 B(  3-P ,  8-S ) :   0.9377 B(  4-S ,  8-S ) :   0.1122
B(  5-O ,  6-C ) :   0.9113 B(  6-C ,  7-C ) :   1.1672 B(  6-C , 24-H ) :   0.9255
B(  6-C , 25-H ) :   0.9333 B(  7-C , 26-H ) :   0.9350 B(  7-C , 27-H ) :   0.9435
B(  7-C , 28-H ) :   0.9314 B(  8-S ,  9-C ) :   1.0100 B(  9-C , 10-S ) :   0.9831
B(  9-C , 29-H ) :   0.8690 B(  9-C , 30-H ) :   0.8896 B( 10-S , 11-P ) :   0.9913
B( 11-P , 12-S ) :   1.6576 B( 11-P , 13-O ) :   1.0482 B( 11-P , 16-O ) :   1.0976
B( 13-O , 14-C ) :   0.9109 B( 14-C , 15-C ) :   1.1633 B( 14-C , 31-H ) :   0.9118
B( 14-C , 32-H ) :   0.9335 B( 15-C , 33-H ) :   0.9388 B( 15-C , 34-H ) :   0.9473
B( 15-C , 35-H ) :   0.9349 B( 16-O , 17-C ) :   0.8972 B( 17-C , 18-C ) :   1.1619
B( 17-C , 36-H ) :   0.9289 B( 17-C , 37-H ) :   0.9168 B( 18-C , 38-H ) :   0.9461
B( 18-C , 39-H ) :   0.9474 B( 18-C , 40-H ) :   0.9403

Dispersion correction           -0.065291254
FINAL SINGLE POINT ENERGY     -2929.516467019066

DIPOLE MOMENT
-------------

Method             : SCF
Type of density    : Electron Density
Multiplicity       :   1
Irrep              :   0
Energy             : -2929.6371084999241248 Eh
Relativity type    :
Basis              : AO
                                X                 Y                 Z
Electronic contribution:      4.313235476      14.215745272      -3.220919124
Nuclear contribution   :     -4.891725770     -16.160978598       3.906282880
                        -----------------------------------------
Total Dipole Moment    :     -0.578490295      -1.945233325       0.685363757
                        -----------------------------------------
Magnitude (a.u.)       :      2.142033424
Magnitude (Debye)      :      5.444616273

Rotational constants in cm-1:             0.012516             0.004896             0.004433
Rotational constants in MHz :           375.233877           146.790951           132.907591

                             ****ORCA TERMINATED NORMALLY****
TOTAL RUN TIME: 0 days 0 hours 0 minutes 21 seconds 470 msec
