                         Program Version 6.0.0  -   RELEASE  -
|  1> ! pbe def2-sv(p) def2/J RI DEFGRID1 loosescf d4 GCP(DFT/SV(P)) printgap
|  2> %output
|  3>     printlevel normal
|  4> end
|  5> * xyz 0 1
|  6> C 0.6277633366 1.6922472086 -0.0094903856
|  7> C 1.4055286995 0.3965397217 -0.2519081501
|  8> H 1.6125065031 0.2891571974 -1.3287199027
|  9> C 0.5429271633 -0.7940620687 0.1872558139
| 10> H 0.3729124845 -0.7251352843 1.2720708289
| 11> C -0.8117814734 -0.7396482448 -0.531783736
| 12> H -0.6403696615 -0.8747189963 -1.6066272786
| 13> C -1.4644992477 0.642374986 -0.2949819965
| 14> H -2.3508433199 0.7617925269 -0.9402707887
| 15> O -0.6183053068 1.68031114 -0.6884559827
| 16> O -1.8321366568 0.7827782513 1.0480000154
| 17> O -1.6208878296 -1.7613131215 0.003361312
| 18> O 1.2455123166 -1.9745339813 -0.1206327189
| 19> O 2.6056131637 0.4595221663 0.4729507506
| 20> H 1.1737979301 2.545857829 -0.4078272391
| 21> H 0.4755946555 1.8254234373 1.0672504413
| 22> H -2.0975354033 -0.0917486198 1.3819416525
| 23> H -2.3624830333 -1.9510692302 -0.5883188617
| 24> H 0.6965895079 -2.7352467698 0.1200633421
| 25> H 3.0410286903 -0.4048740713 0.41298226
| 26> *
| 27>
| 28>                          ****END OF INPUT****

CARTESIAN COORDINATES (ANGSTROEM)
---------------------------------
  C      0.627763    1.692247   -0.009490
  C      1.405529    0.396540   -0.251908
  H      1.612507    0.289157   -1.328720
  C      0.542927   -0.794062    0.187256
  H      0.372912   -0.725135    1.272071
  C     -0.811781   -0.739648   -0.531784
  H     -0.640370   -0.874719   -1.606627
  C     -1.464499    0.642375   -0.294982
  H     -2.350843    0.761793   -0.940271
  O     -0.618305    1.680311   -0.688456
  O     -1.832137    0.782778    1.048000
  O     -1.620888   -1.761313    0.003361
  O      1.245512   -1.974534   -0.120633
  O      2.605613    0.459522    0.472951
  H      1.173798    2.545858   -0.407827
  H      0.475595    1.825423    1.067250
  H     -2.097535   -0.091749    1.381942
  H     -2.362483   -1.951069   -0.588319
  H      0.696590   -2.735247    0.120063
  H      3.041029   -0.404874    0.412982

 Total Charge           Charge          ....    0
 Multiplicity           Mult            ....    1
 Number of Electrons    NEL             ....   80
 Basis Dimension        Dim             ....  160

ORBITAL ENERGIES
----------------

  NO   OCC          E(Eh)            E(eV)
   0   2.0000     -18.786290      -511.2009
   1   2.0000     -18.766475      -510.6617
   2   2.0000     -18.759037      -510.4593
   3   2.0000     -18.755261      -510.3566
   4   2.0000     -18.746012      -510.1049
   5   2.0000      -9.985307      -271.7140
   6   2.0000      -9.950984      -270.7801
   7   2.0000      -9.943991      -270.5898
   8   2.0000      -9.939316      -270.4625
   9   2.0000      -9.927164      -270.1319
  10   2.0000      -0.981847       -26.7174
  11   2.0000      -0.956499       -26.0277
  12   2.0000      -0.939612       -25.5681
  13   2.0000      -0.916885       -24.9497
  14   2.0000      -0.908084       -24.7102
  15   2.0000      -0.704840       -19.1797
  16   2.0000      -0.678440       -18.4613
  17   2.0000      -0.587792       -15.9946
  18   2.0000      -0.578106       -15.7311
  19   2.0000      -0.520130       -14.1535
  20   2.0000      -0.504321       -13.7233
  21   2.0000      -0.486464       -13.2374
  22   2.0000      -0.473875       -12.8948
  23   2.0000      -0.460215       -12.5231
  24   2.0000      -0.433078       -11.7847
  25   2.0000      -0.425561       -11.5801
  26   2.0000      -0.409487       -11.1427
  27   2.0000      -0.374059       -10.1787
  28   2.0000      -0.369874       -10.0648
  29   2.0000      -0.347354        -9.4520
  30   2.0000      -0.329473        -8.9654
  31   2.0000      -0.310239        -8.4420
  32   2.0000      -0.303560        -8.2603
  33   2.0000      -0.289986        -7.8909
  34   2.0000      -0.272510        -7.4154
  35   2.0000      -0.266413        -7.2495
  36   2.0000      -0.241893        -6.5822
  37   2.0000      -0.231848        -6.3089
  38   2.0000      -0.217206        -5.9105
  39   2.0000      -0.207108        -5.6357
  40   0.0000      -0.002057        -0.0560
  41   0.0000       0.028864         0.7854
  42   0.0000       0.047470         1.2917
  43   0.0000       0.053382         1.4526
  44   0.0000       0.068811         1.8724

MULLIKEN ATOMIC CHARGES
-----------------------
   0 C :    0.095670
   1 C :    0.014594
   2 H :    0.059572
   3 C :    0.051408
   4 H :    0.053715
   5 C :   -0.027207
   6 H :    0.070920
   7 C :    0.191995
   8 H :    0.050885
   9 O :   -0.305288
  10 O :   -0.406375
  11 O :   -0.417942
  12 O :   -0.426155
  13 O :   -0.419311
  14 H :    0.101067
  15 H :    0.082604
  16 H :    0.301660
  17 H :    0.313160
  18 H :    0.307007
  19 H :    0.308021
Sum of atomic charges:    0.0000000

LOEWDIN ATOMIC CHARGES
----------------------
   0 C :   -0.111301
   1 C :   -0.073059
   2 H :    0.101897
   3 C :   -0.078996
   4 H :    0.104632
   5 C :   -0.107998
   6 H :    0.110911
   7 C :   -0.001138
   8 H :    0.089048
   9 O :   -0.137620
  10 O :   -0.320438
  11 O :   -0.317568
  12 O :   -0.326346
  13 O :   -0.320218
  14 H :    0.122208
  15 H :    0.113077
  16 H :    0.280858
  17 H :    0.295565
  18 H :    0.288165
  19 H :    0.288321

  Mayer bond orders larger than 0.100000
B(  0-C ,  1-C ) :   1.0650 B(  0-C ,  9-O ) :   0.9935 B(  0-C , 14-H ) :   0.9263
B(  0-C , 15-H ) :   0.8915 B(  1-C ,  2-H ) :   0.8782 B(  1-C ,  3-C ) :   1.0292
B(  1-C , 13-O ) :   1.0826 B(  3-C ,  4-H ) :   0.8777 B(  3-C ,  5-C ) :   0.9825
B(  3-C , 12-O ) :   1.0748 B(  5-C ,  6-H ) :   0.8793 B(  5-C ,  7-C ) :   0.9915
B(  5-C , 11-O ) :   1.0508 B(  7-C ,  8-H ) :   0.9005 B(  7-C ,  9-O ) :   1.0941
B(  7-C , 10-O ) :   1.0634 B( 10-O , 16-H ) :   0.8158 B( 11-O , 17-H ) :   0.8440
B( 12-O , 18-H ) :   0.8384 B( 13-O , 19-H ) :   0.8381

Dispersion correction           -0.019196559
FINAL SINGLE POINT ENERGY      -571.419740109012

DIPOLE MOMENT
-------------

Method             : SCF
Type of density    : Electron Density
Multiplicity       :   1
Irrep              :   0
Energy             :  -571.5285366316911677 Eh
Relativity type    :
Basis              : AO
                                X                 Y                 Z
Electronic contribution:     -0.617839089      -0.076839614       0.173952773
Nuclear contribution   :     -0.077191565      -1.288486265      -0.568682672
                        -----------------------------------------
Total Dipole Moment    :     -0.695030654      -1.365325879      -0.394729899
                        -----------------------------------------
Magnitude (a.u.)       :      1.582085351
Magnitude (Debye)      :      4.021341381

Rotational constants in cm-1:             0.057258             0.044779             0.029045
Rotational constants in MHz :          1716.546661          1342.431106           870.741921

                             ****ORCA TERMINATED NORMALLY****
TOTAL RUN TIME: 0 days 0 hours 0 minutes 12 seconds 825 msec
