                         Program Version 6.0.0  -   RELEASE  -
|  1> ! pbe def2-sv(p) def2/J RI DEFGRID1 loosescf d4 GCP(DFT/SV(P)) printgap
|  2> %output
|  3>     printlevel normal
|  4> end
|  5> * xyz 0 1
|  6> C 0.8547545878 1.4095710916 -0.5849940765
|  7> C 1.5869909012 0.1692505572 -0.0423383807
|  8> H 2.554389237 0.0852122796 -0.5496741388
|  9> C 0.7681827443 -1.1112964709 -0.3172632811
| 10> H 1.1822805723 -1.9174399788 0.2992370614
| 11> C -0.6958271196 -0.9031079673 0.1183744897
| 12> H -1.3035029693 -1.7425215356 -0.2522588224
| 13> C -1.2648955774 0.4006820863 -0.4710310934
| 14> H -1.2990869587 0.3197047653 -1.579221103
| 15> O -0.4746878577 1.5094090227 -0.1127222653
| 16> O -2.5317660885 0.5818871734 0.0525866702
| 17> O -0.7239574986 -0.8467660092 1.5223616431
| 18> O 0.8748562755 -1.561890048 -1.6417748374
| 19> O 1.8809914518 0.2988616537 1.3248884606
| 20> H 0.8557279895 1.3953344957 -1.6838564313
| 21> H 1.353186501 2.311524664 -0.229772056
| 22> H -2.8137037399 1.4995127254 -0.0863649166
| 23> H -1.6113330086 -0.5622480332 1.7951393362
| 24> H 0.6101084106 -0.8698029248 -2.2632871235
| 25> H 1.0555504422 0.1902706843 1.8281119118
| 26> *
| 27>
| 28>                          ****END OF INPUT****

CARTESIAN COORDINATES (ANGSTROEM)
---------------------------------
  C      0.854755    1.409571   -0.584994
  C      1.586991    0.169251   -0.042338
  H      2.554389    0.085212   -0.549674
  C      0.768183   -1.111296   -0.317263
  H      1.182281   -1.917440    0.299237
  C     -0.695827   -0.903108    0.118374
  H     -1.303503   -1.742522   -0.252259
  C     -1.264896    0.400682   -0.471031
  H     -1.299087    0.319705   -1.579221
  O     -0.474688    1.509409   -0.112722
  O     -2.531766    0.581887    0.052587
  O     -0.723957   -0.846766    1.522362
  O      0.874856   -1.561890   -1.641775
  O      1.880991    0.298862    1.324888
  H      0.855728    1.395334   -1.683856
  H      1.353187    2.311525   -0.229772
  H     -2.813704    1.499513   -0.086365
  H     -1.611333   -0.562248    1.795139
  H      0.610108   -0.869803   -2.263287
  H      1.055550    0.190271    1.828112

 Total Charge           Charge          ....    0
 Multiplicity           Mult            ....    1
 Number of Electrons    NEL             ....   80
 Basis Dimension        Dim             ....  160

ORBITAL ENERGIES
----------------

  NO   OCC          E(Eh)            E(eV)
   0   2.0000     -18.782300      -511.0924
   1   2.0000     -18.776746      -510.9412
   2   2.0000     -18.769051      -510.7318
   3   2.0000     -18.762083      -510.5422
   4   2.0000     -18.735702      -509.8244
   5   2.0000      -9.999843      -272.1096
   6   2.0000      -9.947900      -270.6961
   7   2.0000      -9.945402      -270.6282
   8   2.0000      -9.942646      -270.5532
   9   2.0000      -9.939743      -270.4742
  10   2.0000      -0.998495       -27.1704
  11   2.0000      -0.946397       -25.7528
  12   2.0000      -0.937534       -25.5116
  13   2.0000      -0.930203       -25.3121
  14   2.0000      -0.910843       -24.7853
  15   2.0000      -0.696720       -18.9587
  16   2.0000      -0.681238       -18.5374
  17   2.0000      -0.607125       -16.5207
  18   2.0000      -0.585782       -15.9399
  19   2.0000      -0.532402       -14.4874
  20   2.0000      -0.509351       -13.8601
  21   2.0000      -0.486315       -13.2333
  22   2.0000      -0.479964       -13.0605
  23   2.0000      -0.462609       -12.5882
  24   2.0000      -0.426556       -11.6072
  25   2.0000      -0.422620       -11.5001
  26   2.0000      -0.405243       -11.0272
  27   2.0000      -0.388619       -10.5749
  28   2.0000      -0.378604       -10.3023
  29   2.0000      -0.358921        -9.7667
  30   2.0000      -0.328609        -8.9419
  31   2.0000      -0.322816        -8.7843
  32   2.0000      -0.308432        -8.3929
  33   2.0000      -0.286299        -7.7906
  34   2.0000      -0.279012        -7.5923
  35   2.0000      -0.266697        -7.2572
  36   2.0000      -0.253413        -6.8957
  37   2.0000      -0.234121        -6.3708
  38   2.0000      -0.222859        -6.0643
  39   2.0000      -0.199898        -5.4395
  40   0.0000       0.003827         0.1041
  41   0.0000       0.012391         0.3372
  42   0.0000       0.049205         1.3389
  43   0.0000       0.066941         1.8215
  44   0.0000       0.070304         1.9131

MULLIKEN ATOMIC CHARGES
-----------------------
   0 C :    0.037596
   1 C :    0.033988
   2 H :    0.078072
   3 C :    0.035224
   4 H :    0.094976
   5 C :    0.068016
   6 H :    0.078827
   7 C :    0.139514
   8 H :    0.029325
   9 O :   -0.315389
  10 O :   -0.389203
  11 O :   -0.428654
  12 O :   -0.411275
  13 O :   -0.431868
  14 H :    0.048648
  15 H :    0.106408
  16 H :    0.315033
  17 H :    0.311387
  18 H :    0.296595
  19 H :    0.302780
Sum of atomic charges:    0.0000000

LOEWDIN ATOMIC CHARGES
----------------------
   0 C :   -0.127701
   1 C :   -0.083606
   2 H :    0.118730
   3 C :   -0.069757
   4 H :    0.125835
   5 C :   -0.086852
   6 H :    0.110258
   7 C :   -0.008857
   8 H :    0.073025
   9 O :   -0.164356
  10 O :   -0.297838
  11 O :   -0.308259
  12 O :   -0.306328
  13 O :   -0.323760
  14 H :    0.091161
  15 H :    0.125852
  16 H :    0.295363
  17 H :    0.288008
  18 H :    0.275544
  19 H :    0.273537

  Mayer bond orders larger than 0.100000
B(  0-C ,  1-C ) :   1.0351 B(  0-C ,  9-O ) :   1.0082 B(  0-C , 14-H ) :   0.8905
B(  0-C , 15-H ) :   0.9183 B(  1-C ,  2-H ) :   0.8959 B(  1-C ,  3-C ) :   0.9872
B(  1-C , 13-O ) :   1.0613 B(  3-C ,  4-H ) :   0.8972 B(  3-C ,  5-C ) :   0.9791
B(  3-C , 12-O ) :   1.0486 B(  5-C ,  6-H ) :   0.8877 B(  5-C ,  7-C ) :   0.9646
B(  5-C , 11-O ) :   1.0138 B(  7-C ,  8-H ) :   0.8914 B(  7-C ,  9-O ) :   1.0296
B(  7-C , 10-O ) :   1.1732 B( 10-O , 16-H ) :   0.8350 B( 11-O , 17-H ) :   0.8219
B( 12-O , 18-H ) :   0.8415 B( 13-O , 19-H ) :   0.8140

Dispersion correction           -0.019817501
FINAL SINGLE POINT ENERGY      -571.418499178820

DIPOLE MOMENT
-------------

Method             : SCF
Type of density    : Electron Density
Multiplicity       :   1
Irrep              :   0
Energy             :  -571.5280512942003952 Eh
Relativity type    :
Basis              : AO
                                X                 Y                 Z
Electronic contribution:     -1.488833849       0.038709613       1.862776584
Nuclear contribution   :      0.533093873       0.665401884      -2.536681040
                        -----------------------------------------
Total Dipole Moment    :     -0.955739977       0.704111498      -0.673904456
                        -----------------------------------------
Magnitude (a.u.)       :      1.365049128
Magnitude (Debye)      :      3.469679142

Rotational constants in cm-1:             0.058290             0.040397             0.037642
Rotational constants in MHz :          1747.475941          1211.085216          1128.467403

                             ****ORCA TERMINATED NORMALLY****
TOTAL RUN TIME: 0 days 0 hours 0 minutes 11 seconds 711 msec
