                         Program Version 6.0.0  -   RELEASE  -
|  1> ! pbe def2-sv(p) def2/J RI DEFGRID1 loosescf d4 GCP(DFT/SV(P)) printgap
|  2> %output
|  3>     printlevel normal
|  4> end
|  5> * xyz 0 1
|  6> C 5.0717870282 1.1069826192 0.0130275151
|  7> C 3.7496506379 1.4175037438 -0.6560618879
|  8> O 2.9628267559 0.2245987627 -0.8571393168
|  9> P 2.2977709222 -0.5457308051 0.3545781748
| 10> S 1.8144887546 0.5391406139 1.9198974438
| 11> O 3.3747083241 -1.669918333 0.6781324318
| 12> C 3.3232343818 -2.4516099704 1.8824416045
| 13> C 2.1347097747 -3.3911039595 1.8890237987
| 14> S 0.7844503115 -1.597680511 -0.6975210146
| 15> C 0.2108539066 -0.2849093706 -1.8149939727
| 16> S -0.3124296516 1.2302810783 -0.9637218211
| 17> P -2.3416837694 0.7301687937 -0.5961228309
| 18> S -2.9806733129 -0.998302687 -1.2761020201
| 19> O -3.0335055454 1.9824258354 -1.2751357837
| 20> C -4.4017051921 1.9516966066 -1.7273553256
| 21> C -5.3703528206 1.9332237713 -0.5637727637
| 22> O -2.588218986 1.0637500601 0.9386208815
| 23> C -1.8992782861 0.4984714301 2.0655011779
| 24> C -1.9469587013 -1.0153455095 2.0948305823
| 25> H 5.6732040314 2.0094400924 0.0586392956
| 26> H 4.8973368098 0.7461163176 1.0258457163
| 27> H 5.6047636861 0.3420837535 -0.5454541283
| 28> H 3.886458792 1.8150332109 -1.6624560404
| 29> H 3.1643895151 2.1217189435 -0.0558347576
| 30> H 4.2693724215 -2.9940931762 1.8874417388
| 31> H 3.278503322 -1.768647698 2.7374543442
| 32> H 2.1448804538 -4.0224618788 1.0043504002
| 33> H 2.1664682 -4.0120784201 2.7783806491
| 34> H 1.2095864242 -2.814189871 1.8917645119
| 35> H -0.6361564902 -0.713456758 -2.3527286652
| 36> H 1.01642818 -0.010049209 -2.4894607216
| 37> H -4.5008203192 2.8575178937 -2.3265686516
| 38> H -4.5397997432 1.0682004175 -2.359163871
| 39> H -5.1806171653 2.7753339688 0.0964029968
| 40> H -6.3878472678 1.9856499595 -0.9381509339
| 41> H -5.2454090461 1.0103794095 0.001469057
| 42> H -0.8635258704 0.8523137304 2.0564860965
| 43> H -2.4184728415 0.9279539169 2.9241256787
| 44> H -2.9746974221 -1.367136449 2.047883513
| 45> H -1.4009712542 -1.4316542093 1.2485133281
| 46> H -1.4866966205 -1.3645233462 3.0139731613
| 47> *
| 48>
| 49>                          ****END OF INPUT****

CARTESIAN COORDINATES (ANGSTROEM)
---------------------------------
  C      5.071787    1.106983    0.013028
  C      3.749651    1.417504   -0.656062
  O      2.962827    0.224599   -0.857139
  P      2.297771   -0.545731    0.354578
  S      1.814489    0.539141    1.919897
  O      3.374708   -1.669918    0.678132
  C      3.323234   -2.451610    1.882442
  C      2.134710   -3.391104    1.889024
  S      0.784450   -1.597681   -0.697521
  C      0.210854   -0.284909   -1.814994
  S     -0.312430    1.230281   -0.963722
  P     -2.341684    0.730169   -0.596123
  S     -2.980673   -0.998303   -1.276102
  O     -3.033506    1.982426   -1.275136
  C     -4.401705    1.951697   -1.727355
  C     -5.370353    1.933224   -0.563773
  O     -2.588219    1.063750    0.938621
  C     -1.899278    0.498471    2.065501
  C     -1.946959   -1.015346    2.094831
  H      5.673204    2.009440    0.058639
  H      4.897337    0.746116    1.025846
  H      5.604764    0.342084   -0.545454
  H      3.886459    1.815033   -1.662456
  H      3.164390    2.121719   -0.055835
  H      4.269372   -2.994093    1.887442
  H      3.278503   -1.768648    2.737454
  H      2.144880   -4.022462    1.004350
  H      2.166468   -4.012078    2.778381
  H      1.209586   -2.814190    1.891765
  H     -0.636156   -0.713457   -2.352729
  H      1.016428   -0.010049   -2.489461
  H     -4.500820    2.857518   -2.326569
  H     -4.539800    1.068200   -2.359164
  H     -5.180617    2.775334    0.096403
  H     -6.387847    1.985650   -0.938151
  H     -5.245409    1.010379    0.001469
  H     -0.863526    0.852314    2.056486
  H     -2.418473    0.927954    2.924126
  H     -2.974697   -1.367136    2.047884
  H     -1.400971   -1.431654    1.248513
  H     -1.486697   -1.364523    3.013973

 Total Charge           Charge          ....    0
 Multiplicity           Mult            ....    1
 Number of Electrons    NEL             ....  202
 Basis Dimension        Dim             ....  334

ORBITAL ENERGIES
----------------

  NO   OCC          E(Eh)            E(eV)
   0   2.0000     -88.042070     -2395.7465
   1   2.0000     -88.040981     -2395.7169
   2   2.0000     -87.990771     -2394.3506
   3   2.0000     -87.988197     -2394.2806
   4   2.0000     -76.430487     -2079.7793
   5   2.0000     -76.424651     -2079.6205
   6   2.0000     -18.799533      -511.5613
   7   2.0000     -18.795671      -511.4562
   8   2.0000     -18.786842      -511.2160
   9   2.0000     -18.783825      -511.1339
  10   2.0000      -9.956500      -270.9301
  11   2.0000      -9.955597      -270.9056
  12   2.0000      -9.955347      -270.8988
  13   2.0000      -9.947482      -270.6847
  14   2.0000      -9.941615      -270.5251
  15   2.0000      -9.889073      -269.0954
  16   2.0000      -9.887243      -269.0456
  17   2.0000      -9.879628      -268.8384
  18   2.0000      -9.870944      -268.6020
  19   2.0000      -7.686920      -209.1717
  20   2.0000      -7.686083      -209.1490
  21   2.0000      -7.635468      -207.7716
  22   2.0000      -7.633078      -207.7066
  23   2.0000      -6.428117      -174.9180
  24   2.0000      -6.422082      -174.7537
  25   2.0000      -5.714988      -155.5127
  26   2.0000      -5.713935      -155.4841
  27   2.0000      -5.711422      -155.4157
  28   2.0000      -5.710686      -155.3957
  29   2.0000      -5.703724      -155.2062
  30   2.0000      -5.702942      -155.1849
  31   2.0000      -5.664190      -154.1304
  32   2.0000      -5.661945      -154.0693
  33   2.0000      -5.656152      -153.9117
  34   2.0000      -5.655790      -153.9019
  35   2.0000      -5.653887      -153.8501
  36   2.0000      -5.653116      -153.8291
  37   2.0000      -4.650765      -126.5538
  38   2.0000      -4.649896      -126.5301
  39   2.0000      -4.648481      -126.4916
  40   2.0000      -4.644358      -126.3794
  41   2.0000      -4.643956      -126.3685
  42   2.0000      -4.642764      -126.3360
  43   2.0000      -0.992823       -27.0161
  44   2.0000      -0.981097       -26.6970
  45   2.0000      -0.952890       -25.9294
  46   2.0000      -0.938878       -25.5482
  47   2.0000      -0.762233       -20.7414
  48   2.0000      -0.721506       -19.6332
  49   2.0000      -0.706241       -19.2178
  50   2.0000      -0.691273       -18.8105
  51   2.0000      -0.679314       -18.4851
  52   2.0000      -0.672420       -18.2975
  53   2.0000      -0.654962       -17.8224
  54   2.0000      -0.640662       -17.4333
  55   2.0000      -0.603729       -16.4283
  56   2.0000      -0.593159       -16.1407
  57   2.0000      -0.577243       -15.7076
  58   2.0000      -0.566535       -15.4162
  59   2.0000      -0.560894       -15.2627
  60   2.0000      -0.499363       -13.5883
  61   2.0000      -0.488869       -13.3028
  62   2.0000      -0.478368       -13.0170
  63   2.0000      -0.462371       -12.5818
  64   2.0000      -0.460642       -12.5347
  65   2.0000      -0.445015       -12.1095
  66   2.0000      -0.443200       -12.0601
  67   2.0000      -0.429777       -11.6948
  68   2.0000      -0.423967       -11.5367
  69   2.0000      -0.419058       -11.4032
  70   2.0000      -0.406660       -11.0658
  71   2.0000      -0.398094       -10.8327
  72   2.0000      -0.393660       -10.7120
  73   2.0000      -0.387439       -10.5428
  74   2.0000      -0.385841       -10.4993
  75   2.0000      -0.376063       -10.2332
  76   2.0000      -0.371034       -10.0964
  77   2.0000      -0.360072        -9.7980
  78   2.0000      -0.354512        -9.6468
  79   2.0000      -0.351130        -9.5547
  80   2.0000      -0.346414        -9.4264
  81   2.0000      -0.341453        -9.2914
  82   2.0000      -0.336862        -9.1665
  83   2.0000      -0.335304        -9.1241
  84   2.0000      -0.331448        -9.0192
  85   2.0000      -0.317206        -8.6316
  86   2.0000      -0.308046        -8.3823
  87   2.0000      -0.300211        -8.1692
  88   2.0000      -0.290979        -7.9179
  89   2.0000      -0.289425        -7.8756
  90   2.0000      -0.282227        -7.6798
  91   2.0000      -0.278170        -7.5694
  92   2.0000      -0.270268        -7.3544
  93   2.0000      -0.266376        -7.2485
  94   2.0000      -0.255556        -6.9540
  95   2.0000      -0.241068        -6.5598
  96   2.0000      -0.220758        -6.0071
  97   2.0000      -0.208527        -5.6743
  98   2.0000      -0.204481        -5.5642
  99   2.0000      -0.202232        -5.5030
 100   2.0000      -0.196354        -5.3431
 101   0.0000      -0.049285        -1.3411
 102   0.0000      -0.025987        -0.7071
 103   0.0000      -0.019773        -0.5381
 104   0.0000       0.003360         0.0914
 105   0.0000       0.016274         0.4428

MULLIKEN ATOMIC CHARGES
-----------------------
   0 C :   -0.305444
   1 C :   -0.008231
   2 O :   -0.374196
   3 P :    0.613429
   4 S :   -0.322696
   5 O :   -0.366244
   6 C :   -0.004193
   7 C :   -0.335235
   8 S :   -0.087495
   9 C :   -0.342436
  10 S :   -0.086904
  11 P :    0.623638
  12 S :   -0.334118
  13 O :   -0.367143
  14 C :   -0.005648
  15 C :   -0.304061
  16 O :   -0.372315
  17 C :   -0.019756
  18 C :   -0.338182
  19 H :    0.114247
  20 H :    0.123515
  21 H :    0.118668
  22 H :    0.106329
  23 H :    0.117663
  24 H :    0.107886
  25 H :    0.110199
  26 H :    0.125919
  27 H :    0.117918
  28 H :    0.137610
  29 H :    0.192052
  30 H :    0.189938
  31 H :    0.104305
  32 H :    0.110823
  33 H :    0.116810
  34 H :    0.109539
  35 H :    0.124055
  36 H :    0.136759
  37 H :    0.099547
  38 H :    0.114769
  39 H :    0.148611
  40 H :    0.110066
Sum of atomic charges:   -0.0000000

LOEWDIN ATOMIC CHARGES
----------------------
   0 C :   -0.364076
   1 C :   -0.117971
   2 O :   -0.239742
   3 P :    0.572361
   4 S :   -0.309636
   5 O :   -0.241673
   6 C :   -0.121305
   7 C :   -0.370843
   8 S :    0.094670
   9 C :   -0.478405
  10 S :    0.087883
  11 P :    0.575003
  12 S :   -0.310270
  13 O :   -0.245280
  14 C :   -0.117724
  15 C :   -0.363840
  16 O :   -0.240402
  17 C :   -0.121090
  18 C :   -0.374549
  19 H :    0.131741
  20 H :    0.123152
  21 H :    0.127554
  22 H :    0.118969
  23 H :    0.112862
  24 H :    0.120138
  25 H :    0.109057
  26 H :    0.127823
  27 H :    0.133779
  28 H :    0.122069
  29 H :    0.128969
  30 H :    0.134384
  31 H :    0.118405
  32 H :    0.108694
  33 H :    0.126565
  34 H :    0.129115
  35 H :    0.123427
  36 H :    0.105716
  37 H :    0.117589
  38 H :    0.124106
  39 H :    0.114246
  40 H :    0.128528

  Mayer bond orders larger than 0.100000
B(  0-C ,  1-C ) :   1.1652 B(  0-C , 19-H ) :   0.9387 B(  0-C , 20-H ) :   0.9360
B(  0-C , 21-H ) :   0.9458 B(  1-C ,  2-O ) :   0.8985 B(  1-C , 22-H ) :   0.9338
B(  1-C , 23-H ) :   0.9155 B(  2-O ,  3-P ) :   1.1147 B(  3-P ,  4-S ) :   1.5992
B(  3-P ,  5-O ) :   1.1059 B(  3-P ,  8-S ) :   0.9666 B(  4-S ,  8-S ) :   0.1048
B(  5-O ,  6-C ) :   0.9097 B(  6-C ,  7-C ) :   1.1634 B(  6-C , 24-H ) :   0.9322
B(  6-C , 25-H ) :   0.9131 B(  7-C , 26-H ) :   0.9431 B(  7-C , 27-H ) :   0.9380
B(  7-C , 28-H ) :   0.9307 B(  8-S ,  9-C ) :   0.9974 B(  9-C , 10-S ) :   1.0171
B(  9-C , 29-H ) :   0.8683 B(  9-C , 30-H ) :   0.8992 B( 10-S , 11-P ) :   0.9437
B( 10-S , 12-S ) :   0.1146 B( 11-P , 12-S ) :   1.5945 B( 11-P , 13-O ) :   1.1322
B( 11-P , 16-O ) :   1.1239 B( 13-O , 14-C ) :   0.9115 B( 14-C , 15-C ) :   1.1629
B( 14-C , 31-H ) :   0.9346 B( 14-C , 32-H ) :   0.9137 B( 15-C , 33-H ) :   0.9466
B( 15-C , 34-H ) :   0.9390 B( 15-C , 35-H ) :   0.9370 B( 16-O , 17-C ) :   0.9010
B( 17-C , 18-C ) :   1.1672 B( 17-C , 36-H ) :   0.9062 B( 17-C , 37-H ) :   0.9336
B( 18-C , 38-H ) :   0.9424 B( 18-C , 39-H ) :   0.9187 B( 18-C , 40-H ) :   0.9340

Dispersion correction           -0.066001291
FINAL SINGLE POINT ENERGY     -2929.522173664072

DIPOLE MOMENT
-------------

Method             : SCF
Type of density    : Electron Density
Multiplicity       :   1
Irrep              :   0
Energy             : -2929.6410358586590519 Eh
Relativity type    :
Basis              : AO
                                X                 Y                 Z
Electronic contribution:     -0.917297205       2.134414512      -9.546802387
Nuclear contribution   :      1.642662159      -1.980885265       9.659616331
                        -----------------------------------------
Total Dipole Moment    :      0.725364954       0.153529247       0.112813944
                        -----------------------------------------
Magnitude (a.u.)       :      0.749968354
Magnitude (Debye)      :      1.906268062

Rotational constants in cm-1:             0.014254             0.004605             0.004287
Rotational constants in MHz :           427.310873           138.065944           128.521403

                             ****ORCA TERMINATED NORMALLY****
TOTAL RUN TIME: 0 days 0 hours 0 minutes 21 seconds 331 msec
