                         Program Version 6.0.0  -   RELEASE  -
|  1> ! pbe def2-sv(p) def2/J RI DEFGRID1 loosescf d4 GCP(DFT/SV(P)) printgap
|  2> %output
|  3>     printlevel normal
|  4> end
|  5> * xyz 0 1
|  6> C 3.537035745 0.4209060647 -2.7516446966
|  7> C 4.2880729848 -0.355984186 -1.6890549546
|  8> O 3.8685889712 -0.0236696162 -0.3529707533
|  9> P 2.3835146054 -0.1036282022 0.1766059377
| 10> S 1.1968147301 1.4175712458 -0.2316907037
| 11> O 2.7905965297 -0.2653463095 1.6980904246
| 12> C 1.8466482033 -0.2273113909 2.7862056778
| 13> C 1.7435834063 1.171060796 3.3657541534
| 14> S 1.6938280114 -2.0230640963 -0.4361920669
| 15> C -0.0118790085 -1.6521187754 -0.9078357305
| 16> S -1.0567869058 -1.1786190525 0.5058905741
| 17> P -2.1141887778 0.4777428063 -0.3375774341
| 18> S -1.7414515263 0.8565408532 -2.2225110514
| 19> O -1.8715629479 1.7080064467 0.6161781017
| 20> C -2.5491680973 1.9404226607 1.8756058141
| 21> C -2.2829449615 0.8475444324 2.8885307047
| 22> O -3.6455493164 0.1489877636 -0.0333690456
| 23> C -4.476371353 -0.598615634 -0.9366855756
| 24> C -4.0010636947 -2.025657121 -1.1194053682
| 25> H 3.9505461885 0.1920618797 -3.7286367772
| 26> H 2.4805618855 0.1527952146 -2.7444712712
| 27> H 3.6168626806 1.4900764287 -2.5679992608
| 28> H 5.3505707376 -0.1065435635 -1.6928107606
| 29> H 4.1600559132 -1.4326961529 -1.8321239449
| 30> H 0.8715325594 -0.5867396602 2.4412447703
| 31> H 2.2499331027 -0.9292908673 3.518766325
| 32> H 1.3209936483 1.8542057188 2.6313082171
| 33> H 1.109120337 1.151513743 4.2464755975
| 34> H 2.731055802 1.5295864613 3.6425255452
| 35> H -0.3936905533 -2.5753860694 -1.33678863
| 36> H -0.0410297835 -0.8353918934 -1.6346724722
| 37> H -2.1419163135 2.8994777621 2.1996850937
| 38> H -3.618003462 2.0369963995 1.6746056681
| 39> H -1.2144177876 0.7377848206 3.0530811229
| 40> H -2.7649169091 1.1080436462 3.8255811742
| 41> H -2.6834556962 -0.1007719719 2.5334587081
| 42> H -5.4626792306 -0.5586727021 -0.4720506944
| 43> H -4.494916892 -0.0768481437 -1.8984794672
| 44> H -3.8658082344 -2.5097195209 -0.1555007823
| 45> H -4.7362206702 -2.5744339602 -1.699178903
| 46> H -3.054789474 -2.0310488022 -1.658848823
| 47> *
| 48>
| 49>                          ****END OF INPUT****

CARTESIAN COORDINATES (ANGSTROEM)
---------------------------------
  C      3.537036    0.420906   -2.751645
  C      4.288073   -0.355984   -1.689055
  O      3.868589   -0.023670   -0.352971
  P      2.383515   -0.103628    0.176606
  S      1.196815    1.417571   -0.231691
  O      2.790597   -0.265346    1.698090
  C      1.846648   -0.227311    2.786206
  C      1.743583    1.171061    3.365754
  S      1.693828   -2.023064   -0.436192
  C     -0.011879   -1.652119   -0.907836
  S     -1.056787   -1.178619    0.505891
  P     -2.114189    0.477743   -0.337577
  S     -1.741452    0.856541   -2.222511
  O     -1.871563    1.708006    0.616178
  C     -2.549168    1.940423    1.875606
  C     -2.282945    0.847544    2.888531
  O     -3.645549    0.148988   -0.033369
  C     -4.476371   -0.598616   -0.936686
  C     -4.001064   -2.025657   -1.119405
  H      3.950546    0.192062   -3.728637
  H      2.480562    0.152795   -2.744471
  H      3.616863    1.490076   -2.567999
  H      5.350571   -0.106544   -1.692811
  H      4.160056   -1.432696   -1.832124
  H      0.871533   -0.586740    2.441245
  H      2.249933   -0.929291    3.518766
  H      1.320994    1.854206    2.631308
  H      1.109120    1.151514    4.246476
  H      2.731056    1.529586    3.642526
  H     -0.393691   -2.575386   -1.336789
  H     -0.041030   -0.835392   -1.634672
  H     -2.141916    2.899478    2.199685
  H     -3.618003    2.036996    1.674606
  H     -1.214418    0.737785    3.053081
  H     -2.764917    1.108044    3.825581
  H     -2.683456   -0.100772    2.533459
  H     -5.462679   -0.558673   -0.472051
  H     -4.494917   -0.076848   -1.898479
  H     -3.865808   -2.509720   -0.155501
  H     -4.736221   -2.574434   -1.699179
  H     -3.054789   -2.031049   -1.658849

 Total Charge           Charge          ....    0
 Multiplicity           Mult            ....    1
 Number of Electrons    NEL             ....  202
 Basis Dimension        Dim             ....  334

ORBITAL ENERGIES
----------------

  NO   OCC          E(Eh)            E(eV)
   0   2.0000     -88.044826     -2395.8215
   1   2.0000     -88.041199     -2395.7228
   2   2.0000     -87.984238     -2394.1728
   3   2.0000     -87.978883     -2394.0271
   4   2.0000     -76.426840     -2079.6800
   5   2.0000     -76.421653     -2079.5389
   6   2.0000     -18.791802      -511.3509
   7   2.0000     -18.790066      -511.3037
   8   2.0000     -18.785107      -511.1687
   9   2.0000     -18.780135      -511.0335
  10   2.0000      -9.957533      -270.9582
  11   2.0000      -9.953852      -270.8581
  12   2.0000      -9.953659      -270.8528
  13   2.0000      -9.953006      -270.8351
  14   2.0000      -9.947800      -270.6934
  15   2.0000      -9.892738      -269.1951
  16   2.0000      -9.886016      -269.0122
  17   2.0000      -9.879232      -268.8276
  18   2.0000      -9.877492      -268.7802
  19   2.0000      -7.689778      -209.2495
  20   2.0000      -7.685269      -209.1268
  21   2.0000      -7.629354      -207.6053
  22   2.0000      -7.623329      -207.4413
  23   2.0000      -6.423700      -174.7978
  24   2.0000      -6.418540      -174.6574
  25   2.0000      -5.717688      -155.5862
  26   2.0000      -5.713933      -155.4840
  27   2.0000      -5.713194      -155.4639
  28   2.0000      -5.709951      -155.3757
  29   2.0000      -5.707129      -155.2989
  30   2.0000      -5.702170      -155.1639
  31   2.0000      -5.658395      -153.9727
  32   2.0000      -5.652348      -153.8082
  33   2.0000      -5.649787      -153.7385
  34   2.0000      -5.649535      -153.7317
  35   2.0000      -5.643801      -153.5756
  36   2.0000      -5.643654      -153.5716
  37   2.0000      -4.646726      -126.4438
  38   2.0000      -4.645126      -126.4003
  39   2.0000      -4.644174      -126.3744
  40   2.0000      -4.640984      -126.2876
  41   2.0000      -4.640708      -126.2801
  42   2.0000      -4.638771      -126.2274
  43   2.0000      -0.987657       -26.8755
  44   2.0000      -0.982841       -26.7445
  45   2.0000      -0.942554       -25.6482
  46   2.0000      -0.937641       -25.5145
  47   2.0000      -0.759837       -20.6762
  48   2.0000      -0.718687       -19.5565
  49   2.0000      -0.710033       -19.3210
  50   2.0000      -0.692420       -18.8417
  51   2.0000      -0.680687       -18.5224
  52   2.0000      -0.676321       -18.4036
  53   2.0000      -0.649867       -17.6838
  54   2.0000      -0.633180       -17.2297
  55   2.0000      -0.598885       -16.2965
  56   2.0000      -0.588714       -16.0197
  57   2.0000      -0.581492       -15.8232
  58   2.0000      -0.564414       -15.3585
  59   2.0000      -0.562700       -15.3118
  60   2.0000      -0.498351       -13.5608
  61   2.0000      -0.492730       -13.4079
  62   2.0000      -0.470028       -12.7901
  63   2.0000      -0.465281       -12.6609
  64   2.0000      -0.452299       -12.3077
  65   2.0000      -0.448300       -12.1989
  66   2.0000      -0.445080       -12.1112
  67   2.0000      -0.428600       -11.6628
  68   2.0000      -0.426386       -11.6025
  69   2.0000      -0.422619       -11.5000
  70   2.0000      -0.409635       -11.1467
  71   2.0000      -0.402285       -10.9467
  72   2.0000      -0.396224       -10.7818
  73   2.0000      -0.388400       -10.5689
  74   2.0000      -0.383899       -10.4464
  75   2.0000      -0.370189       -10.0734
  76   2.0000      -0.362490        -9.8639
  77   2.0000      -0.359710        -9.7882
  78   2.0000      -0.354815        -9.6550
  79   2.0000      -0.347284        -9.4501
  80   2.0000      -0.344562        -9.3760
  81   2.0000      -0.342250        -9.3131
  82   2.0000      -0.338871        -9.2211
  83   2.0000      -0.335965        -9.1421
  84   2.0000      -0.329104        -8.9554
  85   2.0000      -0.316361        -8.6086
  86   2.0000      -0.312061        -8.4916
  87   2.0000      -0.297566        -8.0972
  88   2.0000      -0.295310        -8.0358
  89   2.0000      -0.292743        -7.9659
  90   2.0000      -0.285490        -7.7686
  91   2.0000      -0.274379        -7.4662
  92   2.0000      -0.265385        -7.2215
  93   2.0000      -0.260120        -7.0782
  94   2.0000      -0.253306        -6.8928
  95   2.0000      -0.235905        -6.4193
  96   2.0000      -0.221595        -6.0299
  97   2.0000      -0.212288        -5.7767
  98   2.0000      -0.199067        -5.4169
  99   2.0000      -0.188460        -5.1283
 100   2.0000      -0.183274        -4.9872
 101   0.0000      -0.043492        -1.1835
 102   0.0000      -0.037093        -1.0094
 103   0.0000      -0.013617        -0.3705
 104   0.0000       0.005704         0.1552
 105   0.0000       0.013407         0.3648

MULLIKEN ATOMIC CHARGES
-----------------------
   0 C :   -0.318837
   1 C :   -0.003100
   2 O :   -0.356020
   3 P :    0.584260
   4 S :   -0.304344
   5 O :   -0.355999
   6 C :   -0.030751
   7 C :   -0.296492
   8 S :   -0.122491
   9 C :   -0.343685
  10 S :   -0.122426
  11 P :    0.628459
  12 S :   -0.296924
  13 O :   -0.358207
  14 C :    0.013034
  15 C :   -0.360077
  16 O :   -0.388813
  17 C :    0.005614
  18 C :   -0.319439
  19 H :    0.109610
  20 H :    0.133734
  21 H :    0.128310
  22 H :    0.108922
  23 H :    0.108856
  24 H :    0.124437
  25 H :    0.102693
  26 H :    0.132150
  27 H :    0.105887
  28 H :    0.115090
  29 H :    0.180593
  30 H :    0.213995
  31 H :    0.113402
  32 H :    0.110048
  33 H :    0.147151
  34 H :    0.116307
  35 H :    0.128220
  36 H :    0.102237
  37 H :    0.112239
  38 H :    0.119139
  39 H :    0.112815
  40 H :    0.120405
Sum of atomic charges:   -0.0000000

LOEWDIN ATOMIC CHARGES
----------------------
   0 C :   -0.368430
   1 C :   -0.115084
   2 O :   -0.233323
   3 P :    0.559624
   4 S :   -0.295100
   5 O :   -0.239381
   6 C :   -0.118829
   7 C :   -0.366239
   8 S :    0.066822
   9 C :   -0.482147
  10 S :    0.070888
  11 P :    0.580834
  12 S :   -0.290853
  13 O :   -0.231242
  14 C :   -0.105791
  15 C :   -0.372472
  16 O :   -0.252640
  17 C :   -0.116546
  18 C :   -0.371552
  19 H :    0.129171
  20 H :    0.122610
  21 H :    0.131413
  22 H :    0.121389
  23 H :    0.106420
  24 H :    0.098755
  25 H :    0.117575
  26 H :    0.124339
  27 H :    0.123898
  28 H :    0.127238
  29 H :    0.132932
  30 H :    0.122616
  31 H :    0.124483
  32 H :    0.114766
  33 H :    0.129448
  34 H :    0.133729
  35 H :    0.118227
  36 H :    0.117410
  37 H :    0.112074
  38 H :    0.123428
  39 H :    0.130692
  40 H :    0.118849

  Mayer bond orders larger than 0.100000
B(  0-C ,  1-C ) :   1.1619 B(  0-C , 19-H ) :   0.9353 B(  0-C , 20-H ) :   0.9341
B(  0-C , 21-H ) :   0.9427 B(  1-C ,  2-O ) :   0.9184 B(  1-C , 22-H ) :   0.9340
B(  1-C , 23-H ) :   0.9245 B(  2-O ,  3-P ) :   1.1309 B(  3-P ,  4-S ) :   1.6335
B(  3-P ,  5-O ) :   1.1225 B(  3-P ,  8-S ) :   0.9203 B(  4-S ,  8-S ) :   0.1226
B(  5-O ,  6-C ) :   0.9090 B(  6-C ,  7-C ) :   1.1721 B(  6-C , 24-H ) :   0.9011
B(  6-C , 25-H ) :   0.9348 B(  7-C , 26-H ) :   0.9292 B(  7-C , 27-H ) :   0.9334
B(  7-C , 28-H ) :   0.9434 B(  8-S ,  9-C ) :   1.0054 B(  9-C , 10-S ) :   0.9948
B(  9-C , 29-H ) :   0.9024 B(  9-C , 30-H ) :   0.8450 B( 10-S , 11-P ) :   0.9293
B( 10-S , 12-S ) :   0.1186 B( 11-P , 12-S ) :   1.6233 B( 11-P , 13-O ) :   1.1350
B( 11-P , 16-O ) :   1.0592 B( 12-S , 30-H ) :   0.1024 B( 13-O , 14-C ) :   0.9026
B( 14-C , 15-C ) :   1.1709 B( 14-C , 31-H ) :   0.9316 B( 14-C , 32-H ) :   0.9268
B( 15-C , 33-H ) :   0.9281 B( 15-C , 34-H ) :   0.9342 B( 15-C , 35-H ) :   0.9315
B( 16-O , 17-C ) :   0.9133 B( 17-C , 18-C ) :   1.1654 B( 17-C , 36-H ) :   0.9343
B( 17-C , 37-H ) :   0.9175 B( 18-C , 38-H ) :   0.9418 B( 18-C , 39-H ) :   0.9364
B( 18-C , 40-H ) :   0.9348

Dispersion correction           -0.067821706
FINAL SINGLE POINT ENERGY     -2929.512515038315

DIPOLE MOMENT
-------------

Method             : SCF
Type of density    : Electron Density
Multiplicity       :   1
Irrep              :   0
Energy             : -2929.6296984135960884 Eh
Relativity type    :
Basis              : AO
                                X                 Y                 Z
Electronic contribution:      5.751391355       0.488479319      -7.300329218
Nuclear contribution   :     -6.447057903      -1.377172016       8.070610253
                        -----------------------------------------
Total Dipole Moment    :     -0.695666548      -0.888692697       0.770281035
                        -----------------------------------------
Magnitude (a.u.)       :      1.366403867
Magnitude (Debye)      :      3.473122616

Rotational constants in cm-1:             0.011725             0.005700             0.004917
Rotational constants in MHz :           351.513472           170.891917           147.398339

                             ****ORCA TERMINATED NORMALLY****
TOTAL RUN TIME: 0 days 0 hours 0 minutes 21 seconds 587 msec
