                         Program Version 6.0.0  -   RELEASE  -
|  1> ! pbe def2-sv(p) def2/J RI DEFGRID1 loosescf d4 GCP(DFT/SV(P)) printgap
|  2> %output
|  3>     printlevel normal
|  4> end
|  5> * xyz 0 1
|  6> C 3.2580121971 1.205065792 -2.4046815702
|  7> C 2.620888108 -0.1341031424 -2.0921359081
|  8> O 2.8912457799 -0.5259456041 -0.7307260495
|  9> P 1.9464259884 -0.1992942684 0.5010105305
| 10> S 1.499269863 1.6738899008 0.8334578645
| 11> O 2.7445680216 -0.7804481424 1.7277845638
| 12> C 3.3443180302 -2.1002237047 1.7586338871
| 13> C 4.8068385412 -2.0337475059 1.3698749017
| 14> S 0.37400886 -1.6241911112 0.1928576142
| 15> C -0.600176677 -1.3167802309 1.6824910242
| 16> S -1.4856446983 0.2815624165 1.7167226598
| 17> P -2.1415665034 0.4221558754 -0.2823182293
| 18> S -0.9631483156 0.8252644813 -1.805878261
| 19> O -3.3208005853 1.4863307511 -0.1644088476
| 20> C -3.1109695284 2.8936341423 -0.3612630413
| 21> C -2.2594096776 3.4958244764 0.7380065232
| 22> O -2.931684535 -0.9449831286 -0.3614644163
| 23> C -3.3700051933 -1.524922801 -1.6137711753
| 24> C -2.4694045893 -2.6811100988 -1.9995322472
| 25> H 4.3257684969 1.1710180102 -2.2067836167
| 26> H 3.088963837 1.4431783237 -3.4497450128
| 27> H 2.8102841603 1.983638337 -1.790447964
| 28> H 3.0544325549 -0.933649344 -2.6957509273
| 29> H 1.5414575913 -0.0948806895 -2.2587052212
| 30> H 3.2248914314 -2.4281128923 2.7928963906
| 31> H 2.7858656325 -2.7606895446 1.0898957578
| 32> H 4.9086043751 -1.7035069238 0.3398554187
| 33> H 5.3315408791 -1.3342007185 2.014818533
| 34> H 5.2474005255 -3.0201677827 1.4761469807
| 35> H 0.047202199 -1.3109975839 2.5578814083
| 36> H -1.3285981327 -2.1226865672 1.7348813333
| 37> H -2.6376701937 3.0414637141 -1.3378664306
| 38> H -4.1183845819 3.3116569176 -0.3681345367
| 39> H -2.6850398177 3.2712262299 1.7130695301
| 40> H -1.2479543633 3.0874624657 0.6980081174
| 41> H -2.2035868341 4.5714905431 0.6061930218
| 42> H -4.3926594821 -1.8545707636 -1.4250688614
| 43> H -3.3680435462 -0.7531258672 -2.3884000867
| 44> H -1.4579848886 -2.3227103866 -2.1780691647
| 45> H -2.4415313176 -3.4190762845 -1.2032255595
| 46> H -2.8492017955 -3.1410245409 -2.905963842
| 47> *
| 48>
| 49>                          ****END OF INPUT****

CARTESIAN COORDINATES (ANGSTROEM)
---------------------------------
  C      3.258012    1.205066   -2.404682
  C      2.620888   -0.134103   -2.092136
  O      2.891246   -0.525946   -0.730726
  P      1.946426   -0.199294    0.501011
  S      1.499270    1.673890    0.833458
  O      2.744568   -0.780448    1.727785
  C      3.344318   -2.100224    1.758634
  C      4.806839   -2.033748    1.369875
  S      0.374009   -1.624191    0.192858
  C     -0.600177   -1.316780    1.682491
  S     -1.485645    0.281562    1.716723
  P     -2.141567    0.422156   -0.282318
  S     -0.963148    0.825264   -1.805878
  O     -3.320801    1.486331   -0.164409
  C     -3.110970    2.893634   -0.361263
  C     -2.259410    3.495824    0.738007
  O     -2.931685   -0.944983   -0.361464
  C     -3.370005   -1.524923   -1.613771
  C     -2.469405   -2.681110   -1.999532
  H      4.325768    1.171018   -2.206784
  H      3.088964    1.443178   -3.449745
  H      2.810284    1.983638   -1.790448
  H      3.054433   -0.933649   -2.695751
  H      1.541458   -0.094881   -2.258705
  H      3.224891   -2.428113    2.792896
  H      2.785866   -2.760690    1.089896
  H      4.908604   -1.703507    0.339855
  H      5.331541   -1.334201    2.014819
  H      5.247401   -3.020168    1.476147
  H      0.047202   -1.310998    2.557881
  H     -1.328598   -2.122687    1.734881
  H     -2.637670    3.041464   -1.337866
  H     -4.118385    3.311657   -0.368135
  H     -2.685040    3.271226    1.713070
  H     -1.247954    3.087462    0.698008
  H     -2.203587    4.571491    0.606193
  H     -4.392659   -1.854571   -1.425069
  H     -3.368044   -0.753126   -2.388400
  H     -1.457985   -2.322710   -2.178069
  H     -2.441531   -3.419076   -1.203226
  H     -2.849202   -3.141025   -2.905964

 Total Charge           Charge          ....    0
 Multiplicity           Mult            ....    1
 Number of Electrons    NEL             ....  202
 Basis Dimension        Dim             ....  334

ORBITAL ENERGIES
----------------

  NO   OCC          E(Eh)            E(eV)
   0   2.0000     -88.042420     -2395.7560
   1   2.0000     -88.034761     -2395.5476
   2   2.0000     -87.979439     -2394.0422
   3   2.0000     -87.976506     -2393.9624
   4   2.0000     -76.423451     -2079.5878
   5   2.0000     -76.421998     -2079.5483
   6   2.0000     -18.792467      -511.3690
   7   2.0000     -18.791388      -511.3397
   8   2.0000     -18.788055      -511.2490
   9   2.0000     -18.784368      -511.1486
  10   2.0000      -9.960280      -271.0330
  11   2.0000      -9.955448      -270.9015
  12   2.0000      -9.950772      -270.7743
  13   2.0000      -9.948916      -270.7238
  14   2.0000      -9.943683      -270.5814
  15   2.0000      -9.885688      -269.0033
  16   2.0000      -9.882000      -268.9029
  17   2.0000      -9.875104      -268.7152
  18   2.0000      -9.875032      -268.7133
  19   2.0000      -7.686730      -209.1665
  20   2.0000      -7.680114      -208.9865
  21   2.0000      -7.624220      -207.4656
  22   2.0000      -7.621499      -207.3915
  23   2.0000      -6.420564      -174.7124
  24   2.0000      -6.419265      -174.6771
  25   2.0000      -5.714582      -155.5017
  26   2.0000      -5.711190      -155.4094
  27   2.0000      -5.708355      -155.3322
  28   2.0000      -5.704738      -155.2338
  29   2.0000      -5.703809      -155.2085
  30   2.0000      -5.696516      -155.0101
  31   2.0000      -5.653093      -153.8285
  32   2.0000      -5.650618      -153.7611
  33   2.0000      -5.644936      -153.6065
  34   2.0000      -5.644332      -153.5901
  35   2.0000      -5.641995      -153.5265
  36   2.0000      -5.641559      -153.5146
  37   2.0000      -4.643617      -126.3592
  38   2.0000      -4.642473      -126.3281
  39   2.0000      -4.641987      -126.3149
  40   2.0000      -4.641099      -126.2907
  41   2.0000      -4.640502      -126.2745
  42   2.0000      -4.639589      -126.2496
  43   2.0000      -0.987267       -26.8649
  44   2.0000      -0.981104       -26.6972
  45   2.0000      -0.944437       -25.6994
  46   2.0000      -0.940674       -25.5970
  47   2.0000      -0.761221       -20.7139
  48   2.0000      -0.717530       -19.5250
  49   2.0000      -0.707316       -19.2470
  50   2.0000      -0.687677       -18.7127
  51   2.0000      -0.680330       -18.5127
  52   2.0000      -0.666865       -18.1463
  53   2.0000      -0.648663       -17.6510
  54   2.0000      -0.635512       -17.2931
  55   2.0000      -0.592056       -16.1107
  56   2.0000      -0.582368       -15.8470
  57   2.0000      -0.572457       -15.5774
  58   2.0000      -0.569776       -15.5044
  59   2.0000      -0.562344       -15.3022
  60   2.0000      -0.505049       -13.7431
  61   2.0000      -0.495645       -13.4872
  62   2.0000      -0.478057       -13.0086
  63   2.0000      -0.464491       -12.6395
  64   2.0000      -0.454686       -12.3726
  65   2.0000      -0.445732       -12.1290
  66   2.0000      -0.435484       -11.8501
  67   2.0000      -0.428680       -11.6650
  68   2.0000      -0.425326       -11.5737
  69   2.0000      -0.413511       -11.2522
  70   2.0000      -0.406712       -11.0672
  71   2.0000      -0.393287       -10.7019
  72   2.0000      -0.390712       -10.6318
  73   2.0000      -0.384632       -10.4664
  74   2.0000      -0.377133       -10.2623
  75   2.0000      -0.371638       -10.1128
  76   2.0000      -0.363727        -9.8975
  77   2.0000      -0.358414        -9.7529
  78   2.0000      -0.351697        -9.5702
  79   2.0000      -0.349705        -9.5159
  80   2.0000      -0.342854        -9.3295
  81   2.0000      -0.341104        -9.2819
  82   2.0000      -0.339786        -9.2460
  83   2.0000      -0.334179        -9.0935
  84   2.0000      -0.328529        -8.9397
  85   2.0000      -0.318502        -8.6669
  86   2.0000      -0.304457        -8.2847
  87   2.0000      -0.294887        -8.0243
  88   2.0000      -0.292593        -7.9619
  89   2.0000      -0.288952        -7.8628
  90   2.0000      -0.281113        -7.6495
  91   2.0000      -0.275054        -7.4846
  92   2.0000      -0.269631        -7.3370
  93   2.0000      -0.257507        -7.0071
  94   2.0000      -0.255622        -6.9558
  95   2.0000      -0.246209        -6.6997
  96   2.0000      -0.220721        -6.0061
  97   2.0000      -0.206768        -5.6265
  98   2.0000      -0.187250        -5.0953
  99   2.0000      -0.182500        -4.9661
 100   2.0000      -0.180295        -4.9061
 101   0.0000      -0.049926        -1.3586
 102   0.0000      -0.027534        -0.7492
 103   0.0000      -0.011237        -0.3058
 104   0.0000      -0.000155        -0.0042
 105   0.0000       0.019869         0.5407

MULLIKEN ATOMIC CHARGES
-----------------------
   0 C :   -0.291212
   1 C :   -0.026292
   2 O :   -0.384960
   3 P :    0.603163
   4 S :   -0.281759
   5 O :   -0.360973
   6 C :   -0.012377
   7 C :   -0.289493
   8 S :   -0.115519
   9 C :   -0.319745
  10 S :   -0.082177
  11 P :    0.617406
  12 S :   -0.330383
  13 O :   -0.370757
  14 C :   -0.000688
  15 C :   -0.341552
  16 O :   -0.375454
  17 C :    0.000767
  18 C :   -0.294446
  19 H :    0.108549
  20 H :    0.106654
  21 H :    0.133519
  22 H :    0.100366
  23 H :    0.132137
  24 H :    0.104881
  25 H :    0.100029
  26 H :    0.123330
  27 H :    0.120329
  28 H :    0.108038
  29 H :    0.180161
  30 H :    0.187813
  31 H :    0.109584
  32 H :    0.101513
  33 H :    0.117951
  34 H :    0.154021
  35 H :    0.112190
  36 H :    0.106099
  37 H :    0.104229
  38 H :    0.130066
  39 H :    0.107260
  40 H :    0.107732
Sum of atomic charges:    0.0000000

LOEWDIN ATOMIC CHARGES
----------------------
   0 C :   -0.360658
   1 C :   -0.118622
   2 O :   -0.246094
   3 P :    0.561874
   4 S :   -0.291030
   5 O :   -0.238214
   6 C :   -0.118035
   7 C :   -0.358989
   8 S :    0.076412
   9 C :   -0.470682
  10 S :    0.093014
  11 P :    0.570060
  12 S :   -0.317092
  13 O :   -0.246737
  14 C :   -0.122259
  15 C :   -0.373476
  16 O :   -0.247684
  17 C :   -0.113682
  18 C :   -0.361332
  19 H :    0.123021
  20 H :    0.128983
  21 H :    0.127785
  22 H :    0.115344
  23 H :    0.107438
  24 H :    0.118258
  25 H :    0.102652
  26 H :    0.126578
  27 H :    0.128948
  28 H :    0.128746
  29 H :    0.133068
  30 H :    0.134948
  31 H :    0.108390
  32 H :    0.116886
  33 H :    0.123624
  34 H :    0.125810
  35 H :    0.131316
  36 H :    0.118129
  37 H :    0.109544
  38 H :    0.123646
  39 H :    0.121480
  40 H :    0.128631

  Mayer bond orders larger than 0.100000
B(  0-C ,  1-C ) :   1.1736 B(  0-C , 19-H ) :   0.9487 B(  0-C , 20-H ) :   0.9390
B(  0-C , 21-H ) :   0.9316 B(  1-C ,  2-O ) :   0.8891 B(  1-C , 22-H ) :   0.9355
B(  1-C , 23-H ) :   0.9020 B(  2-O ,  3-P ) :   1.0867 B(  3-P ,  4-S ) :   1.7020
B(  3-P ,  5-O ) :   1.1192 B(  3-P ,  8-S ) :   0.9247 B(  4-S ,  8-S ) :   0.1166
B(  5-O ,  6-C ) :   0.8946 B(  6-C ,  7-C ) :   1.1675 B(  6-C , 24-H ) :   0.9357
B(  6-C , 25-H ) :   0.9090 B(  7-C , 26-H ) :   0.9420 B(  7-C , 27-H ) :   0.9471
B(  7-C , 28-H ) :   0.9398 B(  8-S ,  9-C ) :   1.0129 B(  9-C , 10-S ) :   0.9844
B(  9-C , 29-H ) :   0.9061 B(  9-C , 30-H ) :   0.9076 B( 10-S , 11-P ) :   0.9819
B( 10-S , 12-S ) :   0.1172 B( 11-P , 12-S ) :   1.5768 B( 11-P , 13-O ) :   1.1122
B( 11-P , 16-O ) :   1.1188 B( 13-O , 14-C ) :   0.9102 B( 14-C , 15-C ) :   1.1630
B( 14-C , 31-H ) :   0.9119 B( 14-C , 32-H ) :   0.9326 B( 15-C , 33-H ) :   0.9438
B( 15-C , 34-H ) :   0.9262 B( 15-C , 35-H ) :   0.9378 B( 16-O , 17-C ) :   0.8897
B( 17-C , 18-C ) :   1.1715 B( 17-C , 36-H ) :   0.9336 B( 17-C , 37-H ) :   0.9101
B( 18-C , 38-H ) :   0.9372 B( 18-C , 39-H ) :   0.9482 B( 18-C , 40-H ) :   0.9400

Dispersion correction           -0.067775219
FINAL SINGLE POINT ENERGY     -2929.511595746874

DIPOLE MOMENT
-------------

Method             : SCF
Type of density    : Electron Density
Multiplicity       :   1
Irrep              :   0
Energy             : -2929.6274217343429882 Eh
Relativity type    :
Basis              : AO
                                X                 Y                 Z
Electronic contribution:     -7.390792104       3.882223483       8.571673717
Nuclear contribution   :      7.345537214      -5.233383239      -8.832205382
                        -----------------------------------------
Total Dipole Moment    :     -0.045254890      -1.351159756      -0.260531666
                        -----------------------------------------
Magnitude (a.u.)       :      1.376792447
Magnitude (Debye)      :      3.499528287

Rotational constants in cm-1:             0.011574             0.005572             0.005271
Rotational constants in MHz :           346.972765           167.054203           158.006808

                             ****ORCA TERMINATED NORMALLY****
TOTAL RUN TIME: 0 days 0 hours 0 minutes 21 seconds 378 msec
