                         Program Version 6.0.1  -  RELEASE   -
|  1> ! pbe def2-sv(p) def2/J RI DEFGRID1 loosescf d4 GCP(DFT/SV(P)) printgap
|  2> %output
|  3>     printlevel normal
|  4> end
|  5> * xyz 0 1
|  6> C 2.976156766 -3.7976951358 0.3007660604
|  7> C 2.7479363641 -2.335321078 0.6246818429
|  8> O 2.3727444137 -1.6648152358 -0.5943060199
|  9> C 2.0949266752 -0.3843019003 -0.5400814784
| 10> O 2.1262116781 0.2896070139 0.4706846
| 11> C 1.7393059797 0.1907690397 -1.8975677827
| 12> C 0.4026975779 0.9348627129 -1.8229406589
| 13> H 0.2854462176 1.5731484228 -2.701352241
| 14> C 0.3126955579 1.7875542942 -0.5725346432
| 15> O -0.5196227145 1.566589444 0.2958405224
| 16> O 1.1407937096 2.7806217216 -0.5881836311
| 17> C 1.2488643679 3.6556239824 0.5597467548
| 18> C 2.6483368351 3.5410043857 1.1368037532
| 19> S -1.0272941118 -0.204024781 -1.8524115884
| 20> P -1.6427244585 -0.4951570185 0.151077726
| 21> S -0.571645834 -1.0430389819 1.7118404114
| 22> O -2.9098196725 0.4249029267 0.500030201
| 23> C -2.9656886596 1.4177155746 1.5215487263
| 24> O -2.4580305487 -1.772685785 -0.4140067184
| 25> C -3.2438089067 -2.6051294597 0.4374125515
| 26> H 3.2655959642 -4.3218630105 1.2052170689
| 27> H 2.0624700637 -4.236341501 -0.0892915516
| 28> H 3.761509805 -3.8964375429 -0.442561365
| 29> H 3.6511277804 -1.8552258078 1.0137867883
| 30> H 1.943678083 -2.1971783074 1.3555695922
| 31> H 1.6837450773 -0.6072449027 -2.6354787134
| 32> H 2.522119947 0.9014351881 -2.1703382051
| 33> H 1.0524124425 4.6599547471 0.1798555681
| 34> H 0.4921418856 3.3705469564 1.2937955185
| 35> H 2.7310964995 4.1840362978 2.0064841895
| 36> H 2.8371711269 2.511653848 1.4330014843
| 37> H 3.3850796326 3.8370826284 0.3965379702
| 38> H -3.964977874 1.3556966966 1.9478147176
| 39> H -2.7929754085 2.3989603193 1.0835492925
| 40> H -2.2123142125 1.2155979042 2.2849714605
| 41> H -3.4258813508 -3.5168681103 -0.1262064284
| 42> H -4.1834856533 -2.1096164628 0.6804908877
| 43> H -2.6939769289 -2.8270683274 1.3552699299
| 44> *
| 45>
| 46>                          ****END OF INPUT****

CARTESIAN COORDINATES (ANGSTROEM)
---------------------------------
  C      2.976157   -3.797695    0.300766
  C      2.747936   -2.335321    0.624682
  O      2.372744   -1.664815   -0.594306
  C      2.094927   -0.384302   -0.540081
  O      2.126212    0.289607    0.470685
  C      1.739306    0.190769   -1.897568
  C      0.402698    0.934863   -1.822941
  H      0.285446    1.573148   -2.701352
  C      0.312696    1.787554   -0.572535
  O     -0.519623    1.566589    0.295841
  O      1.140794    2.780622   -0.588184
  C      1.248864    3.655624    0.559747
  C      2.648337    3.541004    1.136804
  S     -1.027294   -0.204025   -1.852412
  P     -1.642724   -0.495157    0.151078
  S     -0.571646   -1.043039    1.711840
  O     -2.909820    0.424903    0.500030
  C     -2.965689    1.417716    1.521549
  O     -2.458031   -1.772686   -0.414007
  C     -3.243809   -2.605129    0.437413
  H      3.265596   -4.321863    1.205217
  H      2.062470   -4.236342   -0.089292
  H      3.761510   -3.896438   -0.442561
  H      3.651128   -1.855226    1.013787
  H      1.943678   -2.197178    1.355570
  H      1.683745   -0.607245   -2.635479
  H      2.522120    0.901435   -2.170338
  H      1.052412    4.659955    0.179856
  H      0.492142    3.370547    1.293796
  H      2.731096    4.184036    2.006484
  H      2.837171    2.511654    1.433001
  H      3.385080    3.837083    0.396538
  H     -3.964978    1.355697    1.947815
  H     -2.792975    2.398960    1.083549
  H     -2.212314    1.215598    2.284971
  H     -3.425881   -3.516868   -0.126206
  H     -4.183486   -2.109616    0.680491
  H     -2.693977   -2.827068    1.355270

 Total Charge           Charge          ....    0
 Multiplicity           Mult            ....    1
 Number of Electrons    NEL             ....  174
 Basis Dimension        Dim             ....  316

ORBITAL ENERGIES
----------------

  NO   OCC          E(Eh)            E(eV)
   0   2.0000     -88.030155     -2395.4223
   1   2.0000     -87.959365     -2393.4960
   2   2.0000     -76.412461     -2079.2888
   3   2.0000     -18.823783      -512.2212
   4   2.0000     -18.805102      -511.7128
   5   2.0000     -18.771342      -510.7942
   6   2.0000     -18.766158      -510.6531
   7   2.0000     -18.759824      -510.4808
   8   2.0000     -18.740789      -509.9628
   9   2.0000     -10.036232      -273.0997
  10   2.0000     -10.013157      -272.4719
  11   2.0000      -9.957577      -270.9594
  12   2.0000      -9.954165      -270.8666
  13   2.0000      -9.938904      -270.4513
  14   2.0000      -9.926255      -270.1071
  15   2.0000      -9.922038      -269.9924
  16   2.0000      -9.917403      -269.8663
  17   2.0000      -9.887489      -269.0523
  18   2.0000      -9.882269      -268.9102
  19   2.0000      -7.675281      -208.8550
  20   2.0000      -7.604445      -206.9275
  21   2.0000      -6.407152      -174.3475
  22   2.0000      -5.703810      -155.2086
  23   2.0000      -5.699555      -155.0928
  24   2.0000      -5.691784      -154.8813
  25   2.0000      -5.633565      -153.2971
  26   2.0000      -5.625299      -153.0722
  27   2.0000      -5.624090      -153.0393
  28   2.0000      -4.630050      -125.9901
  29   2.0000      -4.629202      -125.9670
  30   2.0000      -4.627706      -125.9263
  31   2.0000      -1.035959       -28.1899
  32   2.0000      -1.012133       -27.5415
  33   2.0000      -0.959992       -26.1227
  34   2.0000      -0.941452       -25.6182
  35   2.0000      -0.918285       -24.9878
  36   2.0000      -0.914277       -24.8787
  37   2.0000      -0.767568       -20.8866
  38   2.0000      -0.716437       -19.4952
  39   2.0000      -0.707785       -19.2598
  40   2.0000      -0.685185       -18.6448
  41   2.0000      -0.648891       -17.6572
  42   2.0000      -0.623089       -16.9551
  43   2.0000      -0.610870       -16.6226
  44   2.0000      -0.607456       -16.5297
  45   2.0000      -0.586704       -15.9650
  46   2.0000      -0.559717       -15.2307
  47   2.0000      -0.515817       -14.0361
  48   2.0000      -0.506454       -13.7813
  49   2.0000      -0.501767       -13.6538
  50   2.0000      -0.490202       -13.3391
  51   2.0000      -0.465622       -12.6702
  52   2.0000      -0.460665       -12.5353
  53   2.0000      -0.446774       -12.1573
  54   2.0000      -0.444832       -12.1045
  55   2.0000      -0.425423       -11.5764
  56   2.0000      -0.421252       -11.4628
  57   2.0000      -0.416483       -11.3331
  58   2.0000      -0.407682       -11.0936
  59   2.0000      -0.403325       -10.9750
  60   2.0000      -0.395709       -10.7678
  61   2.0000      -0.391570       -10.6552
  62   2.0000      -0.381675       -10.3859
  63   2.0000      -0.379038       -10.3142
  64   2.0000      -0.366618        -9.9762
  65   2.0000      -0.364320        -9.9137
  66   2.0000      -0.362108        -9.8535
  67   2.0000      -0.353528        -9.6200
  68   2.0000      -0.345843        -9.4109
  69   2.0000      -0.342437        -9.3182
  70   2.0000      -0.334746        -9.1089
  71   2.0000      -0.330820        -9.0021
  72   2.0000      -0.313424        -8.5287
  73   2.0000      -0.309082        -8.4106
  74   2.0000      -0.298216        -8.1149
  75   2.0000      -0.294626        -8.0172
  76   2.0000      -0.286419        -7.7939
  77   2.0000      -0.281230        -7.6527
  78   2.0000      -0.267704        -7.2846
  79   2.0000      -0.259817        -7.0700
  80   2.0000      -0.255943        -6.9646
  81   2.0000      -0.250110        -6.8058
  82   2.0000      -0.239852        -6.5267
  83   2.0000      -0.227252        -6.1838
  84   2.0000      -0.209511        -5.7011
  85   2.0000      -0.179455        -4.8832
  86   2.0000      -0.172101        -4.6831
  87   0.0000      -0.045514        -1.2385
  88   0.0000      -0.034347        -0.9346
  89   0.0000      -0.027760        -0.7554
  90   0.0000       0.010450         0.2844
  91   0.0000       0.037003         1.0069

MULLIKEN ATOMIC CHARGES
-----------------------
   0 C :   -0.273815
   1 C :   -0.042877
   2 O :   -0.214630
   3 C :    0.102399
   4 O :   -0.202618
   5 C :   -0.022660
   6 C :   -0.310683
   7 H :    0.147826
   8 C :    0.240267
   9 O :   -0.214709
  10 O :   -0.214541
  11 C :   -0.025620
  12 C :   -0.303297
  13 S :   -0.077945
  14 P :    0.666262
  15 S :   -0.347637
  16 O :   -0.395065
  17 C :   -0.085394
  18 O :   -0.409543
  19 C :   -0.091598
  20 H :    0.110596
  21 H :    0.122274
  22 H :    0.108640
  23 H :    0.096750
  24 H :    0.136261
  25 H :    0.118180
  26 H :    0.121963
  27 H :    0.108746
  28 H :    0.127193
  29 H :    0.112228
  30 H :    0.148694
  31 H :    0.109437
  32 H :    0.111703
  33 H :    0.103332
  34 H :    0.116372
  35 H :    0.114196
  36 H :    0.102946
  37 H :    0.106367
Sum of atomic charges:   -0.0000000

LOEWDIN ATOMIC CHARGES
----------------------
   0 C :   -0.350015
   1 C :   -0.111987
   2 O :   -0.042424
   3 C :    0.030132
   4 O :   -0.155091
   5 C :   -0.246095
   6 C :   -0.263029
   7 H :    0.147800
   8 C :    0.035963
   9 O :   -0.147747
  10 O :   -0.028698
  11 C :   -0.102060
  12 C :   -0.355953
  13 S :    0.119201
  14 P :    0.584410
  15 S :   -0.336381
  16 O :   -0.258062
  17 C :   -0.214945
  18 O :   -0.282015
  19 C :   -0.217808
  20 H :    0.130824
  21 H :    0.130318
  22 H :    0.123036
  23 H :    0.113224
  24 H :    0.118893
  25 H :    0.137773
  26 H :    0.146329
  27 H :    0.119331
  28 H :    0.126636
  29 H :    0.130610
  30 H :    0.138780
  31 H :    0.123574
  32 H :    0.113515
  33 H :    0.106896
  34 H :    0.108209
  35 H :    0.116685
  36 H :    0.106795
  37 H :    0.103375

  Mayer bond orders larger than 0.100000
B(  0-C ,  1-C ) :   1.1568 B(  0-C , 20-H ) :   0.9440 B(  0-C , 21-H ) :   0.9488
B(  0-C , 22-H ) :   0.9506 B(  1-C ,  2-O ) :   0.8933 B(  1-C , 23-H ) :   0.9307
B(  1-C , 24-H ) :   0.9095 B(  2-O ,  3-C ) :   1.2760 B(  2-O ,  4-O ) :   0.1019
B(  3-C ,  4-O ) :   1.9348 B(  3-C ,  5-C ) :   1.0063 B(  4-O ,  8-C ) :   0.1108
B(  5-C ,  6-C ) :   1.0177 B(  5-C , 25-H ) :   0.9038 B(  5-C , 26-H ) :   0.8764
B(  6-C ,  7-H ) :   0.8778 B(  6-C ,  8-C ) :   0.9078 B(  6-C , 13-S ) :   1.0430
B(  8-C ,  9-O ) :   1.8460 B(  8-C , 10-O ) :   1.2899 B(  9-O , 14-P ) :   0.1805
B( 10-O , 11-C ) :   0.8862 B( 11-C , 12-C ) :   1.1782 B( 11-C , 27-H ) :   0.9365
B( 11-C , 28-H ) :   0.9095 B( 12-C , 29-H ) :   0.9418 B( 12-C , 30-H ) :   0.9324
B( 12-C , 31-H ) :   0.9498 B( 13-S , 14-P ) :   0.9311 B( 13-S , 15-S ) :   0.1078
B( 14-P , 15-S ) :   1.5644 B( 14-P , 16-O ) :   1.0746 B( 14-P , 18-O ) :   1.0347
B( 16-O , 17-C ) :   0.9383 B( 17-C , 32-H ) :   0.9546 B( 17-C , 33-H ) :   0.9548
B( 17-C , 34-H ) :   0.9314 B( 18-O , 19-C ) :   0.9482 B( 19-C , 35-H ) :   0.9609
B( 19-C , 36-H ) :   0.9518 B( 19-C , 37-H ) :   0.9286

Dispersion correction           -0.053362995
FINAL SINGLE POINT ENERGY     -1979.007222967145

DIPOLE MOMENT
-------------

Method             : SCF
Type of density    : Electron Density
Multiplicity       :   1
Irrep              :   0
Energy             : -1979.1379916011937894 Eh
Relativity type    :
Basis              : AO
                                X                 Y                 Z
Electronic contribution:    -10.469657712       0.092383097      -7.799358196
Nuclear contribution   :     11.267369322       0.915629635       7.436283385
                        -----------------------------------------
Total Dipole Moment    :      0.797711610       1.008012731      -0.363074811
                        -----------------------------------------
Magnitude (a.u.)       :      1.335760756
Magnitude (Debye)      :      3.395234019

Rotational constants in cm-1:             0.010934             0.009410             0.006714
Rotational constants in MHz :           327.807930           282.106247           201.267039

                             ****ORCA TERMINATED NORMALLY****
TOTAL RUN TIME: 0 days 0 hours 0 minutes 36 seconds 470 msec
