                         Program Version 6.0.0  -   RELEASE  -
|  1> ! pbe def2-sv(p) def2/J RI DEFGRID1 loosescf d4 GCP(DFT/SV(P)) printgap
|  2> %output
|  3>     printlevel normal
|  4> end
|  5> * xyz 0 1
|  6> C 2.8392946097 -1.6683244456 -2.545846118
|  7> C 3.0414871498 -0.4845110724 -1.6219331734
|  8> O 2.7394225054 -0.8799606751 -0.2698575005
|  9> P 1.8510347205 -0.0874610918 0.7848314228
| 10> S 1.2453734523 1.6929464147 0.189425535
| 11> O 2.7307372855 -0.0288901034 2.1088298654
| 12> C 3.5880321734 1.0807687509 2.4291261501
| 13> C 4.7725636839 1.1665468064 1.4876081395
| 14> S 0.6019520187 -1.5735978135 1.5811491566
| 15> C -0.2791942244 -2.1739338142 0.0876982202
| 16> S -0.3675978249 -0.9773483572 -1.2660161983
| 17> P -1.9107677449 0.2825952768 -0.5596278923
| 18> S -2.2123772928 1.9504026862 -1.5354867284
| 19> O -1.5253651196 0.3702176008 0.9756361906
| 20> C -1.9560735427 1.4618950655 1.8093175364
| 21> C -3.4535778907 1.446010022 2.0253032512
| 22> O -3.1843597055 -0.677243239 -0.4728283304
| 23> C -4.1122793187 -0.8159226349 -1.5598373719
| 24> C -3.5073881903 -1.5594991525 -2.7339506146
| 25> H 3.1682366474 -1.3952008109 -3.543021517
| 26> H 3.4223574001 -2.5137132284 -2.1925752133
| 27> H 1.7885352131 -1.9452963499 -2.5820626381
| 28> H 2.4007340733 0.3595254344 -1.8992753132
| 29> H 4.0845434516 -0.1586798277 -1.6252767164
| 30> H 2.9972626261 2.001994456 2.3881313505
| 31> H 3.8992578438 0.8841050539 3.4560476581
| 32> H 4.4275916991 1.4255634567 0.4867487957
| 33> H 5.4546462839 1.9364423193 1.8344248605
| 34> H 5.2908794339 0.2117930746 1.4504640838
| 35> H -1.2840769399 -2.4445826401 0.4054940813
| 36> H 0.2578497428 -3.0328418363 -0.3084138984
| 37> H -1.4058711405 1.3088337494 2.7397873918
| 38> H -1.6331781092 2.39949746 1.3439391356
| 39> H -3.9630923004 1.6328599341 1.0805390545
| 40> H -3.7654309698 0.4796717554 2.4127756996
| 41> H -3.7215561681 2.2255739051 2.7313814928
| 42> H -4.9506818007 -1.3605137301 -1.1234511522
| 43> H -4.4346359057 0.1841378441 -1.8670142176
| 44> H -3.1237910439 -2.5261331894 -2.4184089614
| 45> H -4.2673464466 -1.7047416971 -3.494909747
| 46> H -2.6898911581 -0.9770478318 -3.1585507405
| 47> *
| 48>
| 49>                          ****END OF INPUT****

CARTESIAN COORDINATES (ANGSTROEM)
---------------------------------
  C      2.839295   -1.668324   -2.545846
  C      3.041487   -0.484511   -1.621933
  O      2.739423   -0.879961   -0.269858
  P      1.851035   -0.087461    0.784831
  S      1.245373    1.692946    0.189426
  O      2.730737   -0.028890    2.108830
  C      3.588032    1.080769    2.429126
  C      4.772564    1.166547    1.487608
  S      0.601952   -1.573598    1.581149
  C     -0.279194   -2.173934    0.087698
  S     -0.367598   -0.977348   -1.266016
  P     -1.910768    0.282595   -0.559628
  S     -2.212377    1.950403   -1.535487
  O     -1.525365    0.370218    0.975636
  C     -1.956074    1.461895    1.809318
  C     -3.453578    1.446010    2.025303
  O     -3.184360   -0.677243   -0.472828
  C     -4.112279   -0.815923   -1.559837
  C     -3.507388   -1.559499   -2.733951
  H      3.168237   -1.395201   -3.543022
  H      3.422357   -2.513713   -2.192575
  H      1.788535   -1.945296   -2.582063
  H      2.400734    0.359525   -1.899275
  H      4.084543   -0.158680   -1.625277
  H      2.997263    2.001994    2.388131
  H      3.899258    0.884105    3.456048
  H      4.427592    1.425563    0.486749
  H      5.454646    1.936442    1.834425
  H      5.290879    0.211793    1.450464
  H     -1.284077   -2.444583    0.405494
  H      0.257850   -3.032842   -0.308414
  H     -1.405871    1.308834    2.739787
  H     -1.633178    2.399497    1.343939
  H     -3.963092    1.632860    1.080539
  H     -3.765431    0.479672    2.412776
  H     -3.721556    2.225574    2.731381
  H     -4.950682   -1.360514   -1.123451
  H     -4.434636    0.184138   -1.867014
  H     -3.123791   -2.526133   -2.418409
  H     -4.267346   -1.704742   -3.494910
  H     -2.689891   -0.977048   -3.158551

 Total Charge           Charge          ....    0
 Multiplicity           Mult            ....    1
 Number of Electrons    NEL             ....  202
 Basis Dimension        Dim             ....  334

ORBITAL ENERGIES
----------------

  NO   OCC          E(Eh)            E(eV)
   0   2.0000     -88.049034     -2395.9360
   1   2.0000     -88.034965     -2395.5532
   2   2.0000     -87.987309     -2394.2564
   3   2.0000     -87.978542     -2394.0178
   4   2.0000     -76.425485     -2079.6432
   5   2.0000     -76.422011     -2079.5486
   6   2.0000     -18.790389      -511.3125
   7   2.0000     -18.788080      -511.2496
   8   2.0000     -18.783983      -511.1382
   9   2.0000     -18.783265      -511.1186
  10   2.0000      -9.961396      -271.0634
  11   2.0000      -9.951297      -270.7885
  12   2.0000      -9.949285      -270.7338
  13   2.0000      -9.947277      -270.6792
  14   2.0000      -9.943196      -270.5681
  15   2.0000      -9.886169      -269.0163
  16   2.0000      -9.884952      -268.9832
  17   2.0000      -9.882870      -268.9266
  18   2.0000      -9.877995      -268.7939
  19   2.0000      -7.693156      -209.3414
  20   2.0000      -7.680415      -208.9947
  21   2.0000      -7.632422      -207.6888
  22   2.0000      -7.623112      -207.4354
  23   2.0000      -6.422835      -174.7742
  24   2.0000      -6.418817      -174.6649
  25   2.0000      -5.721458      -155.6888
  26   2.0000      -5.717396      -155.5782
  27   2.0000      -5.710009      -155.3772
  28   2.0000      -5.708761      -155.3433
  29   2.0000      -5.704989      -155.2406
  30   2.0000      -5.696758      -155.0167
  31   2.0000      -5.661449      -154.0558
  32   2.0000      -5.653164      -153.8304
  33   2.0000      -5.652382      -153.8091
  34   2.0000      -5.652168      -153.8033
  35   2.0000      -5.643680      -153.5724
  36   2.0000      -5.643232      -153.5601
  37   2.0000      -4.645039      -126.3979
  38   2.0000      -4.644807      -126.3916
  39   2.0000      -4.643498      -126.3560
  40   2.0000      -4.641505      -126.3018
  41   2.0000      -4.640510      -126.2747
  42   2.0000      -4.639388      -126.2442
  43   2.0000      -0.983707       -26.7680
  44   2.0000      -0.978015       -26.6131
  45   2.0000      -0.941524       -25.6202
  46   2.0000      -0.940052       -25.5801
  47   2.0000      -0.764136       -20.7932
  48   2.0000      -0.720457       -19.6046
  49   2.0000      -0.705826       -19.2065
  50   2.0000      -0.686530       -18.6814
  51   2.0000      -0.683358       -18.5951
  52   2.0000      -0.669828       -18.2269
  53   2.0000      -0.650741       -17.7076
  54   2.0000      -0.636506       -17.3202
  55   2.0000      -0.599185       -16.3047
  56   2.0000      -0.591346       -16.0913
  57   2.0000      -0.569800       -15.5050
  58   2.0000      -0.568506       -15.4698
  59   2.0000      -0.563452       -15.3323
  60   2.0000      -0.496689       -13.5156
  61   2.0000      -0.490020       -13.3341
  62   2.0000      -0.474398       -12.9090
  63   2.0000      -0.469183       -12.7671
  64   2.0000      -0.457181       -12.4405
  65   2.0000      -0.439897       -11.9702
  66   2.0000      -0.436960       -11.8903
  67   2.0000      -0.434520       -11.8239
  68   2.0000      -0.423704       -11.5296
  69   2.0000      -0.414341       -11.2748
  70   2.0000      -0.400458       -10.8970
  71   2.0000      -0.394237       -10.7277
  72   2.0000      -0.389950       -10.6111
  73   2.0000      -0.388545       -10.5728
  74   2.0000      -0.387506       -10.5446
  75   2.0000      -0.374343       -10.1864
  76   2.0000      -0.367308        -9.9950
  77   2.0000      -0.356423        -9.6988
  78   2.0000      -0.355511        -9.6740
  79   2.0000      -0.350080        -9.5262
  80   2.0000      -0.345333        -9.3970
  81   2.0000      -0.343570        -9.3490
  82   2.0000      -0.337835        -9.1930
  83   2.0000      -0.334945        -9.1143
  84   2.0000      -0.328082        -8.9276
  85   2.0000      -0.321522        -8.7491
  86   2.0000      -0.315564        -8.5869
  87   2.0000      -0.294543        -8.0149
  88   2.0000      -0.290468        -7.9040
  89   2.0000      -0.285210        -7.7610
  90   2.0000      -0.276428        -7.5220
  91   2.0000      -0.272905        -7.4261
  92   2.0000      -0.268137        -7.2964
  93   2.0000      -0.264447        -7.1960
  94   2.0000      -0.255511        -6.9528
  95   2.0000      -0.232184        -6.3180
  96   2.0000      -0.213742        -5.8162
  97   2.0000      -0.208908        -5.6847
  98   2.0000      -0.202339        -5.5059
  99   2.0000      -0.191756        -5.2179
 100   2.0000      -0.186885        -5.0854
 101   0.0000      -0.053215        -1.4481
 102   0.0000      -0.030535        -0.8309
 103   0.0000      -0.007542        -0.2052
 104   0.0000      -0.000119        -0.0032
 105   0.0000       0.022529         0.6130

MULLIKEN ATOMIC CHARGES
-----------------------
   0 C :   -0.295950
   1 C :   -0.010795
   2 O :   -0.384852
   3 P :    0.627216
   4 S :   -0.320320
   5 O :   -0.381838
   6 C :    0.000760
   7 C :   -0.316934
   8 S :   -0.081989
   9 C :   -0.318593
  10 S :   -0.111682
  11 P :    0.635129
  12 S :   -0.303880
  13 O :   -0.369367
  14 C :    0.001963
  15 C :   -0.303752
  16 O :   -0.377625
  17 C :   -0.007391
  18 C :   -0.306139
  19 H :    0.111446
  20 H :    0.114367
  21 H :    0.122561
  22 H :    0.119259
  23 H :    0.104084
  24 H :    0.110015
  25 H :    0.102894
  26 H :    0.122763
  27 H :    0.112045
  28 H :    0.116733
  29 H :    0.183671
  30 H :    0.183207
  31 H :    0.102204
  32 H :    0.118064
  33 H :    0.119815
  34 H :    0.112181
  35 H :    0.110526
  36 H :    0.103451
  37 H :    0.110512
  38 H :    0.109885
  39 H :    0.112552
  40 H :    0.123803
Sum of atomic charges:    0.0000000

LOEWDIN ATOMIC CHARGES
----------------------
   0 C :   -0.356956
   1 C :   -0.120669
   2 O :   -0.252595
   3 P :    0.559119
   4 S :   -0.309439
   5 O :   -0.252483
   6 C :   -0.119127
   7 C :   -0.365907
   8 S :    0.090687
   9 C :   -0.468445
  10 S :    0.113546
  11 P :    0.575688
  12 S :   -0.303083
  13 O :   -0.237377
  14 C :   -0.116080
  15 C :   -0.366061
  16 O :   -0.250142
  17 C :   -0.122496
  18 C :   -0.367346
  19 H :    0.131560
  20 H :    0.125539
  21 H :    0.114044
  22 H :    0.108967
  23 H :    0.112831
  24 H :    0.109070
  25 H :    0.117835
  26 H :    0.120880
  27 H :    0.130527
  28 H :    0.125654
  29 H :    0.133645
  30 H :    0.135349
  31 H :    0.117900
  32 H :    0.112307
  33 H :    0.120324
  34 H :    0.124350
  35 H :    0.129744
  36 H :    0.117485
  37 H :    0.109325
  38 H :    0.121424
  39 H :    0.130469
  40 H :    0.119934

  Mayer bond orders larger than 0.100000
B(  0-C ,  1-C ) :   1.1624 B(  0-C , 19-H ) :   0.9402 B(  0-C , 20-H ) :   0.9475
B(  0-C , 21-H ) :   0.9404 B(  1-C ,  2-O ) :   0.9025 B(  1-C , 22-H ) :   0.9024
B(  1-C , 23-H ) :   0.9292 B(  2-O ,  3-P ) :   1.0973 B(  3-P ,  4-S ) :   1.5785
B(  3-P ,  5-O ) :   1.1054 B(  3-P ,  8-S ) :   0.9848 B(  4-S ,  8-S ) :   0.1127
B(  5-O ,  6-C ) :   0.9168 B(  6-C ,  7-C ) :   1.1616 B(  6-C , 24-H ) :   0.9131
B(  6-C , 25-H ) :   0.9341 B(  7-C , 26-H ) :   0.9321 B(  7-C , 27-H ) :   0.9387
B(  7-C , 28-H ) :   0.9465 B(  8-S ,  9-C ) :   0.9706 B(  9-C , 10-S ) :   1.0071
B(  9-C , 29-H ) :   0.9035 B(  9-C , 30-H ) :   0.9095 B( 10-S , 11-P ) :   0.9341
B( 11-P , 12-S ) :   1.6433 B( 11-P , 13-O ) :   1.1245 B( 11-P , 16-O ) :   1.0703
B( 13-O , 14-C ) :   0.8959 B( 14-C , 15-C ) :   1.1608 B( 14-C , 31-H ) :   0.9328
B( 14-C , 32-H ) :   0.9184 B( 15-C , 33-H ) :   0.9352 B( 15-C , 34-H ) :   0.9453
B( 15-C , 35-H ) :   0.9395 B( 16-O , 17-C ) :   0.9153 B( 17-C , 18-C ) :   1.1654
B( 17-C , 36-H ) :   0.9339 B( 17-C , 37-H ) :   0.9132 B( 18-C , 38-H ) :   0.9462
B( 18-C , 39-H ) :   0.9385 B( 18-C , 40-H ) :   0.9360

Dispersion correction           -0.068983329
FINAL SINGLE POINT ENERGY     -2929.512900053908

DIPOLE MOMENT
-------------

Method             : SCF
Type of density    : Electron Density
Multiplicity       :   1
Irrep              :   0
Energy             : -2929.6292053334659613 Eh
Relativity type    :
Basis              : AO
                                X                 Y                 Z
Electronic contribution:     -1.817020108       2.006031700       3.854343655
Nuclear contribution   :      1.917474711      -3.046709597      -3.779829465
                        -----------------------------------------
Total Dipole Moment    :      0.100454603      -1.040677896       0.074514190
                        -----------------------------------------
Magnitude (a.u.)       :      1.048166960
Magnitude (Debye)      :      2.664228682

Rotational constants in cm-1:             0.012452             0.005729             0.005047
Rotational constants in MHz :           373.296085           171.751592           151.294264

                             ****ORCA TERMINATED NORMALLY****
TOTAL RUN TIME: 0 days 0 hours 0 minutes 21 seconds 558 msec
