                         Program Version 6.0.0  -   RELEASE  -
|  1> ! pbe def2-sv(p) def2/J RI DEFGRID1 loosescf d4 GCP(DFT/SV(P)) printgap
|  2> %output
|  3>     printlevel normal
|  4> end
|  5> * xyz 0 1
|  6> C 4.2477591337 -0.7669819435 -2.3888974288
|  7> C 4.4662045008 -1.2725817641 -0.9774539269
|  8> O 3.2267751819 -1.502019295 -0.2854359779
|  9> P 2.2599377057 -0.3167566344 0.1434795368
| 10> S 3.1545565314 1.3117531659 0.7779889214
| 11> O 1.3071875606 -1.0388192214 1.1843730349
| 12> C 1.5789435783 -1.0170493279 2.6030559118
| 13> C 2.8186942228 -1.813281809 2.9512286768
| 14> S 0.9282983589 -0.1089706329 -1.4858886811
| 15> C 0.2508159024 1.4948235542 -0.9762577514
| 16> S -0.7899880764 1.3886704923 0.4948739182
| 17> P -2.3722693695 0.2859064734 -0.432848377
| 18> S -2.7065422134 0.6991571559 -2.3136173136
| 19> O -3.5606507514 0.4486353222 0.608896225
| 20> C -4.0293481449 1.6993419545 1.1486736953
| 21> C -4.3914461462 2.7041471485 0.0757286055
| 22> O -2.0190456455 -1.2429419562 -0.2839384622
| 23> C -1.8300220089 -1.9027307948 0.9898099501
| 24> C -3.0626695897 -2.7036768354 1.3552257689
| 25> H 3.5731561462 -1.4278494264 -2.9278421472
| 26> H 3.8119845033 0.2312363238 -2.3646617515
| 27> H 5.2002052647 -0.7223546726 -2.9072597239
| 28> H 5.0562531133 -0.5533390338 -0.4001784783
| 29> H 4.955430657 -2.2474722842 -0.9697216055
| 30> H 1.6855718596 0.0261567918 2.9171087506
| 31> H 0.6826441792 -1.4493797376 3.0494627379
| 32> H 2.7431720217 -2.8214053328 2.5522806645
| 33> H 3.6991766033 -1.332104791 2.5270855551
| 34> H 2.9269569152 -1.8568137685 4.030415149
| 35> H -0.3450121673 1.8574264681 -1.8142695728
| 36> H 1.0662230358 2.1771352817 -0.7358898379
| 37> H -4.9029968047 1.4129235481 1.7369136115
| 38> H -3.2521444717 2.09915295 1.8060544945
| 39> H -5.1083478559 2.2749214873 -0.6202393564
| 40> H -4.8218759027 3.5863452456 0.5385480123
| 41> H -3.503187688 2.9941899667 -0.4836939038
| 42> H -0.9593549171 -2.5455695051 0.843591457
| 43> H -1.6055755174 -1.148890594 1.7499593326
| 44> H -2.8822045906 -3.2342519338 2.284827843
| 45> H -3.9162846759 -2.041825312 1.4763595731
| 46> H -3.2850946882 -3.4197734023 0.5690552512
| 47> *
| 48>
| 49>                          ****END OF INPUT****

CARTESIAN COORDINATES (ANGSTROEM)
---------------------------------
  C      4.247759   -0.766982   -2.388897
  C      4.466205   -1.272582   -0.977454
  O      3.226775   -1.502019   -0.285436
  P      2.259938   -0.316757    0.143480
  S      3.154557    1.311753    0.777989
  O      1.307188   -1.038819    1.184373
  C      1.578944   -1.017049    2.603056
  C      2.818694   -1.813282    2.951229
  S      0.928298   -0.108971   -1.485889
  C      0.250816    1.494824   -0.976258
  S     -0.789988    1.388670    0.494874
  P     -2.372269    0.285906   -0.432848
  S     -2.706542    0.699157   -2.313617
  O     -3.560651    0.448635    0.608896
  C     -4.029348    1.699342    1.148674
  C     -4.391446    2.704147    0.075729
  O     -2.019046   -1.242942   -0.283938
  C     -1.830022   -1.902731    0.989810
  C     -3.062670   -2.703677    1.355226
  H      3.573156   -1.427849   -2.927842
  H      3.811985    0.231236   -2.364662
  H      5.200205   -0.722355   -2.907260
  H      5.056253   -0.553339   -0.400178
  H      4.955431   -2.247472   -0.969722
  H      1.685572    0.026157    2.917109
  H      0.682644   -1.449380    3.049463
  H      2.743172   -2.821405    2.552281
  H      3.699177   -1.332105    2.527086
  H      2.926957   -1.856814    4.030415
  H     -0.345012    1.857426   -1.814270
  H      1.066223    2.177135   -0.735890
  H     -4.902997    1.412924    1.736914
  H     -3.252144    2.099153    1.806054
  H     -5.108348    2.274921   -0.620239
  H     -4.821876    3.586345    0.538548
  H     -3.503188    2.994190   -0.483694
  H     -0.959355   -2.545570    0.843591
  H     -1.605576   -1.148891    1.749959
  H     -2.882205   -3.234252    2.284828
  H     -3.916285   -2.041825    1.476360
  H     -3.285095   -3.419773    0.569055

 Total Charge           Charge          ....    0
 Multiplicity           Mult            ....    1
 Number of Electrons    NEL             ....  202
 Basis Dimension        Dim             ....  334

ORBITAL ENERGIES
----------------

  NO   OCC          E(Eh)            E(eV)
   0   2.0000     -88.041942     -2395.7430
   1   2.0000     -88.041517     -2395.7315
   2   2.0000     -87.992791     -2394.4056
   3   2.0000     -87.981967     -2394.1110
   4   2.0000     -76.428757     -2079.7322
   5   2.0000     -76.425329     -2079.6389
   6   2.0000     -18.797538      -511.5070
   7   2.0000     -18.797052      -511.4938
   8   2.0000     -18.793538      -511.3982
   9   2.0000     -18.787022      -511.2209
  10   2.0000      -9.960555      -271.0405
  11   2.0000      -9.955499      -270.9029
  12   2.0000      -9.955271      -270.8967
  13   2.0000      -9.951783      -270.8018
  14   2.0000      -9.951056      -270.7820
  15   2.0000      -9.887787      -269.0604
  16   2.0000      -9.885180      -268.9894
  17   2.0000      -9.884484      -268.9705
  18   2.0000      -9.883952      -268.9560
  19   2.0000      -7.686701      -209.1658
  20   2.0000      -7.686610      -209.1633
  21   2.0000      -7.637669      -207.8316
  22   2.0000      -7.627334      -207.5503
  23   2.0000      -6.426481      -174.8734
  24   2.0000      -6.422493      -174.7649
  25   2.0000      -5.714435      -155.4977
  26   2.0000      -5.714331      -155.4949
  27   2.0000      -5.711309      -155.4126
  28   2.0000      -5.711258      -155.4112
  29   2.0000      -5.703941      -155.2121
  30   2.0000      -5.703424      -155.1980
  31   2.0000      -5.666371      -154.1898
  32   2.0000      -5.658357      -153.9717
  33   2.0000      -5.658014      -153.9624
  34   2.0000      -5.656414      -153.9188
  35   2.0000      -5.647836      -153.6854
  36   2.0000      -5.647393      -153.6734
  37   2.0000      -4.648903      -126.5031
  38   2.0000      -4.648211      -126.4843
  39   2.0000      -4.647066      -126.4531
  40   2.0000      -4.645416      -126.4082
  41   2.0000      -4.644461      -126.3822
  42   2.0000      -4.642500      -126.3288
  43   2.0000      -0.990520       -26.9534
  44   2.0000      -0.988709       -26.9041
  45   2.0000      -0.949709       -25.8429
  46   2.0000      -0.944131       -25.6911
  47   2.0000      -0.764520       -20.8036
  48   2.0000      -0.721693       -19.6383
  49   2.0000      -0.710466       -19.3328
  50   2.0000      -0.691310       -18.8115
  51   2.0000      -0.689954       -18.7746
  52   2.0000      -0.676273       -18.4023
  53   2.0000      -0.652063       -17.7435
  54   2.0000      -0.639418       -17.3994
  55   2.0000      -0.604078       -16.4378
  56   2.0000      -0.590089       -16.0571
  57   2.0000      -0.575602       -15.6629
  58   2.0000      -0.572817       -15.5871
  59   2.0000      -0.564016       -15.3477
  60   2.0000      -0.504354       -13.7242
  61   2.0000      -0.494129       -13.4459
  62   2.0000      -0.476435       -12.9645
  63   2.0000      -0.474159       -12.9025
  64   2.0000      -0.460119       -12.5205
  65   2.0000      -0.448395       -12.2014
  66   2.0000      -0.442585       -12.0434
  67   2.0000      -0.434681       -11.8283
  68   2.0000      -0.433246       -11.7892
  69   2.0000      -0.415434       -11.3045
  70   2.0000      -0.410660       -11.1746
  71   2.0000      -0.399022       -10.8579
  72   2.0000      -0.398125       -10.8335
  73   2.0000      -0.388876       -10.5819
  74   2.0000      -0.383692       -10.4408
  75   2.0000      -0.375534       -10.2188
  76   2.0000      -0.365263        -9.9393
  77   2.0000      -0.357275        -9.7220
  78   2.0000      -0.355489        -9.6733
  79   2.0000      -0.351833        -9.5739
  80   2.0000      -0.348708        -9.4888
  81   2.0000      -0.346661        -9.4331
  82   2.0000      -0.344737        -9.3808
  83   2.0000      -0.338582        -9.2133
  84   2.0000      -0.337475        -9.1832
  85   2.0000      -0.323988        -8.8162
  86   2.0000      -0.313451        -8.5294
  87   2.0000      -0.298759        -8.1296
  88   2.0000      -0.297965        -8.1080
  89   2.0000      -0.289573        -7.8797
  90   2.0000      -0.286026        -7.7832
  91   2.0000      -0.280043        -7.6204
  92   2.0000      -0.274981        -7.4826
  93   2.0000      -0.267134        -7.2691
  94   2.0000      -0.257883        -7.0174
  95   2.0000      -0.233763        -6.3610
  96   2.0000      -0.218819        -5.9544
  97   2.0000      -0.214776        -5.8444
  98   2.0000      -0.206733        -5.6255
  99   2.0000      -0.199268        -5.4224
 100   2.0000      -0.197149        -5.3647
 101   0.0000      -0.044157        -1.2016
 102   0.0000      -0.024049        -0.6544
 103   0.0000      -0.004787        -0.1303
 104   0.0000       0.000377         0.0103
 105   0.0000       0.011980         0.3260

MULLIKEN ATOMIC CHARGES
-----------------------
   0 C :   -0.316100
   1 C :   -0.006094
   2 O :   -0.371182
   3 P :    0.609733
   4 S :   -0.339112
   5 O :   -0.359952
   6 C :   -0.008433
   7 C :   -0.304067
   8 S :   -0.052284
   9 C :   -0.370542
  10 S :   -0.105600
  11 P :    0.597898
  12 S :   -0.309460
  13 O :   -0.381578
  14 C :   -0.010495
  15 C :   -0.308930
  16 O :   -0.344831
  17 C :   -0.021183
  18 C :   -0.281698
  19 H :    0.121884
  20 H :    0.127673
  21 H :    0.114265
  22 H :    0.111265
  23 H :    0.106798
  24 H :    0.114264
  25 H :    0.101723
  26 H :    0.116874
  27 H :    0.123571
  28 H :    0.112381
  29 H :    0.195133
  30 H :    0.191758
  31 H :    0.108394
  32 H :    0.113145
  33 H :    0.127791
  34 H :    0.111608
  35 H :    0.126093
  36 H :    0.117037
  37 H :    0.099824
  38 H :    0.104772
  39 H :    0.117097
  40 H :    0.120562
Sum of atomic charges:    0.0000000

LOEWDIN ATOMIC CHARGES
----------------------
   0 C :   -0.369190
   1 C :   -0.119106
   2 O :   -0.242752
   3 P :    0.574349
   4 S :   -0.324736
   5 O :   -0.238074
   6 C :   -0.117639
   7 C :   -0.364784
   8 S :    0.107042
   9 C :   -0.486990
  10 S :    0.063443
  11 P :    0.569012
  12 S :   -0.305015
  13 O :   -0.246012
  14 C :   -0.115109
  15 C :   -0.368960
  16 O :   -0.228628
  17 C :   -0.115927
  18 C :   -0.357968
  19 H :    0.126289
  20 H :    0.121734
  21 H :    0.131781
  22 H :    0.110457
  23 H :    0.119423
  24 H :    0.111670
  25 H :    0.113770
  26 H :    0.126545
  27 H :    0.122838
  28 H :    0.130681
  29 H :    0.129208
  30 H :    0.128191
  31 H :    0.120569
  32 H :    0.108200
  33 H :    0.130911
  34 H :    0.130344
  35 H :    0.121644
  36 H :    0.120221
  37 H :    0.101179
  38 H :    0.126861
  39 H :    0.125263
  40 H :    0.129264

  Mayer bond orders larger than 0.100000
B(  0-C ,  1-C ) :   1.1664 B(  0-C , 19-H ) :   0.9444 B(  0-C , 20-H ) :   0.9354
B(  0-C , 21-H ) :   0.9376 B(  1-C ,  2-O ) :   0.9063 B(  1-C , 22-H ) :   0.9163
B(  1-C , 23-H ) :   0.9336 B(  2-O ,  3-P ) :   1.1117 B(  3-P ,  4-S ) :   1.5829
B(  3-P ,  5-O ) :   1.1177 B(  3-P ,  8-S ) :   0.9692 B(  4-S ,  8-S ) :   0.1099
B(  5-O ,  6-C ) :   0.9051 B(  6-C ,  7-C ) :   1.1650 B(  6-C , 24-H ) :   0.9168
B(  6-C , 25-H ) :   0.9296 B(  7-C , 26-H ) :   0.9458 B(  7-C , 27-H ) :   0.9354
B(  7-C , 28-H ) :   0.9386 B(  8-S ,  9-C ) :   1.0068 B(  9-C , 10-S ) :   1.0070
B(  9-C , 29-H ) :   0.8730 B(  9-C , 30-H ) :   0.8760 B( 10-S , 11-P ) :   0.9363
B( 10-S , 12-S ) :   0.1107 B( 11-P , 12-S ) :   1.6460 B( 11-P , 13-O ) :   1.0776
B( 11-P , 16-O ) :   1.1423 B( 13-O , 14-C ) :   0.9116 B( 14-C , 15-C ) :   1.1681
B( 14-C , 31-H ) :   0.9330 B( 14-C , 32-H ) :   0.9258 B( 15-C , 33-H ) :   0.9429
B( 15-C , 34-H ) :   0.9346 B( 15-C , 35-H ) :   0.9322 B( 16-O , 17-C ) :   0.8933
B( 17-C , 18-C ) :   1.1562 B( 17-C , 36-H ) :   0.9303 B( 17-C , 37-H ) :   0.9116
B( 18-C , 38-H ) :   0.9414 B( 18-C , 39-H ) :   0.9433 B( 18-C , 40-H ) :   0.9467

Dispersion correction           -0.066084877
FINAL SINGLE POINT ENERGY     -2929.522927509831

DIPOLE MOMENT
-------------

Method             : SCF
Type of density    : Electron Density
Multiplicity       :   1
Irrep              :   0
Energy             : -2929.6424801029866103 Eh
Relativity type    :
Basis              : AO
                                X                 Y                 Z
Electronic contribution:     -0.636207778       7.191081921     -10.970751673
Nuclear contribution   :      0.835985544      -7.755248269      12.412742977
                        -----------------------------------------
Total Dipole Moment    :      0.199777766      -0.564166348       1.441991305
                        -----------------------------------------
Magnitude (a.u.)       :      1.561260307
Magnitude (Debye)      :      3.968408326

Rotational constants in cm-1:             0.012727             0.004917             0.004523
Rotational constants in MHz :           381.542901           147.408954           135.589135

                             ****ORCA TERMINATED NORMALLY****
TOTAL RUN TIME: 0 days 0 hours 0 minutes 21 seconds 88 msec
