                         Program Version 6.0.1  -  RELEASE   -
|  1> ! r2scan-3c def2/J RI DEFGRID2 scfconv6 printgap
|  2> %output
|  3>     printlevel normal
|  4> end
|  5> * xyz 0 1
|  6> C 5.1270305879 -2.9806019275 -0.9086939014
|  7> C 4.5260540107 -1.8838900553 -0.0434473511
|  8> O 3.0869779947 -1.9125537645 -0.0929775892
|  9> C 2.4840283626 -1.2834175705 -1.0786338278
| 10> O 3.0483922262 -0.6921567887 -1.9746753034
| 11> C 0.9739278028 -1.4146089531 -0.9817702166
| 12> C 0.3568147535 -0.0599451671 -1.3040056538
| 13> H 0.7127809165 0.2603091793 -2.2918534341
| 14> C 0.8345077664 1.0005156923 -0.3290387404
| 15> O 1.9095088373 0.9292085111 0.22029739
| 16> O 0.007603527 2.0247686378 -0.2488087282
| 17> C 0.4361624028 3.1872051504 0.4940599988
| 18> C 0.219910016 3.0333168738 1.9890994043
| 19> S -1.4498283848 -0.1075225424 -1.4675408588
| 20> P -2.0524603972 0.1048672108 0.5614913052
| 21> S -0.7847598822 -0.4499790988 1.9481014252
| 22> O -2.5891586233 1.5748098906 0.7712327273
| 23> C -3.5734256878 2.1622571388 -0.1037840227
| 24> O -3.4330915845 -0.7038250652 0.5658689484
| 25> C -3.4606232899 -2.131193988 0.4538435673
| 26> H 4.7365838144 -3.9488765422 -0.6080719583
| 27> H 4.8828429109 -2.806247796 -1.9539616243
| 28> H 6.2057132247 -2.9763577932 -0.7927023592
| 29> H 4.8616365423 -0.8963967674 -0.3731806421
| 30> H 4.7621071597 -2.0304998733 1.0105993649
| 31> H 0.7139337895 -1.7472715731 0.0237547759
| 32> H 0.6399570464 -2.15125986 -1.7139700756
| 33> H 1.4955566474 3.3499108905 0.2759082379
| 34> H -0.169948039 3.9952634773 0.0843155117
| 35> H 0.8258792969 2.2162229495 2.3757173237
| 36> H 0.5090299425 3.9535361525 2.4856059477
| 37> H -0.8245884641 2.8195707397 2.2023860827
| 38> H -3.2085984299 2.152444347 -1.1307009493
| 39> H -3.6980837175 3.1815490993 0.251923394
| 40> H -4.5082127907 1.6101814604 -0.0328901205
| 41> H -3.2183267785 -2.4265885076 -0.5665882824
| 42> H -4.4759775667 -2.4249319233 0.7074347147
| 43> H -2.7504641541 -2.5765266265 1.1521990368
| 44> *
| 45>
| 46>                          ****END OF INPUT****

CARTESIAN COORDINATES (ANGSTROEM)
---------------------------------
  C      5.127031   -2.980602   -0.908694
  C      4.526054   -1.883890   -0.043447
  O      3.086978   -1.912554   -0.092978
  C      2.484028   -1.283418   -1.078634
  O      3.048392   -0.692157   -1.974675
  C      0.973928   -1.414609   -0.981770
  C      0.356815   -0.059945   -1.304006
  H      0.712781    0.260309   -2.291853
  C      0.834508    1.000516   -0.329039
  O      1.909509    0.929209    0.220297
  O      0.007604    2.024769   -0.248809
  C      0.436162    3.187205    0.494060
  C      0.219910    3.033317    1.989099
  S     -1.449828   -0.107523   -1.467541
  P     -2.052460    0.104867    0.561491
  S     -0.784760   -0.449979    1.948101
  O     -2.589159    1.574810    0.771233
  C     -3.573426    2.162257   -0.103784
  O     -3.433092   -0.703825    0.565869
  C     -3.460623   -2.131194    0.453844
  H      4.736584   -3.948877   -0.608072
  H      4.882843   -2.806248   -1.953962
  H      6.205713   -2.976358   -0.792702
  H      4.861637   -0.896397   -0.373181
  H      4.762107   -2.030500    1.010599
  H      0.713934   -1.747272    0.023755
  H      0.639957   -2.151260   -1.713970
  H      1.495557    3.349911    0.275908
  H     -0.169948    3.995263    0.084316
  H      0.825879    2.216223    2.375717
  H      0.509030    3.953536    2.485606
  H     -0.824588    2.819571    2.202386
  H     -3.208598    2.152444   -1.130701
  H     -3.698084    3.181549    0.251923
  H     -4.508213    1.610181   -0.032890
  H     -3.218327   -2.426589   -0.566588
  H     -4.475978   -2.424932    0.707435
  H     -2.750464   -2.576527    1.152199

 Total Charge           Charge          ....    0
 Multiplicity           Mult            ....    1
 Number of Electrons    NEL             ....  174
 Basis Dimension        Dim             ....  510

ORBITAL ENERGIES
----------------

  NO   OCC          E(Eh)            E(eV)
   0   2.0000     -88.579566     -2410.3725
   1   2.0000     -88.523160     -2408.8376
   2   2.0000     -76.918875     -2093.0690
   3   2.0000     -19.002324      -517.0795
   4   2.0000     -18.999324      -516.9979
   5   2.0000     -18.996838      -516.9302
   6   2.0000     -18.989390      -516.7276
   7   2.0000     -18.936164      -515.2792
   8   2.0000     -18.919667      -514.8303
   9   2.0000     -10.164098      -276.5792
  10   2.0000     -10.148707      -276.1603
  11   2.0000     -10.101968      -274.8885
  12   2.0000     -10.097543      -274.7681
  13   2.0000     -10.096338      -274.7353
  14   2.0000     -10.092148      -274.6213
  15   2.0000     -10.083343      -274.3817
  16   2.0000     -10.047167      -273.3973
  17   2.0000     -10.022385      -272.7230
  18   2.0000     -10.017207      -272.5821
  19   2.0000      -7.873883      -214.2593
  20   2.0000      -7.817872      -212.7351
  21   2.0000      -6.597085      -179.5158
  22   2.0000      -5.820837      -158.3930
  23   2.0000      -5.817606      -158.3051
  24   2.0000      -5.811044      -158.1265
  25   2.0000      -5.765768      -156.8945
  26   2.0000      -5.757966      -156.6822
  27   2.0000      -5.757828      -156.6785
  28   2.0000      -4.742834      -129.0591
  29   2.0000      -4.742129      -129.0399
  30   2.0000      -4.740549      -128.9969
  31   2.0000      -1.080660       -29.4062
  32   2.0000      -1.065962       -29.0063
  33   2.0000      -1.056391       -28.7459
  34   2.0000      -1.014384       -27.6028
  35   2.0000      -0.986645       -26.8480
  36   2.0000      -0.969800       -26.3896
  37   2.0000      -0.809527       -22.0283
  38   2.0000      -0.747581       -20.3427
  39   2.0000      -0.740018       -20.1369
  40   2.0000      -0.730806       -19.8862
  41   2.0000      -0.696124       -18.9425
  42   2.0000      -0.681586       -18.5469
  43   2.0000      -0.663181       -18.0461
  44   2.0000      -0.648848       -17.6560
  45   2.0000      -0.624589       -16.9959
  46   2.0000      -0.593480       -16.1494
  47   2.0000      -0.547262       -14.8917
  48   2.0000      -0.522780       -14.2256
  49   2.0000      -0.516811       -14.0631
  50   2.0000      -0.501077       -13.6350
  51   2.0000      -0.498857       -13.5746
  52   2.0000      -0.477687       -12.9985
  53   2.0000      -0.458865       -12.4863
  54   2.0000      -0.457808       -12.4576
  55   2.0000      -0.452359       -12.3093
  56   2.0000      -0.443769       -12.0756
  57   2.0000      -0.438480       -11.9316
  58   2.0000      -0.433774       -11.8036
  59   2.0000      -0.431746       -11.7484
  60   2.0000      -0.423986       -11.5372
  61   2.0000      -0.414241       -11.2721
  62   2.0000      -0.408933       -11.1276
  63   2.0000      -0.402842       -10.9619
  64   2.0000      -0.384538       -10.4638
  65   2.0000      -0.378910       -10.3107
  66   2.0000      -0.369679       -10.0595
  67   2.0000      -0.364379        -9.9153
  68   2.0000      -0.355206        -9.6656
  69   2.0000      -0.352424        -9.5899
  70   2.0000      -0.341964        -9.3053
  71   2.0000      -0.336261        -9.1501
  72   2.0000      -0.332988        -9.0611
  73   2.0000      -0.330029        -8.9805
  74   2.0000      -0.325109        -8.8467
  75   2.0000      -0.319875        -8.7042
  76   2.0000      -0.310067        -8.4374
  77   2.0000      -0.299966        -8.1625
  78   2.0000      -0.291542        -7.9332
  79   2.0000      -0.283982        -7.7275
  80   2.0000      -0.276365        -7.5203
  81   2.0000      -0.262395        -7.1401
  82   2.0000      -0.256620        -6.9830
  83   2.0000      -0.237179        -6.4540
  84   2.0000      -0.227462        -6.1895
  85   2.0000      -0.220763        -6.0073
  86   2.0000      -0.217645        -5.9224
  87   0.0000      -0.043913        -1.1949
  88   0.0000      -0.030909        -0.8411
  89   0.0000      -0.002208        -0.0601
  90   0.0000       0.005737         0.1561
  91   0.0000       0.007604         0.2069

MULLIKEN ATOMIC CHARGES
-----------------------
   0 C :   -0.474660
   1 C :   -0.138825
   2 O :   -0.152959
   3 C :    0.367455
   4 O :   -0.416390
   5 C :   -0.451510
   6 C :    0.060678
   7 H :    0.218764
   8 C :    0.212429
   9 O :   -0.368019
  10 O :   -0.139342
  11 C :   -0.110957
  12 C :   -0.500520
  13 S :   -0.186305
  14 P :    0.739204
  15 S :   -0.408620
  16 O :   -0.301541
  17 C :   -0.295922
  18 O :   -0.345055
  19 C :   -0.297494
  20 H :    0.150612
  21 H :    0.174413
  22 H :    0.146023
  23 H :    0.172029
  24 H :    0.150307
  25 H :    0.216272
  26 H :    0.183667
  27 H :    0.161610
  28 H :    0.145116
  29 H :    0.189676
  30 H :    0.143445
  31 H :    0.171128
  32 H :    0.172276
  33 H :    0.156616
  34 H :    0.169211
  35 H :    0.159105
  36 H :    0.153164
  37 H :    0.174920
Sum of atomic charges:   -0.0000000

LOEWDIN ATOMIC CHARGES
----------------------
   0 C :   -0.391856
   1 C :    0.031333
   2 O :   -0.573479
   3 C :    0.356996
   4 O :   -0.441672
   5 C :   -0.213373
   6 C :   -0.198257
   7 H :    0.218246
   8 C :    0.346083
   9 O :   -0.404270
  10 O :   -0.611829
  11 C :    0.035797
  12 C :   -0.397508
  13 S :    0.196439
  14 P :    0.396086
  15 S :   -0.050611
  16 O :   -0.658105
  17 C :   -0.051110
  18 O :   -0.683474
  19 C :   -0.058810
  20 H :    0.156529
  21 H :    0.165407
  22 H :    0.158422
  23 H :    0.190074
  24 H :    0.179324
  25 H :    0.200899
  26 H :    0.184544
  27 H :    0.188443
  28 H :    0.178714
  29 H :    0.172726
  30 H :    0.155859
  31 H :    0.168438
  32 H :    0.175122
  33 H :    0.179825
  34 H :    0.174861
  35 H :    0.169357
  36 H :    0.177917
  37 H :    0.176909

  Mayer bond orders larger than 0.100000
B(  0-C ,  1-C ) :   0.9289 B(  0-C , 20-H ) :   0.9730 B(  0-C , 21-H ) :   0.9728
B(  0-C , 22-H ) :   0.9657 B(  1-C ,  2-O ) :   0.8137 B(  1-C , 23-H ) :   0.9750
B(  1-C , 24-H ) :   0.9615 B(  2-O ,  3-C ) :   1.0999 B(  3-C ,  4-O ) :   1.8631
B(  3-C ,  5-C ) :   0.8371 B(  5-C ,  6-C ) :   0.8779 B(  5-C , 25-H ) :   0.9889
B(  5-C , 26-H ) :   0.9529 B(  6-C ,  7-H ) :   0.8826 B(  6-C ,  8-C ) :   0.9614
B(  6-C , 13-S ) :   0.8311 B(  8-C ,  9-O ) :   1.8166 B(  8-C , 10-O ) :   1.1036
B( 10-O , 11-C ) :   0.7877 B( 11-C , 12-C ) :   0.9207 B( 11-C , 27-H ) :   0.9669
B( 11-C , 28-H ) :   0.9634 B( 12-C , 29-H ) :   0.9675 B( 12-C , 30-H ) :   0.9644
B( 12-C , 31-H ) :   0.9616 B( 13-S , 14-P ) :   1.0190 B( 14-P , 15-S ) :   1.7970
B( 14-P , 16-O ) :   1.1306 B( 14-P , 18-O ) :   1.0299 B( 16-O , 17-C ) :   0.7968
B( 17-C , 32-H ) :   0.9551 B( 17-C , 33-H ) :   0.9654 B( 17-C , 34-H ) :   0.9601
B( 18-O , 19-C ) :   0.8324 B( 19-C , 35-H ) :   0.9566 B( 19-C , 36-H ) :   0.9667
B( 19-C , 37-H ) :   0.9592

Dispersion correction           -0.017938217
FINAL SINGLE POINT ENERGY     -1981.455181107241

DIPOLE MOMENT
-------------

Method             : SCF
Type of density    : Electron Density
Multiplicity       :   1
Irrep              :   0
Energy             : -1981.4745353645575960 Eh
Relativity type    :
Basis              : AO
                                X                 Y                 Z
Electronic contribution:    -10.157232078       0.617183704      -0.892341446
Nuclear contribution   :      8.957254783      -0.477883792       0.510697604
                        -----------------------------------------
Total Dipole Moment    :     -1.199977295       0.139299912      -0.381643842
                        -----------------------------------------
Magnitude (a.u.)       :      1.266886734
Magnitude (Debye)      :      3.220170167

Rotational constants in cm-1:             0.015811             0.006381             0.005592
Rotational constants in MHz :           474.007072           191.297007           167.642958

                             ****ORCA TERMINATED NORMALLY****
TOTAL RUN TIME: 0 days 0 hours 1 minutes 38 seconds 396 msec
