                         Program Version 6.0.1  -  RELEASE   -
|  1> ! r2scan-3c def2/J RI DEFGRID2 scfconv6 printgap
|  2> %output
|  3>     printlevel normal
|  4> end
|  5> %cpcm
|  6>     smd true
|  7>     smdsolvent "water"
|  8> end
|  9> * xyz 0 1
| 10> C 5.1270305879 -2.9806019275 -0.9086939014
| 11> C 4.5260540107 -1.8838900553 -0.0434473511
| 12> O 3.0869779947 -1.9125537645 -0.0929775892
| 13> C 2.4840283626 -1.2834175705 -1.0786338278
| 14> O 3.0483922262 -0.6921567887 -1.9746753034
| 15> C 0.9739278028 -1.4146089531 -0.9817702166
| 16> C 0.3568147535 -0.0599451671 -1.3040056538
| 17> H 0.7127809165 0.2603091793 -2.2918534341
| 18> C 0.8345077664 1.0005156923 -0.3290387404
| 19> O 1.9095088373 0.9292085111 0.22029739
| 20> O 0.007603527 2.0247686378 -0.2488087282
| 21> C 0.4361624028 3.1872051504 0.4940599988
| 22> C 0.219910016 3.0333168738 1.9890994043
| 23> S -1.4498283848 -0.1075225424 -1.4675408588
| 24> P -2.0524603972 0.1048672108 0.5614913052
| 25> S -0.7847598822 -0.4499790988 1.9481014252
| 26> O -2.5891586233 1.5748098906 0.7712327273
| 27> C -3.5734256878 2.1622571388 -0.1037840227
| 28> O -3.4330915845 -0.7038250652 0.5658689484
| 29> C -3.4606232899 -2.131193988 0.4538435673
| 30> H 4.7365838144 -3.9488765422 -0.6080719583
| 31> H 4.8828429109 -2.806247796 -1.9539616243
| 32> H 6.2057132247 -2.9763577932 -0.7927023592
| 33> H 4.8616365423 -0.8963967674 -0.3731806421
| 34> H 4.7621071597 -2.0304998733 1.0105993649
| 35> H 0.7139337895 -1.7472715731 0.0237547759
| 36> H 0.6399570464 -2.15125986 -1.7139700756
| 37> H 1.4955566474 3.3499108905 0.2759082379
| 38> H -0.169948039 3.9952634773 0.0843155117
| 39> H 0.8258792969 2.2162229495 2.3757173237
| 40> H 0.5090299425 3.9535361525 2.4856059477
| 41> H -0.8245884641 2.8195707397 2.2023860827
| 42> H -3.2085984299 2.152444347 -1.1307009493
| 43> H -3.6980837175 3.1815490993 0.251923394
| 44> H -4.5082127907 1.6101814604 -0.0328901205
| 45> H -3.2183267785 -2.4265885076 -0.5665882824
| 46> H -4.4759775667 -2.4249319233 0.7074347147
| 47> H -2.7504641541 -2.5765266265 1.1521990368
| 48> *
| 49>
| 50>                          ****END OF INPUT****

CARTESIAN COORDINATES (ANGSTROEM)
---------------------------------
  C      5.127031   -2.980602   -0.908694
  C      4.526054   -1.883890   -0.043447
  O      3.086978   -1.912554   -0.092978
  C      2.484028   -1.283418   -1.078634
  O      3.048392   -0.692157   -1.974675
  C      0.973928   -1.414609   -0.981770
  C      0.356815   -0.059945   -1.304006
  H      0.712781    0.260309   -2.291853
  C      0.834508    1.000516   -0.329039
  O      1.909509    0.929209    0.220297
  O      0.007604    2.024769   -0.248809
  C      0.436162    3.187205    0.494060
  C      0.219910    3.033317    1.989099
  S     -1.449828   -0.107523   -1.467541
  P     -2.052460    0.104867    0.561491
  S     -0.784760   -0.449979    1.948101
  O     -2.589159    1.574810    0.771233
  C     -3.573426    2.162257   -0.103784
  O     -3.433092   -0.703825    0.565869
  C     -3.460623   -2.131194    0.453844
  H      4.736584   -3.948877   -0.608072
  H      4.882843   -2.806248   -1.953962
  H      6.205713   -2.976358   -0.792702
  H      4.861637   -0.896397   -0.373181
  H      4.762107   -2.030500    1.010599
  H      0.713934   -1.747272    0.023755
  H      0.639957   -2.151260   -1.713970
  H      1.495557    3.349911    0.275908
  H     -0.169948    3.995263    0.084316
  H      0.825879    2.216223    2.375717
  H      0.509030    3.953536    2.485606
  H     -0.824588    2.819571    2.202386
  H     -3.208598    2.152444   -1.130701
  H     -3.698084    3.181549    0.251923
  H     -4.508213    1.610181   -0.032890
  H     -3.218327   -2.426589   -0.566588
  H     -4.475978   -2.424932    0.707435
  H     -2.750464   -2.576527    1.152199

 Total Charge           Charge          ....    0
 Multiplicity           Mult            ....    1
 Number of Electrons    NEL             ....  174
 Basis Dimension        Dim             ....  510

ORBITAL ENERGIES
----------------

  NO   OCC          E(Eh)            E(eV)
   0   2.0000     -88.582101     -2410.4415
   1   2.0000     -88.531575     -2409.0666
   2   2.0000     -76.922730     -2093.1739
   3   2.0000     -19.010399      -517.2993
   4   2.0000     -19.005630      -517.1695
   5   2.0000     -18.998557      -516.9770
   6   2.0000     -18.996292      -516.9154
   7   2.0000     -18.953930      -515.7627
   8   2.0000     -18.943492      -515.4786
   9   2.0000     -10.178292      -276.9654
  10   2.0000     -10.168262      -276.6925
  11   2.0000     -10.100516      -274.8490
  12   2.0000     -10.087463      -274.4938
  13   2.0000     -10.085156      -274.4311
  14   2.0000     -10.084928      -274.4248
  15   2.0000     -10.082543      -274.3599
  16   2.0000     -10.051107      -273.5045
  17   2.0000     -10.018693      -272.6225
  18   2.0000     -10.016200      -272.5547
  19   2.0000      -7.876331      -214.3259
  20   2.0000      -7.826649      -212.9739
  21   2.0000      -6.600997      -179.6223
  22   2.0000      -5.823360      -158.4617
  23   2.0000      -5.820112      -158.3733
  24   2.0000      -5.813364      -158.1897
  25   2.0000      -5.774420      -157.1300
  26   2.0000      -5.766856      -156.9241
  27   2.0000      -5.766548      -156.9157
  28   2.0000      -4.746669      -129.1634
  29   2.0000      -4.746012      -129.1456
  30   2.0000      -4.744608      -129.1073
  31   2.0000      -1.091054       -29.6891
  32   2.0000      -1.083224       -29.4760
  33   2.0000      -1.055517       -28.7221
  34   2.0000      -1.012721       -27.5575
  35   2.0000      -1.002423       -27.2773
  36   2.0000      -0.992032       -26.9946
  37   2.0000      -0.813832       -22.1455
  38   2.0000      -0.751410       -20.4469
  39   2.0000      -0.739518       -20.1233
  40   2.0000      -0.730501       -19.8779
  41   2.0000      -0.696815       -18.9613
  42   2.0000      -0.672049       -18.2874
  43   2.0000      -0.662350       -18.0235
  44   2.0000      -0.652222       -17.7479
  45   2.0000      -0.627863       -17.0850
  46   2.0000      -0.595638       -16.2081
  47   2.0000      -0.544500       -14.8166
  48   2.0000      -0.525614       -14.3027
  49   2.0000      -0.521410       -14.1883
  50   2.0000      -0.504766       -13.7354
  51   2.0000      -0.493126       -13.4186
  52   2.0000      -0.486882       -13.2487
  53   2.0000      -0.467157       -12.7120
  54   2.0000      -0.460743       -12.5375
  55   2.0000      -0.452132       -12.3031
  56   2.0000      -0.451578       -12.2881
  57   2.0000      -0.450146       -12.2491
  58   2.0000      -0.437517       -11.9055
  59   2.0000      -0.428710       -11.6658
  60   2.0000      -0.419665       -11.4197
  61   2.0000      -0.414093       -11.2680
  62   2.0000      -0.410934       -11.1821
  63   2.0000      -0.403608       -10.9827
  64   2.0000      -0.386853       -10.5268
  65   2.0000      -0.382463       -10.4073
  66   2.0000      -0.373478       -10.1629
  67   2.0000      -0.366249        -9.9661
  68   2.0000      -0.357397        -9.7253
  69   2.0000      -0.353062        -9.6073
  70   2.0000      -0.345690        -9.4067
  71   2.0000      -0.342214        -9.3121
  72   2.0000      -0.335300        -9.1240
  73   2.0000      -0.332278        -9.0418
  74   2.0000      -0.325733        -8.8636
  75   2.0000      -0.317954        -8.6520
  76   2.0000      -0.309322        -8.4171
  77   2.0000      -0.306371        -8.3368
  78   2.0000      -0.291556        -7.9336
  79   2.0000      -0.285893        -7.7796
  80   2.0000      -0.282459        -7.6861
  81   2.0000      -0.278369        -7.5748
  82   2.0000      -0.267907        -7.2901
  83   2.0000      -0.256501        -6.9797
  84   2.0000      -0.240378        -6.5410
  85   2.0000      -0.230711        -6.2780
  86   2.0000      -0.225800        -6.1443
  87   0.0000      -0.049466        -1.3460
  88   0.0000      -0.040950        -1.1143
  89   0.0000      -0.018577        -0.5055
  90   0.0000       0.003952         0.1075
  91   0.0000       0.004711         0.1282

MULLIKEN ATOMIC CHARGES
-----------------------
   0 C :   -0.496813
   1 C :   -0.138343
   2 O :   -0.181381
   3 C :    0.386081
   4 O :   -0.488502
   5 C :   -0.463646
   6 C :    0.060650
   7 H :    0.253358
   8 C :    0.230512
   9 O :   -0.438328
  10 O :   -0.146451
  11 C :   -0.119046
  12 C :   -0.522526
  13 S :   -0.178220
  14 P :    0.764701
  15 S :   -0.466027
  16 O :   -0.335311
  17 C :   -0.300945
  18 O :   -0.370600
  19 C :   -0.307939
  20 H :    0.166538
  21 H :    0.170608
  22 H :    0.171364
  23 H :    0.173078
  24 H :    0.176089
  25 H :    0.218604
  26 H :    0.223672
  27 H :    0.174281
  28 H :    0.179564
  29 H :    0.177514
  30 H :    0.171159
  31 H :    0.171158
  32 H :    0.180682
  33 H :    0.184545
  34 H :    0.185501
  35 H :    0.176421
  36 H :    0.180537
  37 H :    0.177459
Sum of atomic charges:    0.0000000

LOEWDIN ATOMIC CHARGES
----------------------
   0 C :   -0.392178
   1 C :    0.034824
   2 O :   -0.584487
   3 C :    0.362737
   4 O :   -0.491546
   5 C :   -0.208419
   6 C :   -0.196984
   7 H :    0.230094
   8 C :    0.351373
   9 O :   -0.455935
  10 O :   -0.609238
  11 C :    0.041976
  12 C :   -0.400312
  13 S :    0.214296
  14 P :    0.399309
  15 S :   -0.092490
  16 O :   -0.673868
  17 C :   -0.042560
  18 O :   -0.691753
  19 C :   -0.053602
  20 H :    0.162603
  21 H :    0.163113
  22 H :    0.168194
  23 H :    0.190384
  24 H :    0.190443
  25 H :    0.200303
  26 H :    0.201816
  27 H :    0.192632
  28 H :    0.192975
  29 H :    0.164997
  30 H :    0.166258
  31 H :    0.166789
  32 H :    0.180002
  33 H :    0.191734
  34 H :    0.182258
  35 H :    0.176746
  36 H :    0.189481
  37 H :    0.178037

  Mayer bond orders larger than 0.100000
B(  0-C ,  1-C ) :   0.9345 B(  0-C , 20-H ) :   0.9692 B(  0-C , 21-H ) :   0.9688
B(  0-C , 22-H ) :   0.9599 B(  1-C ,  2-O ) :   0.7943 B(  1-C , 23-H ) :   0.9642
B(  1-C , 24-H ) :   0.9511 B(  2-O ,  3-C ) :   1.1057 B(  3-C ,  4-O ) :   1.8034
B(  3-C ,  5-C ) :   0.8565 B(  5-C ,  6-C ) :   0.8389 B(  5-C , 25-H ) :   0.9924
B(  5-C , 26-H ) :   0.9302 B(  6-C ,  7-H ) :   0.8834 B(  6-C ,  8-C ) :   0.9547
B(  6-C , 13-S ) :   0.8215 B(  8-C ,  9-O ) :   1.7672 B(  8-C , 10-O ) :   1.1235
B( 10-O , 11-C ) :   0.7729 B( 11-C , 12-C ) :   0.9091 B( 11-C , 27-H ) :   0.9640
B( 11-C , 28-H ) :   0.9526 B( 12-C , 29-H ) :   0.9707 B( 12-C , 30-H ) :   0.9587
B( 12-C , 31-H ) :   0.9611 B( 13-S , 14-P ) :   1.0314 B( 14-P , 15-S ) :   1.7602
B( 14-P , 16-O ) :   1.1391 B( 14-P , 18-O ) :   1.0401 B( 16-O , 17-C ) :   0.7883
B( 17-C , 32-H ) :   0.9472 B( 17-C , 33-H ) :   0.9545 B( 17-C , 34-H ) :   0.9516
B( 18-O , 19-C ) :   0.8241 B( 19-C , 35-H ) :   0.9501 B( 19-C , 36-H ) :   0.9569
B( 19-C , 37-H ) :   0.9547

Dispersion correction           -0.017938217
FINAL SINGLE POINT ENERGY     -1981.469703297427

DIPOLE MOMENT
-------------

Method             : SCF
Type of density    : Electron Density
Multiplicity       :   1
Irrep              :   0
Energy             : -1981.4890575547435674 Eh
Relativity type    :
Basis              : AO
                                X                 Y                 Z
Electronic contribution:    -10.740518524       0.586554238      -1.310593944
Nuclear contribution   :      8.957254783      -0.477883792       0.510697604
                        -----------------------------------------
Total Dipole Moment    :     -1.783263741       0.108670446      -0.799896341
                        -----------------------------------------
Magnitude (a.u.)       :      1.957465962
Magnitude (Debye)      :      4.975483066

Rotational constants in cm-1:             0.015811             0.006381             0.005592
Rotational constants in MHz :           474.007072           191.297007           167.642958

                             ****ORCA TERMINATED NORMALLY****
TOTAL RUN TIME: 0 days 0 hours 2 minutes 2 seconds 301 msec
