                         Program Version 6.0.0  -   RELEASE  -
|  1> ! r2scan-3c def2/J RI DEFGRID2 scfconv6 printgap
|  2> %output
|  3>     printlevel normal
|  4> end
|  5> * xyz 0 1
|  6> C 2.6696387728 -1.6626257451 2.8527647571
|  7> C 1.3975998428 -1.6319556515 2.0327261575
|  8> O 1.2972444455 -0.4099540724 1.2738866537
|  9> P 2.1852916799 -0.1325451149 -0.0022404412
| 10> S 2.8985201275 -1.6935631169 -0.9549398963
| 11> O 3.2756481554 0.8553798816 0.5915002779
| 12> C 4.3685417675 1.3441518402 -0.2136939741
| 13> C 5.4183054981 1.9095508741 0.7213086215
| 14> S 0.9421491773 1.1570077898 -1.1284007283
| 15> C 0.1180648907 -0.1382611561 -2.0937245912
| 16> S -0.8177791871 -1.3031349966 -1.0657012878
| 17> P -2.1671181387 0.1127778594 -0.2590926372
| 18> S -2.7574109775 1.5349937157 -1.4764473489
| 19> O -1.422264525 0.5559385013 1.0611412683
| 20> C -1.6041849071 1.8604893449 1.6480375674
| 21> C -2.9623236315 1.9796627178 2.3058576966
| 22> O -3.3251835731 -0.7969165453 0.3315000306
| 23> C -4.3333230079 -1.3832773732 -0.5178432856
| 24> C -5.4987339804 -1.7949538344 0.3587634771
| 25> H 2.6828498186 -2.5573588735 3.4670971107
| 26> H 3.5322880263 -1.6755632366 2.1873235771
| 27> H 2.7288176507 -0.7828388721 3.4878191263
| 28> H 0.5031151738 -1.6274967534 2.6572027907
| 29> H 1.3591238769 -2.4785029781 1.3389670493
| 30> H 4.7628056657 0.5120447328 -0.8067143194
| 31> H 3.9793544843 2.1110039071 -0.889112861
| 32> H 6.2381779786 2.3100940062 0.1342938112
| 33> H 4.9865511209 2.7019182161 1.325638701
| 34> H 5.7945466713 1.1304531163 1.3780081464
| 35> H 0.8625261132 -0.7276102181 -2.6280096498
| 36> H -0.558249388 0.3710535338 -2.779390948
| 37> H -0.7880193484 1.9406057331 2.3674411703
| 38> H -1.4814135837 2.6160965892 0.8648600076
| 39> H -3.0993535286 1.1832821933 3.0323902772
| 40> H -3.0416492658 2.9424151431 2.8007868474
| 41> H -3.7421747392 1.9039665993 1.5487249181
| 42> H -4.6339007016 -0.640922426 -1.2649451747
| 43> H -3.8917506439 -2.2442138097 -1.0271006137
| 44> H -5.1615326664 -2.4958850743 1.1166869223
| 45> H -5.9257316989 -0.9244846017 0.8485010604
| 46> H -6.2570043859 -2.2672184323 -0.2570414004
| 47> *
| 48>
| 49>                          ****END OF INPUT****

CARTESIAN COORDINATES (ANGSTROEM)
---------------------------------
  C      2.669639   -1.662626    2.852765
  C      1.397600   -1.631956    2.032726
  O      1.297244   -0.409954    1.273887
  P      2.185292   -0.132545   -0.002240
  S      2.898520   -1.693563   -0.954940
  O      3.275648    0.855380    0.591500
  C      4.368542    1.344152   -0.213694
  C      5.418305    1.909551    0.721309
  S      0.942149    1.157008   -1.128401
  C      0.118065   -0.138261   -2.093725
  S     -0.817779   -1.303135   -1.065701
  P     -2.167118    0.112778   -0.259093
  S     -2.757411    1.534994   -1.476447
  O     -1.422265    0.555939    1.061141
  C     -1.604185    1.860489    1.648038
  C     -2.962324    1.979663    2.305858
  O     -3.325184   -0.796917    0.331500
  C     -4.333323   -1.383277   -0.517843
  C     -5.498734   -1.794954    0.358763
  H      2.682850   -2.557359    3.467097
  H      3.532288   -1.675563    2.187324
  H      2.728818   -0.782839    3.487819
  H      0.503115   -1.627497    2.657203
  H      1.359124   -2.478503    1.338967
  H      4.762806    0.512045   -0.806714
  H      3.979354    2.111004   -0.889113
  H      6.238178    2.310094    0.134294
  H      4.986551    2.701918    1.325639
  H      5.794547    1.130453    1.378008
  H      0.862526   -0.727610   -2.628010
  H     -0.558249    0.371054   -2.779391
  H     -0.788019    1.940606    2.367441
  H     -1.481414    2.616097    0.864860
  H     -3.099354    1.183282    3.032390
  H     -3.041649    2.942415    2.800787
  H     -3.742175    1.903967    1.548725
  H     -4.633901   -0.640922   -1.264945
  H     -3.891751   -2.244214   -1.027101
  H     -5.161533   -2.495885    1.116687
  H     -5.925732   -0.924485    0.848501
  H     -6.257004   -2.267218   -0.257041

 Total Charge           Charge          ....    0
 Multiplicity           Mult            ....    1
 Number of Electrons    NEL             ....  202
 Basis Dimension        Dim             ....  539

ORBITAL ENERGIES
----------------

  NO   OCC          E(Eh)            E(eV)
   0   2.0000     -88.573245     -2410.2005
   1   2.0000     -88.573204     -2410.1994
   2   2.0000     -88.519441     -2408.7364
   3   2.0000     -88.519359     -2408.7342
   4   2.0000     -76.911668     -2092.8729
   5   2.0000     -76.911582     -2092.8706
   6   2.0000     -18.992109      -516.8016
   7   2.0000     -18.992075      -516.8006
   8   2.0000     -18.986356      -516.6450
   9   2.0000     -18.986290      -516.6432
  10   2.0000     -10.103680      -274.9351
  11   2.0000     -10.098707      -274.7998
  12   2.0000     -10.098687      -274.7992
  13   2.0000     -10.094162      -274.6761
  14   2.0000     -10.094033      -274.6726
  15   2.0000     -10.033729      -273.0316
  16   2.0000     -10.033718      -273.0314
  17   2.0000     -10.026659      -272.8393
  18   2.0000     -10.026545      -272.8362
  19   2.0000      -7.867497      -214.0855
  20   2.0000      -7.867462      -214.0845
  21   2.0000      -7.814270      -212.6371
  22   2.0000      -7.814186      -212.6348
  23   2.0000      -6.590347      -179.3325
  24   2.0000      -6.590267      -179.3303
  25   2.0000      -5.814361      -158.2168
  26   2.0000      -5.814324      -158.2158
  27   2.0000      -5.811384      -158.1358
  28   2.0000      -5.811347      -158.1348
  29   2.0000      -5.804617      -157.9517
  30   2.0000      -5.804584      -157.9508
  31   2.0000      -5.761845      -156.7878
  32   2.0000      -5.761755      -156.7853
  33   2.0000      -5.754543      -156.5891
  34   2.0000      -5.754470      -156.5871
  35   2.0000      -5.754340      -156.5836
  36   2.0000      -5.754253      -156.5812
  37   2.0000      -4.735658      -128.8638
  38   2.0000      -4.735575      -128.8615
  39   2.0000      -4.735291      -128.8538
  40   2.0000      -4.735213      -128.8517
  41   2.0000      -4.734219      -128.8246
  42   2.0000      -4.734137      -128.8224
  43   2.0000      -1.049366       -28.5547
  44   2.0000      -1.048150       -28.5216
  45   2.0000      -1.010200       -27.4889
  46   2.0000      -1.008734       -27.4490
  47   2.0000      -0.800958       -21.7952
  48   2.0000      -0.758978       -20.6528
  49   2.0000      -0.749604       -20.3978
  50   2.0000      -0.731381       -19.9019
  51   2.0000      -0.730811       -19.8864
  52   2.0000      -0.707118       -19.2417
  53   2.0000      -0.682912       -18.5830
  54   2.0000      -0.667609       -18.1666
  55   2.0000      -0.630530       -17.1576
  56   2.0000      -0.625392       -17.0178
  57   2.0000      -0.600178       -16.3317
  58   2.0000      -0.598036       -16.2734
  59   2.0000      -0.592124       -16.1125
  60   2.0000      -0.530645       -14.4396
  61   2.0000      -0.523594       -14.2477
  62   2.0000      -0.495900       -13.4941
  63   2.0000      -0.494210       -13.4481
  64   2.0000      -0.472148       -12.8478
  65   2.0000      -0.462985       -12.5985
  66   2.0000      -0.454485       -12.3672
  67   2.0000      -0.453284       -12.3345
  68   2.0000      -0.445565       -12.1244
  69   2.0000      -0.429765       -11.6945
  70   2.0000      -0.421424       -11.4675
  71   2.0000      -0.413069       -11.2402
  72   2.0000      -0.406562       -11.0631
  73   2.0000      -0.398352       -10.8397
  74   2.0000      -0.394209       -10.7270
  75   2.0000      -0.386752       -10.5241
  76   2.0000      -0.386605       -10.5201
  77   2.0000      -0.373331       -10.1589
  78   2.0000      -0.372514       -10.1366
  79   2.0000      -0.368392       -10.0245
  80   2.0000      -0.361928        -9.8486
  81   2.0000      -0.360602        -9.8125
  82   2.0000      -0.357922        -9.7396
  83   2.0000      -0.355066        -9.6618
  84   2.0000      -0.344188        -9.3658
  85   2.0000      -0.332958        -9.0603
  86   2.0000      -0.321377        -8.7451
  87   2.0000      -0.316258        -8.6058
  88   2.0000      -0.315209        -8.5773
  89   2.0000      -0.302113        -8.2209
  90   2.0000      -0.296470        -8.0674
  91   2.0000      -0.291821        -7.9409
  92   2.0000      -0.280463        -7.6318
  93   2.0000      -0.277739        -7.5577
  94   2.0000      -0.271462        -7.3869
  95   2.0000      -0.245149        -6.6709
  96   2.0000      -0.229646        -6.2490
  97   2.0000      -0.226638        -6.1671
  98   2.0000      -0.220569        -6.0020
  99   2.0000      -0.212062        -5.7705
 100   2.0000      -0.210869        -5.7380
 101   0.0000      -0.045823        -1.2469
 102   0.0000      -0.022864        -0.6222
 103   0.0000       0.004459         0.1213
 104   0.0000       0.005105         0.1389
 105   0.0000       0.014913         0.4058

MULLIKEN ATOMIC CHARGES
-----------------------
   0 C :   -0.443974
   1 C :   -0.157994
   2 O :   -0.261895
   3 P :    0.714089
   4 S :   -0.490809
   5 O :   -0.287686
   6 C :   -0.157684
   7 C :   -0.439501
   8 S :   -0.147533
   9 C :   -0.229674
  10 S :   -0.147326
  11 P :    0.713486
  12 S :   -0.490535
  13 O :   -0.261672
  14 C :   -0.157773
  15 C :   -0.443788
  16 O :   -0.287803
  17 C :   -0.156933
  18 C :   -0.439920
  19 H :    0.146513
  20 H :    0.167882
  21 H :    0.153324
  22 H :    0.157185
  23 H :    0.175045
  24 H :    0.170871
  25 H :    0.152886
  26 H :    0.147181
  27 H :    0.153607
  28 H :    0.155089
  29 H :    0.208076
  30 H :    0.208053
  31 H :    0.157026
  32 H :    0.174797
  33 H :    0.153352
  34 H :    0.146486
  35 H :    0.167921
  36 H :    0.170935
  37 H :    0.152764
  38 H :    0.153615
  39 H :    0.155136
  40 H :    0.147181
Sum of atomic charges:    0.0000000

LOEWDIN ATOMIC CHARGES
----------------------
   0 C :   -0.399345
   1 C :    0.018559
   2 O :   -0.662737
   3 P :    0.376641
   4 S :   -0.134322
   5 O :   -0.663052
   6 C :    0.019447
   7 C :   -0.385686
   8 S :    0.170055
   9 C :   -0.418437
  10 S :    0.170409
  11 P :    0.376538
  12 S :   -0.134323
  13 O :   -0.662870
  14 C :    0.018897
  15 C :   -0.399441
  16 O :   -0.663145
  17 C :    0.019519
  18 C :   -0.385760
  19 H :    0.159231
  20 H :    0.164877
  21 H :    0.159316
  22 H :    0.181465
  23 H :    0.181994
  24 H :    0.180444
  25 H :    0.172220
  26 H :    0.160087
  27 H :    0.159920
  28 H :    0.160242
  29 H :    0.189734
  30 H :    0.189680
  31 H :    0.181486
  32 H :    0.181932
  33 H :    0.159370
  34 H :    0.159226
  35 H :    0.164889
  36 H :    0.180576
  37 H :    0.172167
  38 H :    0.159886
  39 H :    0.160225
  40 H :    0.160083

  Mayer bond orders larger than 0.100000
B(  0-C ,  1-C ) :   0.9251 B(  0-C , 19-H ) :   0.9639 B(  0-C , 20-H ) :   0.9609
B(  0-C , 21-H ) :   0.9728 B(  1-C ,  2-O ) :   0.7805 B(  1-C , 22-H ) :   0.9630
B(  1-C , 23-H ) :   0.9631 B(  2-O ,  3-P ) :   1.1709 B(  3-P ,  4-S ) :   1.7306
B(  3-P ,  5-O ) :   1.0966 B(  3-P ,  8-S ) :   1.0529 B(  5-O ,  6-C ) :   0.7793
B(  6-C ,  7-C ) :   0.9561 B(  6-C , 24-H ) :   0.9515 B(  6-C , 25-H ) :   0.9456
B(  7-C , 26-H ) :   0.9644 B(  7-C , 27-H ) :   0.9718 B(  7-C , 28-H ) :   0.9715
B(  8-S ,  9-C ) :   0.9103 B(  9-C , 10-S ) :   0.9098 B(  9-C , 29-H ) :   0.9090
B(  9-C , 30-H ) :   0.9091 B( 10-S , 11-P ) :   1.0534 B( 11-P , 12-S ) :   1.7314
B( 11-P , 13-O ) :   1.1712 B( 11-P , 16-O ) :   1.0951 B( 13-O , 14-C ) :   0.7814
B( 14-C , 15-C ) :   0.9249 B( 14-C , 31-H ) :   0.9629 B( 14-C , 32-H ) :   0.9633
B( 15-C , 33-H ) :   0.9727 B( 15-C , 34-H ) :   0.9637 B( 15-C , 35-H ) :   0.9608
B( 16-O , 17-C ) :   0.7787 B( 17-C , 18-C ) :   0.9567 B( 17-C , 36-H ) :   0.9518
B( 17-C , 37-H ) :   0.9457 B( 18-C , 38-H ) :   0.9718 B( 18-C , 39-H ) :   0.9714
B( 18-C , 40-H ) :   0.9644

Dispersion correction           -0.021126776
FINAL SINGLE POINT ENERGY     -2932.467261970246

DIPOLE MOMENT
-------------

Method             : SCF
Type of density    : Electron Density
Multiplicity       :   1
Irrep              :   0
Energy             : -2932.4923392940836493 Eh
Relativity type    :
Basis              : AO
                                X                 Y                 Z
Electronic contribution:      1.034939693      -1.173390556     -17.033681773
Nuclear contribution   :     -1.105990638       1.249920170      18.150311297
                        -----------------------------------------
Total Dipole Moment    :     -0.071050945       0.076529614       1.116629524
                        -----------------------------------------
Magnitude (a.u.)       :      1.121501900
Magnitude (Debye)      :      2.850631287

Rotational constants in cm-1:             0.013221             0.004618             0.004573
Rotational constants in MHz :           396.351836           138.429756           137.088612

                             ****ORCA TERMINATED NORMALLY****
TOTAL RUN TIME: 0 days 0 hours 1 minutes 23 seconds 840 msec
