                         Program Version 6.0.0  -   RELEASE  -
|  1> ! r2scan-3c def2/J RI DEFGRID2 scfconv6 printgap
|  2> %output
|  3>     printlevel normal
|  4> end
|  5> %cpcm
|  6>     smd true
|  7>     smdsolvent "water"
|  8> end
|  9> * xyz 0 1
| 10> C 2.6696387728 -1.6626257451 2.8527647571
| 11> C 1.3975998428 -1.6319556515 2.0327261575
| 12> O 1.2972444455 -0.4099540724 1.2738866537
| 13> P 2.1852916799 -0.1325451149 -0.0022404412
| 14> S 2.8985201275 -1.6935631169 -0.9549398963
| 15> O 3.2756481554 0.8553798816 0.5915002779
| 16> C 4.3685417675 1.3441518402 -0.2136939741
| 17> C 5.4183054981 1.9095508741 0.7213086215
| 18> S 0.9421491773 1.1570077898 -1.1284007283
| 19> C 0.1180648907 -0.1382611561 -2.0937245912
| 20> S -0.8177791871 -1.3031349966 -1.0657012878
| 21> P -2.1671181387 0.1127778594 -0.2590926372
| 22> S -2.7574109775 1.5349937157 -1.4764473489
| 23> O -1.422264525 0.5559385013 1.0611412683
| 24> C -1.6041849071 1.8604893449 1.6480375674
| 25> C -2.9623236315 1.9796627178 2.3058576966
| 26> O -3.3251835731 -0.7969165453 0.3315000306
| 27> C -4.3333230079 -1.3832773732 -0.5178432856
| 28> C -5.4987339804 -1.7949538344 0.3587634771
| 29> H 2.6828498186 -2.5573588735 3.4670971107
| 30> H 3.5322880263 -1.6755632366 2.1873235771
| 31> H 2.7288176507 -0.7828388721 3.4878191263
| 32> H 0.5031151738 -1.6274967534 2.6572027907
| 33> H 1.3591238769 -2.4785029781 1.3389670493
| 34> H 4.7628056657 0.5120447328 -0.8067143194
| 35> H 3.9793544843 2.1110039071 -0.889112861
| 36> H 6.2381779786 2.3100940062 0.1342938112
| 37> H 4.9865511209 2.7019182161 1.325638701
| 38> H 5.7945466713 1.1304531163 1.3780081464
| 39> H 0.8625261132 -0.7276102181 -2.6280096498
| 40> H -0.558249388 0.3710535338 -2.779390948
| 41> H -0.7880193484 1.9406057331 2.3674411703
| 42> H -1.4814135837 2.6160965892 0.8648600076
| 43> H -3.0993535286 1.1832821933 3.0323902772
| 44> H -3.0416492658 2.9424151431 2.8007868474
| 45> H -3.7421747392 1.9039665993 1.5487249181
| 46> H -4.6339007016 -0.640922426 -1.2649451747
| 47> H -3.8917506439 -2.2442138097 -1.0271006137
| 48> H -5.1615326664 -2.4958850743 1.1166869223
| 49> H -5.9257316989 -0.9244846017 0.8485010604
| 50> H -6.2570043859 -2.2672184323 -0.2570414004
| 51> *
| 52>
| 53>                          ****END OF INPUT****

CARTESIAN COORDINATES (ANGSTROEM)
---------------------------------
  C      2.669639   -1.662626    2.852765
  C      1.397600   -1.631956    2.032726
  O      1.297244   -0.409954    1.273887
  P      2.185292   -0.132545   -0.002240
  S      2.898520   -1.693563   -0.954940
  O      3.275648    0.855380    0.591500
  C      4.368542    1.344152   -0.213694
  C      5.418305    1.909551    0.721309
  S      0.942149    1.157008   -1.128401
  C      0.118065   -0.138261   -2.093725
  S     -0.817779   -1.303135   -1.065701
  P     -2.167118    0.112778   -0.259093
  S     -2.757411    1.534994   -1.476447
  O     -1.422265    0.555939    1.061141
  C     -1.604185    1.860489    1.648038
  C     -2.962324    1.979663    2.305858
  O     -3.325184   -0.796917    0.331500
  C     -4.333323   -1.383277   -0.517843
  C     -5.498734   -1.794954    0.358763
  H      2.682850   -2.557359    3.467097
  H      3.532288   -1.675563    2.187324
  H      2.728818   -0.782839    3.487819
  H      0.503115   -1.627497    2.657203
  H      1.359124   -2.478503    1.338967
  H      4.762806    0.512045   -0.806714
  H      3.979354    2.111004   -0.889113
  H      6.238178    2.310094    0.134294
  H      4.986551    2.701918    1.325639
  H      5.794547    1.130453    1.378008
  H      0.862526   -0.727610   -2.628010
  H     -0.558249    0.371054   -2.779391
  H     -0.788019    1.940606    2.367441
  H     -1.481414    2.616097    0.864860
  H     -3.099354    1.183282    3.032390
  H     -3.041649    2.942415    2.800787
  H     -3.742175    1.903967    1.548725
  H     -4.633901   -0.640922   -1.264945
  H     -3.891751   -2.244214   -1.027101
  H     -5.161533   -2.495885    1.116687
  H     -5.925732   -0.924485    0.848501
  H     -6.257004   -2.267218   -0.257041

 Total Charge           Charge          ....    0
 Multiplicity           Mult            ....    1
 Number of Electrons    NEL             ....  202
 Basis Dimension        Dim             ....  539

ORBITAL ENERGIES
----------------

  NO   OCC          E(Eh)            E(eV)
   0   2.0000     -88.579094     -2410.3597
   1   2.0000     -88.579079     -2410.3593
   2   2.0000     -88.528093     -2408.9719
   3   2.0000     -88.528079     -2408.9715
   4   2.0000     -76.918581     -2093.0610
   5   2.0000     -76.918559     -2093.0604
   6   2.0000     -18.995844      -516.9032
   7   2.0000     -18.995802      -516.9020
   8   2.0000     -18.992352      -516.8082
   9   2.0000     -18.992322      -516.8074
  10   2.0000     -10.105238      -274.9775
  11   2.0000     -10.090374      -274.5730
  12   2.0000     -10.090333      -274.5719
  13   2.0000     -10.089322      -274.5444
  14   2.0000     -10.089227      -274.5418
  15   2.0000     -10.019775      -272.6520
  16   2.0000     -10.019772      -272.6519
  17   2.0000     -10.018442      -272.6157
  18   2.0000     -10.018362      -272.6135
  19   2.0000      -7.873380      -214.2456
  20   2.0000      -7.873369      -214.2453
  21   2.0000      -7.823184      -212.8797
  22   2.0000      -7.823172      -212.8793
  23   2.0000      -6.597299      -179.5216
  24   2.0000      -6.597283      -179.5212
  25   2.0000      -5.820217      -158.3762
  26   2.0000      -5.820205      -158.3758
  27   2.0000      -5.817256      -158.2956
  28   2.0000      -5.817244      -158.2953
  29   2.0000      -5.810542      -158.1129
  30   2.0000      -5.810534      -158.1127
  31   2.0000      -5.770705      -157.0289
  32   2.0000      -5.770699      -157.0287
  33   2.0000      -5.763453      -156.8315
  34   2.0000      -5.763429      -156.8309
  35   2.0000      -5.763265      -156.8264
  36   2.0000      -5.763256      -156.8262
  37   2.0000      -4.742572      -129.0519
  38   2.0000      -4.742553      -129.0514
  39   2.0000      -4.742253      -129.0433
  40   2.0000      -4.742239      -129.0429
  41   2.0000      -4.741224      -129.0153
  42   2.0000      -4.741207      -129.0148
  43   2.0000      -1.054017       -28.6813
  44   2.0000      -1.052672       -28.6447
  45   2.0000      -1.014196       -27.5977
  46   2.0000      -1.012750       -27.5583
  47   2.0000      -0.805142       -21.9090
  48   2.0000      -0.757146       -20.6030
  49   2.0000      -0.744612       -20.2619
  50   2.0000      -0.724012       -19.7014
  51   2.0000      -0.723937       -19.6993
  52   2.0000      -0.708439       -19.2776
  53   2.0000      -0.688049       -18.7228
  54   2.0000      -0.675131       -18.3712
  55   2.0000      -0.630103       -17.1460
  56   2.0000      -0.622660       -16.9434
  57   2.0000      -0.596483       -16.2311
  58   2.0000      -0.591467       -16.0946
  59   2.0000      -0.590121       -16.0580
  60   2.0000      -0.529438       -14.4067
  61   2.0000      -0.521890       -14.2013
  62   2.0000      -0.495707       -13.4889
  63   2.0000      -0.494375       -13.4526
  64   2.0000      -0.473605       -12.8875
  65   2.0000      -0.461724       -12.5642
  66   2.0000      -0.451585       -12.2882
  67   2.0000      -0.448233       -12.1971
  68   2.0000      -0.442591       -12.0435
  69   2.0000      -0.432404       -11.7663
  70   2.0000      -0.421529       -11.4704
  71   2.0000      -0.410894       -11.1810
  72   2.0000      -0.404191       -10.9986
  73   2.0000      -0.399519       -10.8715
  74   2.0000      -0.394499       -10.7349
  75   2.0000      -0.384344       -10.4585
  76   2.0000      -0.383871       -10.4457
  77   2.0000      -0.369431       -10.0527
  78   2.0000      -0.363296        -9.8858
  79   2.0000      -0.362126        -9.8539
  80   2.0000      -0.353952        -9.6315
  81   2.0000      -0.352851        -9.6016
  82   2.0000      -0.350696        -9.5429
  83   2.0000      -0.348149        -9.4736
  84   2.0000      -0.342175        -9.3111
  85   2.0000      -0.329549        -8.9675
  86   2.0000      -0.320435        -8.7195
  87   2.0000      -0.314040        -8.5455
  88   2.0000      -0.313231        -8.5234
  89   2.0000      -0.302757        -8.2384
  90   2.0000      -0.297899        -8.1062
  91   2.0000      -0.293385        -7.9834
  92   2.0000      -0.281274        -7.6538
  93   2.0000      -0.278634        -7.5820
  94   2.0000      -0.274389        -7.4665
  95   2.0000      -0.251260        -6.8371
  96   2.0000      -0.237374        -6.4593
  97   2.0000      -0.235840        -6.4175
  98   2.0000      -0.229322        -6.2402
  99   2.0000      -0.221092        -6.0162
 100   2.0000      -0.219386        -5.9698
 101   0.0000      -0.052422        -1.4265
 102   0.0000      -0.030710        -0.8357
 103   0.0000      -0.002369        -0.0645
 104   0.0000      -0.000528        -0.0144
 105   0.0000       0.011992         0.3263

MULLIKEN ATOMIC CHARGES
-----------------------
   0 C :   -0.485674
   1 C :   -0.147492
   2 O :   -0.292074
   3 P :    0.740989
   4 S :   -0.532098
   5 O :   -0.315336
   6 C :   -0.148414
   7 C :   -0.482345
   8 S :   -0.158390
   9 C :   -0.241822
  10 S :   -0.158409
  11 P :    0.741067
  12 S :   -0.531789
  13 O :   -0.292005
  14 C :   -0.147613
  15 C :   -0.485669
  16 O :   -0.315538
  17 C :   -0.147649
  18 C :   -0.482564
  19 H :    0.172130
  20 H :    0.167105
  21 H :    0.169325
  22 H :    0.179504
  23 H :    0.176969
  24 H :    0.172888
  25 H :    0.171527
  26 H :    0.169751
  27 H :    0.166032
  28 H :    0.166307
  29 H :    0.229906
  30 H :    0.230029
  31 H :    0.179401
  32 H :    0.176728
  33 H :    0.169347
  34 H :    0.172089
  35 H :    0.167380
  36 H :    0.172638
  37 H :    0.171714
  38 H :    0.166058
  39 H :    0.166240
  40 H :    0.169758
Sum of atomic charges:    0.0000000

LOEWDIN ATOMIC CHARGES
----------------------
   0 C :   -0.402043
   1 C :    0.022501
   2 O :   -0.679498
   3 P :    0.380132
   4 S :   -0.160238
   5 O :   -0.676072
   6 C :    0.024399
   7 C :   -0.389061
   8 S :    0.164237
   9 C :   -0.412292
  10 S :    0.164497
  11 P :    0.380177
  12 S :   -0.160113
  13 O :   -0.679728
  14 C :    0.022803
  15 C :   -0.402160
  16 O :   -0.676085
  17 C :    0.024494
  18 C :   -0.389194
  19 H :    0.168900
  20 H :    0.162409
  21 H :    0.163830
  22 H :    0.190646
  23 H :    0.182683
  24 H :    0.181651
  25 H :    0.179758
  26 H :    0.169060
  27 H :    0.163358
  28 H :    0.162793
  29 H :    0.196467
  30 H :    0.196483
  31 H :    0.190697
  32 H :    0.182615
  33 H :    0.163884
  34 H :    0.168876
  35 H :    0.162492
  36 H :    0.181694
  37 H :    0.179840
  38 H :    0.163345
  39 H :    0.162723
  40 H :    0.169041

  Mayer bond orders larger than 0.100000
B(  0-C ,  1-C ) :   0.9181 B(  0-C , 19-H ) :   0.9576 B(  0-C , 20-H ) :   0.9604
B(  0-C , 21-H ) :   0.9711 B(  1-C ,  2-O ) :   0.7682 B(  1-C , 22-H ) :   0.9524
B(  1-C , 23-H ) :   0.9580 B(  2-O ,  3-P ) :   1.1734 B(  3-P ,  4-S ) :   1.6976
B(  3-P ,  5-O ) :   1.1034 B(  3-P ,  8-S ) :   1.0686 B(  5-O ,  6-C ) :   0.7723
B(  6-C ,  7-C ) :   0.9521 B(  6-C , 24-H ) :   0.9477 B(  6-C , 25-H ) :   0.9368
B(  7-C , 26-H ) :   0.9582 B(  7-C , 27-H ) :   0.9690 B(  7-C , 28-H ) :   0.9692
B(  8-S ,  9-C ) :   0.9012 B(  9-C , 10-S ) :   0.9007 B(  9-C , 29-H ) :   0.9035
B(  9-C , 30-H ) :   0.9035 B( 10-S , 11-P ) :   1.0689 B( 11-P , 12-S ) :   1.6982
B( 11-P , 13-O ) :   1.1733 B( 11-P , 16-O ) :   1.1022 B( 13-O , 14-C ) :   0.7692
B( 14-C , 15-C ) :   0.9179 B( 14-C , 31-H ) :   0.9524 B( 14-C , 32-H ) :   0.9581
B( 15-C , 33-H ) :   0.9709 B( 15-C , 34-H ) :   0.9574 B( 15-C , 35-H ) :   0.9603
B( 16-O , 17-C ) :   0.7717 B( 17-C , 18-C ) :   0.9527 B( 17-C , 36-H ) :   0.9482
B( 17-C , 37-H ) :   0.9369 B( 18-C , 38-H ) :   0.9689 B( 18-C , 39-H ) :   0.9691
B( 18-C , 40-H ) :   0.9583

Dispersion correction           -0.021126776
FINAL SINGLE POINT ENERGY     -2932.475103077376

DIPOLE MOMENT
-------------

Method             : SCF
Type of density    : Electron Density
Multiplicity       :   1
Irrep              :   0
Energy             : -2932.5001804012135835 Eh
Relativity type    :
Basis              : AO
                                X                 Y                 Z
Electronic contribution:      1.021711930      -1.162184119     -16.866351471
Nuclear contribution   :     -1.105990638       1.249920170      18.150311297
                        -----------------------------------------
Total Dipole Moment    :     -0.084278708       0.087736051       1.283959826
                        -----------------------------------------
Magnitude (a.u.)       :      1.289710569
Magnitude (Debye)      :      3.278183744

Rotational constants in cm-1:             0.013221             0.004618             0.004573
Rotational constants in MHz :           396.351836           138.429756           137.088612

                             ****ORCA TERMINATED NORMALLY****
TOTAL RUN TIME: 0 days 0 hours 1 minutes 49 seconds 125 msec
