                         Program Version 6.0.0  -   RELEASE  -
|  1> ! pbe def2-sv(p) def2/J RI DEFGRID1 loosescf d4 GCP(DFT/SV(P)) printgap
|  2> %output
|  3>     printlevel normal
|  4> end
|  5> * xyz 0 1
|  6> C 2.9617604707 1.5517404584 2.9647004979
|  7> C 1.6358119696 0.9247567632 2.589796352
|  8> O 1.4749659082 0.8675653079 1.1572744525
|  9> P 2.3025747938 -0.1496748726 0.2650974649
| 10> S 2.8086503417 -1.8026960239 1.1983733571
| 11> O 3.4679228569 0.7964780507 -0.2522184198
| 12> C 4.2678837762 0.5825952782 -1.4289714552
| 13> C 4.8642687259 -0.8081392215 -1.494876217
| 14> S 1.0517853438 -0.3690597815 -1.4306480219
| 15> C 0.0596728552 -1.7279678892 -0.7615962101
| 16> S -1.0457454836 -1.2007022241 0.5681220428
| 17> P -2.254698255 0.0888443102 -0.6382621701
| 18> S -2.5401140505 -0.5148480017 -2.4738654417
| 19> O -1.6075851209 1.5208604272 -0.5652136917
| 20> C -1.4318856117 2.2494885419 0.6753801895
| 21> C -2.5337120636 3.273734955 0.8478582197
| 22> O -3.5599470545 0.2488061321 0.2514557367
| 23> C -4.5004886876 -0.837195835 0.3915923497
| 24> C -5.7822884162 -0.2692685277 0.9658977465
| 25> H 3.0535116227 2.5366927665 2.5150911088
| 26> H 3.0308872609 1.6359046056 4.044577333
| 27> H 3.7763127048 0.9249044471 2.603085008
| 28> H 0.7910129894 1.523807934 2.9313185546
| 29> H 1.5580411969 -0.0911036598 2.9908190605
| 30> H 3.6416361413 0.7765051316 -2.3045839281
| 31> H 5.0440512184 1.3464300863 -1.3533374847
| 32> H 5.4258224224 -1.0248872221 -0.5891319204
| 33> H 4.0743943796 -1.5513324182 -1.5980562376
| 34> H 5.5258054557 -0.8758700135 -2.3525889655
| 35> H 0.7170955658 -2.4894627718 -0.340738858
| 36> H -0.5317511877 -2.1173766789 -1.5900017363
| 37> H -1.4187864651 1.5357123582 1.503995203
| 38> H -0.4516842706 2.7210715658 0.5800205255
| 39> H -2.3464496948 3.8500538411 1.7485008373
| 40> H -2.556507169 3.941760952 -0.0086468736
| 41> H -3.496786157 2.7771368443 0.9310555648
| 42> H -4.6639110954 -1.2839227943 -0.5944542216
| 43> H -4.0600693277 -1.5858781601 1.055594125
| 44> H -6.5021720695 -1.071744866 1.0880629591
| 45> H -5.5875585248 0.1883691529 1.9314447914
| 46> H -6.1925502545 0.4798830012 0.2945644991
| 47> *
| 48>
| 49>                          ****END OF INPUT****

CARTESIAN COORDINATES (ANGSTROEM)
---------------------------------
  C      2.961760    1.551740    2.964700
  C      1.635812    0.924757    2.589796
  O      1.474966    0.867565    1.157274
  P      2.302575   -0.149675    0.265097
  S      2.808650   -1.802696    1.198373
  O      3.467923    0.796478   -0.252218
  C      4.267884    0.582595   -1.428971
  C      4.864269   -0.808139   -1.494876
  S      1.051785   -0.369060   -1.430648
  C      0.059673   -1.727968   -0.761596
  S     -1.045745   -1.200702    0.568122
  P     -2.254698    0.088844   -0.638262
  S     -2.540114   -0.514848   -2.473865
  O     -1.607585    1.520860   -0.565214
  C     -1.431886    2.249489    0.675380
  C     -2.533712    3.273735    0.847858
  O     -3.559947    0.248806    0.251456
  C     -4.500489   -0.837196    0.391592
  C     -5.782288   -0.269269    0.965898
  H      3.053512    2.536693    2.515091
  H      3.030887    1.635905    4.044577
  H      3.776313    0.924904    2.603085
  H      0.791013    1.523808    2.931319
  H      1.558041   -0.091104    2.990819
  H      3.641636    0.776505   -2.304584
  H      5.044051    1.346430   -1.353337
  H      5.425822   -1.024887   -0.589132
  H      4.074394   -1.551332   -1.598056
  H      5.525805   -0.875870   -2.352589
  H      0.717096   -2.489463   -0.340739
  H     -0.531751   -2.117377   -1.590002
  H     -1.418786    1.535712    1.503995
  H     -0.451684    2.721072    0.580021
  H     -2.346450    3.850054    1.748501
  H     -2.556507    3.941761   -0.008647
  H     -3.496786    2.777137    0.931056
  H     -4.663911   -1.283923   -0.594454
  H     -4.060069   -1.585878    1.055594
  H     -6.502172   -1.071745    1.088063
  H     -5.587559    0.188369    1.931445
  H     -6.192550    0.479883    0.294564

 Total Charge           Charge          ....    0
 Multiplicity           Mult            ....    1
 Number of Electrons    NEL             ....  202
 Basis Dimension        Dim             ....  334

ORBITAL ENERGIES
----------------

  NO   OCC          E(Eh)            E(eV)
   0   2.0000     -88.043038     -2395.7729
   1   2.0000     -88.039524     -2395.6773
   2   2.0000     -87.988415     -2394.2865
   3   2.0000     -87.984284     -2394.1741
   4   2.0000     -76.428312     -2079.7201
   5   2.0000     -76.425104     -2079.6328
   6   2.0000     -18.797644      -511.5099
   7   2.0000     -18.795404      -511.4490
   8   2.0000     -18.790810      -511.3239
   9   2.0000     -18.790654      -511.3197
  10   2.0000      -9.959643      -271.0157
  11   2.0000      -9.955801      -270.9111
  12   2.0000      -9.953608      -270.8514
  13   2.0000      -9.951809      -270.8025
  14   2.0000      -9.951375      -270.7907
  15   2.0000      -9.891690      -269.1666
  16   2.0000      -9.885944      -269.0102
  17   2.0000      -9.884489      -268.9706
  18   2.0000      -9.884319      -268.9660
  19   2.0000      -7.688016      -209.2016
  20   2.0000      -7.684466      -209.1049
  21   2.0000      -7.633361      -207.7143
  22   2.0000      -7.629640      -207.6131
  23   2.0000      -6.425651      -174.8509
  24   2.0000      -6.422728      -174.7713
  25   2.0000      -5.715770      -155.5340
  26   2.0000      -5.712611      -155.4481
  27   2.0000      -5.712155      -155.4356
  28   2.0000      -5.709077      -155.3519
  29   2.0000      -5.705037      -155.2419
  30   2.0000      -5.701574      -155.1477
  31   2.0000      -5.662166      -154.0754
  32   2.0000      -5.658611      -153.9786
  33   2.0000      -5.654091      -153.8557
  34   2.0000      -5.653537      -153.8406
  35   2.0000      -5.650139      -153.7481
  36   2.0000      -5.649817      -153.7393
  37   2.0000      -4.648153      -126.4827
  38   2.0000      -4.647541      -126.4660
  39   2.0000      -4.646084      -126.4264
  40   2.0000      -4.645646      -126.4145
  41   2.0000      -4.644491      -126.3830
  42   2.0000      -4.642847      -126.3383
  43   2.0000      -0.990437       -26.9512
  44   2.0000      -0.988440       -26.8968
  45   2.0000      -0.947296       -25.7772
  46   2.0000      -0.946524       -25.7562
  47   2.0000      -0.764177       -20.7943
  48   2.0000      -0.722047       -19.6479
  49   2.0000      -0.711273       -19.3547
  50   2.0000      -0.693893       -18.8818
  51   2.0000      -0.688909       -18.7462
  52   2.0000      -0.674750       -18.3609
  53   2.0000      -0.650554       -17.7025
  54   2.0000      -0.638606       -17.3774
  55   2.0000      -0.599444       -16.3117
  56   2.0000      -0.589111       -16.0305
  57   2.0000      -0.575535       -15.6611
  58   2.0000      -0.570880       -15.5344
  59   2.0000      -0.564647       -15.3648
  60   2.0000      -0.511013       -13.9054
  61   2.0000      -0.495506       -13.4834
  62   2.0000      -0.482242       -13.1225
  63   2.0000      -0.471299       -12.8247
  64   2.0000      -0.461103       -12.5473
  65   2.0000      -0.446214       -12.1421
  66   2.0000      -0.441350       -12.0097
  67   2.0000      -0.438409       -11.9297
  68   2.0000      -0.431470       -11.7409
  69   2.0000      -0.418675       -11.3927
  70   2.0000      -0.408540       -11.1169
  71   2.0000      -0.395454       -10.7608
  72   2.0000      -0.390025       -10.6131
  73   2.0000      -0.385988       -10.5033
  74   2.0000      -0.382675       -10.4131
  75   2.0000      -0.377661       -10.2767
  76   2.0000      -0.368606       -10.0303
  77   2.0000      -0.360153        -9.8003
  78   2.0000      -0.353595        -9.6218
  79   2.0000      -0.351136        -9.5549
  80   2.0000      -0.348230        -9.4758
  81   2.0000      -0.347440        -9.4543
  82   2.0000      -0.344933        -9.3861
  83   2.0000      -0.342688        -9.3250
  84   2.0000      -0.336139        -9.1468
  85   2.0000      -0.322199        -8.7675
  86   2.0000      -0.312629        -8.5071
  87   2.0000      -0.302958        -8.2439
  88   2.0000      -0.299165        -8.1407
  89   2.0000      -0.294123        -8.0035
  90   2.0000      -0.289286        -7.8719
  91   2.0000      -0.278016        -7.5652
  92   2.0000      -0.272846        -7.4245
  93   2.0000      -0.265154        -7.2152
  94   2.0000      -0.256309        -6.9745
  95   2.0000      -0.233888        -6.3644
  96   2.0000      -0.218299        -5.9402
  97   2.0000      -0.211624        -5.7586
  98   2.0000      -0.204278        -5.5587
  99   2.0000      -0.200521        -5.4565
 100   2.0000      -0.198285        -5.3956
 101   0.0000      -0.044384        -1.2078
 102   0.0000      -0.023658        -0.6438
 103   0.0000      -0.003237        -0.0881
 104   0.0000       0.002333         0.0635
 105   0.0000       0.011141         0.3032

MULLIKEN ATOMIC CHARGES
-----------------------
   0 C :   -0.299638
   1 C :   -0.011898
   2 O :   -0.359009
   3 P :    0.612037
   4 S :   -0.335020
   5 O :   -0.374484
   6 C :   -0.010717
   7 C :   -0.311536
   8 S :   -0.072630
   9 C :   -0.367582
  10 S :   -0.098903
  11 P :    0.600273
  12 S :   -0.314821
  13 O :   -0.346938
  14 C :   -0.023760
  15 C :   -0.284196
  16 O :   -0.385723
  17 C :   -0.011739
  18 C :   -0.282476
  19 H :    0.113655
  20 H :    0.110700
  21 H :    0.124246
  22 H :    0.099450
  23 H :    0.115546
  24 H :    0.117341
  25 H :    0.109539
  26 H :    0.125999
  27 H :    0.126222
  28 H :    0.112833
  29 H :    0.192281
  30 H :    0.194979
  31 H :    0.105302
  32 H :    0.118748
  33 H :    0.106292
  34 H :    0.120124
  35 H :    0.119767
  36 H :    0.107758
  37 H :    0.105308
  38 H :    0.114506
  39 H :    0.115349
  40 H :    0.122814
Sum of atomic charges:    0.0000000

LOEWDIN ATOMIC CHARGES
----------------------
   0 C :   -0.363198
   1 C :   -0.120585
   2 O :   -0.238021
   3 P :    0.574308
   4 S :   -0.318164
   5 O :   -0.244381
   6 C :   -0.113105
   7 C :   -0.369876
   8 S :    0.093473
   9 C :   -0.485383
  10 S :    0.062386
  11 P :    0.567746
  12 S :   -0.310882
  13 O :   -0.227966
  14 C :   -0.113993
  15 C :   -0.358736
  16 O :   -0.250481
  17 C :   -0.120065
  18 C :   -0.350557
  19 H :    0.125055
  20 H :    0.129834
  21 H :    0.123629
  22 H :    0.112285
  23 H :    0.109936
  24 H :    0.111889
  25 H :    0.121692
  26 H :    0.129178
  27 H :    0.121424
  28 H :    0.130720
  29 H :    0.127955
  30 H :    0.129613
  31 H :    0.103382
  32 H :    0.121116
  33 H :    0.127897
  34 H :    0.129118
  35 H :    0.125244
  36 H :    0.110945
  37 H :    0.109294
  38 H :    0.132182
  39 H :    0.125557
  40 H :    0.129536

  Mayer bond orders larger than 0.100000
B(  0-C ,  1-C ) :   1.1647 B(  0-C , 19-H ) :   0.9469 B(  0-C , 20-H ) :   0.9395
B(  0-C , 21-H ) :   0.9351 B(  1-C ,  2-O ) :   0.9037 B(  1-C , 22-H ) :   0.9286
B(  1-C , 23-H ) :   0.9112 B(  2-O ,  3-P ) :   1.1151 B(  3-P ,  4-S ) :   1.5916
B(  3-P ,  5-O ) :   1.1135 B(  3-P ,  8-S ) :   0.9555 B(  4-S ,  8-S ) :   0.1098
B(  5-O ,  6-C ) :   0.9120 B(  6-C ,  7-C ) :   1.1646 B(  6-C , 24-H ) :   0.9284
B(  6-C , 25-H ) :   0.9343 B(  7-C , 26-H ) :   0.9425 B(  7-C , 27-H ) :   0.9330
B(  7-C , 28-H ) :   0.9347 B(  8-S ,  9-C ) :   1.0082 B(  9-C , 10-S ) :   1.0073
B(  9-C , 29-H ) :   0.8733 B(  9-C , 30-H ) :   0.8767 B( 10-S , 11-P ) :   0.9452
B( 10-S , 12-S ) :   0.1107 B( 11-P , 12-S ) :   1.6497 B( 11-P , 13-O ) :   1.1487
B( 11-P , 16-O ) :   1.0758 B( 13-O , 14-C ) :   0.8891 B( 14-C , 15-C ) :   1.1562
B( 14-C , 31-H ) :   0.9111 B( 14-C , 32-H ) :   0.9303 B( 15-C , 33-H ) :   0.9408
B( 15-C , 34-H ) :   0.9464 B( 15-C , 35-H ) :   0.9417 B( 16-O , 17-C ) :   0.9032
B( 17-C , 18-C ) :   1.1595 B( 17-C , 36-H ) :   0.9112 B( 17-C , 37-H ) :   0.9271
B( 18-C , 38-H ) :   0.9417 B( 18-C , 39-H ) :   0.9508 B( 18-C , 40-H ) :   0.9506

Dispersion correction           -0.064928382
FINAL SINGLE POINT ENERGY     -2929.522277989618

DIPOLE MOMENT
-------------

Method             : SCF
Type of density    : Electron Density
Multiplicity       :   1
Irrep              :   0
Energy             : -2929.6424942404769354 Eh
Relativity type    :
Basis              : AO
                                X                 Y                 Z
Electronic contribution:      1.127655532     -10.767890232     -12.044771494
Nuclear contribution   :     -1.151390704      11.613381435      13.056809370
                        -----------------------------------------
Total Dipole Moment    :     -0.023735172       0.845491203       1.012037876
                        -----------------------------------------
Magnitude (a.u.)       :      1.318953901
Magnitude (Debye)      :      3.352514389

Rotational constants in cm-1:             0.013068             0.004769             0.004356
Rotational constants in MHz :           391.763199           142.969563           130.591883

                             ****ORCA TERMINATED NORMALLY****
TOTAL RUN TIME: 0 days 0 hours 0 minutes 20 seconds 834 msec
