                         Program Version 6.0.0  -   RELEASE  -
|  1> ! pbe def2-sv(p) def2/J RI DEFGRID1 loosescf d4 GCP(DFT/SV(P)) printgap
|  2> %output
|  3>     printlevel normal
|  4> end
|  5> * xyz 0 1
|  6> C 3.2558888417 -1.2443793264 -2.3810317959
|  7> C 1.862667267 -0.6617095691 -2.2850462319
|  8> O 1.3706478021 -0.6787174381 -0.9325503245
|  9> P 1.9993019534 0.2316736394 0.2035137097
| 10> S 2.8296197139 1.9252082352 -0.3156868321
| 11> O 2.9975230115 -0.8191782437 0.8760766191
| 12> C 4.05541973 -0.4132801397 1.7580373168
| 13> C 3.5277708717 0.0847307944 3.0889230653
| 14> S 0.3755388713 0.3329297357 1.5485576386
| 15> C -0.2207480334 -1.3734748159 1.4547189859
| 16> S -1.2018124055 -1.7681265701 -0.0395317037
| 17> P -1.9602661857 0.1153143001 -0.6009880813
| 18> S -0.8676316044 1.5190637421 -1.4296781155
| 19> O -2.740304389 0.5296968242 0.7295941929
| 20> C -2.7871961447 1.8525186056 1.3021910059
| 21> C -2.6687826696 1.7353897558 2.8082460426
| 22> O -3.0772326269 -0.2917676473 -1.6481640011
| 23> C -4.1624719699 -1.2095044983 -1.3534501923
| 24> C -3.9332666208 -2.5390907733 -2.0436070517
| 25> H 3.5497553825 -1.2985091292 -3.4244603587
| 26> H 3.9587988031 -0.605353597 -1.847408729
| 27> H 3.2764777556 -2.2392004668 -1.9437867366
| 28> H 1.1298402075 -1.255924267 -2.8344609317
| 29> H 1.8381810169 0.3714849095 -2.6479198369
| 30> H 4.662369495 -1.3123720987 1.8734422548
| 31> H 4.6365995182 0.3700246437 1.2609005662
| 32> H 2.8921841302 -0.6645074641 3.5534353473
| 33> H 4.3635389504 0.3050486255 3.7451844827
| 34> H 2.948131917 0.9955142608 2.9388729853
| 35> H -0.8551059645 -1.5144759189 2.3267459368
| 36> H 0.6235552872 -2.0598666111 1.4594214773
| 37> H -1.9751359436 2.4523595867 0.8774079483
| 38> H -3.7435528346 2.2927918051 1.010162007
| 39> H -2.7836389942 2.721082995 3.2468626117
| 40> H -3.4447966583 1.078445412 3.1899118166
| 41> H -1.6939942233 1.3366861549 3.0783937847
| 42> H -4.2453346248 -1.3285612977 -0.2710611751
| 43> H -5.0545178995 -0.7131761418 -1.7394542273
| 44> H -4.7941576093 -3.1781664625 -1.8750836803
| 45> H -3.8035674593 -2.3847851323 -3.111248425
| 46> H -3.0440204915 -3.0249598287 -1.6480743969
| 47> *
| 48>
| 49>                          ****END OF INPUT****

CARTESIAN COORDINATES (ANGSTROEM)
---------------------------------
  C      3.255889   -1.244379   -2.381032
  C      1.862667   -0.661710   -2.285046
  O      1.370648   -0.678717   -0.932550
  P      1.999302    0.231674    0.203514
  S      2.829620    1.925208   -0.315687
  O      2.997523   -0.819178    0.876077
  C      4.055420   -0.413280    1.758037
  C      3.527771    0.084731    3.088923
  S      0.375539    0.332930    1.548558
  C     -0.220748   -1.373475    1.454719
  S     -1.201812   -1.768127   -0.039532
  P     -1.960266    0.115314   -0.600988
  S     -0.867632    1.519064   -1.429678
  O     -2.740304    0.529697    0.729594
  C     -2.787196    1.852519    1.302191
  C     -2.668783    1.735390    2.808246
  O     -3.077233   -0.291768   -1.648164
  C     -4.162472   -1.209504   -1.353450
  C     -3.933267   -2.539091   -2.043607
  H      3.549755   -1.298509   -3.424460
  H      3.958799   -0.605354   -1.847409
  H      3.276478   -2.239200   -1.943787
  H      1.129840   -1.255924   -2.834461
  H      1.838181    0.371485   -2.647920
  H      4.662369   -1.312372    1.873442
  H      4.636600    0.370025    1.260901
  H      2.892184   -0.664507    3.553435
  H      4.363539    0.305049    3.745184
  H      2.948132    0.995514    2.938873
  H     -0.855106   -1.514476    2.326746
  H      0.623555   -2.059867    1.459421
  H     -1.975136    2.452360    0.877408
  H     -3.743553    2.292792    1.010162
  H     -2.783639    2.721083    3.246863
  H     -3.444797    1.078445    3.189912
  H     -1.693994    1.336686    3.078394
  H     -4.245335   -1.328561   -0.271061
  H     -5.054518   -0.713176   -1.739454
  H     -4.794158   -3.178166   -1.875084
  H     -3.803567   -2.384785   -3.111248
  H     -3.044020   -3.024960   -1.648074

 Total Charge           Charge          ....    0
 Multiplicity           Mult            ....    1
 Number of Electrons    NEL             ....  202
 Basis Dimension        Dim             ....  334

ORBITAL ENERGIES
----------------

  NO   OCC          E(Eh)            E(eV)
   0   2.0000     -88.047655     -2395.8985
   1   2.0000     -88.038917     -2395.6607
   2   2.0000     -87.985847     -2394.2166
   3   2.0000     -87.972234     -2393.8462
   4   2.0000     -76.424146     -2079.6067
   5   2.0000     -76.420720     -2079.5135
   6   2.0000     -18.788608      -511.2640
   7   2.0000     -18.787872      -511.2440
   8   2.0000     -18.786753      -511.2136
   9   2.0000     -18.782308      -511.0926
  10   2.0000      -9.963134      -271.1107
  11   2.0000      -9.953335      -270.8440
  12   2.0000      -9.950423      -270.7648
  13   2.0000      -9.947734      -270.6916
  14   2.0000      -9.941742      -270.5285
  15   2.0000      -9.886485      -269.0249
  16   2.0000      -9.885614      -269.0012
  17   2.0000      -9.884376      -268.9675
  18   2.0000      -9.876975      -268.7661
  19   2.0000      -7.691919      -209.3078
  20   2.0000      -7.683990      -209.0920
  21   2.0000      -7.630927      -207.6481
  22   2.0000      -7.617267      -207.2764
  23   2.0000      -6.421484      -174.7375
  24   2.0000      -6.417732      -174.6354
  25   2.0000      -5.720267      -155.6564
  26   2.0000      -5.716181      -155.5452
  27   2.0000      -5.712166      -155.4359
  28   2.0000      -5.708680      -155.3411
  29   2.0000      -5.708376      -155.3328
  30   2.0000      -5.700756      -155.1254
  31   2.0000      -5.659919      -154.0142
  32   2.0000      -5.651683      -153.7901
  33   2.0000      -5.650915      -153.7692
  34   2.0000      -5.646579      -153.6512
  35   2.0000      -5.637614      -153.4073
  36   2.0000      -5.637268      -153.3979
  37   2.0000      -4.643713      -126.3618
  38   2.0000      -4.643457      -126.3549
  39   2.0000      -4.642124      -126.3186
  40   2.0000      -4.640816      -126.2830
  41   2.0000      -4.639354      -126.2433
  42   2.0000      -4.637957      -126.2052
  43   2.0000      -0.982222       -26.7276
  44   2.0000      -0.978951       -26.6386
  45   2.0000      -0.939969       -25.5779
  46   2.0000      -0.938734       -25.5443
  47   2.0000      -0.764445       -20.8016
  48   2.0000      -0.718987       -19.5646
  49   2.0000      -0.706724       -19.2309
  50   2.0000      -0.690414       -18.7871
  51   2.0000      -0.682618       -18.5750
  52   2.0000      -0.671614       -18.2755
  53   2.0000      -0.650253       -17.6943
  54   2.0000      -0.634520       -17.2662
  55   2.0000      -0.596427       -16.2296
  56   2.0000      -0.584565       -15.9068
  57   2.0000      -0.571898       -15.5621
  58   2.0000      -0.567459       -15.4413
  59   2.0000      -0.563968       -15.3463
  60   2.0000      -0.504147       -13.7185
  61   2.0000      -0.489771       -13.3274
  62   2.0000      -0.476853       -12.9758
  63   2.0000      -0.468586       -12.7509
  64   2.0000      -0.456539       -12.4231
  65   2.0000      -0.441394       -12.0109
  66   2.0000      -0.439024       -11.9464
  67   2.0000      -0.431664       -11.7462
  68   2.0000      -0.425018       -11.5653
  69   2.0000      -0.415919       -11.3177
  70   2.0000      -0.412377       -11.2213
  71   2.0000      -0.392112       -10.6699
  72   2.0000      -0.388949       -10.5838
  73   2.0000      -0.386368       -10.5136
  74   2.0000      -0.376836       -10.2542
  75   2.0000      -0.374943       -10.2027
  76   2.0000      -0.364729        -9.9248
  77   2.0000      -0.358083        -9.7439
  78   2.0000      -0.354857        -9.6562
  79   2.0000      -0.350615        -9.5407
  80   2.0000      -0.348412        -9.4808
  81   2.0000      -0.344362        -9.3706
  82   2.0000      -0.339249        -9.2314
  83   2.0000      -0.333883        -9.0854
  84   2.0000      -0.327834        -8.9208
  85   2.0000      -0.319916        -8.7054
  86   2.0000      -0.313859        -8.5405
  87   2.0000      -0.300368        -8.1734
  88   2.0000      -0.292487        -7.9590
  89   2.0000      -0.284021        -7.7286
  90   2.0000      -0.279205        -7.5975
  91   2.0000      -0.268032        -7.2935
  92   2.0000      -0.266942        -7.2639
  93   2.0000      -0.264829        -7.2064
  94   2.0000      -0.256302        -6.9743
  95   2.0000      -0.230751        -6.2791
  96   2.0000      -0.217476        -5.9178
  97   2.0000      -0.207929        -5.6580
  98   2.0000      -0.200759        -5.4629
  99   2.0000      -0.188214        -5.1216
 100   2.0000      -0.180416        -4.9094
 101   0.0000      -0.051124        -1.3912
 102   0.0000      -0.028624        -0.7789
 103   0.0000      -0.009200        -0.2504
 104   0.0000      -0.003728        -0.1014
 105   0.0000       0.020989         0.5711

MULLIKEN ATOMIC CHARGES
-----------------------
   0 C :   -0.303787
   1 C :    0.002128
   2 O :   -0.370127
   3 P :    0.632706
   4 S :   -0.304175
   5 O :   -0.378175
   6 C :   -0.006114
   7 C :   -0.306950
   8 S :   -0.102473
   9 C :   -0.303969
  10 S :   -0.120411
  11 P :    0.610861
  12 S :   -0.297264
  13 O :   -0.398561
  14 C :   -0.002348
  15 C :   -0.298869
  16 O :   -0.361433
  17 C :   -0.021841
  18 C :   -0.293157
  19 H :    0.110568
  20 H :    0.120161
  21 H :    0.110703
  22 H :    0.101669
  23 H :    0.119922
  24 H :    0.102642
  25 H :    0.110227
  26 H :    0.109275
  27 H :    0.112133
  28 H :    0.123942
  29 H :    0.181761
  30 H :    0.183631
  31 H :    0.119177
  32 H :    0.101156
  33 H :    0.112211
  34 H :    0.110195
  35 H :    0.123064
  36 H :    0.105990
  37 H :    0.108574
  38 H :    0.108757
  39 H :    0.120943
  40 H :    0.127260
Sum of atomic charges:   -0.0000000

LOEWDIN ATOMIC CHARGES
----------------------
   0 C :   -0.366197
   1 C :   -0.115805
   2 O :   -0.237917
   3 P :    0.575721
   4 S :   -0.303522
   5 O :   -0.251134
   6 C :   -0.122510
   7 C :   -0.367522
   8 S :    0.114503
   9 C :   -0.466407
  10 S :    0.074925
  11 P :    0.554978
  12 S :   -0.297894
  13 O :   -0.262930
  14 C :   -0.118758
  15 C :   -0.356998
  16 O :   -0.244915
  17 C :   -0.119890
  18 C :   -0.360074
  19 H :    0.129710
  20 H :    0.120486
  21 H :    0.123642
  22 H :    0.117636
  23 H :    0.113319
  24 H :    0.117084
  25 H :    0.109253
  26 H :    0.121085
  27 H :    0.130247
  28 H :    0.120002
  29 H :    0.135458
  30 H :    0.134129
  31 H :    0.110112
  32 H :    0.113681
  33 H :    0.131551
  34 H :    0.123274
  35 H :    0.115676
  36 H :    0.108053
  37 H :    0.120192
  38 H :    0.129422
  39 H :    0.129338
  40 H :    0.118998

  Mayer bond orders larger than 0.100000
B(  0-C ,  1-C ) :   1.1598 B(  0-C , 19-H ) :   0.9396 B(  0-C , 20-H ) :   0.9353
B(  0-C , 21-H ) :   0.9454 B(  1-C ,  2-O ) :   0.8960 B(  1-C , 22-H ) :   0.9332
B(  1-C , 23-H ) :   0.9184 B(  2-O ,  3-P ) :   1.1227 B(  3-P ,  4-S ) :   1.6431
B(  3-P ,  5-O ) :   1.0683 B(  3-P ,  8-S ) :   0.9385 B(  5-O ,  6-C ) :   0.9165
B(  6-C ,  7-C ) :   1.1648 B(  6-C , 24-H ) :   0.9341 B(  6-C , 25-H ) :   0.9130
B(  7-C , 26-H ) :   0.9462 B(  7-C , 27-H ) :   0.9386 B(  7-C , 28-H ) :   0.9364
B(  8-S ,  9-C ) :   1.0123 B(  9-C , 10-S ) :   0.9627 B(  9-C , 29-H ) :   0.9110
B(  9-C , 30-H ) :   0.9031 B( 10-S , 11-P ) :   0.9776 B( 10-S , 12-S ) :   0.1126
B( 11-P , 12-S ) :   1.6335 B( 11-P , 13-O ) :   1.0644 B( 11-P , 16-O ) :   1.1256
B( 13-O , 14-C ) :   0.8973 B( 14-C , 15-C ) :   1.1605 B( 14-C , 31-H ) :   0.9026
B( 14-C , 32-H ) :   0.9351 B( 15-C , 33-H ) :   0.9409 B( 15-C , 34-H ) :   0.9486
B( 15-C , 35-H ) :   0.9427 B( 16-O , 17-C ) :   0.8990 B( 17-C , 18-C ) :   1.1646
B( 17-C , 36-H ) :   0.9162 B( 17-C , 37-H ) :   0.9330 B( 18-C , 38-H ) :   0.9397
B( 18-C , 39-H ) :   0.9460 B( 18-C , 40-H ) :   0.9384

Dispersion correction           -0.068274346
FINAL SINGLE POINT ENERGY     -2929.509578492313

DIPOLE MOMENT
-------------

Method             : SCF
Type of density    : Electron Density
Multiplicity       :   1
Irrep              :   0
Energy             : -2929.6264142412373985 Eh
Relativity type    :
Basis              : AO
                                X                 Y                 Z
Electronic contribution:      0.944090261       7.998160815      -5.999041301
Nuclear contribution   :     -1.551257581      -9.446233891       7.119066376
                        -----------------------------------------
Total Dipole Moment    :     -0.607167321      -1.448073077       1.120025075
                        -----------------------------------------
Magnitude (a.u.)       :      1.928736363
Magnitude (Debye)      :      4.902458230

Rotational constants in cm-1:             0.011911             0.005724             0.005067
Rotational constants in MHz :           357.094431           171.615958           151.918060

                             ****ORCA TERMINATED NORMALLY****
TOTAL RUN TIME: 0 days 0 hours 0 minutes 21 seconds 299 msec
