                         Program Version 6.0.0  -   RELEASE  -
|  1> ! pbe def2-sv(p) def2/J RI DEFGRID1 loosescf d4 GCP(DFT/SV(P)) printgap
|  2> %output
|  3>     printlevel normal
|  4> end
|  5> * xyz 0 1
|  6> C 2.6824891437 -3.0506777157 -1.218399571
|  7> C 3.9761332653 -2.3154890203 -0.9441666635
|  8> O 3.84138331 -0.8774027992 -1.0864796602
|  9> P 2.8420350661 0.0338847917 -0.2874516486
| 10> S 3.4061403679 1.9095833546 -0.2643075365
| 11> O 2.815529373 -0.6825438371 1.1345811731
| 12> C 2.2084428126 -0.1095596497 2.3077136722
| 13> C 0.9707470132 -0.8951166894 2.6944398948
| 14> S 0.9347950714 -0.2894651925 -1.2108730444
| 15> C 0.2782162415 1.3882523655 -1.1101654941
| 16> S -0.5195626467 1.7358222168 0.4825526909
| 17> P -2.2543032329 0.5848677614 0.1097297713
| 18> S -2.9603274073 0.6940259779 -1.7213057392
| 19> O -3.0918449595 1.1861154277 1.3099747046
| 20> C -4.2521034047 0.5367149669 1.8739804806
| 21> C -5.4689605554 0.6766337706 0.9812064711
| 22> O -1.9371044828 -0.8976838753 0.5987219643
| 23> C -1.9029893808 -2.0546914015 -0.2573350429
| 24> C -3.1948268863 -2.8363454477 -0.1252009116
| 25> H 2.8655609884 -4.1197957359 -1.1747408748
| 26> H 1.9366928809 -2.7868389212 -0.4711522106
| 27> H 2.2970930231 -2.791777235 -2.2012833936
| 28> H 4.7455711064 -2.5636903984 -1.6765711714
| 29> H 4.3393781343 -2.5222023801 0.0640693706
| 30> H 2.9721740466 -0.1721719677 3.0857832673
| 31> H 1.974404779 0.9436494814 2.1210746479
| 32> H 0.2062774421 -0.8109782551 1.926226346
| 33> H 1.2229838011 -1.9427123365 2.8322265191
| 34> H 0.5750775543 -0.4950171553 3.622308647
| 35> H -0.4558167767 1.4944754372 -1.9099462362
| 36> H 1.0966420401 2.1012699136 -1.2208154262
| 37> H -4.0125322287 -0.5142786116 2.0525989632
| 38> H -4.3964236549 1.049942784 2.8261989766
| 39> H -5.2993733357 0.1811396787 0.0267886839
| 40> H -6.3275118605 0.2253967894 1.4685059325
| 41> H -5.6752724308 1.7263755798 0.788545755
| 42> H -1.7452018626 -1.7348938278 -1.2913458532
| 43> H -1.0433706758 -2.6363182273 0.0781239408
| 44> H -4.0294406629 -2.2385605 -0.4858435388
| 45> H -3.1258983533 -3.7393001754 -0.7228257092
| 46> H -3.3704062497 -3.1054721668 0.9126669401
| 47> *
| 48>
| 49>                          ****END OF INPUT****

CARTESIAN COORDINATES (ANGSTROEM)
---------------------------------
  C      2.682489   -3.050678   -1.218400
  C      3.976133   -2.315489   -0.944167
  O      3.841383   -0.877403   -1.086480
  P      2.842035    0.033885   -0.287452
  S      3.406140    1.909583   -0.264308
  O      2.815529   -0.682544    1.134581
  C      2.208443   -0.109560    2.307714
  C      0.970747   -0.895117    2.694440
  S      0.934795   -0.289465   -1.210873
  C      0.278216    1.388252   -1.110165
  S     -0.519563    1.735822    0.482553
  P     -2.254303    0.584868    0.109730
  S     -2.960327    0.694026   -1.721306
  O     -3.091845    1.186115    1.309975
  C     -4.252103    0.536715    1.873980
  C     -5.468961    0.676634    0.981206
  O     -1.937104   -0.897684    0.598722
  C     -1.902989   -2.054691   -0.257335
  C     -3.194827   -2.836345   -0.125201
  H      2.865561   -4.119796   -1.174741
  H      1.936693   -2.786839   -0.471152
  H      2.297093   -2.791777   -2.201283
  H      4.745571   -2.563690   -1.676571
  H      4.339378   -2.522202    0.064069
  H      2.972174   -0.172172    3.085783
  H      1.974405    0.943649    2.121075
  H      0.206277   -0.810978    1.926226
  H      1.222984   -1.942712    2.832227
  H      0.575078   -0.495017    3.622309
  H     -0.455817    1.494475   -1.909946
  H      1.096642    2.101270   -1.220815
  H     -4.012532   -0.514279    2.052599
  H     -4.396424    1.049943    2.826199
  H     -5.299373    0.181140    0.026789
  H     -6.327512    0.225397    1.468506
  H     -5.675272    1.726376    0.788546
  H     -1.745202   -1.734894   -1.291346
  H     -1.043371   -2.636318    0.078124
  H     -4.029441   -2.238561   -0.485844
  H     -3.125898   -3.739300   -0.722826
  H     -3.370406   -3.105472    0.912667

 Total Charge           Charge          ....    0
 Multiplicity           Mult            ....    1
 Number of Electrons    NEL             ....  202
 Basis Dimension        Dim             ....  334

ORBITAL ENERGIES
----------------

  NO   OCC          E(Eh)            E(eV)
   0   2.0000     -88.041755     -2395.7380
   1   2.0000     -88.041075     -2395.7195
   2   2.0000     -87.993490     -2394.4246
   3   2.0000     -87.985582     -2394.2094
   4   2.0000     -76.431505     -2079.8070
   5   2.0000     -76.428322     -2079.7204
   6   2.0000     -18.799589      -511.5628
   7   2.0000     -18.798339      -511.5288
   8   2.0000     -18.795638      -511.4553
   9   2.0000     -18.793221      -511.3895
  10   2.0000      -9.962599      -271.0961
  11   2.0000      -9.962400      -271.0907
  12   2.0000      -9.956533      -270.9310
  13   2.0000      -9.951162      -270.7849
  14   2.0000      -9.947078      -270.6738
  15   2.0000      -9.896537      -269.2985
  16   2.0000      -9.892090      -269.1774
  17   2.0000      -9.888701      -269.0852
  18   2.0000      -9.881323      -268.8845
  19   2.0000      -7.686226      -209.1528
  20   2.0000      -7.686169      -209.1513
  21   2.0000      -7.638313      -207.8491
  22   2.0000      -7.630815      -207.6450
  23   2.0000      -6.429025      -174.9427
  24   2.0000      -6.425693      -174.8520
  25   2.0000      -5.714091      -155.4883
  26   2.0000      -5.713986      -155.4855
  27   2.0000      -5.710893      -155.4013
  28   2.0000      -5.710696      -155.3959
  29   2.0000      -5.703386      -155.1970
  30   2.0000      -5.702992      -155.1863
  31   2.0000      -5.667158      -154.2112
  32   2.0000      -5.659837      -154.0120
  33   2.0000      -5.659192      -153.9944
  34   2.0000      -5.658316      -153.9706
  35   2.0000      -5.651269      -153.7788
  36   2.0000      -5.650989      -153.7712
  37   2.0000      -4.651918      -126.5851
  38   2.0000      -4.650459      -126.5454
  39   2.0000      -4.649495      -126.5192
  40   2.0000      -4.648632      -126.4957
  41   2.0000      -4.647215      -126.4572
  42   2.0000      -4.646063      -126.4258
  43   2.0000      -0.993521       -27.0351
  44   2.0000      -0.990693       -26.9581
  45   2.0000      -0.951088       -25.8804
  46   2.0000      -0.945741       -25.7349
  47   2.0000      -0.763131       -20.7659
  48   2.0000      -0.727083       -19.7849
  49   2.0000      -0.715122       -19.4595
  50   2.0000      -0.694628       -18.9018
  51   2.0000      -0.693562       -18.8728
  52   2.0000      -0.676504       -18.4086
  53   2.0000      -0.653768       -17.7899
  54   2.0000      -0.637596       -17.3499
  55   2.0000      -0.602869       -16.4049
  56   2.0000      -0.596122       -16.2213
  57   2.0000      -0.583315       -15.8728
  58   2.0000      -0.578030       -15.7290
  59   2.0000      -0.557022       -15.1573
  60   2.0000      -0.507517       -13.8102
  61   2.0000      -0.499680       -13.5970
  62   2.0000      -0.482963       -13.1421
  63   2.0000      -0.478205       -13.0126
  64   2.0000      -0.461888       -12.5686
  65   2.0000      -0.451202       -12.2778
  66   2.0000      -0.443709       -12.0739
  67   2.0000      -0.442904       -12.0520
  68   2.0000      -0.428957       -11.6725
  69   2.0000      -0.422851       -11.5063
  70   2.0000      -0.414282       -11.2732
  71   2.0000      -0.398255       -10.8371
  72   2.0000      -0.393367       -10.7041
  73   2.0000      -0.388356       -10.5677
  74   2.0000      -0.382470       -10.4075
  75   2.0000      -0.378194       -10.2912
  76   2.0000      -0.369953       -10.0669
  77   2.0000      -0.363341        -9.8870
  78   2.0000      -0.357535        -9.7290
  79   2.0000      -0.355701        -9.6791
  80   2.0000      -0.353110        -9.6086
  81   2.0000      -0.349586        -9.5127
  82   2.0000      -0.345608        -9.4045
  83   2.0000      -0.343394        -9.3442
  84   2.0000      -0.334601        -9.1049
  85   2.0000      -0.329369        -8.9626
  86   2.0000      -0.312425        -8.5015
  87   2.0000      -0.301298        -8.1987
  88   2.0000      -0.300245        -8.1701
  89   2.0000      -0.298117        -8.1122
  90   2.0000      -0.292322        -7.9545
  91   2.0000      -0.282965        -7.6999
  92   2.0000      -0.278771        -7.5857
  93   2.0000      -0.269505        -7.3336
  94   2.0000      -0.257628        -7.0104
  95   2.0000      -0.234399        -6.3783
  96   2.0000      -0.220094        -5.9891
  97   2.0000      -0.214781        -5.8445
  98   2.0000      -0.203661        -5.5419
  99   2.0000      -0.202687        -5.5154
 100   2.0000      -0.200032        -5.4431
 101   0.0000      -0.047659        -1.2969
 102   0.0000      -0.026872        -0.7312
 103   0.0000      -0.006421        -0.1747
 104   0.0000      -0.002066        -0.0562
 105   0.0000       0.008969         0.2440

MULLIKEN ATOMIC CHARGES
-----------------------
   0 C :   -0.351447
   1 C :    0.012188
   2 O :   -0.362758
   3 P :    0.613396
   4 S :   -0.304310
   5 O :   -0.386717
   6 C :   -0.002729
   7 C :   -0.317337
   8 S :   -0.128845
   9 C :   -0.363216
  10 S :   -0.074445
  11 P :    0.638745
  12 S :   -0.324901
  13 O :   -0.373445
  14 C :   -0.015769
  15 C :   -0.314905
  16 O :   -0.377279
  17 C :   -0.016397
  18 C :   -0.295629
  19 H :    0.119696
  20 H :    0.137936
  21 H :    0.134229
  22 H :    0.114287
  23 H :    0.112474
  24 H :    0.105123
  25 H :    0.107591
  26 H :    0.145360
  27 H :    0.103712
  28 H :    0.106731
  29 H :    0.195621
  30 H :    0.197265
  31 H :    0.109336
  32 H :    0.111897
  33 H :    0.136474
  34 H :    0.110681
  35 H :    0.124414
  36 H :    0.113779
  37 H :    0.109062
  38 H :    0.121164
  39 H :    0.113324
  40 H :    0.115644
Sum of atomic charges:    0.0000000

LOEWDIN ATOMIC CHARGES
----------------------
   0 C :   -0.375660
   1 C :   -0.105293
   2 O :   -0.235925
   3 P :    0.572659
   4 S :   -0.299144
   5 O :   -0.251785
   6 C :   -0.116044
   7 C :   -0.367353
   8 S :    0.071386
   9 C :   -0.494038
  10 S :    0.098422
  11 P :    0.571727
  12 S :   -0.308485
  13 O :   -0.242896
  14 C :   -0.111626
  15 C :   -0.365449
  16 O :   -0.240922
  17 C :   -0.125474
  18 C :   -0.359528
  19 H :    0.134788
  20 H :    0.118312
  21 H :    0.129242
  22 H :    0.124643
  23 H :    0.116702
  24 H :    0.117668
  25 H :    0.104392
  26 H :    0.118978
  27 H :    0.120158
  28 H :    0.129638
  29 H :    0.128371
  30 H :    0.128209
  31 H :    0.110270
  32 H :    0.122542
  33 H :    0.122116
  34 H :    0.129905
  35 H :    0.131595
  36 H :    0.104456
  37 H :    0.114088
  38 H :    0.124113
  39 H :    0.132157
  40 H :    0.123085

  Mayer bond orders larger than 0.100000
B(  0-C ,  1-C ) :   1.1701 B(  0-C , 19-H ) :   0.9342 B(  0-C , 20-H ) :   0.9286
B(  0-C , 21-H ) :   0.9389 B(  1-C ,  2-O ) :   0.8960 B(  1-C , 22-H ) :   0.9339
B(  1-C , 23-H ) :   0.9281 B(  2-O ,  3-P ) :   1.1500 B(  3-P ,  4-S ) :   1.6536
B(  3-P ,  5-O ) :   1.0709 B(  3-P ,  8-S ) :   0.9288 B(  4-S ,  8-S ) :   0.1141
B(  4-S , 30-H ) :   0.1046 B(  5-O ,  6-C ) :   0.9007 B(  6-C ,  7-C ) :   1.1657
B(  6-C , 24-H ) :   0.9355 B(  6-C , 25-H ) :   0.9019 B(  7-C , 26-H ) :   0.9210
B(  7-C , 27-H ) :   0.9460 B(  7-C , 28-H ) :   0.9402 B(  8-S ,  9-C ) :   1.0077
B(  9-C , 10-S ) :   1.0030 B(  9-C , 29-H ) :   0.8665 B(  9-C , 30-H ) :   0.8576
B( 10-S , 11-P ) :   0.9636 B( 10-S , 12-S ) :   0.1091 B( 11-P , 12-S ) :   1.6092
B( 11-P , 13-O ) :   1.1311 B( 11-P , 16-O ) :   1.0702 B( 13-O , 14-C ) :   0.9086
B( 14-C , 15-C ) :   1.1635 B( 14-C , 31-H ) :   0.9227 B( 14-C , 32-H ) :   0.9351
B( 15-C , 33-H ) :   0.9326 B( 15-C , 34-H ) :   0.9378 B( 15-C , 35-H ) :   0.9451
B( 16-O , 17-C ) :   0.8981 B( 17-C , 18-C ) :   1.1634 B( 17-C , 36-H ) :   0.9026
B( 17-C , 37-H ) :   0.9285 B( 18-C , 38-H ) :   0.9395 B( 18-C , 39-H ) :   0.9397
B( 18-C , 40-H ) :   0.9449

Dispersion correction           -0.065417236
FINAL SINGLE POINT ENERGY     -2929.520708409777

DIPOLE MOMENT
-------------

Method             : SCF
Type of density    : Electron Density
Multiplicity       :   1
Irrep              :   0
Energy             : -2929.6414411039504557 Eh
Relativity type    :
Basis              : AO
                                X                 Y                 Z
Electronic contribution:     14.071232103      21.477998251      -9.152992168
Nuclear contribution   :    -14.832505699     -23.628875456      10.258423452
                        -----------------------------------------
Total Dipole Moment    :     -0.761273596      -2.150877205       1.105431285
                        -----------------------------------------
Magnitude (a.u.)       :      2.535308376
Magnitude (Debye)      :      6.444241760

Rotational constants in cm-1:             0.013225             0.004716             0.004425
Rotational constants in MHz :           396.484032           141.375677           132.652981

                             ****ORCA TERMINATED NORMALLY****
TOTAL RUN TIME: 0 days 0 hours 0 minutes 21 seconds 448 msec
