                         Program Version 6.0.0  -   RELEASE  -
|  1> ! wb97x-v def2-tzvp def2/J RIJCOSX DEFGRID2 scfconv7 GCP(DFT/TZ) printgap
|  2> %output
|  3>     printlevel normal
|  4> end
|  5> * xyz 0 1
|  6> C 0.7497766275332628 -1.2574831200854508 -0.47435660776514704
|  7> C 0.002966899690134553 -0.00016460531688137565 -0.03778376260559002
|  8> C -1.4210164468255837 0.005241496986697104 -0.5738343975060791
|  9> C 0.7560652145053941 1.2562440681001201 -0.4660833973817258
| 10> O -0.13019331946812865 -0.004650552755971898 1.4149471411018553
| 11> H 0.2149438596353758 -2.1543417865223677 -0.14616606142370026
| 12> H 0.8455853962459069 -1.290092891524426 -1.564309890303329
| 13> H 1.7568620350822788 -1.272739625983127 -0.04298587955100629
| 14> H -1.9630254769722262 -0.8835445399860725 -0.23552451054157927
| 15> H -1.4111850323774668 0.008321686767176432 -1.6672534575955256
| 16> H -1.9581240088404004 0.8950514486046333 -0.2304497843665328
| 17> H 0.8507291701126968 1.2962932717233089 -1.5559085939801733
| 18> H 0.22641057775526222 2.1535558467646743 -0.13076357414685302
| 19> H 1.7637396611169462 1.2630473087635816 -0.03585375818081847
| 20> H 0.7656534989562958 -0.00866263064987473 1.7790280288917586
| 21> *
| 22>
| 23>                          ****END OF INPUT****

CARTESIAN COORDINATES (ANGSTROEM)
---------------------------------
  C      0.749777   -1.257483   -0.474357
  C      0.002967   -0.000165   -0.037784
  C     -1.421016    0.005241   -0.573834
  C      0.756065    1.256244   -0.466083
  O     -0.130193   -0.004651    1.414947
  H      0.214944   -2.154342   -0.146166
  H      0.845585   -1.290093   -1.564310
  H      1.756862   -1.272740   -0.042986
  H     -1.963025   -0.883545   -0.235525
  H     -1.411185    0.008322   -1.667253
  H     -1.958124    0.895051   -0.230450
  H      0.850729    1.296293   -1.555909
  H      0.226411    2.153556   -0.130764
  H      1.763740    1.263047   -0.035854
  H      0.765653   -0.008663    1.779028

 Total Charge           Charge          ....    0
 Multiplicity           Mult            ....    1
 Number of Electrons    NEL             ....   42
 Basis Dimension        Dim             ....  215

ORBITAL ENERGIES
----------------

  NO   OCC          E(Eh)            E(eV)
   0   2.0000     -21.662462      -589.4656
   1   2.0000     -12.104064      -329.3683
   2   2.0000     -12.037101      -327.5462
   3   2.0000     -12.036753      -327.5367
   4   2.0000     -12.031798      -327.4019
   5   2.0000      -1.660477       -45.1839
   6   2.0000      -1.314629       -35.7729
   7   2.0000      -1.187680       -32.3184
   8   2.0000      -1.186975       -32.2992
   9   2.0000      -1.089129       -29.6367
  10   2.0000      -0.992499       -27.0073
  11   2.0000      -0.937564       -25.5124
  12   2.0000      -0.924947       -25.1691
  13   2.0000      -0.867709       -23.6116
  14   2.0000      -0.850249       -23.1364
  15   2.0000      -0.822305       -22.3761
  16   2.0000      -0.813347       -22.1323
  17   2.0000      -0.813139       -22.1266
  18   2.0000      -0.799514       -21.7559
  19   2.0000      -0.778167       -21.1750
  20   2.0000      -0.772495       -21.0207
  21   0.0000      -0.148344        -4.0366
  22   0.0000      -0.057011        -1.5514
  23   0.0000      -0.011817        -0.3216
  24   0.0000      -0.009330        -0.2539
  25   0.0000      -0.009233        -0.2513

MULLIKEN ATOMIC CHARGES
-----------------------
   0 C :   -0.350654
   1 C :    0.185272
   2 C :   -0.319771
   3 C :   -0.350672
   4 O :   -0.447301
   5 H :    0.123612
   6 H :    0.105523
   7 H :    0.099913
   8 H :    0.115740
   9 H :    0.101452
  10 H :    0.115724
  11 H :    0.105517
  12 H :    0.123629
  13 H :    0.099925
  14 H :    0.292090
Sum of atomic charges:    0.0000000

LOEWDIN ATOMIC CHARGES
----------------------
   0 C :   -0.268126
   1 C :   -0.449025
   2 C :   -0.257675
   3 C :   -0.268139
   4 O :   -0.020821
   5 H :    0.123904
   6 H :    0.122936
   7 H :    0.117159
   8 H :    0.124247
   9 H :    0.122372
  10 H :    0.124247
  11 H :    0.122938
  12 H :    0.123909
  13 H :    0.117163
  14 H :    0.164911

  Mayer bond orders larger than 0.100000
B(  0-C ,  1-C ) :   0.9947 B(  0-C ,  5-H ) :   0.9822 B(  0-C ,  6-H ) :   0.9714
B(  0-C ,  7-H ) :   0.9683 B(  1-C ,  2-C ) :   0.9610 B(  1-C ,  3-C ) :   0.9947
B(  1-C ,  4-O ) :   0.9841 B(  2-C ,  8-H ) :   0.9794 B(  2-C ,  9-H ) :   0.9720
B(  2-C , 10-H ) :   0.9795 B(  3-C , 11-H ) :   0.9714 B(  3-C , 12-H ) :   0.9822
B(  3-C , 13-H ) :   0.9683 B(  4-O , 14-H ) :   0.9054

FINAL SINGLE POINT ENERGY      -233.686560318963

DIPOLE MOMENT
-------------

Method             : SCF
Type of density    : Electron Density
Multiplicity       :   1
Irrep              :   0
Energy             :  -233.6973133696634477 Eh
Relativity type    :
Basis              : AO
                                X                 Y                 Z
Electronic contribution:     -0.495782829      -0.009400068       3.187518102
Nuclear contribution   :      1.013072010       0.009101862      -3.589597116
                        -----------------------------------------
Total Dipole Moment    :      0.517289181      -0.000298206      -0.402079014
                        -----------------------------------------
Magnitude (a.u.)       :      0.655176098
Magnitude (Debye)      :      1.665325295

Rotational constants in cm-1:             0.156279             0.155154             0.150785
Rotational constants in MHz :          4685.116192          4651.386226          4520.419278

                             ****ORCA TERMINATED NORMALLY****
TOTAL RUN TIME: 0 days 0 hours 1 minutes 43 seconds 420 msec
