                         Program Version 6.0.0  -   RELEASE  -
|  1> ! wb97x-v def2-tzvp def2/J RIJCOSX DEFGRID2 scfconv7 GCP(DFT/TZ) printgap
|  2> %output
|  3>     printlevel normal
|  4> end
|  5> %cpcm
|  6>     smd true
|  7>     smdsolvent "water"
|  8> end
|  9> * xyz 0 1
| 10> C 0.7497766275332628 -1.2574831200854508 -0.47435660776514704
| 11> C 0.002966899690134553 -0.00016460531688137565 -0.03778376260559002
| 12> C -1.4210164468255837 0.005241496986697104 -0.5738343975060791
| 13> C 0.7560652145053941 1.2562440681001201 -0.4660833973817258
| 14> O -0.13019331946812865 -0.004650552755971898 1.4149471411018553
| 15> H 0.2149438596353758 -2.1543417865223677 -0.14616606142370026
| 16> H 0.8455853962459069 -1.290092891524426 -1.564309890303329
| 17> H 1.7568620350822788 -1.272739625983127 -0.04298587955100629
| 18> H -1.9630254769722262 -0.8835445399860725 -0.23552451054157927
| 19> H -1.4111850323774668 0.008321686767176432 -1.6672534575955256
| 20> H -1.9581240088404004 0.8950514486046333 -0.2304497843665328
| 21> H 0.8507291701126968 1.2962932717233089 -1.5559085939801733
| 22> H 0.22641057775526222 2.1535558467646743 -0.13076357414685302
| 23> H 1.7637396611169462 1.2630473087635816 -0.03585375818081847
| 24> H 0.7656534989562958 -0.00866263064987473 1.7790280288917586
| 25> *
| 26>
| 27>                          ****END OF INPUT****

CARTESIAN COORDINATES (ANGSTROEM)
---------------------------------
  C      0.749777   -1.257483   -0.474357
  C      0.002967   -0.000165   -0.037784
  C     -1.421016    0.005241   -0.573834
  C      0.756065    1.256244   -0.466083
  O     -0.130193   -0.004651    1.414947
  H      0.214944   -2.154342   -0.146166
  H      0.845585   -1.290093   -1.564310
  H      1.756862   -1.272740   -0.042986
  H     -1.963025   -0.883545   -0.235525
  H     -1.411185    0.008322   -1.667253
  H     -1.958124    0.895051   -0.230450
  H      0.850729    1.296293   -1.555909
  H      0.226411    2.153556   -0.130764
  H      1.763740    1.263047   -0.035854
  H      0.765653   -0.008663    1.779028

 Total Charge           Charge          ....    0
 Multiplicity           Mult            ....    1
 Number of Electrons    NEL             ....   42
 Basis Dimension        Dim             ....  215

ORBITAL ENERGIES
----------------

  NO   OCC          E(Eh)            E(eV)
   0   2.0000     -21.666881      -589.5858
   1   2.0000     -12.099273      -329.2380
   2   2.0000     -12.025572      -327.2324
   3   2.0000     -12.025502      -327.2305
   4   2.0000     -12.025018      -327.2174
   5   2.0000      -1.665282       -45.3146
   6   2.0000      -1.308256       -35.5995
   7   2.0000      -1.179913       -32.1071
   8   2.0000      -1.177423       -32.0393
   9   2.0000      -1.089460       -29.6457
  10   2.0000      -0.994807       -27.0701
  11   2.0000      -0.935963       -25.4689
  12   2.0000      -0.927053       -25.2264
  13   2.0000      -0.859948       -23.4004
  14   2.0000      -0.846384       -23.0313
  15   2.0000      -0.814325       -22.1589
  16   2.0000      -0.805682       -21.9237
  17   2.0000      -0.802688       -21.8423
  18   2.0000      -0.790042       -21.4981
  19   2.0000      -0.769393       -20.9362
  20   2.0000      -0.765269       -20.8240
  21   0.0000      -0.144367        -3.9284
  22   0.0000      -0.036348        -0.9891
  23   0.0000      -0.002926        -0.0796
  24   0.0000      -0.001100        -0.0299
  25   0.0000      -0.000033        -0.0009

MULLIKEN ATOMIC CHARGES
-----------------------
   0 C :   -0.410016
   1 C :    0.239293
   2 C :   -0.375516
   3 C :   -0.409996
   4 O :   -0.563788
   5 H :    0.128938
   6 H :    0.129177
   7 H :    0.131881
   8 H :    0.128302
   9 H :    0.130185
  10 H :    0.128308
  11 H :    0.129168
  12 H :    0.128932
  13 H :    0.131861
  14 H :    0.353273
Sum of atomic charges:    0.0000000

LOEWDIN ATOMIC CHARGES
----------------------
   0 C :   -0.270672
   1 C :   -0.446162
   2 C :   -0.267193
   3 C :   -0.270682
   4 O :   -0.064904
   5 H :    0.123462
   6 H :    0.128941
   7 H :    0.124851
   8 H :    0.124140
   9 H :    0.130028
  10 H :    0.124146
  11 H :    0.128944
  12 H :    0.123460
  13 H :    0.124845
  14 H :    0.186795

  Mayer bond orders larger than 0.100000
B(  0-C ,  1-C ) :   0.9876 B(  0-C ,  5-H ) :   0.9745 B(  0-C ,  6-H ) :   0.9686
B(  0-C ,  7-H ) :   0.9711 B(  1-C ,  2-C ) :   0.9652 B(  1-C ,  3-C ) :   0.9876
B(  1-C ,  4-O ) :   0.9476 B(  2-C ,  8-H ) :   0.9747 B(  2-C ,  9-H ) :   0.9708
B(  2-C , 10-H ) :   0.9747 B(  3-C , 11-H ) :   0.9685 B(  3-C , 12-H ) :   0.9745
B(  3-C , 13-H ) :   0.9711 B(  4-O , 14-H ) :   0.8718

FINAL SINGLE POINT ENERGY      -233.693823331330

DIPOLE MOMENT
-------------

Method             : SCF
Type of density    : Electron Density
Multiplicity       :   1
Irrep              :   0
Energy             :  -233.7045763820298703 Eh
Relativity type    :
Basis              : AO
                                X                 Y                 Z
Electronic contribution:     -0.230878962      -0.009551393       2.996700352
Nuclear contribution   :      1.013072010       0.009101862      -3.589597116
                        -----------------------------------------
Total Dipole Moment    :      0.782193048      -0.000449532      -0.592896764
                        -----------------------------------------
Magnitude (a.u.)       :      0.981505343
Magnitude (Debye)      :      2.494788319

Rotational constants in cm-1:             0.156279             0.155154             0.150785
Rotational constants in MHz :          4685.116192          4651.386226          4520.419278

                             ****ORCA TERMINATED NORMALLY****
TOTAL RUN TIME: 0 days 0 hours 1 minutes 46 seconds 168 msec
