                         Program Version 6.0.0  -   RELEASE  -
|  1> ! pbe def2-sv(p) def2/J RI DEFGRID1 loosescf d4 GCP(DFT/SV(P)) printgap
|  2> %output
|  3>     printlevel normal
|  4> end
|  5> * xyz 0 1
|  6> C 3.9108504139 -0.9072290732 -2.9094119816
|  7> C 4.4280981669 -0.6977771752 -1.5019437322
|  8> O 3.6075645742 0.1996284601 -0.7285675391
|  9> P 2.0519832055 0.0341269026 -0.4773419151
| 10> S 0.8667038655 0.5958565674 -1.9324377102
| 11> O 1.8029933317 0.9455105119 0.7817376069
| 12> C 2.2056094968 0.6980058808 2.1515142989
| 13> C 3.67615997 0.3765039333 2.3024461851
| 14> S 1.8250043055 -1.9912031275 0.1173530957
| 15> C 0.0295345455 -2.0483335383 -0.0475468513
| 16> S -0.8380507277 -1.2273259097 1.3388989184
| 17> P -1.861958659 0.4277525885 0.5030721259
| 18> S -1.144932085 2.2444354227 0.549299521
| 19> O -3.1814371516 0.418783707 1.3878620375
| 20> C -4.0603705572 -0.7288722509 1.4895732743
| 21> C -5.4712762919 -0.2211227318 1.7077817833
| 22> O -2.2395634975 -0.1959965335 -0.9187821852
| 23> C -2.6008471915 0.6397736582 -2.0337068054
| 24> C -3.973238828 1.2499419885 -1.8439008575
| 25> H 3.7866161969 0.0480587715 -3.4141864601
| 26> H 4.6156272263 -1.5183640864 -3.4638920788
| 27> H 2.9450608456 -1.4095437172 -2.8859050647
| 28> H 5.4047192457 -0.2106860392 -1.5044185443
| 29> H 4.4872687139 -1.6496514885 -0.967116012
| 30> H 1.9392514484 1.630432452 2.6529000407
| 31> H 1.5841158048 -0.113703348 2.542788282
| 32> H 3.903903999 -0.5901394118 1.8577707287
| 33> H 4.2797412334 1.1421403616 1.8218764316
| 34> H 3.9159251211 0.3420571841 3.3608625057
| 35> H -0.2532824785 -3.0968180066 -0.0195475866
| 36> H -0.2626937854 -1.5704989372 -0.9835433784
| 37> H -3.9832794628 -1.3185291837 0.5722468449
| 38> H -3.7182728455 -1.3286312882 2.336063155
| 39> H -6.1390761435 -1.0678798732 1.8293202777
| 40> H -5.5063785815 0.3973481805 2.5999375525
| 41> H -5.7955221412 0.3753934789 0.8594438135
| 42> H -1.8378655677 1.4160890677 -2.149268939
| 43> H -2.5617758718 -0.0327920305 -2.891799063
| 44> H -4.2214049149 1.8484228016 -2.7146557475
| 45> H -4.720468061 0.4705781733 -1.7167777117
| 46> H -3.9682308879 1.892515682 -0.9632961821
| 47> *
| 48>
| 49>                          ****END OF INPUT****

CARTESIAN COORDINATES (ANGSTROEM)
---------------------------------
  C      3.910850   -0.907229   -2.909412
  C      4.428098   -0.697777   -1.501944
  O      3.607565    0.199628   -0.728568
  P      2.051983    0.034127   -0.477342
  S      0.866704    0.595857   -1.932438
  O      1.802993    0.945511    0.781738
  C      2.205609    0.698006    2.151514
  C      3.676160    0.376504    2.302446
  S      1.825004   -1.991203    0.117353
  C      0.029535   -2.048334   -0.047547
  S     -0.838051   -1.227326    1.338899
  P     -1.861959    0.427753    0.503072
  S     -1.144932    2.244435    0.549300
  O     -3.181437    0.418784    1.387862
  C     -4.060371   -0.728872    1.489573
  C     -5.471276   -0.221123    1.707782
  O     -2.239563   -0.195997   -0.918782
  C     -2.600847    0.639774   -2.033707
  C     -3.973239    1.249942   -1.843901
  H      3.786616    0.048059   -3.414186
  H      4.615627   -1.518364   -3.463892
  H      2.945061   -1.409544   -2.885905
  H      5.404719   -0.210686   -1.504419
  H      4.487269   -1.649651   -0.967116
  H      1.939251    1.630432    2.652900
  H      1.584116   -0.113703    2.542788
  H      3.903904   -0.590139    1.857771
  H      4.279741    1.142140    1.821876
  H      3.915925    0.342057    3.360863
  H     -0.253282   -3.096818   -0.019548
  H     -0.262694   -1.570499   -0.983543
  H     -3.983279   -1.318529    0.572247
  H     -3.718273   -1.328631    2.336063
  H     -6.139076   -1.067880    1.829320
  H     -5.506379    0.397348    2.599938
  H     -5.795522    0.375393    0.859444
  H     -1.837866    1.416089   -2.149269
  H     -2.561776   -0.032792   -2.891799
  H     -4.221405    1.848423   -2.714656
  H     -4.720468    0.470578   -1.716778
  H     -3.968231    1.892516   -0.963296

 Total Charge           Charge          ....    0
 Multiplicity           Mult            ....    1
 Number of Electrons    NEL             ....  202
 Basis Dimension        Dim             ....  334

ORBITAL ENERGIES
----------------

  NO   OCC          E(Eh)            E(eV)
   0   2.0000     -88.047937     -2395.9062
   1   2.0000     -88.039326     -2395.6719
   2   2.0000     -87.977622     -2393.9928
   3   2.0000     -87.968650     -2393.7487
   4   2.0000     -76.424118     -2079.6060
   5   2.0000     -76.415556     -2079.3730
   6   2.0000     -18.792236      -511.3627
   7   2.0000     -18.787159      -511.2246
   8   2.0000     -18.782214      -511.0900
   9   2.0000     -18.781091      -511.0595
  10   2.0000      -9.959948      -271.0240
  11   2.0000      -9.959338      -271.0074
  12   2.0000      -9.950404      -270.7643
  13   2.0000      -9.946290      -270.6523
  14   2.0000      -9.943688      -270.5815
  15   2.0000      -9.887491      -269.0523
  16   2.0000      -9.884275      -268.9648
  17   2.0000      -9.883402      -268.9410
  18   2.0000      -9.880955      -268.8745
  19   2.0000      -7.693015      -209.3376
  20   2.0000      -7.684408      -209.1034
  21   2.0000      -7.622611      -207.4218
  22   2.0000      -7.613921      -207.1853
  23   2.0000      -6.421138      -174.7280
  24   2.0000      -6.413223      -174.5127
  25   2.0000      -5.720665      -155.6672
  26   2.0000      -5.717358      -155.5772
  27   2.0000      -5.712644      -155.4489
  28   2.0000      -5.710388      -155.3876
  29   2.0000      -5.708471      -155.3354
  30   2.0000      -5.701411      -155.1433
  31   2.0000      -5.651588      -153.7875
  32   2.0000      -5.643346      -153.5633
  33   2.0000      -5.643238      -153.5603
  34   2.0000      -5.642538      -153.5413
  35   2.0000      -5.634562      -153.3242
  36   2.0000      -5.633641      -153.2992
  37   2.0000      -4.643787      -126.3639
  38   2.0000      -4.643468      -126.3552
  39   2.0000      -4.641070      -126.2899
  40   2.0000      -4.636205      -126.1575
  41   2.0000      -4.634942      -126.1232
  42   2.0000      -4.633349      -126.0798
  43   2.0000      -0.983661       -26.7668
  44   2.0000      -0.977682       -26.6041
  45   2.0000      -0.940131       -25.5823
  46   2.0000      -0.937505       -25.5108
  47   2.0000      -0.762852       -20.7582
  48   2.0000      -0.718271       -19.5451
  49   2.0000      -0.709247       -19.2996
  50   2.0000      -0.689206       -18.7543
  51   2.0000      -0.687382       -18.7046
  52   2.0000      -0.672053       -18.2875
  53   2.0000      -0.646719       -17.5981
  54   2.0000      -0.631183       -17.1754
  55   2.0000      -0.591389       -16.0925
  56   2.0000      -0.582459       -15.8495
  57   2.0000      -0.575057       -15.6481
  58   2.0000      -0.568288       -15.4639
  59   2.0000      -0.565033       -15.3753
  60   2.0000      -0.500126       -13.6091
  61   2.0000      -0.490574       -13.3492
  62   2.0000      -0.474653       -12.9160
  63   2.0000      -0.467574       -12.7233
  64   2.0000      -0.454280       -12.3616
  65   2.0000      -0.446858       -12.1596
  66   2.0000      -0.437158       -11.8957
  67   2.0000      -0.435298       -11.8451
  68   2.0000      -0.428478       -11.6595
  69   2.0000      -0.412943       -11.2368
  70   2.0000      -0.407404       -11.0860
  71   2.0000      -0.399461       -10.8699
  72   2.0000      -0.394101       -10.7240
  73   2.0000      -0.390004       -10.6125
  74   2.0000      -0.385192       -10.4816
  75   2.0000      -0.364457        -9.9174
  76   2.0000      -0.358720        -9.7613
  77   2.0000      -0.355606        -9.6765
  78   2.0000      -0.349100        -9.4995
  79   2.0000      -0.346282        -9.4228
  80   2.0000      -0.344735        -9.3807
  81   2.0000      -0.340749        -9.2723
  82   2.0000      -0.339418        -9.2360
  83   2.0000      -0.338753        -9.2179
  84   2.0000      -0.328249        -8.9321
  85   2.0000      -0.317758        -8.6466
  86   2.0000      -0.310011        -8.4358
  87   2.0000      -0.304477        -8.2852
  88   2.0000      -0.295170        -8.0320
  89   2.0000      -0.280819        -7.6415
  90   2.0000      -0.273788        -7.4501
  91   2.0000      -0.270991        -7.3741
  92   2.0000      -0.264816        -7.2060
  93   2.0000      -0.262794        -7.1510
  94   2.0000      -0.256897        -6.9905
  95   2.0000      -0.240789        -6.5522
  96   2.0000      -0.219948        -5.9851
  97   2.0000      -0.204581        -5.5669
  98   2.0000      -0.197334        -5.3697
  99   2.0000      -0.185765        -5.0549
 100   2.0000      -0.170742        -4.6461
 101   0.0000      -0.042919        -1.1679
 102   0.0000      -0.024196        -0.6584
 103   0.0000      -0.019315        -0.5256
 104   0.0000       0.002990         0.0814
 105   0.0000       0.023470         0.6386

MULLIKEN ATOMIC CHARGES
-----------------------
   0 C :   -0.304760
   1 C :   -0.013065
   2 O :   -0.370584
   3 P :    0.600113
   4 S :   -0.307386
   5 O :   -0.336896
   6 C :    0.001670
   7 C :   -0.311754
   8 S :   -0.122408
   9 C :   -0.346149
  10 S :   -0.114362
  11 P :    0.610150
  12 S :   -0.284670
  13 O :   -0.372200
  14 C :   -0.022012
  15 C :   -0.282462
  16 O :   -0.390288
  17 C :   -0.013017
  18 C :   -0.317214
  19 H :    0.128696
  20 H :    0.109528
  21 H :    0.122221
  22 H :    0.110909
  23 H :    0.110036
  24 H :    0.113566
  25 H :    0.113776
  26 H :    0.110130
  27 H :    0.123622
  28 H :    0.112984
  29 H :    0.180943
  30 H :    0.209534
  31 H :    0.101731
  32 H :    0.107585
  33 H :    0.108529
  34 H :    0.122267
  35 H :    0.118798
  36 H :    0.132230
  37 H :    0.100464
  38 H :    0.113357
  39 H :    0.111136
  40 H :    0.135253
Sum of atomic charges:   -0.0000000

LOEWDIN ATOMIC CHARGES
----------------------
   0 C :   -0.369511
   1 C :   -0.113758
   2 O :   -0.239002
   3 P :    0.570219
   4 S :   -0.294130
   5 O :   -0.220687
   6 C :   -0.113282
   7 C :   -0.367561
   8 S :    0.060940
   9 C :   -0.475524
  10 S :    0.072224
  11 P :    0.558331
  12 S :   -0.292793
  13 O :   -0.248268
  14 C :   -0.124429
  15 C :   -0.351290
  16 O :   -0.249922
  17 C :   -0.123114
  18 C :   -0.367202
  19 H :    0.131482
  20 H :    0.129196
  21 H :    0.119950
  22 H :    0.122184
  23 H :    0.106530
  24 H :    0.124980
  25 H :    0.104471
  26 H :    0.114402
  27 H :    0.128342
  28 H :    0.131030
  29 H :    0.136805
  30 H :    0.130093
  31 H :    0.105489
  32 H :    0.111456
  33 H :    0.128836
  34 H :    0.130547
  35 H :    0.126273
  36 H :    0.112299
  37 H :    0.116133
  38 H :    0.131939
  39 H :    0.119579
  40 H :    0.126745

  Mayer bond orders larger than 0.100000
B(  0-C ,  1-C ) :   1.1673 B(  0-C , 19-H ) :   0.9424 B(  0-C , 20-H ) :   0.9344
B(  0-C , 21-H ) :   0.9325 B(  1-C ,  2-O ) :   0.9120 B(  1-C , 22-H ) :   0.9338
B(  1-C , 23-H ) :   0.9262 B(  2-O ,  3-P ) :   1.0994 B(  3-P ,  4-S ) :   1.6271
B(  3-P ,  5-O ) :   1.1662 B(  3-P ,  8-S ) :   0.9211 B(  4-S ,  8-S ) :   0.1060
B(  5-O ,  6-C ) :   0.8992 B(  6-C ,  7-C ) :   1.1648 B(  6-C , 24-H ) :   0.9333
B(  6-C , 25-H ) :   0.9135 B(  7-C , 26-H ) :   0.9409 B(  7-C , 27-H ) :   0.9427
B(  7-C , 28-H ) :   0.9367 B(  8-S ,  9-C ) :   1.0100 B(  9-C , 10-S ) :   0.9937
B(  9-C , 29-H ) :   0.9104 B(  9-C , 30-H ) :   0.8547 B( 10-S , 11-P ) :   0.9433
B( 10-S , 12-S ) :   0.1018 B( 11-P , 12-S ) :   1.6876 B( 11-P , 13-O ) :   1.0983
B( 11-P , 16-O ) :   1.0654 B( 13-O , 14-C ) :   0.8994 B( 14-C , 15-C ) :   1.1616
B( 14-C , 31-H ) :   0.9160 B( 14-C , 32-H ) :   0.9299 B( 15-C , 33-H ) :   0.9415
B( 15-C , 34-H ) :   0.9484 B( 15-C , 35-H ) :   0.9475 B( 16-O , 17-C ) :   0.8951
B( 17-C , 18-C ) :   1.1608 B( 17-C , 36-H ) :   0.9070 B( 17-C , 37-H ) :   0.9356
B( 18-C , 38-H ) :   0.9388 B( 18-C , 39-H ) :   0.9421 B( 18-C , 40-H ) :   0.9314

Dispersion correction           -0.068141021
FINAL SINGLE POINT ENERGY     -2929.508266293108

DIPOLE MOMENT
-------------

Method             : SCF
Type of density    : Electron Density
Multiplicity       :   1
Irrep              :   0
Energy             : -2929.6264188201967045 Eh
Relativity type    :
Basis              : AO
                                X                 Y                 Z
Electronic contribution:      6.030860398       2.813346795       3.079953760
Nuclear contribution   :     -5.918954677      -4.457090733      -3.058171623
                        -----------------------------------------
Total Dipole Moment    :      0.111905721      -1.643743938       0.021782137
                        -----------------------------------------
Magnitude (a.u.)       :      1.647692777
Magnitude (Debye)      :      4.188102204

Rotational constants in cm-1:             0.013914             0.005093             0.004732
Rotational constants in MHz :           417.144794           152.669536           141.869336

                             ****ORCA TERMINATED NORMALLY****
TOTAL RUN TIME: 0 days 0 hours 0 minutes 21 seconds 476 msec
