                         Program Version 6.0.0  -   RELEASE  -
|  1> ! pbe def2-sv(p) def2/J RI DEFGRID1 loosescf d4 GCP(DFT/SV(P)) printgap
|  2> %output
|  3>     printlevel normal
|  4> end
|  5> * xyz 0 1
|  6> C 3.8578560255 -1.5119508137 -2.5376697483
|  7> C 4.1363821701 -1.789969006 -1.0745558615
|  8> O 2.9398679306 -1.7515931295 -0.277175773
|  9> P 2.1380811123 -0.4076166472 -0.0022711882
| 10> S 3.2475331673 1.183470042 0.303453561
| 11> O 1.1947201219 -0.8555036247 1.188978072
| 12> C 1.4986912137 -0.5662722351 2.5659485344
| 13> C 2.6576610739 -1.4020657275 3.067267388
| 14> S 0.7291935359 -0.3179210401 -1.5718882599
| 15> C 0.2542772999 1.4150493584 -1.3403547691
| 16> S -0.457234865 1.753054084 0.2954336859
| 17> P -2.1717220728 0.5352755369 0.1094571867
| 18> S -2.9477085615 0.375234454 -1.6862237939
| 19> O -3.1318329728 1.1267827238 1.2332327921
| 20> C -3.8314963043 2.3781739667 1.0698917199
| 21> C -5.2406352706 2.1454074119 0.5601228459
| 22> O -1.7206276087 -0.8052131914 0.8132847313
| 23> C -2.3230826292 -2.0899544643 0.5307238057
| 24> C -1.4313655685 -2.9076612632 -0.3822291676
| 25> H 3.0730093887 -2.1685087743 -2.9048435793
| 26> H 3.5381141406 -0.4788274473 -2.6670992192
| 27> H 4.7637495061 -1.6743750598 -3.1128643952
| 28> H 4.8428049514 -1.0567714464 -0.6721917146
| 29> H 4.5200439107 -2.7995902027 -0.9217509794
| 30> H 1.7215123003 0.5024140474 2.6560255996
| 31> H 0.5702978189 -0.7921648993 3.0928615293
| 32> H 2.802360913 -1.2192387898 4.127391859
| 33> H 2.4592567071 -2.4579665141 2.9037109235
| 34> H 3.5665783306 -1.1274776076 2.5328691711
| 35> H -0.4806016817 1.6373561985 -2.1134244214
| 36> H 1.1320998513 2.0543681595 -1.4261675319
| 37> H -3.8365393473 2.8230256133 2.0666723358
| 38> H -3.267755262 3.0211634834 0.3879465396
| 39> H -5.2138492041 1.7015940878 -0.4325796273
| 40> H -5.7734278594 1.4761929016 1.2297978896
| 41> H -5.763234087 3.0950934602 0.5092691215
| 42> H -2.4370378636 -2.5620374422 1.5077974368
| 43> H -3.3065775607 -1.9353839607 0.0782212916
| 44> H -0.4234996974 -2.9528270395 0.0237368904
| 45> H -1.8326588516 -3.9123751567 -0.4674756278
| 46> H -1.3875290018 -2.4554456972 -1.3709522203
| 47> *
| 48>
| 49>                          ****END OF INPUT****

CARTESIAN COORDINATES (ANGSTROEM)
---------------------------------
  C      3.857856   -1.511951   -2.537670
  C      4.136382   -1.789969   -1.074556
  O      2.939868   -1.751593   -0.277176
  P      2.138081   -0.407617   -0.002271
  S      3.247533    1.183470    0.303454
  O      1.194720   -0.855504    1.188978
  C      1.498691   -0.566272    2.565949
  C      2.657661   -1.402066    3.067267
  S      0.729194   -0.317921   -1.571888
  C      0.254277    1.415049   -1.340355
  S     -0.457235    1.753054    0.295434
  P     -2.171722    0.535276    0.109457
  S     -2.947709    0.375234   -1.686224
  O     -3.131833    1.126783    1.233233
  C     -3.831496    2.378174    1.069892
  C     -5.240635    2.145407    0.560123
  O     -1.720628   -0.805213    0.813285
  C     -2.323083   -2.089954    0.530724
  C     -1.431366   -2.907661   -0.382229
  H      3.073009   -2.168509   -2.904844
  H      3.538114   -0.478827   -2.667099
  H      4.763750   -1.674375   -3.112864
  H      4.842805   -1.056771   -0.672192
  H      4.520044   -2.799590   -0.921751
  H      1.721512    0.502414    2.656026
  H      0.570298   -0.792165    3.092862
  H      2.802361   -1.219239    4.127392
  H      2.459257   -2.457967    2.903711
  H      3.566578   -1.127478    2.532869
  H     -0.480602    1.637356   -2.113424
  H      1.132100    2.054368   -1.426168
  H     -3.836539    2.823026    2.066672
  H     -3.267755    3.021163    0.387947
  H     -5.213849    1.701594   -0.432580
  H     -5.773428    1.476193    1.229798
  H     -5.763234    3.095093    0.509269
  H     -2.437038   -2.562037    1.507797
  H     -3.306578   -1.935384    0.078221
  H     -0.423500   -2.952827    0.023737
  H     -1.832659   -3.912375   -0.467476
  H     -1.387529   -2.455446   -1.370952

 Total Charge           Charge          ....    0
 Multiplicity           Mult            ....    1
 Number of Electrons    NEL             ....  202
 Basis Dimension        Dim             ....  334

ORBITAL ENERGIES
----------------

  NO   OCC          E(Eh)            E(eV)
   0   2.0000     -88.042980     -2395.7713
   1   2.0000     -88.042723     -2395.7643
   2   2.0000     -87.990507     -2394.3434
   3   2.0000     -87.988412     -2394.2864
   4   2.0000     -76.426921     -2079.6823
   5   2.0000     -76.425722     -2079.6496
   6   2.0000     -18.796079      -511.4673
   7   2.0000     -18.790801      -511.3237
   8   2.0000     -18.786975      -511.2196
   9   2.0000     -18.786104      -511.1959
  10   2.0000      -9.955005      -270.8895
  11   2.0000      -9.954132      -270.8657
  12   2.0000      -9.953258      -270.8419
  13   2.0000      -9.949527      -270.7404
  14   2.0000      -9.947295      -270.6797
  15   2.0000      -9.885143      -268.9884
  16   2.0000      -9.882148      -268.9069
  17   2.0000      -9.880316      -268.8571
  18   2.0000      -9.874711      -268.7045
  19   2.0000      -7.688005      -209.2013
  20   2.0000      -7.687549      -209.1888
  21   2.0000      -7.635380      -207.7693
  22   2.0000      -7.633377      -207.7148
  23   2.0000      -6.424405      -174.8170
  24   2.0000      -6.423266      -174.7859
  25   2.0000      -5.715852      -155.5362
  26   2.0000      -5.715427      -155.5247
  27   2.0000      -5.712523      -155.4457
  28   2.0000      -5.712175      -155.4362
  29   2.0000      -5.704975      -155.2403
  30   2.0000      -5.704366      -155.2237
  31   2.0000      -5.664181      -154.1302
  32   2.0000      -5.662140      -154.0747
  33   2.0000      -5.656003      -153.9077
  34   2.0000      -5.655702      -153.8995
  35   2.0000      -5.654126      -153.8566
  36   2.0000      -5.653575      -153.8416
  37   2.0000      -4.646751      -126.4445
  38   2.0000      -4.646161      -126.4285
  39   2.0000      -4.645646      -126.4145
  40   2.0000      -4.645077      -126.3990
  41   2.0000      -4.645056      -126.3984
  42   2.0000      -4.643896      -126.3668
  43   2.0000      -0.987295       -26.8657
  44   2.0000      -0.983692       -26.7676
  45   2.0000      -0.945746       -25.7351
  46   2.0000      -0.941387       -25.6164
  47   2.0000      -0.765702       -20.8358
  48   2.0000      -0.720665       -19.6103
  49   2.0000      -0.706950       -19.2371
  50   2.0000      -0.686396       -18.6778
  51   2.0000      -0.682139       -18.5619
  52   2.0000      -0.672988       -18.3129
  53   2.0000      -0.651666       -17.7327
  54   2.0000      -0.640338       -17.4245
  55   2.0000      -0.602714       -16.4007
  56   2.0000      -0.590019       -16.0552
  57   2.0000      -0.571573       -15.5533
  58   2.0000      -0.570337       -15.5196
  59   2.0000      -0.558061       -15.1856
  60   2.0000      -0.503075       -13.6894
  61   2.0000      -0.492447       -13.4002
  62   2.0000      -0.474325       -12.9070
  63   2.0000      -0.472206       -12.8494
  64   2.0000      -0.455376       -12.3914
  65   2.0000      -0.440251       -11.9798
  66   2.0000      -0.438586       -11.9345
  67   2.0000      -0.435505       -11.8507
  68   2.0000      -0.426063       -11.5938
  69   2.0000      -0.413620       -11.2552
  70   2.0000      -0.404251       -11.0002
  71   2.0000      -0.397805       -10.8248
  72   2.0000      -0.391428       -10.6513
  73   2.0000      -0.387802       -10.5526
  74   2.0000      -0.381053       -10.3690
  75   2.0000      -0.373283       -10.1576
  76   2.0000      -0.369177       -10.0458
  77   2.0000      -0.357036        -9.7154
  78   2.0000      -0.350637        -9.5413
  79   2.0000      -0.348204        -9.4751
  80   2.0000      -0.347500        -9.4560
  81   2.0000      -0.344571        -9.3762
  82   2.0000      -0.340866        -9.2754
  83   2.0000      -0.336081        -9.1452
  84   2.0000      -0.331026        -9.0077
  85   2.0000      -0.320325        -8.7165
  86   2.0000      -0.304081        -8.2745
  87   2.0000      -0.297338        -8.0910
  88   2.0000      -0.296630        -8.0717
  89   2.0000      -0.288146        -7.8408
  90   2.0000      -0.281840        -7.6692
  91   2.0000      -0.277496        -7.5511
  92   2.0000      -0.266010        -7.2385
  93   2.0000      -0.264651        -7.2015
  94   2.0000      -0.260134        -7.0786
  95   2.0000      -0.232200        -6.3185
  96   2.0000      -0.218705        -5.9513
  97   2.0000      -0.215201        -5.8559
  98   2.0000      -0.208364        -5.6699
  99   2.0000      -0.202273        -5.5041
 100   2.0000      -0.199876        -5.4389
 101   0.0000      -0.045147        -1.2285
 102   0.0000      -0.024336        -0.6622
 103   0.0000      -0.000427        -0.0116
 104   0.0000       0.001493         0.0406
 105   0.0000       0.009085         0.2472

MULLIKEN ATOMIC CHARGES
-----------------------
   0 C :   -0.315875
   1 C :   -0.005057
   2 O :   -0.373900
   3 P :    0.620171
   4 S :   -0.336806
   5 O :   -0.354280
   6 C :   -0.002280
   7 C :   -0.303615
   8 S :   -0.070942
   9 C :   -0.357888
  10 S :   -0.077641
  11 P :    0.611373
  12 S :   -0.341170
  13 O :   -0.372636
  14 C :   -0.007806
  15 C :   -0.290156
  16 O :   -0.355568
  17 C :   -0.002308
  18 C :   -0.294962
  19 H :    0.119482
  20 H :    0.127055
  21 H :    0.113930
  22 H :    0.111307
  23 H :    0.106174
  24 H :    0.111921
  25 H :    0.104997
  26 H :    0.111024
  27 H :    0.114160
  28 H :    0.119625
  29 H :    0.191893
  30 H :    0.189260
  31 H :    0.106743
  32 H :    0.100328
  33 H :    0.128135
  34 H :    0.111497
  35 H :    0.106934
  36 H :    0.102479
  37 H :    0.103909
  38 H :    0.119396
  39 H :    0.102627
  40 H :    0.128469
Sum of atomic charges:    0.0000000

LOEWDIN ATOMIC CHARGES
----------------------
   0 C :   -0.369426
   1 C :   -0.118891
   2 O :   -0.243997
   3 P :    0.572242
   4 S :   -0.326233
   5 O :   -0.230074
   6 C :   -0.118179
   7 C :   -0.364114
   8 S :    0.109527
   9 C :   -0.480492
  10 S :    0.092594
  11 P :    0.568465
  12 S :   -0.325304
  13 O :   -0.250646
  14 C :   -0.116467
  15 C :   -0.362751
  16 O :   -0.234007
  17 C :   -0.110203
  18 C :   -0.363870
  19 H :    0.125032
  20 H :    0.121284
  21 H :    0.131486
  22 H :    0.110753
  23 H :    0.119180
  24 H :    0.109537
  25 H :    0.118395
  26 H :    0.129727
  27 H :    0.125055
  28 H :    0.121431
  29 H :    0.131093
  30 H :    0.130750
  31 H :    0.118432
  32 H :    0.106470
  33 H :    0.124399
  34 H :    0.124913
  35 H :    0.128410
  36 H :    0.116754
  37 H :    0.108107
  38 H :    0.123098
  39 H :    0.125524
  40 H :    0.121994

  Mayer bond orders larger than 0.100000
B(  0-C ,  1-C ) :   1.1661 B(  0-C , 19-H ) :   0.9445 B(  0-C , 20-H ) :   0.9356
B(  0-C , 21-H ) :   0.9377 B(  1-C ,  2-O ) :   0.9086 B(  1-C , 22-H ) :   0.9166
B(  1-C , 23-H ) :   0.9339 B(  2-O ,  3-P ) :   1.1069 B(  3-P ,  4-S ) :   1.5827
B(  3-P ,  5-O ) :   1.1210 B(  3-P ,  8-S ) :   0.9597 B(  4-S ,  8-S ) :   0.1073
B(  5-O ,  6-C ) :   0.9043 B(  6-C ,  7-C ) :   1.1624 B(  6-C , 24-H ) :   0.9157
B(  6-C , 25-H ) :   0.9328 B(  7-C , 26-H ) :   0.9403 B(  7-C , 27-H ) :   0.9469
B(  7-C , 28-H ) :   0.9370 B(  8-S ,  9-C ) :   1.0049 B(  9-C , 10-S ) :   1.0041
B(  9-C , 29-H ) :   0.8840 B(  9-C , 30-H ) :   0.8863 B( 10-S , 11-P ) :   0.9619
B( 10-S , 12-S ) :   0.1104 B( 11-P , 12-S ) :   1.5858 B( 11-P , 13-O ) :   1.1148
B( 11-P , 16-O ) :   1.1480 B( 13-O , 14-C ) :   0.9039 B( 14-C , 15-C ) :   1.1667
B( 14-C , 31-H ) :   0.9361 B( 14-C , 32-H ) :   0.9142 B( 15-C , 33-H ) :   0.9328
B( 15-C , 34-H ) :   0.9476 B( 15-C , 35-H ) :   0.9399 B( 16-O , 17-C ) :   0.8928
B( 17-C , 18-C ) :   1.1727 B( 17-C , 36-H ) :   0.9339 B( 17-C , 37-H ) :   0.9132
B( 18-C , 38-H ) :   0.9419 B( 18-C , 39-H ) :   0.9385 B( 18-C , 40-H ) :   0.9377

Dispersion correction           -0.067203938
FINAL SINGLE POINT ENERGY     -2929.528469856651

DIPOLE MOMENT
-------------

Method             : SCF
Type of density    : Electron Density
Multiplicity       :   1
Irrep              :   0
Energy             : -2929.6456844765998540 Eh
Relativity type    :
Basis              : AO
                                X                 Y                 Z
Electronic contribution:      0.687913707      10.234587376      -4.175652890
Nuclear contribution   :     -0.684694774     -10.818826094       4.741163190
                        -----------------------------------------
Total Dipole Moment    :      0.003218933      -0.584238718       0.565510300
                        -----------------------------------------
Magnitude (a.u.)       :      0.813109550
Magnitude (Debye)      :      2.066760228

Rotational constants in cm-1:             0.013448             0.004965             0.004849
Rotational constants in MHz :           403.159915           148.834480           145.359135

                             ****ORCA TERMINATED NORMALLY****
TOTAL RUN TIME: 0 days 0 hours 0 minutes 21 seconds 889 msec
