                         Program Version 6.0.0  -   RELEASE  -
|  1> ! pbe def2-sv(p) def2/J RI DEFGRID1 loosescf d4 GCP(DFT/SV(P)) printgap
|  2> %output
|  3>     printlevel normal
|  4> end
|  5> * xyz 0 1
|  6> C 3.1814641177 1.3868044158 -2.5784160459
|  7> C 2.5999417412 0.0181706522 -2.2866939909
|  8> O 2.9258299052 -0.4046830145 -0.9475784692
|  9> P 2.0455315454 -0.1194712442 0.3423708861
| 10> S 1.5908700716 1.7364103954 0.7561633069
| 11> O 2.9485694722 -0.707054904 1.491035778
| 12> C 3.6095711215 -1.9993275848 1.4449733782
| 13> C 2.9054272382 -2.9933643413 2.3475837882
| 14> S 0.471451402 -1.5422633029 0.0875775129
| 15> C -0.4538151435 -1.2325732569 1.6110123922
| 16> S -1.3650936886 0.347859999 1.678285407
| 17> P -2.117498056 0.4759059223 -0.2998818905
| 18> S -0.9687147711 0.8634514919 -1.8497218764
| 19> O -3.3038799575 1.5140863479 -0.1085380579
| 20> C -3.2080647465 2.7768893332 0.5729093736
| 21> C -2.0456672232 3.6225865635 0.0936356599
| 22> O -2.9438899132 -0.8645351278 -0.4311524171
| 23> C -2.9539289256 -1.7459693012 -1.5735740561
| 24> C -2.5531262591 -3.1434923195 -1.1447179986
| 25> H 2.9806257243 1.6444510068 -3.6131570318
| 26> H 2.7205019295 2.1337705116 -1.935399524
| 27> H 4.2540354182 1.3853529553 -2.40403989
| 28> H 3.0439133252 -0.7477298522 -2.9254873278
| 29> H 1.5151386515 0.0234993637 -2.419952487
| 30> H 3.6422394851 -2.3483307758 0.4118678778
| 31> H 4.6226188587 -1.7959124377 1.7952998616
| 32> H 1.9233710444 -3.2438200584 1.954466945
| 33> H 3.5024485347 -3.8981734856 2.4034262844
| 34> H 2.7972107074 -2.5780178478 3.345939524
| 35> H 0.2275755636 -1.207396323 2.4601822833
| 36> H -1.1670531252 -2.0491287927 1.7011129827
| 37> H -4.1644048633 3.2573480627 0.3578929591
| 38> H -3.1249827053 2.5803738154 1.6459463398
| 39> H -2.0949393167 3.7603320749 -0.9843705365
| 40> H -2.07819823 4.5914220686 0.5814935709
| 41> H -1.0964587273 3.1425590536 0.3372408229
| 42> H -3.976272331 -1.7253674888 -1.9558922548
| 43> H -2.2730637755 -1.3491009079 -2.3345985714
| 44> H -2.6588659932 -3.8138278432 -1.9912855139
| 45> H -1.5175854752 -3.1547179873 -0.8109056703
| 46> H -3.195398897 -3.4821673031 -0.336808472
| 47> *
| 48>
| 49>                          ****END OF INPUT****

CARTESIAN COORDINATES (ANGSTROEM)
---------------------------------
  C      3.181464    1.386804   -2.578416
  C      2.599942    0.018171   -2.286694
  O      2.925830   -0.404683   -0.947578
  P      2.045532   -0.119471    0.342371
  S      1.590870    1.736410    0.756163
  O      2.948569   -0.707055    1.491036
  C      3.609571   -1.999328    1.444973
  C      2.905427   -2.993364    2.347584
  S      0.471451   -1.542263    0.087578
  C     -0.453815   -1.232573    1.611012
  S     -1.365094    0.347860    1.678285
  P     -2.117498    0.475906   -0.299882
  S     -0.968715    0.863451   -1.849722
  O     -3.303880    1.514086   -0.108538
  C     -3.208065    2.776889    0.572909
  C     -2.045667    3.622587    0.093636
  O     -2.943890   -0.864535   -0.431152
  C     -2.953929   -1.745969   -1.573574
  C     -2.553126   -3.143492   -1.144718
  H      2.980626    1.644451   -3.613157
  H      2.720502    2.133771   -1.935400
  H      4.254035    1.385353   -2.404040
  H      3.043913   -0.747730   -2.925487
  H      1.515139    0.023499   -2.419952
  H      3.642239   -2.348331    0.411868
  H      4.622619   -1.795912    1.795300
  H      1.923371   -3.243820    1.954467
  H      3.502449   -3.898173    2.403426
  H      2.797211   -2.578018    3.345940
  H      0.227576   -1.207396    2.460182
  H     -1.167053   -2.049129    1.701113
  H     -4.164405    3.257348    0.357893
  H     -3.124983    2.580374    1.645946
  H     -2.094939    3.760332   -0.984371
  H     -2.078198    4.591422    0.581494
  H     -1.096459    3.142559    0.337241
  H     -3.976272   -1.725367   -1.955892
  H     -2.273064   -1.349101   -2.334599
  H     -2.658866   -3.813828   -1.991286
  H     -1.517585   -3.154718   -0.810906
  H     -3.195399   -3.482167   -0.336808

 Total Charge           Charge          ....    0
 Multiplicity           Mult            ....    1
 Number of Electrons    NEL             ....  202
 Basis Dimension        Dim             ....  334

ORBITAL ENERGIES
----------------

  NO   OCC          E(Eh)            E(eV)
   0   2.0000     -88.045538     -2395.8409
   1   2.0000     -88.035987     -2395.5810
   2   2.0000     -87.977579     -2393.9916
   3   2.0000     -87.976170     -2393.9533
   4   2.0000     -76.424446     -2079.6149
   5   2.0000     -76.422569     -2079.5638
   6   2.0000     -18.791564      -511.3445
   7   2.0000     -18.790792      -511.3234
   8   2.0000     -18.786388      -511.2036
   9   2.0000     -18.781806      -511.0789
  10   2.0000      -9.963956      -271.1330
  11   2.0000      -9.957409      -270.9549
  12   2.0000      -9.950340      -270.7625
  13   2.0000      -9.948041      -270.7000
  14   2.0000      -9.948026      -270.6995
  15   2.0000      -9.891218      -269.1537
  16   2.0000      -9.886763      -269.0325
  17   2.0000      -9.874011      -268.6855
  18   2.0000      -9.872934      -268.6562
  19   2.0000      -7.689598      -209.2446
  20   2.0000      -7.681163      -209.0151
  21   2.0000      -7.622527      -207.4195
  22   2.0000      -7.621054      -207.3794
  23   2.0000      -6.421480      -174.7373
  24   2.0000      -6.419337      -174.6790
  25   2.0000      -5.717396      -155.5783
  26   2.0000      -5.714154      -155.4900
  27   2.0000      -5.709337      -155.3590
  28   2.0000      -5.706694      -155.2870
  29   2.0000      -5.705696      -155.2599
  30   2.0000      -5.697772      -155.0442
  31   2.0000      -5.651685      -153.7902
  32   2.0000      -5.649965      -153.7434
  33   2.0000      -5.643074      -153.5558
  34   2.0000      -5.642506      -153.5404
  35   2.0000      -5.641643      -153.5169
  36   2.0000      -5.641230      -153.5057
  37   2.0000      -4.644482      -126.3828
  38   2.0000      -4.643376      -126.3527
  39   2.0000      -4.641969      -126.3144
  40   2.0000      -4.641501      -126.3017
  41   2.0000      -4.641494      -126.3015
  42   2.0000      -4.639493      -126.2470
  43   2.0000      -0.986729       -26.8503
  44   2.0000      -0.979885       -26.6640
  45   2.0000      -0.942805       -25.6550
  46   2.0000      -0.939126       -25.5549
  47   2.0000      -0.762514       -20.7491
  48   2.0000      -0.719029       -19.5658
  49   2.0000      -0.711186       -19.3524
  50   2.0000      -0.687646       -18.7118
  51   2.0000      -0.681256       -18.5379
  52   2.0000      -0.669761       -18.2251
  53   2.0000      -0.648768       -17.6539
  54   2.0000      -0.635692       -17.2981
  55   2.0000      -0.590888       -16.0789
  56   2.0000      -0.581093       -15.8123
  57   2.0000      -0.577135       -15.7046
  58   2.0000      -0.570938       -15.5360
  59   2.0000      -0.564469       -15.3600
  60   2.0000      -0.505811       -13.7638
  61   2.0000      -0.495802       -13.4915
  62   2.0000      -0.477306       -12.9882
  63   2.0000      -0.465200       -12.6587
  64   2.0000      -0.459094       -12.4926
  65   2.0000      -0.444271       -12.0892
  66   2.0000      -0.435401       -11.8479
  67   2.0000      -0.430461       -11.7134
  68   2.0000      -0.427923       -11.6444
  69   2.0000      -0.413538       -11.2529
  70   2.0000      -0.407872       -11.0988
  71   2.0000      -0.397022       -10.8035
  72   2.0000      -0.392194       -10.6721
  73   2.0000      -0.384751       -10.4696
  74   2.0000      -0.379248       -10.3199
  75   2.0000      -0.376132       -10.2351
  76   2.0000      -0.362405        -9.8615
  77   2.0000      -0.359954        -9.7948
  78   2.0000      -0.355701        -9.6791
  79   2.0000      -0.349128        -9.5003
  80   2.0000      -0.342414        -9.3176
  81   2.0000      -0.338426        -9.2090
  82   2.0000      -0.336003        -9.1431
  83   2.0000      -0.332607        -9.0507
  84   2.0000      -0.328138        -8.9291
  85   2.0000      -0.320883        -8.7317
  86   2.0000      -0.311453        -8.4751
  87   2.0000      -0.300175        -8.1682
  88   2.0000      -0.292154        -7.9499
  89   2.0000      -0.288755        -7.8574
  90   2.0000      -0.280927        -7.6444
  91   2.0000      -0.275434        -7.4949
  92   2.0000      -0.269118        -7.3231
  93   2.0000      -0.259578        -7.0635
  94   2.0000      -0.250553        -6.8179
  95   2.0000      -0.247441        -6.7332
  96   2.0000      -0.220392        -5.9972
  97   2.0000      -0.205295        -5.5864
  98   2.0000      -0.185218        -5.0400
  99   2.0000      -0.182407        -4.9635
 100   2.0000      -0.178526        -4.8579
 101   0.0000      -0.051857        -1.4111
 102   0.0000      -0.030178        -0.8212
 103   0.0000      -0.016060        -0.4370
 104   0.0000      -0.001444        -0.0393
 105   0.0000       0.016127         0.4388

MULLIKEN ATOMIC CHARGES
-----------------------
   0 C :   -0.293076
   1 C :   -0.024298
   2 O :   -0.385074
   3 P :    0.616050
   4 S :   -0.281185
   5 O :   -0.363853
   6 C :   -0.008734
   7 C :   -0.299970
   8 S :   -0.132373
   9 C :   -0.321228
  10 S :   -0.105732
  11 P :    0.612705
  12 S :   -0.324407
  13 O :   -0.365565
  14 C :   -0.013711
  15 C :   -0.328175
  16 O :   -0.367801
  17 C :   -0.000895
  18 C :   -0.308803
  19 H :    0.106783
  20 H :    0.134441
  21 H :    0.109020
  22 H :    0.098924
  23 H :    0.130758
  24 H :    0.108329
  25 H :    0.111870
  26 H :    0.119062
  27 H :    0.112122
  28 H :    0.120774
  29 H :    0.184957
  30 H :    0.186160
  31 H :    0.107686
  32 H :    0.114170
  33 H :    0.124876
  34 H :    0.108299
  35 H :    0.152195
  36 H :    0.104105
  37 H :    0.109612
  38 H :    0.110925
  39 H :    0.126078
  40 H :    0.114979
Sum of atomic charges:   -0.0000000

LOEWDIN ATOMIC CHARGES
----------------------
   0 C :   -0.361040
   1 C :   -0.117906
   2 O :   -0.246807
   3 P :    0.561604
   4 S :   -0.288935
   5 O :   -0.240823
   6 C :   -0.112123
   7 C :   -0.362970
   8 S :    0.075469
   9 C :   -0.468484
  10 S :    0.076041
  11 P :    0.568128
  12 S :   -0.309987
  13 O :   -0.244499
  14 C :   -0.115720
  15 C :   -0.373685
  16 O :   -0.243137
  17 C :   -0.118058
  18 C :   -0.360351
  19 H :    0.129017
  20 H :    0.127806
  21 H :    0.123355
  22 H :    0.115047
  23 H :    0.106915
  24 H :    0.111504
  25 H :    0.122643
  26 H :    0.117795
  27 H :    0.131169
  28 H :    0.127578
  29 H :    0.133342
  30 H :    0.134260
  31 H :    0.120786
  32 H :    0.107873
  33 H :    0.128778
  34 H :    0.128879
  35 H :    0.124542
  36 H :    0.116950
  37 H :    0.105537
  38 H :    0.131144
  39 H :    0.113841
  40 H :    0.124521

  Mayer bond orders larger than 0.100000
B(  0-C ,  1-C ) :   1.1737 B(  0-C , 19-H ) :   0.9389 B(  0-C , 20-H ) :   0.9320
B(  0-C , 21-H ) :   0.9482 B(  1-C ,  2-O ) :   0.8924 B(  1-C , 22-H ) :   0.9352
B(  1-C , 23-H ) :   0.9025 B(  2-O ,  3-P ) :   1.0970 B(  3-P ,  4-S ) :   1.6993
B(  3-P ,  5-O ) :   1.1210 B(  3-P ,  8-S ) :   0.9137 B(  4-S ,  8-S ) :   0.1136
B(  5-O ,  6-C ) :   0.8958 B(  6-C ,  7-C ) :   1.1658 B(  6-C , 24-H ) :   0.9175
B(  6-C , 25-H ) :   0.9351 B(  7-C , 26-H ) :   0.9339 B(  7-C , 27-H ) :   0.9395
B(  7-C , 28-H ) :   0.9447 B(  8-S ,  9-C ) :   1.0092 B(  9-C , 10-S ) :   0.9946
B(  9-C , 29-H ) :   0.9018 B(  9-C , 30-H ) :   0.9080 B( 10-S , 11-P ) :   0.9614
B( 10-S , 12-S ) :   0.1168 B( 11-P , 12-S ) :   1.6025 B( 11-P , 13-O ) :   1.1237
B( 11-P , 16-O ) :   1.1199 B( 13-O , 14-C ) :   0.9187 B( 14-C , 15-C ) :   1.1640
B( 14-C , 31-H ) :   0.9338 B( 14-C , 32-H ) :   0.9243 B( 15-C , 33-H ) :   0.9409
B( 15-C , 34-H ) :   0.9342 B( 15-C , 35-H ) :   0.9262 B( 16-O , 17-C ) :   0.9053
B( 17-C , 18-C ) :   1.1618 B( 17-C , 36-H ) :   0.9336 B( 17-C , 37-H ) :   0.8955
B( 18-C , 38-H ) :   0.9397 B( 18-C , 39-H ) :   0.9354 B( 18-C , 40-H ) :   0.9479

Dispersion correction           -0.068065580
FINAL SINGLE POINT ENERGY     -2929.505729652657

DIPOLE MOMENT
-------------

Method             : SCF
Type of density    : Electron Density
Multiplicity       :   1
Irrep              :   0
Energy             : -2929.6212796203553808 Eh
Relativity type    :
Basis              : AO
                                X                 Y                 Z
Electronic contribution:     -3.656256941       7.201665947       4.559045115
Nuclear contribution   :      3.709042129      -8.691888153      -4.482752291
                        -----------------------------------------
Total Dipole Moment    :      0.052785188      -1.490222206       0.076292825
                        -----------------------------------------
Magnitude (a.u.)       :      1.493107195
Magnitude (Debye)      :      3.795176881

Rotational constants in cm-1:             0.010515             0.006034             0.005418
Rotational constants in MHz :           315.226484           180.899256           162.428068

                             ****ORCA TERMINATED NORMALLY****
TOTAL RUN TIME: 0 days 0 hours 0 minutes 21 seconds 348 msec
