                         Program Version 6.0.0  -   RELEASE  -
|  1> ! pbe def2-sv(p) def2/J RI DEFGRID1 loosescf d4 GCP(DFT/SV(P)) printgap
|  2> %output
|  3>     printlevel normal
|  4> end
|  5> * xyz 0 1
|  6> C 1.2782494674 -0.2530097025 0.0153137852
|  7> C -0.010584726 0.5597490526 -0.0333541233
|  8> O -1.173129153 -0.2401981941 0.057714085
|  9> H 2.1321425056 0.417452669 0.0252835349
| 10> H 1.2982271426 -0.8643207786 0.9140465235
| 11> H 1.3549787687 -0.9032280125 -0.8532560901
| 12> H -0.0425937345 1.1622312874 -0.9518624537
| 13> H -0.0641505208 1.2366831362 0.8226444891
| 14> H -1.1627408296 -0.891207008 -0.6580016598
| 15> *
| 16>
| 17>                          ****END OF INPUT****

CARTESIAN COORDINATES (ANGSTROEM)
---------------------------------
  C      1.278249   -0.253010    0.015314
  C     -0.010585    0.559749   -0.033354
  O     -1.173129   -0.240198    0.057714
  H      2.132143    0.417453    0.025284
  H      1.298227   -0.864321    0.914047
  H      1.354979   -0.903228   -0.853256
  H     -0.042594    1.162231   -0.951862
  H     -0.064151    1.236683    0.822644
  H     -1.162741   -0.891207   -0.658002

 Total Charge           Charge          ....    0
 Multiplicity           Mult            ....    1
 Number of Electrons    NEL             ....   26
 Basis Dimension        Dim             ....   54

ORBITAL ENERGIES
----------------

  NO   OCC          E(Eh)            E(eV)
   0   2.0000     -18.736745      -509.8528
   1   2.0000      -9.928264      -270.1618
   2   2.0000      -9.878193      -268.7993
   3   2.0000      -0.912899       -24.8412
   4   2.0000      -0.668561       -18.1925
   5   2.0000      -0.557157       -15.1610
   6   2.0000      -0.446179       -12.1411
   7   2.0000      -0.403812       -10.9883
   8   2.0000      -0.379916       -10.3380
   9   2.0000      -0.334644        -9.1061
  10   2.0000      -0.324620        -8.8334
  11   2.0000      -0.269304        -7.3281
  12   2.0000      -0.210050        -5.7158
  13   0.0000       0.029028         0.7899
  14   0.0000       0.068924         1.8755
  15   0.0000       0.089526         2.4361
  16   0.0000       0.098842         2.6896
  17   0.0000       0.115285         3.1371

MULLIKEN ATOMIC CHARGES
-----------------------
   0 C :   -0.312908
   1 C :   -0.011330
   2 O :   -0.442523
   3 H :    0.101327
   4 H :    0.112692
   5 H :    0.095206
   6 H :    0.074750
   7 H :    0.092918
   8 H :    0.289868
Sum of atomic charges:   -0.0000000

LOEWDIN ATOMIC CHARGES
----------------------
   0 C :   -0.368504
   1 C :   -0.129017
   2 O :   -0.348272
   3 H :    0.124738
   4 H :    0.123090
   5 H :    0.113836
   6 H :    0.092821
   7 H :    0.112533
   8 H :    0.278774

  Mayer bond orders larger than 0.100000
B(  0-C ,  1-C ) :   1.1398 B(  0-C ,  3-H ) :   0.9393 B(  0-C ,  4-H ) :   0.9499
B(  0-C ,  5-H ) :   0.9535 B(  1-C ,  2-O ) :   1.0623 B(  1-C ,  6-H ) :   0.9314
B(  1-C ,  7-H ) :   0.9359 B(  2-O ,  8-H ) :   0.8578

Dispersion correction           -0.003687417
FINAL SINGLE POINT ENERGY      -154.661529907649

DIPOLE MOMENT
-------------

Method             : SCF
Type of density    : Electron Density
Multiplicity       :   1
Irrep              :   0
Energy             :  -154.7003800419880690 Eh
Relativity type    :
Basis              : AO
                                X                 Y                 Z
Electronic contribution:     -2.853277784      -0.266304370       0.215116075
Nuclear contribution   :      3.281025575       0.144291852      -0.656936232
                        -----------------------------------------
Total Dipole Moment    :      0.427747791      -0.122012518      -0.441820158
                        -----------------------------------------
Magnitude (a.u.)       :      0.626945196
Magnitude (Debye)      :      1.593568045

Rotational constants in cm-1:             1.155576             0.307490             0.271654
Rotational constants in MHz :         34643.303013          9218.311248          8143.996498

                             ****ORCA TERMINATED NORMALLY****
TOTAL RUN TIME: 0 days 0 hours 0 minutes 3 seconds 639 msec
