                         Program Version 6.0.0  -   RELEASE  -
|  1> ! r2scan-3c def2/J RI DEFGRID2 scfconv6 printgap
|  2> %output
|  3>     printlevel normal
|  4> end
|  5> * xyz 0 1
|  6> C 4.590717206 -1.5814511642 -0.6851742141
|  7> C 4.6050818469 -0.122594918 -0.2761383304
|  8> O 3.4315345779 0.2468861554 0.4671929675
|  9> P 1.9862118061 0.3252592837 -0.1947026686
| 10> S 1.9759244514 1.0133899548 -2.0349056299
| 11> O 1.1926672333 1.1486912 0.9033116185
| 12> C 1.1442349373 2.5866701413 0.9129964346
| 13> C 2.4927356805 3.2028705076 1.2176317499
| 14> S 1.2213315691 -1.5985938168 0.1439499951
| 15> C -0.0670741307 -1.7005584525 -1.147361924
| 16> S -1.7266329417 -1.9383294565 -0.476504055
| 17> P -2.0916603236 0.0511904344 0.1728096241
| 18> S -1.4942664967 1.4659222625 -1.0399997264
| 19> O -1.4623412202 0.1918738544 1.6122628664
| 20> C -1.8620331877 -0.622866347 2.7487771427
| 21> C -0.7803632747 -1.627105762 3.0917221529
| 22> O -3.647821538 0.0478810861 0.5030136769
| 23> C -4.6580048691 0.3293118435 -0.4824461383
| 24> C -4.7313764178 -0.7340966546 -1.5586968256
| 25> H 3.8092918669 -1.7523307363 -1.424180431
| 26> H 5.5500383117 -1.8396836953 -1.1219998939
| 27> H 4.4026679229 -2.2144605522 0.1782510435
| 28> H 4.6711049145 0.5216578482 -1.1590110927
| 29> H 5.4264343755 0.0964231323 0.4075057693
| 30> H 0.7677126834 2.9269378004 -0.0580372527
| 31> H 0.4053915682 2.8140637646 1.6835333403
| 32> H 3.1829060189 3.0093353018 0.3974703257
| 33> H 2.376055664 4.2758362627 1.3343458113
| 34> H 2.9007261659 2.7782242928 2.1311909965
| 35> H 0.1397401767 -2.5780049609 -1.7541381218
| 36> H -0.0352156897 -0.7877663866 -1.7484432818
| 37> H -2.0071619269 0.0943753802 3.5582745341
| 38> H -2.8089709756 -1.1145626573 2.5194911891
| 39> H 0.1753548675 -1.1211126078 3.2044215123
| 40> H -1.0387633931 -2.1169731286 4.0251315276
| 41> H -0.6837164541 -2.3779942648 2.3111936399
| 42> H -5.5785603513 0.3762980435 0.1011929704
| 43> H -4.4456878548 1.3085636321 -0.9223705816
| 44> H -4.812254017 -1.721749182 -1.1119175057
| 45> H -5.5987075201 -0.5479563735 -2.1839732079
| 46> H -3.8376342501 -0.7003885025 -2.1795225155
| 47> *
| 48>
| 49>                          ****END OF INPUT****

CARTESIAN COORDINATES (ANGSTROEM)
---------------------------------
  C      4.590717   -1.581451   -0.685174
  C      4.605082   -0.122595   -0.276138
  O      3.431535    0.246886    0.467193
  P      1.986212    0.325259   -0.194703
  S      1.975924    1.013390   -2.034906
  O      1.192667    1.148691    0.903312
  C      1.144235    2.586670    0.912996
  C      2.492736    3.202871    1.217632
  S      1.221332   -1.598594    0.143950
  C     -0.067074   -1.700558   -1.147362
  S     -1.726633   -1.938329   -0.476504
  P     -2.091660    0.051190    0.172810
  S     -1.494266    1.465922   -1.040000
  O     -1.462341    0.191874    1.612263
  C     -1.862033   -0.622866    2.748777
  C     -0.780363   -1.627106    3.091722
  O     -3.647822    0.047881    0.503014
  C     -4.658005    0.329312   -0.482446
  C     -4.731376   -0.734097   -1.558697
  H      3.809292   -1.752331   -1.424180
  H      5.550038   -1.839684   -1.122000
  H      4.402668   -2.214461    0.178251
  H      4.671105    0.521658   -1.159011
  H      5.426434    0.096423    0.407506
  H      0.767713    2.926938   -0.058037
  H      0.405392    2.814064    1.683533
  H      3.182906    3.009335    0.397470
  H      2.376056    4.275836    1.334346
  H      2.900726    2.778224    2.131191
  H      0.139740   -2.578005   -1.754138
  H     -0.035216   -0.787766   -1.748443
  H     -2.007162    0.094375    3.558275
  H     -2.808971   -1.114563    2.519491
  H      0.175355   -1.121113    3.204422
  H     -1.038763   -2.116973    4.025132
  H     -0.683716   -2.377994    2.311194
  H     -5.578560    0.376298    0.101193
  H     -4.445688    1.308564   -0.922371
  H     -4.812254   -1.721749   -1.111918
  H     -5.598708   -0.547956   -2.183973
  H     -3.837634   -0.700389   -2.179523

 Total Charge           Charge          ....    0
 Multiplicity           Mult            ....    1
 Number of Electrons    NEL             ....  202
 Basis Dimension        Dim             ....  539

ORBITAL ENERGIES
----------------

  NO   OCC          E(Eh)            E(eV)
   0   2.0000     -88.575869     -2410.2719
   1   2.0000     -88.570733     -2410.1322
   2   2.0000     -88.515180     -2408.6205
   3   2.0000     -88.513314     -2408.5697
   4   2.0000     -76.911918     -2092.8797
   5   2.0000     -76.907166     -2092.7504
   6   2.0000     -18.992570      -516.8141
   7   2.0000     -18.986501      -516.6490
   8   2.0000     -18.986011      -516.6356
   9   2.0000     -18.977646      -516.4080
  10   2.0000     -10.105944      -274.9967
  11   2.0000     -10.100201      -274.8404
  12   2.0000     -10.099337      -274.8169
  13   2.0000     -10.093465      -274.6571
  14   2.0000     -10.083299      -274.3805
  15   2.0000     -10.028801      -272.8976
  16   2.0000     -10.025221      -272.8001
  17   2.0000     -10.024646      -272.7845
  18   2.0000     -10.019692      -272.6497
  19   2.0000      -7.870463      -214.1662
  20   2.0000      -7.865623      -214.0345
  21   2.0000      -7.809979      -212.5203
  22   2.0000      -7.807961      -212.4654
  23   2.0000      -6.590263      -179.3302
  24   2.0000      -6.585574      -179.2026
  25   2.0000      -5.817295      -158.2967
  26   2.0000      -5.814175      -158.2117
  27   2.0000      -5.812457      -158.1650
  28   2.0000      -5.809487      -158.0842
  29   2.0000      -5.807712      -158.0359
  30   2.0000      -5.802640      -157.8979
  31   2.0000      -5.757771      -156.6769
  32   2.0000      -5.755608      -156.6180
  33   2.0000      -5.750100      -156.4682
  34   2.0000      -5.749992      -156.4652
  35   2.0000      -5.748453      -156.4234
  36   2.0000      -5.747781      -156.4051
  37   2.0000      -4.736144      -128.8770
  38   2.0000      -4.735124      -128.8493
  39   2.0000      -4.733726      -128.8112
  40   2.0000      -4.730905      -128.7345
  41   2.0000      -4.730387      -128.7204
  42   2.0000      -4.729585      -128.6986
  43   2.0000      -1.049125       -28.5481
  44   2.0000      -1.041520       -28.3412
  45   2.0000      -1.007116       -27.4050
  46   2.0000      -1.001363       -27.2485
  47   2.0000      -0.798440       -21.7267
  48   2.0000      -0.755232       -20.5509
  49   2.0000      -0.744953       -20.2712
  50   2.0000      -0.732465       -19.9314
  51   2.0000      -0.724688       -19.7198
  52   2.0000      -0.709338       -19.3021
  53   2.0000      -0.683745       -18.6056
  54   2.0000      -0.661897       -18.0111
  55   2.0000      -0.630605       -17.1596
  56   2.0000      -0.619755       -16.8644
  57   2.0000      -0.606507       -16.5039
  58   2.0000      -0.597713       -16.2646
  59   2.0000      -0.588178       -16.0051
  60   2.0000      -0.525662       -14.3040
  61   2.0000      -0.510369       -13.8878
  62   2.0000      -0.490857       -13.3569
  63   2.0000      -0.483528       -13.1575
  64   2.0000      -0.468182       -12.7399
  65   2.0000      -0.462865       -12.5952
  66   2.0000      -0.457807       -12.4576
  67   2.0000      -0.451170       -12.2770
  68   2.0000      -0.445464       -12.1217
  69   2.0000      -0.432267       -11.7626
  70   2.0000      -0.428043       -11.6476
  71   2.0000      -0.408264       -11.1094
  72   2.0000      -0.402145       -10.9429
  73   2.0000      -0.398753       -10.8506
  74   2.0000      -0.393116       -10.6972
  75   2.0000      -0.387565       -10.5462
  76   2.0000      -0.384081       -10.4514
  77   2.0000      -0.369640       -10.0584
  78   2.0000      -0.366425        -9.9709
  79   2.0000      -0.363312        -9.8862
  80   2.0000      -0.357342        -9.7238
  81   2.0000      -0.356382        -9.6977
  82   2.0000      -0.350563        -9.5393
  83   2.0000      -0.349677        -9.5152
  84   2.0000      -0.344900        -9.3852
  85   2.0000      -0.326714        -8.8903
  86   2.0000      -0.318877        -8.6771
  87   2.0000      -0.314147        -8.5484
  88   2.0000      -0.307975        -8.3804
  89   2.0000      -0.303834        -8.2677
  90   2.0000      -0.288982        -7.8636
  91   2.0000      -0.282621        -7.6905
  92   2.0000      -0.277786        -7.5590
  93   2.0000      -0.276029        -7.5111
  94   2.0000      -0.271205        -7.3799
  95   2.0000      -0.245114        -6.6699
  96   2.0000      -0.230067        -6.2605
  97   2.0000      -0.227563        -6.1923
  98   2.0000      -0.215671        -5.8687
  99   2.0000      -0.205773        -5.5994
 100   2.0000      -0.198642        -5.4053
 101   0.0000      -0.040768        -1.1094
 102   0.0000      -0.030367        -0.8263
 103   0.0000      -0.010713        -0.2915
 104   0.0000       0.015084         0.4105
 105   0.0000       0.015840         0.4310

MULLIKEN ATOMIC CHARGES
-----------------------
   0 C :   -0.448965
   1 C :   -0.157404
   2 O :   -0.298922
   3 P :    0.641307
   4 S :   -0.462622
   5 O :   -0.263788
   6 C :   -0.156997
   7 C :   -0.450359
   8 S :   -0.115831
   9 C :   -0.227285
  10 S :   -0.147812
  11 P :    0.668631
  12 S :   -0.419672
  13 O :   -0.254799
  14 C :   -0.133005
  15 C :   -0.439973
  16 O :   -0.311877
  17 C :   -0.167246
  18 C :   -0.454347
  19 H :    0.175305
  20 H :    0.146173
  21 H :    0.153536
  22 H :    0.173309
  23 H :    0.146658
  24 H :    0.182346
  25 H :    0.156656
  26 H :    0.164224
  27 H :    0.145679
  28 H :    0.154196
  29 H :    0.198579
  30 H :    0.217127
  31 H :    0.151308
  32 H :    0.158922
  33 H :    0.164290
  34 H :    0.141566
  35 H :    0.164819
  36 H :    0.147278
  37 H :    0.175205
  38 H :    0.152768
  39 H :    0.148420
  40 H :    0.182603
Sum of atomic charges:    0.0000000

LOEWDIN ATOMIC CHARGES
----------------------
   0 C :   -0.408422
   1 C :    0.017261
   2 O :   -0.668084
   3 P :    0.369648
   4 S :   -0.127366
   5 O :   -0.670084
   6 C :    0.011234
   7 C :   -0.400529
   8 S :    0.172299
   9 C :   -0.412657
  10 S :    0.132718
  11 P :    0.380897
  12 S :   -0.072044
  13 O :   -0.647076
  14 C :    0.028479
  15 C :   -0.404733
  16 O :   -0.676941
  17 C :    0.021692
  18 C :   -0.409281
  19 H :    0.164669
  20 H :    0.158088
  21 H :    0.159758
  22 H :    0.179894
  23 H :    0.178453
  24 H :    0.184575
  25 H :    0.183150
  26 H :    0.163554
  27 H :    0.158327
  28 H :    0.160151
  29 H :    0.180570
  30 H :    0.203224
  31 H :    0.180337
  32 H :    0.178323
  33 H :    0.165508
  34 H :    0.156001
  35 H :    0.162456
  36 H :    0.179237
  37 H :    0.180825
  38 H :    0.159248
  39 H :    0.159621
  40 H :    0.167017

  Mayer bond orders larger than 0.100000
B(  0-C ,  1-C ) :   0.9210 B(  0-C , 19-H ) :   0.9655 B(  0-C , 20-H ) :   0.9594
B(  0-C , 21-H ) :   0.9681 B(  1-C ,  2-O ) :   0.8226 B(  1-C , 22-H ) :   0.9667
B(  1-C , 23-H ) :   0.9593 B(  2-O ,  3-P ) :   1.0540 B(  3-P ,  4-S ) :   1.7616
B(  3-P ,  5-O ) :   1.1624 B(  3-P ,  8-S ) :   1.1345 B(  5-O ,  6-C ) :   0.8033
B(  6-C ,  7-C ) :   0.9095 B(  6-C , 24-H ) :   0.9628 B(  6-C , 25-H ) :   0.9632
B(  7-C , 26-H ) :   0.9636 B(  7-C , 27-H ) :   0.9618 B(  7-C , 28-H ) :   0.9738
B(  8-S ,  9-C ) :   0.8904 B(  9-C , 10-S ) :   0.9100 B(  9-C , 29-H ) :   0.9127
B(  9-C , 30-H ) :   0.9056 B( 10-S , 11-P ) :   1.0062 B( 11-P , 12-S ) :   1.8323
B( 11-P , 13-O ) :   1.1211 B( 11-P , 16-O ) :   1.0599 B( 13-O , 14-C ) :   0.7408
B( 14-C , 15-C ) :   0.9536 B( 14-C , 31-H ) :   0.9601 B( 14-C , 32-H ) :   0.9752
B( 15-C , 33-H ) :   0.9645 B( 15-C , 34-H ) :   0.9626 B( 15-C , 35-H ) :   0.9616
B( 16-O , 17-C ) :   0.8263 B( 17-C , 18-C ) :   0.9167 B( 17-C , 36-H ) :   0.9614
B( 17-C , 37-H ) :   0.9679 B( 18-C , 38-H ) :   0.9674 B( 18-C , 39-H ) :   0.9572
B( 18-C , 40-H ) :   0.9629

Dispersion correction           -0.022512991
FINAL SINGLE POINT ENERGY     -2932.457966407060

DIPOLE MOMENT
-------------

Method             : SCF
Type of density    : Electron Density
Multiplicity       :   1
Irrep              :   0
Energy             : -2932.4821034167925973 Eh
Relativity type    :
Basis              : AO
                                X                 Y                 Z
Electronic contribution:     -3.240218503       0.169778462      -6.791453724
Nuclear contribution   :      2.865400098      -0.911289608       7.851957390
                        -----------------------------------------
Total Dipole Moment    :     -0.374818405      -0.741511146       1.060503666
                        -----------------------------------------
Magnitude (a.u.)       :      1.347217741
Magnitude (Debye)      :      3.424355361

Rotational constants in cm-1:             0.012773             0.005368             0.005194
Rotational constants in MHz :           382.930811           160.926991           155.724913

                             ****ORCA TERMINATED NORMALLY****
TOTAL RUN TIME: 0 days 0 hours 1 minutes 22 seconds 548 msec
