                         Program Version 6.0.0  -   RELEASE  -
|  1> ! r2scan-3c def2/J RI DEFGRID2 scfconv6 printgap
|  2> %output
|  3>     printlevel normal
|  4> end
|  5> %cpcm
|  6>     smd true
|  7>     smdsolvent "water"
|  8> end
|  9> * xyz 0 1
| 10> C 4.590717206 -1.5814511642 -0.6851742141
| 11> C 4.6050818469 -0.122594918 -0.2761383304
| 12> O 3.4315345779 0.2468861554 0.4671929675
| 13> P 1.9862118061 0.3252592837 -0.1947026686
| 14> S 1.9759244514 1.0133899548 -2.0349056299
| 15> O 1.1926672333 1.1486912 0.9033116185
| 16> C 1.1442349373 2.5866701413 0.9129964346
| 17> C 2.4927356805 3.2028705076 1.2176317499
| 18> S 1.2213315691 -1.5985938168 0.1439499951
| 19> C -0.0670741307 -1.7005584525 -1.147361924
| 20> S -1.7266329417 -1.9383294565 -0.476504055
| 21> P -2.0916603236 0.0511904344 0.1728096241
| 22> S -1.4942664967 1.4659222625 -1.0399997264
| 23> O -1.4623412202 0.1918738544 1.6122628664
| 24> C -1.8620331877 -0.622866347 2.7487771427
| 25> C -0.7803632747 -1.627105762 3.0917221529
| 26> O -3.647821538 0.0478810861 0.5030136769
| 27> C -4.6580048691 0.3293118435 -0.4824461383
| 28> C -4.7313764178 -0.7340966546 -1.5586968256
| 29> H 3.8092918669 -1.7523307363 -1.424180431
| 30> H 5.5500383117 -1.8396836953 -1.1219998939
| 31> H 4.4026679229 -2.2144605522 0.1782510435
| 32> H 4.6711049145 0.5216578482 -1.1590110927
| 33> H 5.4264343755 0.0964231323 0.4075057693
| 34> H 0.7677126834 2.9269378004 -0.0580372527
| 35> H 0.4053915682 2.8140637646 1.6835333403
| 36> H 3.1829060189 3.0093353018 0.3974703257
| 37> H 2.376055664 4.2758362627 1.3343458113
| 38> H 2.9007261659 2.7782242928 2.1311909965
| 39> H 0.1397401767 -2.5780049609 -1.7541381218
| 40> H -0.0352156897 -0.7877663866 -1.7484432818
| 41> H -2.0071619269 0.0943753802 3.5582745341
| 42> H -2.8089709756 -1.1145626573 2.5194911891
| 43> H 0.1753548675 -1.1211126078 3.2044215123
| 44> H -1.0387633931 -2.1169731286 4.0251315276
| 45> H -0.6837164541 -2.3779942648 2.3111936399
| 46> H -5.5785603513 0.3762980435 0.1011929704
| 47> H -4.4456878548 1.3085636321 -0.9223705816
| 48> H -4.812254017 -1.721749182 -1.1119175057
| 49> H -5.5987075201 -0.5479563735 -2.1839732079
| 50> H -3.8376342501 -0.7003885025 -2.1795225155
| 51> *
| 52>
| 53>                          ****END OF INPUT****

CARTESIAN COORDINATES (ANGSTROEM)
---------------------------------
  C      4.590717   -1.581451   -0.685174
  C      4.605082   -0.122595   -0.276138
  O      3.431535    0.246886    0.467193
  P      1.986212    0.325259   -0.194703
  S      1.975924    1.013390   -2.034906
  O      1.192667    1.148691    0.903312
  C      1.144235    2.586670    0.912996
  C      2.492736    3.202871    1.217632
  S      1.221332   -1.598594    0.143950
  C     -0.067074   -1.700558   -1.147362
  S     -1.726633   -1.938329   -0.476504
  P     -2.091660    0.051190    0.172810
  S     -1.494266    1.465922   -1.040000
  O     -1.462341    0.191874    1.612263
  C     -1.862033   -0.622866    2.748777
  C     -0.780363   -1.627106    3.091722
  O     -3.647822    0.047881    0.503014
  C     -4.658005    0.329312   -0.482446
  C     -4.731376   -0.734097   -1.558697
  H      3.809292   -1.752331   -1.424180
  H      5.550038   -1.839684   -1.122000
  H      4.402668   -2.214461    0.178251
  H      4.671105    0.521658   -1.159011
  H      5.426434    0.096423    0.407506
  H      0.767713    2.926938   -0.058037
  H      0.405392    2.814064    1.683533
  H      3.182906    3.009335    0.397470
  H      2.376056    4.275836    1.334346
  H      2.900726    2.778224    2.131191
  H      0.139740   -2.578005   -1.754138
  H     -0.035216   -0.787766   -1.748443
  H     -2.007162    0.094375    3.558275
  H     -2.808971   -1.114563    2.519491
  H      0.175355   -1.121113    3.204422
  H     -1.038763   -2.116973    4.025132
  H     -0.683716   -2.377994    2.311194
  H     -5.578560    0.376298    0.101193
  H     -4.445688    1.308564   -0.922371
  H     -4.812254   -1.721749   -1.111918
  H     -5.598708   -0.547956   -2.183973
  H     -3.837634   -0.700389   -2.179523

 Total Charge           Charge          ....    0
 Multiplicity           Mult            ....    1
 Number of Electrons    NEL             ....  202
 Basis Dimension        Dim             ....  539

ORBITAL ENERGIES
----------------

  NO   OCC          E(Eh)            E(eV)
   0   2.0000     -88.578052     -2410.3313
   1   2.0000     -88.575336     -2410.2574
   2   2.0000     -88.524452     -2408.8728
   3   2.0000     -88.524358     -2408.8702
   4   2.0000     -76.917599     -2093.0343
   5   2.0000     -76.916241     -2092.9973
   6   2.0000     -18.993810      -516.8478
   7   2.0000     -18.992087      -516.8010
   8   2.0000     -18.991218      -516.7773
   9   2.0000     -18.987884      -516.6866
  10   2.0000     -10.104847      -274.9669
  11   2.0000     -10.091287      -274.5979
  12   2.0000     -10.089828      -274.5582
  13   2.0000     -10.087786      -274.5026
  14   2.0000     -10.085241      -274.4334
  15   2.0000     -10.018244      -272.6103
  16   2.0000     -10.017195      -272.5817
  17   2.0000     -10.017109      -272.5794
  18   2.0000     -10.016428      -272.5609
  19   2.0000      -7.872555      -214.2231
  20   2.0000      -7.870150      -214.1577
  21   2.0000      -7.819506      -212.7796
  22   2.0000      -7.819439      -212.7777
  23   2.0000      -6.595988      -179.4859
  24   2.0000      -6.594705      -179.4510
  25   2.0000      -5.819417      -158.3544
  26   2.0000      -5.817001      -158.2886
  27   2.0000      -5.816293      -158.2694
  28   2.0000      -5.814016      -158.2074
  29   2.0000      -5.809764      -158.0917
  30   2.0000      -5.807167      -158.0211
  31   2.0000      -5.767191      -156.9333
  32   2.0000      -5.767013      -156.9284
  33   2.0000      -5.759926      -156.7356
  34   2.0000      -5.759671      -156.7286
  35   2.0000      -5.759513      -156.7243
  36   2.0000      -5.759271      -156.7177
  37   2.0000      -4.741824      -129.0316
  38   2.0000      -4.740818      -129.0042
  39   2.0000      -4.740017      -128.9824
  40   2.0000      -4.739560      -128.9700
  41   2.0000      -4.739518      -128.9688
  42   2.0000      -4.738760      -128.9482
  43   2.0000      -1.051787       -28.6206
  44   2.0000      -1.049030       -28.5456
  45   2.0000      -1.010016       -27.4839
  46   2.0000      -1.008424       -27.4406
  47   2.0000      -0.800156       -21.7733
  48   2.0000      -0.754642       -20.5348
  49   2.0000      -0.743036       -20.2190
  50   2.0000      -0.724418       -19.7124
  51   2.0000      -0.721947       -19.6452
  52   2.0000      -0.710377       -19.3303
  53   2.0000      -0.688873       -18.7452
  54   2.0000      -0.669352       -18.2140
  55   2.0000      -0.632736       -17.2176
  56   2.0000      -0.617875       -16.8132
  57   2.0000      -0.601984       -16.3808
  58   2.0000      -0.597406       -16.2562
  59   2.0000      -0.587322       -15.9819
  60   2.0000      -0.522008       -14.2046
  61   2.0000      -0.512221       -13.9382
  62   2.0000      -0.488337       -13.2883
  63   2.0000      -0.485320       -13.2062
  64   2.0000      -0.470639       -12.8067
  65   2.0000      -0.463972       -12.6253
  66   2.0000      -0.454881       -12.3779
  67   2.0000      -0.451292       -12.2803
  68   2.0000      -0.440184       -11.9780
  69   2.0000      -0.432482       -11.7684
  70   2.0000      -0.424810       -11.5597
  71   2.0000      -0.405574       -11.0362
  72   2.0000      -0.404441       -11.0054
  73   2.0000      -0.400839       -10.9074
  74   2.0000      -0.392903       -10.6914
  75   2.0000      -0.385291       -10.4843
  76   2.0000      -0.383206       -10.4276
  77   2.0000      -0.365479        -9.9452
  78   2.0000      -0.363612        -9.8944
  79   2.0000      -0.358977        -9.7683
  80   2.0000      -0.353876        -9.6294
  81   2.0000      -0.352397        -9.5892
  82   2.0000      -0.349342        -9.5061
  83   2.0000      -0.345604        -9.4044
  84   2.0000      -0.344095        -9.3633
  85   2.0000      -0.324972        -8.8429
  86   2.0000      -0.320447        -8.7198
  87   2.0000      -0.310681        -8.4541
  88   2.0000      -0.303827        -8.2675
  89   2.0000      -0.302797        -8.2395
  90   2.0000      -0.294412        -8.0114
  91   2.0000      -0.285391        -7.7659
  92   2.0000      -0.281810        -7.6684
  93   2.0000      -0.277334        -7.5466
  94   2.0000      -0.274711        -7.4753
  95   2.0000      -0.248487        -6.7617
  96   2.0000      -0.238883        -6.5003
  97   2.0000      -0.236289        -6.4297
  98   2.0000      -0.225811        -6.1446
  99   2.0000      -0.214228        -5.8294
 100   2.0000      -0.209767        -5.7080
 101   0.0000      -0.044950        -1.2232
 102   0.0000      -0.036601        -0.9960
 103   0.0000      -0.014005        -0.3811
 104   0.0000       0.009806         0.2668
 105   0.0000       0.014032         0.3818

MULLIKEN ATOMIC CHARGES
-----------------------
   0 C :   -0.482997
   1 C :   -0.157228
   2 O :   -0.325790
   3 P :    0.680088
   4 S :   -0.520176
   5 O :   -0.293595
   6 C :   -0.155184
   7 C :   -0.494535
   8 S :   -0.113191
   9 C :   -0.226682
  10 S :   -0.142881
  11 P :    0.684023
  12 S :   -0.472451
  13 O :   -0.289978
  14 C :   -0.126700
  15 C :   -0.478294
  16 O :   -0.332882
  17 C :   -0.161740
  18 C :   -0.490026
  19 H :    0.172486
  20 H :    0.171049
  21 H :    0.166382
  22 H :    0.176986
  23 H :    0.173594
  24 H :    0.181582
  25 H :    0.177198
  26 H :    0.168283
  27 H :    0.170624
  28 H :    0.169044
  29 H :    0.239060
  30 H :    0.209795
  31 H :    0.176846
  32 H :    0.177720
  33 H :    0.166017
  34 H :    0.167468
  35 H :    0.166108
  36 H :    0.174821
  37 H :    0.178256
  38 H :    0.168560
  39 H :    0.172603
  40 H :    0.175738
Sum of atomic charges:    0.0000000

LOEWDIN ATOMIC CHARGES
----------------------
   0 C :   -0.410960
   1 C :    0.022755
   2 O :   -0.680272
   3 P :    0.374650
   4 S :   -0.162797
   5 O :   -0.689562
   6 C :    0.011632
   7 C :   -0.402885
   8 S :    0.176582
   9 C :   -0.406695
  10 S :    0.143589
  11 P :    0.383123
  12 S :   -0.110231
  13 O :   -0.669295
  14 C :    0.034347
  15 C :   -0.406491
  16 O :   -0.683534
  17 C :    0.026597
  18 C :   -0.411953
  19 H :    0.161227
  20 H :    0.167212
  21 H :    0.163119
  22 H :    0.181069
  23 H :    0.189850
  24 H :    0.183308
  25 H :    0.190119
  26 H :    0.162900
  27 H :    0.167833
  28 H :    0.164062
  29 H :    0.196919
  30 H :    0.200184
  31 H :    0.190935
  32 H :    0.185996
  33 H :    0.163685
  34 H :    0.166164
  35 H :    0.160753
  36 H :    0.190940
  37 H :    0.181228
  38 H :    0.163571
  39 H :    0.168356
  40 H :    0.161969

  Mayer bond orders larger than 0.100000
B(  0-C ,  1-C ) :   0.9097 B(  0-C , 19-H ) :   0.9659 B(  0-C , 20-H ) :   0.9542
B(  0-C , 21-H ) :   0.9655 B(  1-C ,  2-O ) :   0.8098 B(  1-C , 22-H ) :   0.9650
B(  1-C , 23-H ) :   0.9495 B(  2-O ,  3-P ) :   1.0631 B(  3-P ,  4-S ) :   1.7048
B(  3-P ,  5-O ) :   1.1597 B(  3-P ,  8-S ) :   1.1608 B(  5-O ,  6-C ) :   0.7880
B(  6-C ,  7-C ) :   0.9070 B(  6-C , 24-H ) :   0.9596 B(  6-C , 25-H ) :   0.9517
B(  7-C , 26-H ) :   0.9624 B(  7-C , 27-H ) :   0.9550 B(  7-C , 28-H ) :   0.9720
B(  8-S ,  9-C ) :   0.8839 B(  9-C , 10-S ) :   0.9050 B(  9-C , 29-H ) :   0.8967
B(  9-C , 30-H ) :   0.9103 B( 10-S , 11-P ) :   1.0246 B( 11-P , 12-S ) :   1.8052
B( 11-P , 13-O ) :   1.1217 B( 11-P , 16-O ) :   1.0685 B( 13-O , 14-C ) :   0.7299
B( 14-C , 15-C ) :   0.9423 B( 14-C , 31-H ) :   0.9496 B( 14-C , 32-H ) :   0.9653
B( 15-C , 33-H ) :   0.9653 B( 15-C , 34-H ) :   0.9573 B( 15-C , 35-H ) :   0.9621
B( 16-O , 17-C ) :   0.8151 B( 17-C , 18-C ) :   0.9054 B( 17-C , 36-H ) :   0.9510
B( 17-C , 37-H ) :   0.9663 B( 18-C , 38-H ) :   0.9644 B( 18-C , 39-H ) :   0.9520
B( 18-C , 40-H ) :   0.9650

Dispersion correction           -0.022512991
FINAL SINGLE POINT ENERGY     -2932.466866009086

DIPOLE MOMENT
-------------

Method             : SCF
Type of density    : Electron Density
Multiplicity       :   1
Irrep              :   0
Energy             : -2932.4910030188184464 Eh
Relativity type    :
Basis              : AO
                                X                 Y                 Z
Electronic contribution:     -3.386796854      -0.329307218      -6.456403087
Nuclear contribution   :      2.865400098      -0.911289608       7.851957390
                        -----------------------------------------
Total Dipole Moment    :     -0.521396757      -1.240596827       1.395554304
                        -----------------------------------------
Magnitude (a.u.)       :      1.938686896
Magnitude (Debye)      :      4.927750474

Rotational constants in cm-1:             0.012773             0.005368             0.005194
Rotational constants in MHz :           382.930811           160.926991           155.724913

                             ****ORCA TERMINATED NORMALLY****
TOTAL RUN TIME: 0 days 0 hours 1 minutes 53 seconds 289 msec
