                         Program Version 6.0.0  -   RELEASE  -
|  1> ! r2scan-3c def2/J RI DEFGRID2 scfconv6 printgap
|  2> %output
|  3>     printlevel normal
|  4> end
|  5> * xyz 0 1
|  6> C 2.3957641227 -4.70621e-05 -0.0457761773
|  7> N 0.9877244493 3.57258e-05 0.2910245823
|  8> C 0.3173046686 1.1867635124 -0.2135460371
|  9> C -1.1394309292 1.1883884873 0.2405096425
| 10> N -1.7945072578 9.14346e-05 -0.278719496
| 11> C -1.1395486739 -1.1884283449 0.2403341995
| 12> C 0.3172909348 -1.1867834517 -0.2133774425
| 13> H 2.8619487369 -0.8851194184 0.383310923
| 14> H 2.8618688094 0.885637807 0.3821747712
| 15> H 2.5708891101 -0.0007239505 -1.1334658463
| 16> H 0.826764589 2.0679830619 0.1819304314
| 17> H 0.3485362268 1.2246345758 -1.3171990751
| 18> H -1.1602794496 1.2250471054 1.3433289929
| 19> H -1.6469019962 2.0707326649 -0.153362752
| 20> H -2.7728836085 9.34045e-05 -0.0093352423
| 21> H -1.1607335961 -1.2253794961 1.343191851
| 22> H -1.646951381 -2.0706325859 -0.1539981548
| 23> H 0.8266173872 -2.0678332609 0.1823346759
| 24> H 0.348827431 -1.2249336208 -1.3169663937
| 25> *
| 26>
| 27>                          ****END OF INPUT****

CARTESIAN COORDINATES (ANGSTROEM)
---------------------------------
  C      2.395764   -0.000047   -0.045776
  N      0.987724    0.000036    0.291025
  C      0.317305    1.186764   -0.213546
  C     -1.139431    1.188388    0.240510
  N     -1.794507    0.000091   -0.278719
  C     -1.139549   -1.188428    0.240334
  C      0.317291   -1.186783   -0.213377
  H      2.861949   -0.885119    0.383311
  H      2.861869    0.885638    0.382175
  H      2.570889   -0.000724   -1.133466
  H      0.826765    2.067983    0.181930
  H      0.348536    1.224635   -1.317199
  H     -1.160279    1.225047    1.343329
  H     -1.646902    2.070733   -0.153363
  H     -2.772884    0.000093   -0.009335
  H     -1.160734   -1.225379    1.343192
  H     -1.646951   -2.070633   -0.153998
  H      0.826617   -2.067833    0.182335
  H      0.348827   -1.224934   -1.316966

 Total Charge           Charge          ....    0
 Multiplicity           Mult            ....    1
 Number of Electrons    NEL             ....   56
 Basis Dimension        Dim             ....  203

ORBITAL ENERGIES
----------------

  NO   OCC          E(Eh)            E(eV)
   0   2.0000     -14.147270      -384.9668
   1   2.0000     -14.141372      -384.8063
   2   2.0000     -10.047392      -273.4034
   3   2.0000     -10.047372      -273.4029
   4   2.0000     -10.045852      -273.3615
   5   2.0000     -10.045846      -273.3614
   6   2.0000     -10.041650      -273.2472
   7   2.0000      -0.905300       -24.6345
   8   2.0000      -0.855677       -23.2842
   9   2.0000      -0.722361       -19.6564
  10   2.0000      -0.680452       -18.5160
  11   2.0000      -0.600234       -16.3332
  12   2.0000      -0.594280       -16.1712
  13   2.0000      -0.516603       -14.0575
  14   2.0000      -0.481770       -13.1096
  15   2.0000      -0.427809       -11.6413
  16   2.0000      -0.427202       -11.6247
  17   2.0000      -0.412779       -11.2323
  18   2.0000      -0.410875       -11.1805
  19   2.0000      -0.390047       -10.6137
  20   2.0000      -0.360964        -9.8223
  21   2.0000      -0.345468        -9.4006
  22   2.0000      -0.333898        -9.0858
  23   2.0000      -0.313909        -8.5419
  24   2.0000      -0.298610        -8.1256
  25   2.0000      -0.293576        -7.9886
  26   2.0000      -0.194113        -5.2821
  27   2.0000      -0.183781        -5.0009
  28   0.0000       0.070148         1.9088
  29   0.0000       0.092592         2.5196
  30   0.0000       0.112178         3.0525
  31   0.0000       0.122242         3.3264
  32   0.0000       0.128321         3.4918

MULLIKEN ATOMIC CHARGES
-----------------------
   0 C :   -0.348797
   1 N :   -0.162182
   2 C :   -0.225464
   3 C :   -0.236030
   4 N :   -0.330415
   5 C :   -0.236063
   6 C :   -0.225406
   7 H :    0.143969
   8 H :    0.143933
   9 H :    0.132987
  10 H :    0.135823
  11 H :    0.147217
  12 H :    0.137376
  13 H :    0.137605
  14 H :    0.227405
  15 H :    0.137363
  16 H :    0.137617
  17 H :    0.135840
  18 H :    0.147223
Sum of atomic charges:   -0.0000000

LOEWDIN ATOMIC CHARGES
----------------------
   0 C :   -0.144804
   1 N :   -0.993121
   2 C :   -0.030693
   3 C :   -0.038713
   4 N :   -0.834521
   5 C :   -0.038719
   6 C :   -0.030707
   7 H :    0.173265
   8 H :    0.173269
   9 H :    0.153148
  10 H :    0.178566
  11 H :    0.166931
  12 H :    0.160810
  13 H :    0.175413
  14 H :    0.248163
  15 H :    0.160806
  16 H :    0.175420
  17 H :    0.178564
  18 H :    0.166922

  Mayer bond orders larger than 0.100000
B(  0-C ,  1-N ) :   0.9460 B(  0-C ,  7-H ) :   0.9709 B(  0-C ,  8-H ) :   0.9708
B(  0-C ,  9-H ) :   0.9507 B(  1-N ,  2-C ) :   0.9921 B(  1-N ,  6-C ) :   0.9921
B(  2-C ,  3-C ) :   0.9557 B(  2-C , 10-H ) :   0.9523 B(  2-C , 11-H ) :   0.9552
B(  3-C ,  4-N ) :   0.9898 B(  3-C , 12-H ) :   0.9695 B(  3-C , 13-H ) :   0.9575
B(  4-N ,  5-C ) :   0.9898 B(  4-N , 14-H ) :   0.9103 B(  5-C ,  6-C ) :   0.9557
B(  5-C , 15-H ) :   0.9695 B(  5-C , 16-H ) :   0.9575 B(  6-C , 17-H ) :   0.9523
B(  6-C , 18-H ) :   0.9552

Dispersion correction           -0.005421832
FINAL SINGLE POINT ENERGY      -307.137395739084

DIPOLE MOMENT
-------------

Method             : SCF
Type of density    : Electron Density
Multiplicity       :   1
Irrep              :   0
Energy             :  -307.1513051181311766 Eh
Relativity type    :
Basis              : AO
                                X                 Y                 Z
Electronic contribution:     -2.202998030       0.000347928       0.372893168
Nuclear contribution   :      2.113682171      -0.000462489      -0.251413287
                        -----------------------------------------
Total Dipole Moment    :     -0.089315859      -0.000114560       0.121479880
                        -----------------------------------------
Magnitude (a.u.)       :      0.150780294
Magnitude (Debye)      :      0.383253050

Rotational constants in cm-1:             0.158666             0.078163             0.057195
Rotational constants in MHz :          4756.678376          2343.260687          1714.668807

                             ****ORCA TERMINATED NORMALLY****
TOTAL RUN TIME: 0 days 0 hours 0 minutes 26 seconds 374 msec
