                         Program Version 6.0.0  -   RELEASE  -
|  1> ! r2scan-3c def2/J RI DEFGRID2 scfconv6 printgap
|  2> %output
|  3>     printlevel normal
|  4> end
|  5> %cpcm
|  6>     smd true
|  7>     smdsolvent "water"
|  8> end
|  9> * xyz 0 1
| 10> C 2.3957641227 -4.70621e-05 -0.0457761773
| 11> N 0.9877244493 3.57258e-05 0.2910245823
| 12> C 0.3173046686 1.1867635124 -0.2135460371
| 13> C -1.1394309292 1.1883884873 0.2405096425
| 14> N -1.7945072578 9.14346e-05 -0.278719496
| 15> C -1.1395486739 -1.1884283449 0.2403341995
| 16> C 0.3172909348 -1.1867834517 -0.2133774425
| 17> H 2.8619487369 -0.8851194184 0.383310923
| 18> H 2.8618688094 0.885637807 0.3821747712
| 19> H 2.5708891101 -0.0007239505 -1.1334658463
| 20> H 0.826764589 2.0679830619 0.1819304314
| 21> H 0.3485362268 1.2246345758 -1.3171990751
| 22> H -1.1602794496 1.2250471054 1.3433289929
| 23> H -1.6469019962 2.0707326649 -0.153362752
| 24> H -2.7728836085 9.34045e-05 -0.0093352423
| 25> H -1.1607335961 -1.2253794961 1.343191851
| 26> H -1.646951381 -2.0706325859 -0.1539981548
| 27> H 0.8266173872 -2.0678332609 0.1823346759
| 28> H 0.348827431 -1.2249336208 -1.3169663937
| 29> *
| 30>
| 31>                          ****END OF INPUT****

CARTESIAN COORDINATES (ANGSTROEM)
---------------------------------
  C      2.395764   -0.000047   -0.045776
  N      0.987724    0.000036    0.291025
  C      0.317305    1.186764   -0.213546
  C     -1.139431    1.188388    0.240510
  N     -1.794507    0.000091   -0.278719
  C     -1.139549   -1.188428    0.240334
  C      0.317291   -1.186783   -0.213377
  H      2.861949   -0.885119    0.383311
  H      2.861869    0.885638    0.382175
  H      2.570889   -0.000724   -1.133466
  H      0.826765    2.067983    0.181930
  H      0.348536    1.224635   -1.317199
  H     -1.160279    1.225047    1.343329
  H     -1.646902    2.070733   -0.153363
  H     -2.772884    0.000093   -0.009335
  H     -1.160734   -1.225379    1.343192
  H     -1.646951   -2.070633   -0.153998
  H      0.826617   -2.067833    0.182335
  H      0.348827   -1.224934   -1.316966

 Total Charge           Charge          ....    0
 Multiplicity           Mult            ....    1
 Number of Electrons    NEL             ....   56
 Basis Dimension        Dim             ....  203

ORBITAL ENERGIES
----------------

  NO   OCC          E(Eh)            E(eV)
   0   2.0000     -14.146789      -384.9537
   1   2.0000     -14.138440      -384.7265
   2   2.0000     -10.042165      -273.2612
   3   2.0000     -10.042148      -273.2607
   4   2.0000     -10.041155      -273.2337
   5   2.0000     -10.041147      -273.2335
   6   2.0000     -10.035010      -273.0665
   7   2.0000      -0.902785       -24.5660
   8   2.0000      -0.852430       -23.1958
   9   2.0000      -0.718190       -19.5430
  10   2.0000      -0.675949       -18.3935
  11   2.0000      -0.595751       -16.2112
  12   2.0000      -0.589134       -16.0312
  13   2.0000      -0.513219       -13.9654
  14   2.0000      -0.476512       -12.9665
  15   2.0000      -0.424239       -11.5441
  16   2.0000      -0.422472       -11.4961
  17   2.0000      -0.408867       -11.1258
  18   2.0000      -0.407001       -11.0751
  19   2.0000      -0.385829       -10.4989
  20   2.0000      -0.355165        -9.6645
  21   2.0000      -0.340755        -9.2724
  22   2.0000      -0.327916        -8.9230
  23   2.0000      -0.309568        -8.4238
  24   2.0000      -0.292997        -7.9729
  25   2.0000      -0.288368        -7.8469
  26   2.0000      -0.195539        -5.3209
  27   2.0000      -0.185635        -5.0514
  28   0.0000       0.080295         2.1849
  29   0.0000       0.099248         2.7007
  30   0.0000       0.119574         3.2538
  31   0.0000       0.128469         3.4958
  32   0.0000       0.130691         3.5563

MULLIKEN ATOMIC CHARGES
-----------------------
   0 C :   -0.382282
   1 N :   -0.175214
   2 C :   -0.255050
   3 C :   -0.269606
   4 N :   -0.374829
   5 C :   -0.269642
   6 C :   -0.254979
   7 H :    0.161354
   8 H :    0.161338
   9 H :    0.142821
  10 H :    0.159649
  11 H :    0.154980
  12 H :    0.146393
  13 H :    0.159533
  14 H :    0.274940
  15 H :    0.146393
  16 H :    0.159544
  17 H :    0.159657
  18 H :    0.154999
Sum of atomic charges:   -0.0000000

LOEWDIN ATOMIC CHARGES
----------------------
   0 C :   -0.149811
   1 N :   -1.012596
   2 C :   -0.034484
   3 C :   -0.041178
   4 N :   -0.852126
   5 C :   -0.041184
   6 C :   -0.034495
   7 H :    0.178090
   8 H :    0.178098
   9 H :    0.157439
  10 H :    0.185386
  11 H :    0.167177
  12 H :    0.162236
  13 H :    0.181745
  14 H :    0.259158
  15 H :    0.162237
  16 H :    0.181753
  17 H :    0.185381
  18 H :    0.167174

  Mayer bond orders larger than 0.100000
B(  0-C ,  1-N ) :   0.9420 B(  0-C ,  7-H ) :   0.9661 B(  0-C ,  8-H ) :   0.9661
B(  0-C ,  9-H ) :   0.9499 B(  1-N ,  2-C ) :   0.9811 B(  1-N ,  6-C ) :   0.9811
B(  2-C ,  3-C ) :   0.9271 B(  2-C , 10-H ) :   0.9532 B(  2-C , 11-H ) :   0.9619
B(  3-C ,  4-N ) :   0.9818 B(  3-C , 12-H ) :   0.9757 B(  3-C , 13-H ) :   0.9610
B(  4-N ,  5-C ) :   0.9819 B(  4-N , 14-H ) :   0.8947 B(  5-C ,  6-C ) :   0.9271
B(  5-C , 15-H ) :   0.9757 B(  5-C , 16-H ) :   0.9610 B(  6-C , 17-H ) :   0.9532
B(  6-C , 18-H ) :   0.9619

Dispersion correction           -0.005421832
FINAL SINGLE POINT ENERGY      -307.150211795751

DIPOLE MOMENT
-------------

Method             : SCF
Type of density    : Electron Density
Multiplicity       :   1
Irrep              :   0
Energy             :  -307.1641211747987086 Eh
Relativity type    :
Basis              : AO
                                X                 Y                 Z
Electronic contribution:     -2.225892068       0.000299172       0.403057959
Nuclear contribution   :      2.113682171      -0.000462489      -0.251413287
                        -----------------------------------------
Total Dipole Moment    :     -0.112209897      -0.000163316       0.151644672
                        -----------------------------------------
Magnitude (a.u.)       :      0.188645684
Magnitude (Debye)      :      0.479499223

Rotational constants in cm-1:             0.158666             0.078163             0.057195
Rotational constants in MHz :          4756.678376          2343.260687          1714.668807

                             ****ORCA TERMINATED NORMALLY****
TOTAL RUN TIME: 0 days 0 hours 0 minutes 36 seconds 398 msec
