                         Program Version 6.0.0  -   RELEASE  -
|  1> ! r2scan-3c def2/J RI DEFGRID2 scfconv6 printgap
|  2> %output
|  3>     printlevel normal
|  4> end
|  5> * xyz 0 1
|  6> C 2.6521744903 -2.9105120999 1.2841794079
|  7> C 1.6375227728 -2.0747190918 0.5291910481
|  8> O 1.8880341051 -0.6835840497 0.7841991272
|  9> P 2.3293117225 0.3871951716 -0.312760817
| 10> S 3.0273645799 -0.3614900524 -1.9749419486
| 11> O 3.3946122305 1.2804254361 0.4277156762
| 12> C 3.1393106777 2.1328227662 1.5707112223
| 13> C 3.2006265236 1.3565725556 2.8700765773
| 14> S 0.6638317822 1.7166144416 -0.4938333248
| 15> C -0.0806110914 0.9412001806 -1.9425165732
| 16> S -0.6675672447 -0.7454248963 -1.6163712955
| 17> P -2.0962543149 -0.2332608994 -0.1495245691
| 18> S -3.0804883585 1.4460371727 -0.4070509529
| 19> O -1.2504107818 -0.3966033052 1.1764697262
| 20> C -1.7062913488 0.1396980443 2.4434699358
| 21> C -1.0163921845 1.4555196806 2.7400296748
| 22> O -3.0235499861 -1.5222415373 -0.0710797384
| 23> C -4.1109367978 -1.7483953196 -0.9906110346
| 24> C -5.119620984 -2.6532542451 -0.3119182699
| 25> H 2.608538194 -2.6884199345 2.3465361132
| 26> H 2.4344087307 -3.9617995194 1.1262206435
| 27> H 3.6532294735 -2.6946763713 0.9176472161
| 28> H 0.6173089069 -2.2702854733 0.8680971709
| 29> H 1.7039728626 -2.2623437397 -0.5477308913
| 30> H 3.9298909378 2.8832360734 1.5163696678
| 31> H 2.1668908493 2.615353873 1.4370559974
| 32> H 2.4240749031 0.5965275632 2.8950007083
| 33> H 4.167254355 0.8699257675 2.9677017478
| 34> H 3.0591007603 2.0428617213 3.6993269346
| 35> H 0.6563729986 0.8601186306 -2.7410641646
| 36> H -0.921025226 1.5710588718 -2.2324767671
| 37> H -2.7918227493 0.2647421646 2.4110415633
| 38> H -1.4459849715 -0.625295011 3.1765638908
| 39> H -1.3078251979 1.798585211 3.7273790644
| 40> H 0.0618038061 1.3264403634 2.7054515532
| 41> H -1.3000261731 2.2037369455 2.0026760507
| 42> H -4.5534451732 -0.7815430477 -1.2537253957
| 43> H -3.6996337795 -2.2123722137 -1.8905778129
| 44> H -4.6432165951 -3.5841531743 -0.0185217241
| 45> H -5.5228749804 -2.1688746411 0.5729503408
| 46> H -5.928462429 -2.8648723932 -1.003492813
| 47> *
| 48>
| 49>                          ****END OF INPUT****

CARTESIAN COORDINATES (ANGSTROEM)
---------------------------------
  C      2.652174   -2.910512    1.284179
  C      1.637523   -2.074719    0.529191
  O      1.888034   -0.683584    0.784199
  P      2.329312    0.387195   -0.312761
  S      3.027365   -0.361490   -1.974942
  O      3.394612    1.280425    0.427716
  C      3.139311    2.132823    1.570711
  C      3.200627    1.356573    2.870077
  S      0.663832    1.716614   -0.493833
  C     -0.080611    0.941200   -1.942517
  S     -0.667567   -0.745425   -1.616371
  P     -2.096254   -0.233261   -0.149525
  S     -3.080488    1.446037   -0.407051
  O     -1.250411   -0.396603    1.176470
  C     -1.706291    0.139698    2.443470
  C     -1.016392    1.455520    2.740030
  O     -3.023550   -1.522242   -0.071080
  C     -4.110937   -1.748395   -0.990611
  C     -5.119621   -2.653254   -0.311918
  H      2.608538   -2.688420    2.346536
  H      2.434409   -3.961800    1.126221
  H      3.653229   -2.694676    0.917647
  H      0.617309   -2.270285    0.868097
  H      1.703973   -2.262344   -0.547731
  H      3.929891    2.883236    1.516370
  H      2.166891    2.615354    1.437056
  H      2.424075    0.596528    2.895001
  H      4.167254    0.869926    2.967702
  H      3.059101    2.042862    3.699327
  H      0.656373    0.860119   -2.741064
  H     -0.921025    1.571059   -2.232477
  H     -2.791823    0.264742    2.411042
  H     -1.445985   -0.625295    3.176564
  H     -1.307825    1.798585    3.727379
  H      0.061804    1.326440    2.705452
  H     -1.300026    2.203737    2.002676
  H     -4.553445   -0.781543   -1.253725
  H     -3.699634   -2.212372   -1.890578
  H     -4.643217   -3.584153   -0.018522
  H     -5.522875   -2.168875    0.572950
  H     -5.928462   -2.864872   -1.003493

 Total Charge           Charge          ....    0
 Multiplicity           Mult            ....    1
 Number of Electrons    NEL             ....  202
 Basis Dimension        Dim             ....  539

ORBITAL ENERGIES
----------------

  NO   OCC          E(Eh)            E(eV)
   0   2.0000     -88.578415     -2410.3412
   1   2.0000     -88.572215     -2410.1725
   2   2.0000     -88.523375     -2408.8435
   3   2.0000     -88.518629     -2408.7143
   4   2.0000     -76.916581     -2093.0066
   5   2.0000     -76.913899     -2092.9336
   6   2.0000     -18.994554      -516.8681
   7   2.0000     -18.992838      -516.8214
   8   2.0000     -18.992795      -516.8202
   9   2.0000     -18.986768      -516.6562
  10   2.0000     -10.109030      -275.0807
  11   2.0000     -10.105994      -274.9981
  12   2.0000     -10.103965      -274.9429
  13   2.0000     -10.100085      -274.8373
  14   2.0000     -10.089904      -274.5603
  15   2.0000     -10.036358      -273.1032
  16   2.0000     -10.035227      -273.0724
  17   2.0000     -10.029731      -272.9229
  18   2.0000     -10.026412      -272.8325
  19   2.0000      -7.872714      -214.2275
  20   2.0000      -7.866679      -214.0632
  21   2.0000      -7.818182      -212.7435
  22   2.0000      -7.813520      -212.6167
  23   2.0000      -6.595139      -179.4629
  24   2.0000      -6.591966      -179.3765
  25   2.0000      -5.819571      -158.3586
  26   2.0000      -5.816581      -158.2772
  27   2.0000      -5.813558      -158.1950
  28   2.0000      -5.810569      -158.1136
  29   2.0000      -5.809857      -158.0942
  30   2.0000      -5.803716      -157.9271
  31   2.0000      -5.765798      -156.8953
  32   2.0000      -5.761312      -156.7733
  33   2.0000      -5.758564      -156.6985
  34   2.0000      -5.758107      -156.6861
  35   2.0000      -5.753828      -156.5696
  36   2.0000      -5.753319      -156.5558
  37   2.0000      -4.740601      -128.9983
  38   2.0000      -4.740040      -128.9830
  39   2.0000      -4.738918      -128.9525
  40   2.0000      -4.737744      -128.9206
  41   2.0000      -4.736748      -128.8935
  42   2.0000      -4.735639      -128.8633
  43   2.0000      -1.052421       -28.6378
  44   2.0000      -1.047792       -28.5119
  45   2.0000      -1.012458       -27.5504
  46   2.0000      -1.008393       -27.4398
  47   2.0000      -0.803611       -21.8674
  48   2.0000      -0.762278       -20.7426
  49   2.0000      -0.754227       -20.5236
  50   2.0000      -0.735391       -20.0110
  51   2.0000      -0.733681       -19.9645
  52   2.0000      -0.708764       -19.2865
  53   2.0000      -0.685449       -18.6520
  54   2.0000      -0.671371       -18.2689
  55   2.0000      -0.629689       -17.1347
  56   2.0000      -0.624159       -16.9842
  57   2.0000      -0.607651       -16.5350
  58   2.0000      -0.605411       -16.4741
  59   2.0000      -0.593448       -16.1485
  60   2.0000      -0.537212       -14.6183
  61   2.0000      -0.523942       -14.2572
  62   2.0000      -0.501298       -13.6410
  63   2.0000      -0.498364       -13.5612
  64   2.0000      -0.475546       -12.9403
  65   2.0000      -0.467141       -12.7115
  66   2.0000      -0.460499       -12.5308
  67   2.0000      -0.455623       -12.3981
  68   2.0000      -0.446321       -12.1450
  69   2.0000      -0.433622       -11.7995
  70   2.0000      -0.423173       -11.5151
  71   2.0000      -0.408732       -11.1222
  72   2.0000      -0.406737       -11.0679
  73   2.0000      -0.402162       -10.9434
  74   2.0000      -0.399743       -10.8776
  75   2.0000      -0.392906       -10.6915
  76   2.0000      -0.386330       -10.5126
  77   2.0000      -0.374071       -10.1790
  78   2.0000      -0.372215       -10.1285
  79   2.0000      -0.370662       -10.0862
  80   2.0000      -0.366810        -9.9814
  81   2.0000      -0.364113        -9.9080
  82   2.0000      -0.360890        -9.8203
  83   2.0000      -0.357452        -9.7268
  84   2.0000      -0.350185        -9.5290
  85   2.0000      -0.331102        -9.0097
  86   2.0000      -0.324690        -8.8353
  87   2.0000      -0.317465        -8.6387
  88   2.0000      -0.313055        -8.5187
  89   2.0000      -0.307253        -8.3608
  90   2.0000      -0.300250        -8.1702
  91   2.0000      -0.297512        -8.0957
  92   2.0000      -0.290123        -7.8946
  93   2.0000      -0.280158        -7.6235
  94   2.0000      -0.269743        -7.3401
  95   2.0000      -0.247911        -6.7460
  96   2.0000      -0.229441        -6.2434
  97   2.0000      -0.227276        -6.1845
  98   2.0000      -0.220866        -6.0101
  99   2.0000      -0.214236        -5.8297
 100   2.0000      -0.211320        -5.7503
 101   0.0000      -0.049687        -1.3520
 102   0.0000      -0.028198        -0.7673
 103   0.0000      -0.003269        -0.0890
 104   0.0000       0.004567         0.1243
 105   0.0000       0.006838         0.1861

MULLIKEN ATOMIC CHARGES
-----------------------
   0 C :   -0.481214
   1 C :   -0.124882
   2 O :   -0.242080
   3 P :    0.665205
   4 S :   -0.455470
   5 O :   -0.287436
   6 C :   -0.146308
   7 C :   -0.434375
   8 S :   -0.161451
   9 C :   -0.237960
  10 S :   -0.140704
  11 P :    0.681457
  12 S :   -0.479929
  13 O :   -0.260007
  14 C :   -0.123214
  15 C :   -0.463377
  16 O :   -0.283562
  17 C :   -0.145947
  18 C :   -0.444726
  19 H :    0.147711
  20 H :    0.146107
  21 H :    0.164591
  22 H :    0.164441
  23 H :    0.177655
  24 H :    0.158489
  25 H :    0.151358
  26 H :    0.161092
  27 H :    0.157202
  28 H :    0.150112
  29 H :    0.211992
  30 H :    0.211750
  31 H :    0.157104
  32 H :    0.149670
  33 H :    0.144748
  34 H :    0.148109
  35 H :    0.185361
  36 H :    0.170554
  37 H :    0.151107
  38 H :    0.153424
  39 H :    0.155818
  40 H :    0.147585
Sum of atomic charges:   -0.0000000

LOEWDIN ATOMIC CHARGES
----------------------
   0 C :   -0.392001
   1 C :    0.002681
   2 O :   -0.675786
   3 P :    0.391420
   4 S :   -0.100887
   5 O :   -0.651921
   6 C :    0.026415
   7 C :   -0.399632
   8 S :    0.138964
   9 C :   -0.420325
  10 S :    0.172684
  11 P :    0.373796
  12 S :   -0.131289
  13 O :   -0.672368
  14 C :    0.028035
  15 C :   -0.403452
  16 O :   -0.665658
  17 C :    0.020186
  18 C :   -0.386334
  19 H :    0.155902
  20 H :    0.159074
  21 H :    0.162795
  22 H :    0.180080
  23 H :    0.183797
  24 H :    0.183716
  25 H :    0.175072
  26 H :    0.166248
  27 H :    0.163168
  28 H :    0.159676
  29 H :    0.191365
  30 H :    0.190534
  31 H :    0.177644
  32 H :    0.177850
  33 H :    0.157485
  34 H :    0.158436
  35 H :    0.169509
  36 H :    0.181339
  37 H :    0.171812
  38 H :    0.159541
  39 H :    0.160099
  40 H :    0.160333

  Mayer bond orders larger than 0.100000
B(  0-C ,  1-C ) :   0.9387 B(  0-C , 19-H ) :   0.9787 B(  0-C , 20-H ) :   0.9668
B(  0-C , 21-H ) :   0.9729 B(  1-C ,  2-O ) :   0.7268 B(  1-C , 22-H ) :   0.9542
B(  1-C , 23-H ) :   0.9495 B(  2-O ,  3-P ) :   1.0433 B(  3-P ,  4-S ) :   1.8320
B(  3-P ,  5-O ) :   1.1825 B(  3-P ,  8-S ) :   0.9929 B(  5-O ,  6-C ) :   0.7686
B(  6-C ,  7-C ) :   0.9429 B(  6-C , 24-H ) :   0.9633 B(  6-C , 25-H ) :   0.9636
B(  7-C , 26-H ) :   0.9602 B(  7-C , 27-H ) :   0.9661 B(  7-C , 28-H ) :   0.9666
B(  8-S ,  9-C ) :   0.9112 B(  9-C , 10-S ) :   0.8937 B(  9-C , 29-H ) :   0.9090
B(  9-C , 30-H ) :   0.9111 B( 10-S , 11-P ) :   1.0689 B( 11-P , 12-S ) :   1.7486
B( 11-P , 13-O ) :   1.1641 B( 11-P , 16-O ) :   1.0880 B( 13-O , 14-C ) :   0.7564
B( 14-C , 15-C ) :   0.9462 B( 14-C , 31-H ) :   0.9645 B( 14-C , 32-H ) :   0.9615
B( 15-C , 33-H ) :   0.9633 B( 15-C , 34-H ) :   0.9678 B( 15-C , 35-H ) :   0.9601
B( 16-O , 17-C ) :   0.7746 B( 17-C , 18-C ) :   0.9590 B( 17-C , 36-H ) :   0.9511
B( 17-C , 37-H ) :   0.9451 B( 18-C , 38-H ) :   0.9718 B( 18-C , 39-H ) :   0.9725
B( 18-C , 40-H ) :   0.9645

Dispersion correction           -0.021956240
FINAL SINGLE POINT ENERGY     -2932.461504286209

DIPOLE MOMENT
-------------

Method             : SCF
Type of density    : Electron Density
Multiplicity       :   1
Irrep              :   0
Energy             : -2932.4860699116889009 Eh
Relativity type    :
Basis              : AO
                                X                 Y                 Z
Electronic contribution:      3.838511946       8.167383705     -20.268823590
Nuclear contribution   :     -4.536768336      -8.737149709      21.857426163
                        -----------------------------------------
Total Dipole Moment    :     -0.698256390      -0.569766003       1.588602573
                        -----------------------------------------
Magnitude (a.u.)       :      1.826431882
Magnitude (Debye)      :      4.642420904

Rotational constants in cm-1:             0.011856             0.005301             0.005015
Rotational constants in MHz :           355.423792           158.923818           150.356656

                             ****ORCA TERMINATED NORMALLY****
TOTAL RUN TIME: 0 days 0 hours 1 minutes 26 seconds 866 msec
