                         Program Version 6.0.0  -   RELEASE  -
|  1> ! r2scan-3c def2/J RI DEFGRID2 scfconv6 printgap
|  2> %output
|  3>     printlevel normal
|  4> end
|  5> %cpcm
|  6>     smd true
|  7>     smdsolvent "water"
|  8> end
|  9> * xyz 0 1
| 10> C 2.6521744903 -2.9105120999 1.2841794079
| 11> C 1.6375227728 -2.0747190918 0.5291910481
| 12> O 1.8880341051 -0.6835840497 0.7841991272
| 13> P 2.3293117225 0.3871951716 -0.312760817
| 14> S 3.0273645799 -0.3614900524 -1.9749419486
| 15> O 3.3946122305 1.2804254361 0.4277156762
| 16> C 3.1393106777 2.1328227662 1.5707112223
| 17> C 3.2006265236 1.3565725556 2.8700765773
| 18> S 0.6638317822 1.7166144416 -0.4938333248
| 19> C -0.0806110914 0.9412001806 -1.9425165732
| 20> S -0.6675672447 -0.7454248963 -1.6163712955
| 21> P -2.0962543149 -0.2332608994 -0.1495245691
| 22> S -3.0804883585 1.4460371727 -0.4070509529
| 23> O -1.2504107818 -0.3966033052 1.1764697262
| 24> C -1.7062913488 0.1396980443 2.4434699358
| 25> C -1.0163921845 1.4555196806 2.7400296748
| 26> O -3.0235499861 -1.5222415373 -0.0710797384
| 27> C -4.1109367978 -1.7483953196 -0.9906110346
| 28> C -5.119620984 -2.6532542451 -0.3119182699
| 29> H 2.608538194 -2.6884199345 2.3465361132
| 30> H 2.4344087307 -3.9617995194 1.1262206435
| 31> H 3.6532294735 -2.6946763713 0.9176472161
| 32> H 0.6173089069 -2.2702854733 0.8680971709
| 33> H 1.7039728626 -2.2623437397 -0.5477308913
| 34> H 3.9298909378 2.8832360734 1.5163696678
| 35> H 2.1668908493 2.615353873 1.4370559974
| 36> H 2.4240749031 0.5965275632 2.8950007083
| 37> H 4.167254355 0.8699257675 2.9677017478
| 38> H 3.0591007603 2.0428617213 3.6993269346
| 39> H 0.6563729986 0.8601186306 -2.7410641646
| 40> H -0.921025226 1.5710588718 -2.2324767671
| 41> H -2.7918227493 0.2647421646 2.4110415633
| 42> H -1.4459849715 -0.625295011 3.1765638908
| 43> H -1.3078251979 1.798585211 3.7273790644
| 44> H 0.0618038061 1.3264403634 2.7054515532
| 45> H -1.3000261731 2.2037369455 2.0026760507
| 46> H -4.5534451732 -0.7815430477 -1.2537253957
| 47> H -3.6996337795 -2.2123722137 -1.8905778129
| 48> H -4.6432165951 -3.5841531743 -0.0185217241
| 49> H -5.5228749804 -2.1688746411 0.5729503408
| 50> H -5.928462429 -2.8648723932 -1.003492813
| 51> *
| 52>
| 53>                          ****END OF INPUT****

CARTESIAN COORDINATES (ANGSTROEM)
---------------------------------
  C      2.652174   -2.910512    1.284179
  C      1.637523   -2.074719    0.529191
  O      1.888034   -0.683584    0.784199
  P      2.329312    0.387195   -0.312761
  S      3.027365   -0.361490   -1.974942
  O      3.394612    1.280425    0.427716
  C      3.139311    2.132823    1.570711
  C      3.200627    1.356573    2.870077
  S      0.663832    1.716614   -0.493833
  C     -0.080611    0.941200   -1.942517
  S     -0.667567   -0.745425   -1.616371
  P     -2.096254   -0.233261   -0.149525
  S     -3.080488    1.446037   -0.407051
  O     -1.250411   -0.396603    1.176470
  C     -1.706291    0.139698    2.443470
  C     -1.016392    1.455520    2.740030
  O     -3.023550   -1.522242   -0.071080
  C     -4.110937   -1.748395   -0.990611
  C     -5.119621   -2.653254   -0.311918
  H      2.608538   -2.688420    2.346536
  H      2.434409   -3.961800    1.126221
  H      3.653229   -2.694676    0.917647
  H      0.617309   -2.270285    0.868097
  H      1.703973   -2.262344   -0.547731
  H      3.929891    2.883236    1.516370
  H      2.166891    2.615354    1.437056
  H      2.424075    0.596528    2.895001
  H      4.167254    0.869926    2.967702
  H      3.059101    2.042862    3.699327
  H      0.656373    0.860119   -2.741064
  H     -0.921025    1.571059   -2.232477
  H     -2.791823    0.264742    2.411042
  H     -1.445985   -0.625295    3.176564
  H     -1.307825    1.798585    3.727379
  H      0.061804    1.326440    2.705452
  H     -1.300026    2.203737    2.002676
  H     -4.553445   -0.781543   -1.253725
  H     -3.699634   -2.212372   -1.890578
  H     -4.643217   -3.584153   -0.018522
  H     -5.522875   -2.168875    0.572950
  H     -5.928462   -2.864872   -1.003493

 Total Charge           Charge          ....    0
 Multiplicity           Mult            ....    1
 Number of Electrons    NEL             ....  202
 Basis Dimension        Dim             ....  539

ORBITAL ENERGIES
----------------

  NO   OCC          E(Eh)            E(eV)
   0   2.0000     -88.580954     -2410.4103
   1   2.0000     -88.576740     -2410.2956
   2   2.0000     -88.530296     -2409.0318
   3   2.0000     -88.528089     -2408.9718
   4   2.0000     -76.921481     -2093.1399
   5   2.0000     -76.919259     -2093.0794
   6   2.0000     -18.996532      -516.9219
   7   2.0000     -18.994538      -516.8677
   8   2.0000     -18.992266      -516.8058
   9   2.0000     -18.991489      -516.7847
  10   2.0000     -10.105365      -274.9810
  11   2.0000     -10.096262      -274.7333
  12   2.0000     -10.090733      -274.5828
  13   2.0000     -10.089084      -274.5379
  14   2.0000     -10.086223      -274.4601
  15   2.0000     -10.019305      -272.6392
  16   2.0000     -10.019293      -272.6388
  17   2.0000     -10.017053      -272.5779
  18   2.0000     -10.015971      -272.5484
  19   2.0000      -7.875313      -214.2981
  20   2.0000      -7.871146      -214.1848
  21   2.0000      -7.825547      -212.9440
  22   2.0000      -7.823174      -212.8794
  23   2.0000      -6.599601      -179.5843
  24   2.0000      -6.597820      -179.5358
  25   2.0000      -5.822143      -158.4286
  26   2.0000      -5.819170      -158.3477
  27   2.0000      -5.818009      -158.3161
  28   2.0000      -5.815017      -158.2347
  29   2.0000      -5.812487      -158.1658
  30   2.0000      -5.808229      -158.0500
  31   2.0000      -5.773222      -157.0974
  32   2.0000      -5.770736      -157.0297
  33   2.0000      -5.765837      -156.8964
  34   2.0000      -5.765409      -156.8848
  35   2.0000      -5.763555      -156.8343
  36   2.0000      -5.763104      -156.8220
  37   2.0000      -4.745342      -129.1273
  38   2.0000      -4.744360      -129.1006
  39   2.0000      -4.743373      -129.0737
  40   2.0000      -4.743220      -129.0696
  41   2.0000      -4.742729      -129.0562
  42   2.0000      -4.741688      -129.0279
  43   2.0000      -1.052137       -28.6301
  44   2.0000      -1.051306       -28.6075
  45   2.0000      -1.012214       -27.5437
  46   2.0000      -1.010834       -27.5062
  47   2.0000      -0.805507       -21.9190
  48   2.0000      -0.757875       -20.6228
  49   2.0000      -0.746291       -20.3076
  50   2.0000      -0.726489       -19.7688
  51   2.0000      -0.722769       -19.6675
  52   2.0000      -0.707468       -19.2512
  53   2.0000      -0.688435       -18.7333
  54   2.0000      -0.676579       -18.4106
  55   2.0000      -0.626791       -17.0558
  56   2.0000      -0.619005       -16.8440
  57   2.0000      -0.600436       -16.3387
  58   2.0000      -0.596603       -16.2344
  59   2.0000      -0.589905       -16.0521
  60   2.0000      -0.532012       -14.4768
  61   2.0000      -0.520921       -14.1750
  62   2.0000      -0.498374       -13.5615
  63   2.0000      -0.492222       -13.3940
  64   2.0000      -0.474691       -12.9170
  65   2.0000      -0.461718       -12.5640
  66   2.0000      -0.455205       -12.3868
  67   2.0000      -0.446618       -12.1531
  68   2.0000      -0.441001       -12.0002
  69   2.0000      -0.433134       -11.7862
  70   2.0000      -0.419583       -11.4174
  71   2.0000      -0.404577       -11.0091
  72   2.0000      -0.402941       -10.9646
  73   2.0000      -0.397853       -10.8261
  74   2.0000      -0.393355       -10.7037
  75   2.0000      -0.387429       -10.5425
  76   2.0000      -0.383139       -10.4257
  77   2.0000      -0.370988       -10.0951
  78   2.0000      -0.362611        -9.8672
  79   2.0000      -0.357763        -9.7352
  80   2.0000      -0.356240        -9.6938
  81   2.0000      -0.354854        -9.6561
  82   2.0000      -0.352267        -9.5857
  83   2.0000      -0.349036        -9.4978
  84   2.0000      -0.344537        -9.3753
  85   2.0000      -0.328580        -8.9411
  86   2.0000      -0.318173        -8.6579
  87   2.0000      -0.311655        -8.4806
  88   2.0000      -0.308051        -8.3825
  89   2.0000      -0.302204        -8.2234
  90   2.0000      -0.299412        -8.1474
  91   2.0000      -0.294142        -8.0040
  92   2.0000      -0.289483        -7.8772
  93   2.0000      -0.278307        -7.5731
  94   2.0000      -0.271735        -7.3943
  95   2.0000      -0.250541        -6.8176
  96   2.0000      -0.238547        -6.4912
  97   2.0000      -0.234691        -6.3863
  98   2.0000      -0.228326        -6.2131
  99   2.0000      -0.222520        -6.0551
 100   2.0000      -0.219191        -5.9645
 101   0.0000      -0.053867        -1.4658
 102   0.0000      -0.034046        -0.9264
 103   0.0000      -0.004984        -0.1356
 104   0.0000      -0.000106        -0.0029
 105   0.0000       0.006662         0.1813

MULLIKEN ATOMIC CHARGES
-----------------------
   0 C :   -0.522196
   1 C :   -0.100116
   2 O :   -0.268114
   3 P :    0.676966
   4 S :   -0.508526
   5 O :   -0.326247
   6 C :   -0.123459
   7 C :   -0.477135
   8 S :   -0.171006
   9 C :   -0.249352
  10 S :   -0.151438
  11 P :    0.714505
  12 S :   -0.524402
  13 O :   -0.284694
  14 C :   -0.128097
  15 C :   -0.490728
  16 O :   -0.310025
  17 C :   -0.140280
  18 C :   -0.485673
  19 H :    0.166812
  20 H :    0.168992
  21 H :    0.166641
  22 H :    0.176313
  23 H :    0.175042
  24 H :    0.181161
  25 H :    0.162024
  26 H :    0.168728
  27 H :    0.168356
  28 H :    0.173658
  29 H :    0.230708
  30 H :    0.234466
  31 H :    0.170495
  32 H :    0.176809
  33 H :    0.168822
  34 H :    0.165446
  35 H :    0.172222
  36 H :    0.170567
  37 H :    0.171538
  38 H :    0.165582
  39 H :    0.166262
  40 H :    0.169371
Sum of atomic charges:   -0.0000000

LOEWDIN ATOMIC CHARGES
----------------------
   0 C :   -0.395275
   1 C :    0.007409
   2 O :   -0.683265
   3 P :    0.391007
   4 S :   -0.141804
   5 O :   -0.673721
   6 C :    0.034988
   7 C :   -0.400251
   8 S :    0.138861
   9 C :   -0.415914
  10 S :    0.167304
  11 P :    0.379130
  12 S :   -0.159370
  13 O :   -0.683780
  14 C :    0.032837
  15 C :   -0.405665
  16 O :   -0.676946
  17 C :    0.024378
  18 C :   -0.390323
  19 H :    0.162360
  20 H :    0.167600
  21 H :    0.161984
  22 H :    0.185245
  23 H :    0.182839
  24 H :    0.193463
  25 H :    0.181186
  26 H :    0.167075
  27 H :    0.164826
  28 H :    0.169902
  29 H :    0.196590
  30 H :    0.197499
  31 H :    0.181805
  32 H :    0.189401
  33 H :    0.166298
  34 H :    0.163766
  35 H :    0.163054
  36 H :    0.181585
  37 H :    0.179860
  38 H :    0.162982
  39 H :    0.162319
  40 H :    0.168759

  Mayer bond orders larger than 0.100000
B(  0-C ,  1-C ) :   0.9376 B(  0-C , 19-H ) :   0.9737 B(  0-C , 20-H ) :   0.9609
B(  0-C , 21-H ) :   0.9719 B(  1-C ,  2-O ) :   0.7167 B(  1-C , 22-H ) :   0.9446
B(  1-C , 23-H ) :   0.9481 B(  2-O ,  3-P ) :   1.0457 B(  3-P ,  4-S ) :   1.8120
B(  3-P ,  5-O ) :   1.1879 B(  3-P ,  8-S ) :   1.0101 B(  5-O ,  6-C ) :   0.7617
B(  6-C ,  7-C ) :   0.9313 B(  6-C , 24-H ) :   0.9532 B(  6-C , 25-H ) :   0.9523
B(  7-C , 26-H ) :   0.9589 B(  7-C , 27-H ) :   0.9663 B(  7-C , 28-H ) :   0.9595
B(  8-S ,  9-C ) :   0.8971 B(  9-C , 10-S ) :   0.8854 B(  9-C , 29-H ) :   0.9043
B(  9-C , 30-H ) :   0.9045 B( 10-S , 11-P ) :   1.0792 B( 11-P , 12-S ) :   1.7117
B( 11-P , 13-O ) :   1.1738 B( 11-P , 16-O ) :   1.0947 B( 13-O , 14-C ) :   0.7414
B( 14-C , 15-C ) :   0.9335 B( 14-C , 31-H ) :   0.9607 B( 14-C , 32-H ) :   0.9507
B( 15-C , 33-H ) :   0.9592 B( 15-C , 34-H ) :   0.9642 B( 15-C , 35-H ) :   0.9641
B( 16-O , 17-C ) :   0.7674 B( 17-C , 18-C ) :   0.9546 B( 17-C , 36-H ) :   0.9487
B( 17-C , 37-H ) :   0.9367 B( 18-C , 38-H ) :   0.9689 B( 18-C , 39-H ) :   0.9699
B( 18-C , 40-H ) :   0.9588

Dispersion correction           -0.021956240
FINAL SINGLE POINT ENERGY     -2932.471230813695

DIPOLE MOMENT
-------------

Method             : SCF
Type of density    : Electron Density
Multiplicity       :   1
Irrep              :   0
Energy             : -2932.4957964391746827 Eh
Relativity type    :
Basis              : AO
                                X                 Y                 Z
Electronic contribution:      3.508211960       8.046313567     -19.733008497
Nuclear contribution   :     -4.536768336      -8.737149709      21.857426163
                        -----------------------------------------
Total Dipole Moment    :     -1.028556376      -0.690836142       2.124417666
                        -----------------------------------------
Magnitude (a.u.)       :      2.459335929
Magnitude (Debye)      :      6.251135147

Rotational constants in cm-1:             0.011856             0.005301             0.005015
Rotational constants in MHz :           355.423792           158.923818           150.356656

                             ****ORCA TERMINATED NORMALLY****
TOTAL RUN TIME: 0 days 0 hours 1 minutes 53 seconds 713 msec
