                         Program Version 6.0.0  -   RELEASE  -
|  1> ! pbe def2-sv(p) def2/J RI DEFGRID1 loosescf d4 GCP(DFT/SV(P)) printgap
|  2> %output
|  3>     printlevel normal
|  4> end
|  5> * xyz 0 1
|  6> C 4.2903148263 0.4055912851 -2.3011107449
|  7> C 4.5567068727 0.0272324326 -0.8580277402
|  8> O 3.3651019368 -0.4222534387 -0.1938568488
|  9> P 2.1716216805 0.5813766555 0.1648569724
| 10> S 2.7570008298 2.3632499558 0.7301324698
| 11> O 1.3772725544 -0.2680636358 1.2357386267
| 12> C 1.8631127056 -0.4272890111 2.5869035578
| 13> C 0.7663062442 -1.1009770069 3.3848388028
| 14> S 0.8089689028 0.4935342236 -1.4390197232
| 15> C 0.5079634982 -1.2927630326 -1.524012814
| 16> S -0.55629527 -1.9507278824 -0.1978011236
| 17> P -2.0403675687 -0.4711679481 -0.2049813896
| 18> S -2.6637597332 0.2005944529 -1.9442225495
| 19> O -1.4459622296 0.5785546483 0.8254202842
| 20> C -2.0692360553 1.8660628445 1.0320849134
| 21> C -1.3413557321 2.9471514478 0.2582330781
| 22> O -3.1981028806 -1.1181431212 0.6743931631
| 23> C -4.192787066 -2.0038875866 0.1210760967
| 24> C -5.4857499309 -1.8060183771 0.8870382117
| 25> H 3.6107203069 1.2568575922 -2.3405241176
| 26> H 5.2251975603 0.6805306412 -2.7786608016
| 27> H 3.8427884118 -0.4255624389 -2.8398814232
| 28> H 4.9573247239 0.8833592903 -0.3060235786
| 29> H 5.2400976907 -0.8193904502 -0.7797031906
| 30> H 2.7704113093 -1.035812291 2.5565641496
| 31> H 2.1079190245 0.5635584651 2.9841797215
| 32> H 0.5516753824 -2.0805239064 2.9662345035
| 33> H 1.0862062131 -1.2072333719 4.4162933621
| 34> H -0.1403114379 -0.5025173481 3.3463937298
| 35> H 1.4479593169 -1.8355335624 -1.457418762
| 36> H 0.0212520705 -1.4525469617 -2.4846163206
| 37> H -3.1185280269 1.8096848669 0.7293750546
| 38> H -2.0067471885 2.0370885097 2.1081545598
| 39> H -1.7829030642 3.9117531608 0.4868759497
| 40> H -0.2878969324 2.9651861134 0.5313221234
| 41> H -1.4182599491 2.7641773243 -0.8119030487
| 42> H -4.319632112 -1.7691701277 -0.9411587942
| 43> H -3.8194937259 -3.0252093326 0.2247097818
| 44> H -5.8510886595 -0.7915828937 0.7522302529
| 45> H -6.2285488767 -2.5043827053 0.5157826395
| 46> H -5.3205292503 -1.983552444 1.945737096
| 47> *
| 48>
| 49>                          ****END OF INPUT****

CARTESIAN COORDINATES (ANGSTROEM)
---------------------------------
  C      4.290315    0.405591   -2.301111
  C      4.556707    0.027232   -0.858028
  O      3.365102   -0.422253   -0.193857
  P      2.171622    0.581377    0.164857
  S      2.757001    2.363250    0.730132
  O      1.377273   -0.268064    1.235739
  C      1.863113   -0.427289    2.586904
  C      0.766306   -1.100977    3.384839
  S      0.808969    0.493534   -1.439020
  C      0.507963   -1.292763   -1.524013
  S     -0.556295   -1.950728   -0.197801
  P     -2.040368   -0.471168   -0.204981
  S     -2.663760    0.200594   -1.944223
  O     -1.445962    0.578555    0.825420
  C     -2.069236    1.866063    1.032085
  C     -1.341356    2.947151    0.258233
  O     -3.198103   -1.118143    0.674393
  C     -4.192787   -2.003888    0.121076
  C     -5.485750   -1.806018    0.887038
  H      3.610720    1.256858   -2.340524
  H      5.225198    0.680531   -2.778661
  H      3.842788   -0.425562   -2.839881
  H      4.957325    0.883359   -0.306024
  H      5.240098   -0.819390   -0.779703
  H      2.770411   -1.035812    2.556564
  H      2.107919    0.563558    2.984180
  H      0.551675   -2.080524    2.966235
  H      1.086206   -1.207233    4.416293
  H     -0.140311   -0.502517    3.346394
  H      1.447959   -1.835534   -1.457419
  H      0.021252   -1.452547   -2.484616
  H     -3.118528    1.809685    0.729375
  H     -2.006747    2.037089    2.108155
  H     -1.782903    3.911753    0.486876
  H     -0.287897    2.965186    0.531322
  H     -1.418260    2.764177   -0.811903
  H     -4.319632   -1.769170   -0.941159
  H     -3.819494   -3.025209    0.224710
  H     -5.851089   -0.791583    0.752230
  H     -6.228549   -2.504383    0.515783
  H     -5.320529   -1.983552    1.945737

 Total Charge           Charge          ....    0
 Multiplicity           Mult            ....    1
 Number of Electrons    NEL             ....  202
 Basis Dimension        Dim             ....  334

ORBITAL ENERGIES
----------------

  NO   OCC          E(Eh)            E(eV)
   0   2.0000     -88.046122     -2395.8568
   1   2.0000     -88.040972     -2395.7167
   2   2.0000     -87.989270     -2394.3098
   3   2.0000     -87.984440     -2394.1783
   4   2.0000     -76.425221     -2079.6360
   5   2.0000     -76.425027     -2079.6307
   6   2.0000     -18.794685      -511.4294
   7   2.0000     -18.791529      -511.3435
   8   2.0000     -18.786743      -511.2133
   9   2.0000     -18.784286      -511.1464
  10   2.0000      -9.962197      -271.0851
  11   2.0000      -9.953123      -270.8382
  12   2.0000      -9.950825      -270.7757
  13   2.0000      -9.950599      -270.7696
  14   2.0000      -9.946242      -270.6510
  15   2.0000      -9.887279      -269.0465
  16   2.0000      -9.885861      -269.0079
  17   2.0000      -9.882581      -268.9187
  18   2.0000      -9.867550      -268.5097
  19   2.0000      -7.690696      -209.2745
  20   2.0000      -7.686550      -209.1617
  21   2.0000      -7.634254      -207.7386
  22   2.0000      -7.629444      -207.6077
  23   2.0000      -6.423133      -174.7823
  24   2.0000      -6.422330      -174.7605
  25   2.0000      -5.719021      -155.6225
  26   2.0000      -5.714968      -155.5122
  27   2.0000      -5.714597      -155.5021
  28   2.0000      -5.711165      -155.4087
  29   2.0000      -5.707445      -155.3075
  30   2.0000      -5.703093      -155.1891
  31   2.0000      -5.663151      -154.1022
  32   2.0000      -5.658327      -153.9709
  33   2.0000      -5.654853      -153.8764
  34   2.0000      -5.654476      -153.8661
  35   2.0000      -5.650154      -153.7485
  36   2.0000      -5.649593      -153.7332
  37   2.0000      -4.645562      -126.4122
  38   2.0000      -4.645054      -126.3984
  39   2.0000      -4.644857      -126.3930
  40   2.0000      -4.644094      -126.3722
  41   2.0000      -4.643555      -126.3575
  42   2.0000      -4.642897      -126.3397
  43   2.0000      -0.986749       -26.8508
  44   2.0000      -0.982874       -26.7454
  45   2.0000      -0.944406       -25.6986
  46   2.0000      -0.940091       -25.5812
  47   2.0000      -0.766292       -20.8519
  48   2.0000      -0.722374       -19.6568
  49   2.0000      -0.707826       -19.2609
  50   2.0000      -0.687274       -18.7017
  51   2.0000      -0.682449       -18.5704
  52   2.0000      -0.671910       -18.2836
  53   2.0000      -0.651470       -17.7274
  54   2.0000      -0.637943       -17.3593
  55   2.0000      -0.596450       -16.2302
  56   2.0000      -0.587404       -15.9841
  57   2.0000      -0.574356       -15.6290
  58   2.0000      -0.566142       -15.4055
  59   2.0000      -0.556347       -15.1390
  60   2.0000      -0.505650       -13.7594
  61   2.0000      -0.503934       -13.7127
  62   2.0000      -0.474274       -12.9056
  63   2.0000      -0.471578       -12.8323
  64   2.0000      -0.458938       -12.4883
  65   2.0000      -0.444810       -12.1039
  66   2.0000      -0.439623       -11.9627
  67   2.0000      -0.430025       -11.7016
  68   2.0000      -0.427666       -11.6374
  69   2.0000      -0.416358       -11.3297
  70   2.0000      -0.409985       -11.1563
  71   2.0000      -0.396900       -10.8002
  72   2.0000      -0.390939       -10.6380
  73   2.0000      -0.383453       -10.4343
  74   2.0000      -0.376904       -10.2561
  75   2.0000      -0.373809       -10.1719
  76   2.0000      -0.366964        -9.9856
  77   2.0000      -0.354730        -9.6527
  78   2.0000      -0.352052        -9.5798
  79   2.0000      -0.351384        -9.5616
  80   2.0000      -0.344166        -9.3652
  81   2.0000      -0.342121        -9.3096
  82   2.0000      -0.336124        -9.1464
  83   2.0000      -0.333614        -9.0781
  84   2.0000      -0.328355        -8.9350
  85   2.0000      -0.322852        -8.7852
  86   2.0000      -0.307652        -8.3716
  87   2.0000      -0.297335        -8.0909
  88   2.0000      -0.296711        -8.0739
  89   2.0000      -0.293535        -7.9875
  90   2.0000      -0.283368        -7.7108
  91   2.0000      -0.272306        -7.4098
  92   2.0000      -0.267353        -7.2750
  93   2.0000      -0.264435        -7.1956
  94   2.0000      -0.261358        -7.1119
  95   2.0000      -0.229334        -6.2405
  96   2.0000      -0.219926        -5.9845
  97   2.0000      -0.210665        -5.7325
  98   2.0000      -0.205895        -5.6027
  99   2.0000      -0.198915        -5.4128
 100   2.0000      -0.196889        -5.3576
 101   0.0000      -0.046125        -1.2551
 102   0.0000      -0.024864        -0.6766
 103   0.0000      -0.007355        -0.2001
 104   0.0000       0.001329         0.0362
 105   0.0000       0.009054         0.2464

MULLIKEN ATOMIC CHARGES
-----------------------
   0 C :   -0.312370
   1 C :   -0.007417
   2 O :   -0.388317
   3 P :    0.618383
   4 S :   -0.320371
   5 O :   -0.362566
   6 C :   -0.008828
   7 C :   -0.279490
   8 S :   -0.054228
   9 C :   -0.342039
  10 S :   -0.081915
  11 P :    0.613327
  12 S :   -0.337126
  13 O :   -0.357573
  14 C :   -0.004016
  15 C :   -0.301611
  16 O :   -0.379772
  17 C :   -0.008634
  18 C :   -0.283238
  19 H :    0.129124
  20 H :    0.113975
  21 H :    0.111974
  22 H :    0.112175
  23 H :    0.103284
  24 H :    0.098545
  25 H :    0.104692
  26 H :    0.116522
  27 H :    0.106367
  28 H :    0.124054
  29 H :    0.180736
  30 H :    0.193424
  31 H :    0.098010
  32 H :    0.104199
  33 H :    0.102017
  34 H :    0.121039
  35 H :    0.126984
  36 H :    0.105307
  37 H :    0.100158
  38 H :    0.117923
  39 H :    0.111372
  40 H :    0.115920
Sum of atomic charges:   -0.0000000

LOEWDIN ATOMIC CHARGES
----------------------
   0 C :   -0.367057
   1 C :   -0.122754
   2 O :   -0.254720
   3 P :    0.564977
   4 S :   -0.317132
   5 O :   -0.238835
   6 C :   -0.113725
   7 C :   -0.351572
   8 S :    0.124589
   9 C :   -0.471392
  10 S :    0.089230
  11 P :    0.564653
  12 S :   -0.332619
  13 O :   -0.237914
  14 C :   -0.111478
  15 C :   -0.367786
  16 O :   -0.252235
  17 C :   -0.121694
  18 C :   -0.351221
  19 H :    0.122312
  20 H :    0.131445
  21 H :    0.122321
  22 H :    0.110065
  23 H :    0.117209
  24 H :    0.109841
  25 H :    0.109265
  26 H :    0.124552
  27 H :    0.127467
  28 H :    0.129216
  29 H :    0.132525
  30 H :    0.138403
  31 H :    0.106518
  32 H :    0.116883
  33 H :    0.126151
  34 H :    0.119241
  35 H :    0.123716
  36 H :    0.106172
  37 H :    0.111097
  38 H :    0.127502
  39 H :    0.130534
  40 H :    0.126247

  Mayer bond orders larger than 0.100000
B(  0-C ,  1-C ) :   1.1623 B(  0-C , 19-H ) :   0.9350 B(  0-C , 20-H ) :   0.9386
B(  0-C , 21-H ) :   0.9471 B(  1-C ,  2-O ) :   0.9136 B(  1-C , 22-H ) :   0.9134
B(  1-C , 23-H ) :   0.9339 B(  2-O ,  3-P ) :   1.0601 B(  3-P ,  4-S ) :   1.6327
B(  3-P ,  5-O ) :   1.1288 B(  3-P ,  8-S ) :   0.9700 B(  5-O ,  6-C ) :   0.9006
B(  6-C ,  7-C ) :   1.1606 B(  6-C , 24-H ) :   0.9287 B(  6-C , 25-H ) :   0.9181
B(  7-C , 26-H ) :   0.9490 B(  7-C , 27-H ) :   0.9406 B(  7-C , 28-H ) :   0.9473
B(  8-S ,  9-C ) :   1.0004 B(  9-C , 10-S ) :   0.9856 B(  9-C , 29-H ) :   0.8992
B(  9-C , 30-H ) :   0.8995 B( 10-S , 11-P ) :   0.9863 B( 10-S , 12-S ) :   0.1133
B( 11-P , 12-S ) :   1.5935 B( 11-P , 13-O ) :   1.1288 B( 11-P , 16-O ) :   1.1038
B( 13-O , 14-C ) :   0.8934 B( 14-C , 15-C ) :   1.1723 B( 14-C , 31-H ) :   0.9148
B( 14-C , 32-H ) :   0.9328 B( 15-C , 33-H ) :   0.9391 B( 15-C , 34-H ) :   0.9290
B( 15-C , 35-H ) :   0.9363 B( 16-O , 17-C ) :   0.9058 B( 17-C , 18-C ) :   1.1625
B( 17-C , 36-H ) :   0.9022 B( 17-C , 37-H ) :   0.9321 B( 18-C , 38-H ) :   0.9508
B( 18-C , 39-H ) :   0.9420 B( 18-C , 40-H ) :   0.9507

Dispersion correction           -0.066193842
FINAL SINGLE POINT ENERGY     -2929.522474316407

DIPOLE MOMENT
-------------

Method             : SCF
Type of density    : Electron Density
Multiplicity       :   1
Irrep              :   0
Energy             : -2929.6406611762545253 Eh
Relativity type    :
Basis              : AO
                                X                 Y                 Z
Electronic contribution:      3.559542908       1.328640355      -7.880005304
Nuclear contribution   :     -3.346002364      -2.551212477       8.434413496
                        -----------------------------------------
Total Dipole Moment    :      0.213540543      -1.222572122       0.554408192
                        -----------------------------------------
Magnitude (a.u.)       :      1.359283120
Magnitude (Debye)      :      3.455023117

Rotational constants in cm-1:             0.013084             0.005045             0.004910
Rotational constants in MHz :           392.242839           151.238787           147.207664

                             ****ORCA TERMINATED NORMALLY****
TOTAL RUN TIME: 0 days 0 hours 0 minutes 21 seconds 377 msec
