                         Program Version 6.0.0  -   RELEASE  -
|  1> ! pbe def2-sv(p) def2/J RI DEFGRID1 loosescf d4 GCP(DFT/SV(P)) printgap
|  2> %output
|  3>     printlevel normal
|  4> end
|  5> * xyz 0 1
|  6> C 1.0436177774 -0.9406983075 3.2515146508
|  7> C 1.8757240484 0.2049824743 2.7116897024
|  8> O 1.5039485627 0.5148827095 1.3439695941
|  9> P 2.2966932994 -0.0855052093 0.1141476878
| 10> S 2.9047665446 -1.9467954548 0.2574376084
| 11> O 3.4498814125 0.9963680945 -0.0592472207
| 12> C 4.5438499876 0.807959029 -0.9818557219
| 13> C 5.7768264978 0.3183175756 -0.2474061433
| 14> S 0.9810306564 0.3382137152 -1.4808791242
| 15> C 0.017072358 -1.1954207422 -1.3525772812
| 16> S -1.0548301076 -1.230141927 0.0992861883
| 17> P -2.3474290765 0.3485652138 -0.5386286698
| 18> S -2.6985926324 0.4484460541 -2.4577956468
| 19> O -1.6874153682 1.6722373852 0.0100981067
| 20> C -1.4450978747 1.9179825936 1.4161834044
| 21> C -2.5270840146 2.8046971428 1.9963672692
| 22> O -3.6210233135 0.1853064392 0.3989314697
| 23> C -4.7383041642 -0.6535321586 0.04980682
| 24> C -4.3636715876 -2.119199471 -0.0240295352
| 25> H -0.015338431 -0.7122072767 3.1729566456
| 26> H 1.2425750029 -1.849560981 2.6879315367
| 27> H 1.3001641474 -1.1059679779 4.2929655974
| 28> H 2.9409617462 -0.0368975433 2.7468708058
| 29> H 1.6909428917 1.1297323159 3.2602450725
| 30> H 4.2448013016 0.0990539863 -1.7589623793
| 31> H 4.7068714446 1.7900414094 -1.4290411913
| 32> H 6.6039370576 0.2471668799 -0.9462511945
| 33> H 6.0362689911 1.010054287 0.5489965483
| 34> H 5.5911463003 -0.6636601741 0.1825263637
| 35> H 0.6946938905 -2.0455431362 -1.269117025
| 36> H -0.590963035 -1.2526079324 -2.2553157091
| 37> H -1.3948667107 0.9589383622 1.9388305006
| 38> H -0.466846402 2.4023237041 1.4464525705
| 39> H -3.4890474255 2.3010566636 1.9517982605
| 40> H -2.2861198143 3.0292437466 3.0307193551
| 41> H -2.5896174582 3.7311021234 1.4320274544
| 42> H -5.4623100506 -0.4631965048 0.843380363
| 43> H -5.1369411224 -0.3104731668 -0.9095506745
| 44> H -3.8614011084 -2.4308968511 0.8883439119
| 45> H -5.2632090404 -2.710660908 -0.1612504944
| 46> H -3.6981324702 -2.2915658437 -0.8685113243
| 47> *
| 48>
| 49>                          ****END OF INPUT****

CARTESIAN COORDINATES (ANGSTROEM)
---------------------------------
  C      1.043618   -0.940698    3.251515
  C      1.875724    0.204982    2.711690
  O      1.503949    0.514883    1.343970
  P      2.296693   -0.085505    0.114148
  S      2.904767   -1.946795    0.257438
  O      3.449881    0.996368   -0.059247
  C      4.543850    0.807959   -0.981856
  C      5.776826    0.318318   -0.247406
  S      0.981031    0.338214   -1.480879
  C      0.017072   -1.195421   -1.352577
  S     -1.054830   -1.230142    0.099286
  P     -2.347429    0.348565   -0.538629
  S     -2.698593    0.448446   -2.457796
  O     -1.687415    1.672237    0.010098
  C     -1.445098    1.917983    1.416183
  C     -2.527084    2.804697    1.996367
  O     -3.621023    0.185306    0.398931
  C     -4.738304   -0.653532    0.049807
  C     -4.363672   -2.119199   -0.024030
  H     -0.015338   -0.712207    3.172957
  H      1.242575   -1.849561    2.687932
  H      1.300164   -1.105968    4.292966
  H      2.940962   -0.036898    2.746871
  H      1.690943    1.129732    3.260245
  H      4.244801    0.099054   -1.758962
  H      4.706871    1.790041   -1.429041
  H      6.603937    0.247167   -0.946251
  H      6.036269    1.010054    0.548997
  H      5.591146   -0.663660    0.182526
  H      0.694694   -2.045543   -1.269117
  H     -0.590963   -1.252608   -2.255316
  H     -1.394867    0.958938    1.938831
  H     -0.466846    2.402324    1.446453
  H     -3.489047    2.301057    1.951798
  H     -2.286120    3.029244    3.030719
  H     -2.589617    3.731102    1.432027
  H     -5.462310   -0.463197    0.843380
  H     -5.136941   -0.310473   -0.909551
  H     -3.861401   -2.430897    0.888344
  H     -5.263209   -2.710661   -0.161250
  H     -3.698132   -2.291566   -0.868511

 Total Charge           Charge          ....    0
 Multiplicity           Mult            ....    1
 Number of Electrons    NEL             ....  202
 Basis Dimension        Dim             ....  334

ORBITAL ENERGIES
----------------

  NO   OCC          E(Eh)            E(eV)
   0   2.0000     -88.041095     -2395.7200
   1   2.0000     -88.040276     -2395.6977
   2   2.0000     -87.990935     -2394.3551
   3   2.0000     -87.986413     -2394.2320
   4   2.0000     -76.428397     -2079.7224
   5   2.0000     -76.426265     -2079.6644
   6   2.0000     -18.797383      -511.5028
   7   2.0000     -18.794148      -511.4148
   8   2.0000     -18.794016      -511.4112
   9   2.0000     -18.788596      -511.2637
  10   2.0000      -9.958483      -270.9841
  11   2.0000      -9.955905      -270.9139
  12   2.0000      -9.955423      -270.9008
  13   2.0000      -9.952278      -270.8152
  14   2.0000      -9.950979      -270.7799
  15   2.0000      -9.885335      -268.9936
  16   2.0000      -9.885001      -268.9846
  17   2.0000      -9.883969      -268.9565
  18   2.0000      -9.883509      -268.9439
  19   2.0000      -7.686409      -209.1578
  20   2.0000      -7.685082      -209.1217
  21   2.0000      -7.635885      -207.7830
  22   2.0000      -7.631710      -207.6694
  23   2.0000      -6.426186      -174.8654
  24   2.0000      -6.423690      -174.7975
  25   2.0000      -5.714224      -155.4919
  26   2.0000      -5.712825      -155.4539
  27   2.0000      -5.711034      -155.4051
  28   2.0000      -5.709725      -155.3695
  29   2.0000      -5.703288      -155.1944
  30   2.0000      -5.702076      -155.1614
  31   2.0000      -5.664630      -154.1424
  32   2.0000      -5.660668      -154.0346
  33   2.0000      -5.656568      -153.9230
  34   2.0000      -5.656152      -153.9117
  35   2.0000      -5.652198      -153.8041
  36   2.0000      -5.651924      -153.7967
  37   2.0000      -4.648747      -126.4988
  38   2.0000      -4.647850      -126.4744
  39   2.0000      -4.646720      -126.4437
  40   2.0000      -4.646636      -126.4414
  41   2.0000      -4.645316      -126.4055
  42   2.0000      -4.643969      -126.3688
  43   2.0000      -0.989276       -26.9196
  44   2.0000      -0.988692       -26.9037
  45   2.0000      -0.947186       -25.7743
  46   2.0000      -0.945120       -25.7180
  47   2.0000      -0.764128       -20.7930
  48   2.0000      -0.721927       -19.6446
  49   2.0000      -0.710019       -19.3206
  50   2.0000      -0.691041       -18.8042
  51   2.0000      -0.688062       -18.7231
  52   2.0000      -0.675349       -18.3772
  53   2.0000      -0.652004       -17.7419
  54   2.0000      -0.639140       -17.3919
  55   2.0000      -0.598742       -16.2926
  56   2.0000      -0.591649       -16.0996
  57   2.0000      -0.575371       -15.6566
  58   2.0000      -0.573431       -15.6038
  59   2.0000      -0.559353       -15.2208
  60   2.0000      -0.509015       -13.8510
  61   2.0000      -0.498030       -13.5521
  62   2.0000      -0.478972       -13.0335
  63   2.0000      -0.474750       -12.9186
  64   2.0000      -0.458292       -12.4708
  65   2.0000      -0.449160       -12.2223
  66   2.0000      -0.441200       -12.0057
  67   2.0000      -0.434170       -11.8144
  68   2.0000      -0.427346       -11.6287
  69   2.0000      -0.420753       -11.4493
  70   2.0000      -0.405253       -11.0275
  71   2.0000      -0.399684       -10.8759
  72   2.0000      -0.393248       -10.7008
  73   2.0000      -0.386174       -10.5083
  74   2.0000      -0.378280       -10.2935
  75   2.0000      -0.371863       -10.1189
  76   2.0000      -0.367702       -10.0057
  77   2.0000      -0.361971        -9.8497
  78   2.0000      -0.355399        -9.6709
  79   2.0000      -0.353359        -9.6154
  80   2.0000      -0.350073        -9.5260
  81   2.0000      -0.344915        -9.3856
  82   2.0000      -0.343730        -9.3534
  83   2.0000      -0.342037        -9.3073
  84   2.0000      -0.333464        -9.0740
  85   2.0000      -0.320008        -8.7079
  86   2.0000      -0.311091        -8.4652
  87   2.0000      -0.300380        -8.1737
  88   2.0000      -0.297500        -8.0954
  89   2.0000      -0.293662        -7.9910
  90   2.0000      -0.292376        -7.9560
  91   2.0000      -0.281795        -7.6680
  92   2.0000      -0.268759        -7.3133
  93   2.0000      -0.264895        -7.2082
  94   2.0000      -0.259600        -7.0641
  95   2.0000      -0.233616        -6.3570
  96   2.0000      -0.218393        -5.9428
  97   2.0000      -0.213406        -5.8071
  98   2.0000      -0.204891        -5.5754
  99   2.0000      -0.202246        -5.5034
 100   2.0000      -0.201021        -5.4701
 101   0.0000      -0.043823        -1.1925
 102   0.0000      -0.023786        -0.6473
 103   0.0000      -0.003670        -0.0999
 104   0.0000      -0.001163        -0.0316
 105   0.0000       0.011264         0.3065

MULLIKEN ATOMIC CHARGES
-----------------------
   0 C :   -0.302297
   1 C :   -0.001732
   2 O :   -0.361543
   3 P :    0.604898
   4 S :   -0.339866
   5 O :   -0.375360
   6 C :   -0.007511
   7 C :   -0.290701
   8 S :   -0.055290
   9 C :   -0.377990
  10 S :   -0.089696
  11 P :    0.600085
  12 S :   -0.313007
  13 O :   -0.347898
  14 C :   -0.031578
  15 C :   -0.280818
  16 O :   -0.384104
  17 C :    0.000118
  18 C :   -0.317524
  19 H :    0.124804
  20 H :    0.129699
  21 H :    0.107155
  22 H :    0.105819
  23 H :    0.104816
  24 H :    0.104828
  25 H :    0.109249
  26 H :    0.109469
  27 H :    0.111281
  28 H :    0.125901
  29 H :    0.193221
  30 H :    0.193808
  31 H :    0.111871
  32 H :    0.117315
  33 H :    0.117254
  34 H :    0.105252
  35 H :    0.119887
  36 H :    0.104724
  37 H :    0.114272
  38 H :    0.117687
  39 H :    0.114420
  40 H :    0.129081
Sum of atomic charges:   -0.0000000

LOEWDIN ATOMIC CHARGES
----------------------
   0 C :   -0.363308
   1 C :   -0.110705
   2 O :   -0.239158
   3 P :    0.569321
   4 S :   -0.322901
   5 O :   -0.250029
   6 C :   -0.115680
   7 C :   -0.361246
   8 S :    0.097054
   9 C :   -0.488218
  10 S :    0.079933
  11 P :    0.572688
  12 S :   -0.309070
  13 O :   -0.230991
  14 C :   -0.115795
  15 C :   -0.358164
  16 O :   -0.249041
  17 C :   -0.115647
  18 C :   -0.371277
  19 H :    0.120832
  20 H :    0.125455
  21 H :    0.128484
  22 H :    0.111367
  23 H :    0.117210
  24 H :    0.109614
  25 H :    0.119496
  26 H :    0.129703
  27 H :    0.124405
  28 H :    0.124674
  29 H :    0.128189
  30 H :    0.128936
  31 H :    0.102586
  32 H :    0.120702
  33 H :    0.125005
  34 H :    0.127406
  35 H :    0.128897
  36 H :    0.118312
  37 H :    0.114086
  38 H :    0.123091
  39 H :    0.131816
  40 H :    0.121963

  Mayer bond orders larger than 0.100000
B(  0-C ,  1-C ) :   1.1706 B(  0-C , 19-H ) :   0.9407 B(  0-C , 20-H ) :   0.9318
B(  0-C , 21-H ) :   0.9378 B(  1-C ,  2-O ) :   0.8872 B(  1-C , 22-H ) :   0.9159
B(  1-C , 23-H ) :   0.9333 B(  2-O ,  3-P ) :   1.1281 B(  3-P ,  4-S ) :   1.5805
B(  3-P ,  5-O ) :   1.1148 B(  3-P ,  8-S ) :   0.9790 B(  4-S ,  8-S ) :   0.1112
B(  5-O ,  6-C ) :   0.8986 B(  6-C ,  7-C ) :   1.1666 B(  6-C , 24-H ) :   0.9141
B(  6-C , 25-H ) :   0.9348 B(  7-C , 26-H ) :   0.9401 B(  7-C , 27-H ) :   0.9478
B(  7-C , 28-H ) :   0.9359 B(  8-S ,  9-C ) :   1.0035 B(  9-C , 10-S ) :   1.0070
B(  9-C , 29-H ) :   0.8726 B(  9-C , 30-H ) :   0.8762 B( 10-S , 11-P ) :   0.9471
B( 10-S , 12-S ) :   0.1091 B( 11-P , 12-S ) :   1.6330 B( 11-P , 13-O ) :   1.1435
B( 11-P , 16-O ) :   1.0788 B( 13-O , 14-C ) :   0.8918 B( 14-C , 15-C ) :   1.1556
B( 14-C , 31-H ) :   0.9076 B( 14-C , 32-H ) :   0.9302 B( 15-C , 33-H ) :   0.9426
B( 15-C , 34-H ) :   0.9408 B( 15-C , 35-H ) :   0.9466 B( 16-O , 17-C ) :   0.9046
B( 17-C , 18-C ) :   1.1668 B( 17-C , 36-H ) :   0.9341 B( 17-C , 37-H ) :   0.9197
B( 18-C , 38-H ) :   0.9432 B( 18-C , 39-H ) :   0.9364 B( 18-C , 40-H ) :   0.9341

Dispersion correction           -0.065711930
FINAL SINGLE POINT ENERGY     -2929.524238260581

DIPOLE MOMENT
-------------

Method             : SCF
Type of density    : Electron Density
Multiplicity       :   1
Irrep              :   0
Energy             : -2929.6434317847711100 Eh
Relativity type    :
Basis              : AO
                                X                 Y                 Z
Electronic contribution:     -0.714790963      -0.399125662     -16.734719603
Nuclear contribution   :      0.784506397       0.658476493      18.170112884
                        -----------------------------------------
Total Dipole Moment    :      0.069715434       0.259350831       1.435393281
                        -----------------------------------------
Magnitude (a.u.)       :      1.460300300
Magnitude (Debye)      :      3.711788383

Rotational constants in cm-1:             0.013363             0.004737             0.004518
Rotational constants in MHz :           400.605071           142.002950           135.455433

                             ****ORCA TERMINATED NORMALLY****
TOTAL RUN TIME: 0 days 0 hours 0 minutes 21 seconds 111 msec
