                         Program Version 6.0.0  -   RELEASE  -
|  1> ! pbe def2-sv(p) def2/J RI DEFGRID1 loosescf d4 GCP(DFT/SV(P)) printgap
|  2> %output
|  3>     printlevel normal
|  4> end
|  5> * xyz 0 1
|  6> C 4.1153759261 1.5403506218 -2.2188630556
|  7> C 4.336035449 0.7901493093 -0.9206624319
|  8> O 3.3699810754 1.212524707 0.0750875677
|  9> P 2.1529732298 0.3211516154 0.5572967
| 10> S 1.2275407013 1.2534356764 2.0022959605
| 11> O 2.7720749741 -1.1030244549 0.9347420653
| 12> C 2.7664166239 -1.6771493691 2.2586617684
| 13> C 1.9783205053 -2.9717485579 2.2670090386
| 14> S 1.1989507774 -0.1567441137 -1.2777169613
| 15> C 0.2860071717 -1.64690831 -0.7895516816
| 16> S -0.8657181265 -1.3808169082 0.5896418336
| 17> P -2.0959555343 0.0172258267 -0.3871744789
| 18> S -2.4417332409 -0.2652945793 -2.2991265809
| 19> O -1.330659476 1.3495912525 -0.0032667715
| 20> C -1.47355664 2.5742882129 -0.7456036398
| 21> C -2.8625869669 3.1593698878 -0.6058133192
| 22> O -3.3917729862 0.1068050023 0.5266355482
| 23> C -4.5440974875 -0.7283418956 0.3125523634
| 24> C -4.2623999711 -2.1825655604 0.6309834246
| 25> H 3.1440915656 1.2916714489 -2.6416080107
| 26> H 4.1550423622 2.6112375601 -2.0400423495
| 27> H 4.8918971058 1.2647713534 -2.9252831262
| 28> H 5.3066788024 1.0324979472 -0.4848153099
| 29> H 4.2543197529 -0.2894634334 -1.0637897189
| 30> H 3.8152087428 -1.849985396 2.5077370811
| 31> H 2.3401000156 -0.9494880644 2.9570740547
| 32> H 2.3777901201 -3.6604627288 1.5276941658
| 33> H 2.0578024528 -3.4221728802 3.2510100055
| 34> H 0.9283621164 -2.7801122748 2.0520934179
| 35> H 0.9831390979 -2.4197863804 -0.4768071433
| 36> H -0.2719912623 -1.948755618 -1.6761912604
| 37> H -0.7106289935 3.2266522547 -0.3164295556
| 38> H -1.2386152238 2.3694017443 -1.7958902703
| 39> H -2.896422024 4.1270127881 -1.0964735492
| 40> H -3.5909555977 2.4976418726 -1.0738005768
| 41> H -3.1144999607 3.2747946251 0.4453682221
| 42> H -5.2986553674 -0.3071919204 0.9781685279
| 43> H -4.860928045 -0.6174063307 -0.7295965791
| 44> H -5.1872249944 -2.7476232686 0.5740600202
| 45> H -3.5535402401 -2.591183243 -0.0881504325
| 46> H -3.8420270726 -2.275744292 1.6293873999
| 47> *
| 48>
| 49>                          ****END OF INPUT****

CARTESIAN COORDINATES (ANGSTROEM)
---------------------------------
  C      4.115376    1.540351   -2.218863
  C      4.336035    0.790149   -0.920662
  O      3.369981    1.212525    0.075088
  P      2.152973    0.321152    0.557297
  S      1.227541    1.253436    2.002296
  O      2.772075   -1.103024    0.934742
  C      2.766417   -1.677149    2.258662
  C      1.978321   -2.971749    2.267009
  S      1.198951   -0.156744   -1.277717
  C      0.286007   -1.646908   -0.789552
  S     -0.865718   -1.380817    0.589642
  P     -2.095956    0.017226   -0.387174
  S     -2.441733   -0.265295   -2.299127
  O     -1.330659    1.349591   -0.003267
  C     -1.473557    2.574288   -0.745604
  C     -2.862587    3.159370   -0.605813
  O     -3.391773    0.106805    0.526636
  C     -4.544097   -0.728342    0.312552
  C     -4.262400   -2.182566    0.630983
  H      3.144092    1.291671   -2.641608
  H      4.155042    2.611238   -2.040042
  H      4.891897    1.264771   -2.925283
  H      5.306679    1.032498   -0.484815
  H      4.254320   -0.289463   -1.063790
  H      3.815209   -1.849985    2.507737
  H      2.340100   -0.949488    2.957074
  H      2.377790   -3.660463    1.527694
  H      2.057802   -3.422173    3.251010
  H      0.928362   -2.780112    2.052093
  H      0.983139   -2.419786   -0.476807
  H     -0.271991   -1.948756   -1.676191
  H     -0.710629    3.226652   -0.316430
  H     -1.238615    2.369402   -1.795890
  H     -2.896422    4.127013   -1.096474
  H     -3.590956    2.497642   -1.073801
  H     -3.114500    3.274795    0.445368
  H     -5.298655   -0.307192    0.978169
  H     -4.860928   -0.617406   -0.729597
  H     -5.187225   -2.747623    0.574060
  H     -3.553540   -2.591183   -0.088150
  H     -3.842027   -2.275744    1.629387

 Total Charge           Charge          ....    0
 Multiplicity           Mult            ....    1
 Number of Electrons    NEL             ....  202
 Basis Dimension        Dim             ....  334

ORBITAL ENERGIES
----------------

  NO   OCC          E(Eh)            E(eV)
   0   2.0000     -88.043547     -2395.7867
   1   2.0000     -88.041444     -2395.7295
   2   2.0000     -87.987865     -2394.2715
   3   2.0000     -87.975701     -2393.9405
   4   2.0000     -76.424682     -2079.6213
   5   2.0000     -76.421346     -2079.5305
   6   2.0000     -18.792451      -511.3686
   7   2.0000     -18.792331      -511.3653
   8   2.0000     -18.787983      -511.2470
   9   2.0000     -18.780387      -511.0403
  10   2.0000      -9.958725      -270.9907
  11   2.0000      -9.954671      -270.8804
  12   2.0000      -9.952323      -270.8165
  13   2.0000      -9.951579      -270.7962
  14   2.0000      -9.941163      -270.5128
  15   2.0000      -9.889705      -269.1126
  16   2.0000      -9.886703      -269.0309
  17   2.0000      -9.884579      -268.9731
  18   2.0000      -9.876702      -268.7587
  19   2.0000      -7.688357      -209.2108
  20   2.0000      -7.686191      -209.1519
  21   2.0000      -7.632789      -207.6988
  22   2.0000      -7.621094      -207.3805
  23   2.0000      -6.422159      -174.7558
  24   2.0000      -6.418823      -174.6651
  25   2.0000      -5.716219      -155.5462
  26   2.0000      -5.714214      -155.4917
  27   2.0000      -5.713018      -155.4591
  28   2.0000      -5.710558      -155.3922
  29   2.0000      -5.705173      -155.2456
  30   2.0000      -5.703180      -155.1914
  31   2.0000      -5.661541      -154.0584
  32   2.0000      -5.653538      -153.8406
  33   2.0000      -5.653028      -153.8267
  34   2.0000      -5.650240      -153.7509
  35   2.0000      -5.641536      -153.5140
  36   2.0000      -5.641129      -153.5029
  37   2.0000      -4.644486      -126.3829
  38   2.0000      -4.643864      -126.3660
  39   2.0000      -4.642926      -126.3404
  40   2.0000      -4.641927      -126.3133
  41   2.0000      -4.640391      -126.2715
  42   2.0000      -4.638995      -126.2335
  43   2.0000      -0.983016       -26.7492
  44   2.0000      -0.981799       -26.7161
  45   2.0000      -0.942152       -25.6373
  46   2.0000      -0.941064       -25.6077
  47   2.0000      -0.764754       -20.8100
  48   2.0000      -0.720275       -19.5997
  49   2.0000      -0.707550       -19.2534
  50   2.0000      -0.692470       -18.8431
  51   2.0000      -0.683849       -18.6085
  52   2.0000      -0.671159       -18.2632
  53   2.0000      -0.648170       -17.6376
  54   2.0000      -0.637521       -17.3478
  55   2.0000      -0.599622       -16.3166
  56   2.0000      -0.586778       -15.9670
  57   2.0000      -0.573844       -15.6151
  58   2.0000      -0.568506       -15.4698
  59   2.0000      -0.562244       -15.2994
  60   2.0000      -0.505091       -13.7442
  61   2.0000      -0.489368       -13.3164
  62   2.0000      -0.477822       -13.0022
  63   2.0000      -0.470312       -12.7978
  64   2.0000      -0.456373       -12.4185
  65   2.0000      -0.443064       -12.0564
  66   2.0000      -0.437794       -11.9130
  67   2.0000      -0.433670       -11.8008
  68   2.0000      -0.429855       -11.6970
  69   2.0000      -0.413066       -11.2401
  70   2.0000      -0.408954       -11.1282
  71   2.0000      -0.391097       -10.6423
  72   2.0000      -0.387309       -10.5392
  73   2.0000      -0.383726       -10.4417
  74   2.0000      -0.379328       -10.3220
  75   2.0000      -0.378177       -10.2907
  76   2.0000      -0.371144       -10.0993
  77   2.0000      -0.358801        -9.7635
  78   2.0000      -0.356307        -9.6956
  79   2.0000      -0.351638        -9.5686
  80   2.0000      -0.350391        -9.5346
  81   2.0000      -0.344674        -9.3791
  82   2.0000      -0.339365        -9.2346
  83   2.0000      -0.337280        -9.1779
  84   2.0000      -0.333314        -9.0699
  85   2.0000      -0.318494        -8.6667
  86   2.0000      -0.309135        -8.4120
  87   2.0000      -0.300254        -8.1703
  88   2.0000      -0.294324        -8.0090
  89   2.0000      -0.283574        -7.7164
  90   2.0000      -0.277686        -7.5562
  91   2.0000      -0.270625        -7.3641
  92   2.0000      -0.266647        -7.2558
  93   2.0000      -0.264248        -7.1906
  94   2.0000      -0.261522        -7.1164
  95   2.0000      -0.235177        -6.3995
  96   2.0000      -0.218418        -5.9434
  97   2.0000      -0.208526        -5.6743
  98   2.0000      -0.204861        -5.5745
  99   2.0000      -0.192328        -5.2335
 100   2.0000      -0.186566        -5.0767
 101   0.0000      -0.048036        -1.3071
 102   0.0000      -0.023932        -0.6512
 103   0.0000      -0.006537        -0.1779
 104   0.0000       0.002809         0.0764
 105   0.0000       0.018943         0.5155

MULLIKEN ATOMIC CHARGES
-----------------------
   0 C :   -0.293040
   1 C :   -0.020042
   2 O :   -0.362535
   3 P :    0.608745
   4 S :   -0.288907
   5 O :   -0.397556
   6 C :   -0.005980
   7 C :   -0.315201
   8 S :   -0.101857
   9 C :   -0.354507
  10 S :   -0.088603
  11 P :    0.629347
  12 S :   -0.343884
  13 O :   -0.343040
  14 C :    0.002111
  15 C :   -0.309653
  16 O :   -0.367607
  17 C :   -0.004857
  18 C :   -0.315563
  19 H :    0.128354
  20 H :    0.120836
  21 H :    0.109853
  22 H :    0.109036
  23 H :    0.106143
  24 H :    0.101429
  25 H :    0.115403
  26 H :    0.116412
  27 H :    0.115039
  28 H :    0.133475
  29 H :    0.187280
  30 H :    0.191668
  31 H :    0.108059
  32 H :    0.107228
  33 H :    0.109787
  34 H :    0.117819
  35 H :    0.119341
  36 H :    0.107153
  37 H :    0.111335
  38 H :    0.113359
  39 H :    0.124304
  40 H :    0.119316
Sum of atomic charges:   -0.0000000

LOEWDIN ATOMIC CHARGES
----------------------
   0 C :   -0.359541
   1 C :   -0.119369
   2 O :   -0.244729
   3 P :    0.558877
   4 S :   -0.294369
   5 O :   -0.261778
   6 C :   -0.118712
   7 C :   -0.361221
   8 S :    0.086736
   9 C :   -0.477210
  10 S :    0.102548
  11 P :    0.575872
  12 S :   -0.330007
  13 O :   -0.226548
  14 C :   -0.116954
  15 C :   -0.365220
  16 O :   -0.240275
  17 C :   -0.118905
  18 C :   -0.369728
  19 H :    0.120455
  20 H :    0.129248
  21 H :    0.130006
  22 H :    0.120459
  23 H :    0.108039
  24 H :    0.115435
  25 H :    0.109159
  26 H :    0.123281
  27 H :    0.133472
  28 H :    0.116978
  29 H :    0.131283
  30 H :    0.131561
  31 H :    0.120003
  32 H :    0.108351
  33 H :    0.129196
  34 H :    0.119755
  35 H :    0.127435
  36 H :    0.119710
  37 H :    0.110517
  38 H :    0.131217
  39 H :    0.120066
  40 H :    0.124906

  Mayer bond orders larger than 0.100000
B(  0-C ,  1-C ) :   1.1652 B(  0-C , 19-H ) :   0.9389 B(  0-C , 20-H ) :   0.9460
B(  0-C , 21-H ) :   0.9398 B(  1-C ,  2-O ) :   0.8966 B(  1-C , 22-H ) :   0.9327
B(  1-C , 23-H ) :   0.9161 B(  2-O ,  3-P ) :   1.1290 B(  3-P ,  4-S ) :   1.6791
B(  3-P ,  5-O ) :   1.0563 B(  3-P ,  8-S ) :   0.9487 B(  4-S ,  8-S ) :   0.1049
B(  5-O ,  6-C ) :   0.9071 B(  6-C ,  7-C ) :   1.1674 B(  6-C , 24-H ) :   0.9338
B(  6-C , 25-H ) :   0.8972 B(  7-C , 26-H ) :   0.9437 B(  7-C , 27-H ) :   0.9376
B(  7-C , 28-H ) :   0.9323 B(  8-S ,  9-C ) :   0.9975 B(  9-C , 10-S ) :   1.0117
B(  9-C , 29-H ) :   0.8980 B(  9-C , 30-H ) :   0.8850 B( 10-S , 11-P ) :   0.9510
B( 10-S , 12-S ) :   0.1059 B( 11-P , 12-S ) :   1.5804 B( 11-P , 13-O ) :   1.1487
B( 11-P , 16-O ) :   1.1142 B( 13-O , 14-C ) :   0.9063 B( 14-C , 15-C ) :   1.1639
B( 14-C , 31-H ) :   0.9294 B( 14-C , 32-H ) :   0.9191 B( 15-C , 33-H ) :   0.9399
B( 15-C , 34-H ) :   0.9375 B( 15-C , 35-H ) :   0.9457 B( 16-O , 17-C ) :   0.9079
B( 17-C , 18-C ) :   1.1660 B( 17-C , 36-H ) :   0.9337 B( 17-C , 37-H ) :   0.9159
B( 18-C , 38-H ) :   0.9378 B( 18-C , 39-H ) :   0.9353 B( 18-C , 40-H ) :   0.9446

Dispersion correction           -0.066777470
FINAL SINGLE POINT ENERGY     -2929.519087215349

DIPOLE MOMENT
-------------

Method             : SCF
Type of density    : Electron Density
Multiplicity       :   1
Irrep              :   0
Energy             : -2929.6367231629269554 Eh
Relativity type    :
Basis              : AO
                                X                 Y                 Z
Electronic contribution:      0.774061562       3.298206474       0.515028630
Nuclear contribution   :     -0.296243981      -4.169507082      -0.557006677
                        -----------------------------------------
Total Dipole Moment    :      0.477817581      -0.871300608      -0.041978048
                        -----------------------------------------
Magnitude (a.u.)       :      0.994603714
Magnitude (Debye)      :      2.528081730

Rotational constants in cm-1:             0.011686             0.005515             0.004801
Rotational constants in MHz :           350.344835           165.321601           143.938313

                             ****ORCA TERMINATED NORMALLY****
TOTAL RUN TIME: 0 days 0 hours 0 minutes 21 seconds 634 msec
