                         Program Version 6.0.0  -   RELEASE  -
|  1> ! pbe def2-sv(p) def2/J RI DEFGRID1 loosescf d4 GCP(DFT/SV(P)) printgap
|  2> %output
|  3>     printlevel normal
|  4> end
|  5> * xyz 0 1
|  6> C 4.3173530455 -2.4507897452 -0.2212490264
|  7> C 4.8799861413 -1.0773238475 -0.5260933652
|  8> O 4.0334534758 -0.0199776902 -0.0431113531
|  9> P 2.5936095567 0.2678997887 -0.6493759271
| 10> S 2.459128263 0.066810342 -2.5924009159
| 11> O 2.3179058229 1.7587032425 -0.2207304574
| 12> C 2.0013071696 2.2524617011 1.1028975534
| 13> C 2.9768795199 1.7855263022 2.1606408956
| 14> S 1.271981141 -0.9569735363 0.4911849357
| 15> C -0.1179949769 -0.8632479157 -0.6537975398
| 16> S -0.9831961245 0.7436814415 -0.5670750926
| 17> P -2.7548446662 0.043579522 0.3951866064
| 18> S -4.044783573 1.4359738738 0.8706177853
| 19> O -2.2826726645 -0.9337066201 1.5451334815
| 20> C -2.2002285083 -0.4986367515 2.9160023826
| 21> C -1.0402687592 0.4511695194 3.1343631999
| 22> O -3.2757216722 -1.0889906303 -0.5902765609
| 23> C -3.921464628 -0.7296781374 -1.8271981362
| 24> C -4.5733519797 -1.9769249248 -2.3883294645
| 25> H 3.4159239454 -2.6230272554 -0.8071047777
| 26> H 5.0534593417 -3.2041394619 -0.4829095144
| 27> H 4.0737359822 -2.5355600856 0.8346349583
| 28> H 5.0146289567 -0.9479687718 -1.6046323756
| 29> H 5.8265975663 -0.9065266708 -0.0115551926
| 30> H 2.0292235592 3.3356520759 0.9757461003
| 31> H 0.9806143409 1.9426164931 1.3415961047
| 32> H 3.9918348605 2.0558093719 1.8816023841
| 33> H 2.7248039555 2.2581760089 3.1049720743
| 34> H 2.9209634828 0.7050208828 2.2778147328
| 35> H -0.8116313479 -1.659867264 -0.3956245472
| 36> H 0.2621069802 -0.9703878291 -1.6711249255
| 37> H -3.1468325911 -0.0206276323 3.1869516861
| 38> H -2.0751258999 -1.4256105518 3.4766839721
| 39> H -1.2044771276 1.3642220724 2.5612142365
| 40> H -0.9761440875 0.7052255298 4.1873398562
| 41> H -0.10933647 -0.0136663194 2.8180155846
| 42> H -4.660979347 0.0519012346 -1.6216140372
| 43> H -3.1676553522 -0.3288531425 -2.5128920149
| 44> H -5.0695622845 -1.7301189594 -3.3211248938
| 45> H -3.8227914086 -2.7404509226 -2.5706065157
| 46> H -5.3037206798 -2.3622390346 -1.6828329751
| 47> *
| 48>
| 49>                          ****END OF INPUT****

CARTESIAN COORDINATES (ANGSTROEM)
---------------------------------
  C      4.317353   -2.450790   -0.221249
  C      4.879986   -1.077324   -0.526093
  O      4.033453   -0.019978   -0.043111
  P      2.593610    0.267900   -0.649376
  S      2.459128    0.066810   -2.592401
  O      2.317906    1.758703   -0.220730
  C      2.001307    2.252462    1.102898
  C      2.976880    1.785526    2.160641
  S      1.271981   -0.956974    0.491185
  C     -0.117995   -0.863248   -0.653798
  S     -0.983196    0.743681   -0.567075
  P     -2.754845    0.043580    0.395187
  S     -4.044784    1.435974    0.870618
  O     -2.282673   -0.933707    1.545133
  C     -2.200229   -0.498637    2.916002
  C     -1.040269    0.451170    3.134363
  O     -3.275722   -1.088991   -0.590277
  C     -3.921465   -0.729678   -1.827198
  C     -4.573352   -1.976925   -2.388329
  H      3.415924   -2.623027   -0.807105
  H      5.053459   -3.204139   -0.482910
  H      4.073736   -2.535560    0.834635
  H      5.014629   -0.947969   -1.604632
  H      5.826598   -0.906527   -0.011555
  H      2.029224    3.335652    0.975746
  H      0.980614    1.942616    1.341596
  H      3.991835    2.055809    1.881602
  H      2.724804    2.258176    3.104972
  H      2.920963    0.705021    2.277815
  H     -0.811631   -1.659867   -0.395625
  H      0.262107   -0.970388   -1.671125
  H     -3.146833   -0.020628    3.186952
  H     -2.075126   -1.425611    3.476684
  H     -1.204477    1.364222    2.561214
  H     -0.976144    0.705226    4.187340
  H     -0.109336   -0.013666    2.818016
  H     -4.660979    0.051901   -1.621614
  H     -3.167655   -0.328853   -2.512892
  H     -5.069562   -1.730119   -3.321125
  H     -3.822791   -2.740451   -2.570607
  H     -5.303721   -2.362239   -1.682833

 Total Charge           Charge          ....    0
 Multiplicity           Mult            ....    1
 Number of Electrons    NEL             ....  202
 Basis Dimension        Dim             ....  334

ORBITAL ENERGIES
----------------

  NO   OCC          E(Eh)            E(eV)
   0   2.0000     -88.050754     -2395.9828
   1   2.0000     -88.044526     -2395.8133
   2   2.0000     -87.990658     -2394.3475
   3   2.0000     -87.988210     -2394.2809
   4   2.0000     -76.431391     -2079.8039
   5   2.0000     -76.428836     -2079.7343
   6   2.0000     -18.799094      -511.5494
   7   2.0000     -18.797159      -511.4967
   8   2.0000     -18.794819      -511.4330
   9   2.0000     -18.793668      -511.4017
  10   2.0000      -9.957270      -270.9511
  11   2.0000      -9.957219      -270.9497
  12   2.0000      -9.957097      -270.9464
  13   2.0000      -9.956986      -270.9434
  14   2.0000      -9.953237      -270.8413
  15   2.0000      -9.890759      -269.1412
  16   2.0000      -9.888684      -269.0848
  17   2.0000      -9.888339      -269.0754
  18   2.0000      -9.887275      -269.0464
  19   2.0000      -7.695259      -209.3986
  20   2.0000      -7.689091      -209.2308
  21   2.0000      -7.635824      -207.7813
  22   2.0000      -7.633464      -207.7171
  23   2.0000      -6.428745      -174.9350
  24   2.0000      -6.426459      -174.8728
  25   2.0000      -5.722897      -155.7279
  26   2.0000      -5.719812      -155.6440
  27   2.0000      -5.717129      -155.5710
  28   2.0000      -5.713462      -155.4712
  29   2.0000      -5.712487      -155.4447
  30   2.0000      -5.706167      -155.2727
  31   2.0000      -5.664834      -154.1480
  32   2.0000      -5.662453      -154.0832
  33   2.0000      -5.656394      -153.9183
  34   2.0000      -5.655968      -153.9067
  35   2.0000      -5.654048      -153.8545
  36   2.0000      -5.653547      -153.8408
  37   2.0000      -4.651501      -126.5738
  38   2.0000      -4.650566      -126.5483
  39   2.0000      -4.649011      -126.5060
  40   2.0000      -4.648845      -126.5015
  41   2.0000      -4.648628      -126.4956
  42   2.0000      -4.646660      -126.4421
  43   2.0000      -0.993762       -27.0416
  44   2.0000      -0.991414       -26.9777
  45   2.0000      -0.950066       -25.8526
  46   2.0000      -0.949992       -25.8506
  47   2.0000      -0.766371       -20.8540
  48   2.0000      -0.725295       -19.7363
  49   2.0000      -0.715305       -19.4644
  50   2.0000      -0.694429       -18.8964
  51   2.0000      -0.688174       -18.7262
  52   2.0000      -0.681114       -18.5341
  53   2.0000      -0.656556       -17.8658
  54   2.0000      -0.640585       -17.4312
  55   2.0000      -0.603270       -16.4158
  56   2.0000      -0.599663       -16.3177
  57   2.0000      -0.580688       -15.8013
  58   2.0000      -0.567238       -15.4353
  59   2.0000      -0.563070       -15.3219
  60   2.0000      -0.508943       -13.8491
  61   2.0000      -0.496276       -13.5044
  62   2.0000      -0.476337       -12.9618
  63   2.0000      -0.474802       -12.9200
  64   2.0000      -0.462550       -12.5866
  65   2.0000      -0.448354       -12.2003
  66   2.0000      -0.446032       -12.1371
  67   2.0000      -0.443038       -12.0557
  68   2.0000      -0.436681       -11.8827
  69   2.0000      -0.428208       -11.6521
  70   2.0000      -0.413039       -11.2394
  71   2.0000      -0.402029       -10.9398
  72   2.0000      -0.400843       -10.9075
  73   2.0000      -0.388593       -10.5741
  74   2.0000      -0.382697       -10.4137
  75   2.0000      -0.374796       -10.1987
  76   2.0000      -0.369874       -10.0648
  77   2.0000      -0.366285        -9.9671
  78   2.0000      -0.357265        -9.7217
  79   2.0000      -0.356495        -9.7007
  80   2.0000      -0.351061        -9.5529
  81   2.0000      -0.349801        -9.5186
  82   2.0000      -0.345520        -9.4021
  83   2.0000      -0.342678        -9.3247
  84   2.0000      -0.337367        -9.1802
  85   2.0000      -0.322084        -8.7644
  86   2.0000      -0.316713        -8.6182
  87   2.0000      -0.307606        -8.3704
  88   2.0000      -0.298009        -8.1092
  89   2.0000      -0.296081        -8.0568
  90   2.0000      -0.293886        -7.9970
  91   2.0000      -0.277019        -7.5381
  92   2.0000      -0.273496        -7.4422
  93   2.0000      -0.266428        -7.2499
  94   2.0000      -0.261947        -7.1279
  95   2.0000      -0.239557        -6.5187
  96   2.0000      -0.224509        -6.1092
  97   2.0000      -0.209824        -5.7096
  98   2.0000      -0.208652        -5.6777
  99   2.0000      -0.206831        -5.6282
 100   2.0000      -0.202640        -5.5141
 101   0.0000      -0.044500        -1.2109
 102   0.0000      -0.034242        -0.9318
 103   0.0000      -0.018000        -0.4898
 104   0.0000       0.003950         0.1075
 105   0.0000       0.009618         0.2617

MULLIKEN ATOMIC CHARGES
-----------------------
   0 C :   -0.316717
   1 C :   -0.002320
   2 O :   -0.374447
   3 P :    0.597703
   4 S :   -0.309959
   5 O :   -0.354712
   6 C :   -0.021242
   7 C :   -0.311088
   8 S :   -0.104719
   9 C :   -0.359485
  10 S :   -0.068630
  11 P :    0.566367
  12 S :   -0.314683
  13 O :   -0.366846
  14 C :    0.005296
  15 C :   -0.351055
  16 O :   -0.366853
  17 C :   -0.015953
  18 C :   -0.276745
  19 H :    0.127605
  20 H :    0.115381
  21 H :    0.115342
  22 H :    0.116000
  23 H :    0.106396
  24 H :    0.112740
  25 H :    0.133405
  26 H :    0.123600
  27 H :    0.115025
  28 H :    0.118862
  29 H :    0.196428
  30 H :    0.195538
  31 H :    0.114719
  32 H :    0.107909
  33 H :    0.139088
  34 H :    0.111684
  35 H :    0.134438
  36 H :    0.108796
  37 H :    0.103451
  38 H :    0.113823
  39 H :    0.115214
  40 H :    0.120644
Sum of atomic charges:   -0.0000000

LOEWDIN ATOMIC CHARGES
----------------------
   0 C :   -0.370583
   1 C :   -0.116989
   2 O :   -0.241329
   3 P :    0.572241
   4 S :   -0.307993
   5 O :   -0.232242
   6 C :   -0.115537
   7 C :   -0.366609
   8 S :    0.087362
   9 C :   -0.485217
  10 S :    0.081821
  11 P :    0.564472
  12 S :   -0.317287
  13 O :   -0.237658
  14 C :   -0.115464
  15 C :   -0.375748
  16 O :   -0.244138
  17 C :   -0.122606
  18 C :   -0.349573
  19 H :    0.121492
  20 H :    0.132282
  21 H :    0.122733
  22 H :    0.113973
  23 H :    0.119444
  24 H :    0.125041
  25 H :    0.109769
  26 H :    0.129113
  27 H :    0.132244
  28 H :    0.115836
  29 H :    0.135603
  30 H :    0.126949
  31 H :    0.112451
  32 H :    0.120332
  33 H :    0.122069
  34 H :    0.131010
  35 H :    0.116995
  36 H :    0.110282
  37 H :    0.108237
  38 H :    0.131842
  39 H :    0.126232
  40 H :    0.129147

  Mayer bond orders larger than 0.100000
B(  0-C ,  1-C ) :   1.1653 B(  0-C , 19-H ) :   0.9349 B(  0-C , 20-H ) :   0.9374
B(  0-C , 21-H ) :   0.9450 B(  1-C ,  2-O ) :   0.9042 B(  1-C , 22-H ) :   0.9165
B(  1-C , 23-H ) :   0.9339 B(  2-O ,  3-P ) :   1.0968 B(  3-P ,  4-S ) :   1.6257
B(  3-P ,  5-O ) :   1.1542 B(  3-P ,  8-S ) :   0.9349 B(  4-S ,  8-S ) :   0.1082
B(  5-O ,  6-C ) :   0.8941 B(  6-C ,  7-C ) :   1.1714 B(  6-C , 24-H ) :   0.9327
B(  6-C , 25-H ) :   0.9072 B(  7-C , 26-H ) :   0.9423 B(  7-C , 27-H ) :   0.9357
B(  7-C , 28-H ) :   0.9365 B(  8-S ,  9-C ) :   1.0075 B(  9-C , 10-S ) :   0.9690
B(  9-C , 29-H ) :   0.8860 B(  9-C , 30-H ) :   0.8617 B( 10-S , 11-P ) :   0.9837
B( 11-P , 12-S ) :   1.6518 B( 11-P , 13-O ) :   1.1001 B( 11-P , 16-O ) :   1.0911
B( 13-O , 14-C ) :   0.9047 B( 14-C , 15-C ) :   1.1629 B( 14-C , 31-H ) :   0.9154
B( 14-C , 32-H ) :   0.9335 B( 15-C , 33-H ) :   0.9271 B( 15-C , 34-H ) :   0.9348
B( 15-C , 35-H ) :   0.9290 B( 16-O , 17-C ) :   0.9053 B( 17-C , 18-C ) :   1.1608
B( 17-C , 36-H ) :   0.9129 B( 17-C , 37-H ) :   0.9232 B( 18-C , 38-H ) :   0.9419
B( 18-C , 39-H ) :   0.9514 B( 18-C , 40-H ) :   0.9507

Dispersion correction           -0.064027937
FINAL SINGLE POINT ENERGY     -2929.519981773753

DIPOLE MOMENT
-------------

Method             : SCF
Type of density    : Electron Density
Multiplicity       :   1
Irrep              :   0
Energy             : -2929.6417581363816680 Eh
Relativity type    :
Basis              : AO
                                X                 Y                 Z
Electronic contribution:     -5.033350234       7.879851478      -8.595089315
Nuclear contribution   :      5.771377574      -8.810690220       9.637851057
                        -----------------------------------------
Total Dipole Moment    :      0.738027339      -0.930838742       1.042761742
                        -----------------------------------------
Magnitude (a.u.)       :      1.580663521
Magnitude (Debye)      :      4.017727377

Rotational constants in cm-1:             0.012469             0.004516             0.003990
Rotational constants in MHz :           373.813616           135.384704           119.627392

                             ****ORCA TERMINATED NORMALLY****
TOTAL RUN TIME: 0 days 0 hours 0 minutes 20 seconds 930 msec
