                         Program Version 6.0.0  -   RELEASE  -
|  1> ! r2scan-3c def2/J RI DEFGRID2 scfconv6 printgap
|  2> %output
|  3>     printlevel normal
|  4> end
|  5> * xyz 0 1
|  6> C 4.4921888402 1.8142631698 -0.7162050742
|  7> C 4.5356706148 0.3120574065 -0.9085037164
|  8> O 3.2234306844 -0.2485821869 -1.0933249436
|  9> P 2.1478714677 -0.3006855262 0.0727633469
| 10> S 2.8638876709 -0.7001774027 1.8561560831
| 11> O 1.0850774267 -1.3196295707 -0.5033779781
| 12> C 1.1129648159 -2.7312529827 -0.2171463238
| 13> C 2.3402640438 -3.4016930066 -0.7958269174
| 14> S 1.0578912179 1.4942643902 -0.1400595487
| 15> C 0.240355968 1.4255643388 1.4765803603
| 16> S -0.9161681405 0.0363790424 1.6518531475
| 17> P -2.1474888636 0.3518483028 -0.05254053
| 18> S -1.6787092862 -0.4171201426 -1.7983312286
| 19> O -2.2585871939 1.9280989473 0.0192489741
| 20> C -2.6239928904 2.717555909 -1.132729539
| 21> C -4.0803500083 2.5267189737 -1.499091963
| 22> O -3.580144408 -0.1145678883 0.4626247344
| 23> C -4.0361596635 -1.4677144702 0.3173172422
| 24> C -3.272077728 -2.4128249182 1.2225333751
| 25> H 3.9325429329 2.2819469034 -1.5225809608
| 26> H 4.0098532909 2.0551592596 0.230311553
| 27> H 5.504822807 2.2043894512 -0.7051479531
| 28> H 4.998907092 -0.1728343371 -0.0431101863
| 29> H 5.0680352822 0.0364730192 -1.8197486229
| 30> H 1.0699185236 -2.8623381041 0.8693755688
| 31> H 0.1942645697 -3.1030789799 -0.6750406444
| 32> H 2.2694567292 -4.4741713749 -0.6440676741
| 33> H 2.4153049486 -3.1883833704 -1.8591560442
| 34> H 3.2344996736 -3.0302063498 -0.2960855912
| 35> H -0.2909216536 2.3646195108 1.604284614
| 36> H 0.9891179993 1.2813133426 2.2566369609
| 37> H -2.411460002 3.7422685195 -0.8256776253
| 38> H -1.9725918277 2.4369766469 -1.9666797767
| 39> H -4.3422255322 3.2085838533 -2.301967427
| 40> H -4.2447426837 1.5036880177 -1.834931948
| 41> H -4.7128302531 2.7193794433 -0.6366847027
| 42> H -5.0941053641 -1.4230026365 0.578180311
| 43> H -3.921105308 -1.7612722993 -0.7318367094
| 44> H -3.3410439589 -2.085802941 2.2568108955
| 45> H -3.6773720642 -3.4151648578 1.1300979415
| 46> H -2.2200647156 -2.4263280109 0.9343478145
| 47> *
| 48>
| 49>                          ****END OF INPUT****

CARTESIAN COORDINATES (ANGSTROEM)
---------------------------------
  C      4.492189    1.814263   -0.716205
  C      4.535671    0.312057   -0.908504
  O      3.223431   -0.248582   -1.093325
  P      2.147871   -0.300686    0.072763
  S      2.863888   -0.700177    1.856156
  O      1.085077   -1.319630   -0.503378
  C      1.112965   -2.731253   -0.217146
  C      2.340264   -3.401693   -0.795827
  S      1.057891    1.494264   -0.140060
  C      0.240356    1.425564    1.476580
  S     -0.916168    0.036379    1.651853
  P     -2.147489    0.351848   -0.052541
  S     -1.678709   -0.417120   -1.798331
  O     -2.258587    1.928099    0.019249
  C     -2.623993    2.717556   -1.132730
  C     -4.080350    2.526719   -1.499092
  O     -3.580144   -0.114568    0.462625
  C     -4.036160   -1.467714    0.317317
  C     -3.272078   -2.412825    1.222533
  H      3.932543    2.281947   -1.522581
  H      4.009853    2.055159    0.230312
  H      5.504823    2.204389   -0.705148
  H      4.998907   -0.172834   -0.043110
  H      5.068035    0.036473   -1.819749
  H      1.069919   -2.862338    0.869376
  H      0.194265   -3.103079   -0.675041
  H      2.269457   -4.474171   -0.644068
  H      2.415305   -3.188383   -1.859156
  H      3.234500   -3.030206   -0.296086
  H     -0.290922    2.364620    1.604285
  H      0.989118    1.281313    2.256637
  H     -2.411460    3.742269   -0.825678
  H     -1.972592    2.436977   -1.966680
  H     -4.342226    3.208584   -2.301967
  H     -4.244743    1.503688   -1.834932
  H     -4.712830    2.719379   -0.636685
  H     -5.094105   -1.423003    0.578180
  H     -3.921105   -1.761272   -0.731837
  H     -3.341044   -2.085803    2.256811
  H     -3.677372   -3.415165    1.130098
  H     -2.220065   -2.426328    0.934348

 Total Charge           Charge          ....    0
 Multiplicity           Mult            ....    1
 Number of Electrons    NEL             ....  202
 Basis Dimension        Dim             ....  539

ORBITAL ENERGIES
----------------

  NO   OCC          E(Eh)            E(eV)
   0   2.0000     -88.572976     -2410.1932
   1   2.0000     -88.569855     -2410.1083
   2   2.0000     -88.518819     -2408.7195
   3   2.0000     -88.513152     -2408.5653
   4   2.0000     -76.910837     -2092.8503
   5   2.0000     -76.910732     -2092.8474
   6   2.0000     -18.992232      -516.8049
   7   2.0000     -18.991349      -516.7809
   8   2.0000     -18.987734      -516.6825
   9   2.0000     -18.980203      -516.4776
  10   2.0000     -10.105768      -274.9919
  11   2.0000     -10.097999      -274.7805
  12   2.0000     -10.097636      -274.7707
  13   2.0000     -10.096521      -274.7403
  14   2.0000     -10.089967      -274.5620
  15   2.0000     -10.031098      -272.9601
  16   2.0000     -10.027922      -272.8736
  17   2.0000     -10.027781      -272.8698
  18   2.0000     -10.023028      -272.7405
  19   2.0000      -7.867472      -214.0848
  20   2.0000      -7.864192      -213.9955
  21   2.0000      -7.813665      -212.6206
  22   2.0000      -7.807853      -212.4625
  23   2.0000      -6.589298      -179.3039
  24   2.0000      -6.589235      -179.3022
  25   2.0000      -5.814365      -158.2169
  26   2.0000      -5.811438      -158.1373
  27   2.0000      -5.811406      -158.1364
  28   2.0000      -5.807934      -158.0419
  29   2.0000      -5.804456      -157.9473
  30   2.0000      -5.801033      -157.8541
  31   2.0000      -5.761197      -156.7702
  32   2.0000      -5.755535      -156.6161
  33   2.0000      -5.754045      -156.5755
  34   2.0000      -5.753668      -156.5653
  35   2.0000      -5.748336      -156.4202
  36   2.0000      -5.747647      -156.4014
  37   2.0000      -4.734860      -128.8421
  38   2.0000      -4.734638      -128.8360
  39   2.0000      -4.734272      -128.8261
  40   2.0000      -4.734154      -128.8229
  41   2.0000      -4.733256      -128.7984
  42   2.0000      -4.732717      -128.7838
  43   2.0000      -1.049058       -28.5463
  44   2.0000      -1.045832       -28.4585
  45   2.0000      -1.011350       -27.5202
  46   2.0000      -1.006242       -27.3812
  47   2.0000      -0.799342       -21.7512
  48   2.0000      -0.755207       -20.5502
  49   2.0000      -0.745385       -20.2830
  50   2.0000      -0.731460       -19.9040
  51   2.0000      -0.727657       -19.8006
  52   2.0000      -0.707162       -19.2429
  53   2.0000      -0.685004       -18.6399
  54   2.0000      -0.666857       -18.1461
  55   2.0000      -0.632069       -17.1995
  56   2.0000      -0.624508       -16.9937
  57   2.0000      -0.605642       -16.4804
  58   2.0000      -0.601952       -16.3799
  59   2.0000      -0.589517       -16.0416
  60   2.0000      -0.519300       -14.1309
  61   2.0000      -0.512855       -13.9555
  62   2.0000      -0.493053       -13.4167
  63   2.0000      -0.488160       -13.2835
  64   2.0000      -0.474826       -12.9207
  65   2.0000      -0.458743       -12.4830
  66   2.0000      -0.456706       -12.4276
  67   2.0000      -0.454599       -12.3703
  68   2.0000      -0.439825       -11.9682
  69   2.0000      -0.431585       -11.7440
  70   2.0000      -0.425830       -11.5874
  71   2.0000      -0.410238       -11.1632
  72   2.0000      -0.407062       -11.0767
  73   2.0000      -0.405423       -11.0321
  74   2.0000      -0.399425       -10.8689
  75   2.0000      -0.389592       -10.6013
  76   2.0000      -0.384228       -10.4554
  77   2.0000      -0.372922       -10.1477
  78   2.0000      -0.370369       -10.0782
  79   2.0000      -0.365112        -9.9352
  80   2.0000      -0.361570        -9.8388
  81   2.0000      -0.359254        -9.7758
  82   2.0000      -0.356795        -9.7089
  83   2.0000      -0.351035        -9.5521
  84   2.0000      -0.343617        -9.3503
  85   2.0000      -0.332009        -9.0344
  86   2.0000      -0.318616        -8.6700
  87   2.0000      -0.308317        -8.3897
  88   2.0000      -0.307773        -8.3749
  89   2.0000      -0.299878        -8.1601
  90   2.0000      -0.293960        -7.9991
  91   2.0000      -0.287566        -7.8251
  92   2.0000      -0.283268        -7.7081
  93   2.0000      -0.276688        -7.5291
  94   2.0000      -0.274314        -7.4645
  95   2.0000      -0.245375        -6.6770
  96   2.0000      -0.227971        -6.2034
  97   2.0000      -0.221145        -6.0177
  98   2.0000      -0.217216        -5.9107
  99   2.0000      -0.207537        -5.6474
 100   2.0000      -0.202504        -5.5104
 101   0.0000      -0.047572        -1.2945
 102   0.0000      -0.021841        -0.5943
 103   0.0000      -0.015442        -0.4202
 104   0.0000       0.007752         0.2109
 105   0.0000       0.019491         0.5304

MULLIKEN ATOMIC CHARGES
-----------------------
   0 C :   -0.455168
   1 C :   -0.149083
   2 O :   -0.304120
   3 P :    0.706658
   4 S :   -0.493018
   5 O :   -0.242849
   6 C :   -0.170190
   7 C :   -0.451613
   8 S :   -0.134221
   9 C :   -0.195889
  10 S :   -0.149181
  11 P :    0.731417
  12 S :   -0.462721
  13 O :   -0.337445
  14 C :   -0.149932
  15 C :   -0.446817
  16 O :   -0.290515
  17 C :   -0.146364
  18 C :   -0.469339
  19 H :    0.156507
  20 H :    0.176720
  21 H :    0.147652
  22 H :    0.171907
  23 H :    0.148958
  24 H :    0.172619
  25 H :    0.161698
  26 H :    0.145439
  27 H :    0.159956
  28 H :    0.166812
  29 H :    0.187812
  30 H :    0.209326
  31 H :    0.146978
  32 H :    0.177058
  33 H :    0.146759
  34 H :    0.172246
  35 H :    0.155556
  36 H :    0.147972
  37 H :    0.175756
  38 H :    0.164654
  39 H :    0.151047
  40 H :    0.166958
Sum of atomic charges:    0.0000000

LOEWDIN ATOMIC CHARGES
----------------------
   0 C :   -0.407332
   1 C :    0.020023
   2 O :   -0.657196
   3 P :    0.380401
   4 S :   -0.135744
   5 O :   -0.683386
   6 C :    0.015140
   7 C :   -0.400203
   8 S :    0.176607
   9 C :   -0.412780
  10 S :    0.169544
  11 P :    0.390515
  12 S :   -0.098131
  13 O :   -0.683771
  14 C :    0.020753
  15 C :   -0.399316
  16 O :   -0.667157
  17 C :    0.016005
  18 C :   -0.404962
  19 H :    0.160518
  20 H :    0.165312
  21 H :    0.159134
  22 H :    0.179547
  23 H :    0.179754
  24 H :    0.179338
  25 H :    0.184200
  26 H :    0.158583
  27 H :    0.162061
  28 H :    0.163851
  29 H :    0.184164
  30 H :    0.191905
  31 H :    0.178215
  32 H :    0.182276
  33 H :    0.159579
  34 H :    0.166672
  35 H :    0.160832
  36 H :    0.179442
  37 H :    0.180027
  38 H :    0.161791
  39 H :    0.160224
  40 H :    0.163566

  Mayer bond orders larger than 0.100000
B(  0-C ,  1-C ) :   0.9223 B(  0-C , 19-H ) :   0.9687 B(  0-C , 20-H ) :   0.9631
B(  0-C , 21-H ) :   0.9587 B(  1-C ,  2-O ) :   0.8116 B(  1-C , 22-H ) :   0.9675
B(  1-C , 23-H ) :   0.9580 B(  2-O ,  3-P ) :   1.0665 B(  3-P ,  4-S ) :   1.7332
B(  3-P ,  5-O ) :   1.1666 B(  3-P ,  8-S ) :   1.0815 B(  5-O ,  6-C ) :   0.7863
B(  6-C ,  7-C ) :   0.9188 B(  6-C , 24-H ) :   0.9662 B(  6-C , 25-H ) :   0.9583
B(  7-C , 26-H ) :   0.9615 B(  7-C , 27-H ) :   0.9726 B(  7-C , 28-H ) :   0.9615
B(  8-S ,  9-C ) :   0.9110 B(  9-C , 10-S ) :   0.8912 B(  9-C , 29-H ) :   0.9161
B(  9-C , 30-H ) :   0.9114 B( 10-S , 11-P ) :   1.0505 B( 11-P , 12-S ) :   1.7591
B( 11-P , 13-O ) :   1.1588 B( 11-P , 16-O ) :   1.0688 B( 13-O , 14-C ) :   0.7999
B( 14-C , 15-C ) :   0.9312 B( 14-C , 31-H ) :   0.9599 B( 14-C , 32-H ) :   0.9613
B( 15-C , 33-H ) :   0.9623 B( 15-C , 34-H ) :   0.9592 B( 15-C , 35-H ) :   0.9709
B( 16-O , 17-C ) :   0.8178 B( 17-C , 18-C ) :   0.9107 B( 17-C , 36-H ) :   0.9555
B( 17-C , 37-H ) :   0.9656 B( 18-C , 38-H ) :   0.9680 B( 18-C , 39-H ) :   0.9592
B( 18-C , 40-H ) :   0.9647

Dispersion correction           -0.022053646
FINAL SINGLE POINT ENERGY     -2932.457657265144

DIPOLE MOMENT
-------------

Method             : SCF
Type of density    : Electron Density
Multiplicity       :   1
Irrep              :   0
Energy             : -2932.4821014271401509 Eh
Relativity type    :
Basis              : AO
                                X                 Y                 Z
Electronic contribution:      2.106432786       4.183614250       5.411568306
Nuclear contribution   :     -2.446003178      -3.907854592      -5.711552118
                        -----------------------------------------
Total Dipole Moment    :     -0.339570392       0.275759658      -0.299983812
                        -----------------------------------------
Magnitude (a.u.)       :      0.530416560
Magnitude (Debye)      :      1.348211752

Rotational constants in cm-1:             0.012516             0.005419             0.004755
Rotational constants in MHz :           375.218635           162.443827           142.562506

                             ****ORCA TERMINATED NORMALLY****
TOTAL RUN TIME: 0 days 0 hours 1 minutes 20 seconds 947 msec
