                         Program Version 6.0.0  -   RELEASE  -
|  1> ! r2scan-3c def2/J RI DEFGRID2 scfconv6 printgap
|  2> %output
|  3>     printlevel normal
|  4> end
|  5> %cpcm
|  6>     smd true
|  7>     smdsolvent "water"
|  8> end
|  9> * xyz 0 1
| 10> C 4.4921888402 1.8142631698 -0.7162050742
| 11> C 4.5356706148 0.3120574065 -0.9085037164
| 12> O 3.2234306844 -0.2485821869 -1.0933249436
| 13> P 2.1478714677 -0.3006855262 0.0727633469
| 14> S 2.8638876709 -0.7001774027 1.8561560831
| 15> O 1.0850774267 -1.3196295707 -0.5033779781
| 16> C 1.1129648159 -2.7312529827 -0.2171463238
| 17> C 2.3402640438 -3.4016930066 -0.7958269174
| 18> S 1.0578912179 1.4942643902 -0.1400595487
| 19> C 0.240355968 1.4255643388 1.4765803603
| 20> S -0.9161681405 0.0363790424 1.6518531475
| 21> P -2.1474888636 0.3518483028 -0.05254053
| 22> S -1.6787092862 -0.4171201426 -1.7983312286
| 23> O -2.2585871939 1.9280989473 0.0192489741
| 24> C -2.6239928904 2.717555909 -1.132729539
| 25> C -4.0803500083 2.5267189737 -1.499091963
| 26> O -3.580144408 -0.1145678883 0.4626247344
| 27> C -4.0361596635 -1.4677144702 0.3173172422
| 28> C -3.272077728 -2.4128249182 1.2225333751
| 29> H 3.9325429329 2.2819469034 -1.5225809608
| 30> H 4.0098532909 2.0551592596 0.230311553
| 31> H 5.504822807 2.2043894512 -0.7051479531
| 32> H 4.998907092 -0.1728343371 -0.0431101863
| 33> H 5.0680352822 0.0364730192 -1.8197486229
| 34> H 1.0699185236 -2.8623381041 0.8693755688
| 35> H 0.1942645697 -3.1030789799 -0.6750406444
| 36> H 2.2694567292 -4.4741713749 -0.6440676741
| 37> H 2.4153049486 -3.1883833704 -1.8591560442
| 38> H 3.2344996736 -3.0302063498 -0.2960855912
| 39> H -0.2909216536 2.3646195108 1.604284614
| 40> H 0.9891179993 1.2813133426 2.2566369609
| 41> H -2.411460002 3.7422685195 -0.8256776253
| 42> H -1.9725918277 2.4369766469 -1.9666797767
| 43> H -4.3422255322 3.2085838533 -2.301967427
| 44> H -4.2447426837 1.5036880177 -1.834931948
| 45> H -4.7128302531 2.7193794433 -0.6366847027
| 46> H -5.0941053641 -1.4230026365 0.578180311
| 47> H -3.921105308 -1.7612722993 -0.7318367094
| 48> H -3.3410439589 -2.085802941 2.2568108955
| 49> H -3.6773720642 -3.4151648578 1.1300979415
| 50> H -2.2200647156 -2.4263280109 0.9343478145
| 51> *
| 52>
| 53>                          ****END OF INPUT****

CARTESIAN COORDINATES (ANGSTROEM)
---------------------------------
  C      4.492189    1.814263   -0.716205
  C      4.535671    0.312057   -0.908504
  O      3.223431   -0.248582   -1.093325
  P      2.147871   -0.300686    0.072763
  S      2.863888   -0.700177    1.856156
  O      1.085077   -1.319630   -0.503378
  C      1.112965   -2.731253   -0.217146
  C      2.340264   -3.401693   -0.795827
  S      1.057891    1.494264   -0.140060
  C      0.240356    1.425564    1.476580
  S     -0.916168    0.036379    1.651853
  P     -2.147489    0.351848   -0.052541
  S     -1.678709   -0.417120   -1.798331
  O     -2.258587    1.928099    0.019249
  C     -2.623993    2.717556   -1.132730
  C     -4.080350    2.526719   -1.499092
  O     -3.580144   -0.114568    0.462625
  C     -4.036160   -1.467714    0.317317
  C     -3.272078   -2.412825    1.222533
  H      3.932543    2.281947   -1.522581
  H      4.009853    2.055159    0.230312
  H      5.504823    2.204389   -0.705148
  H      4.998907   -0.172834   -0.043110
  H      5.068035    0.036473   -1.819749
  H      1.069919   -2.862338    0.869376
  H      0.194265   -3.103079   -0.675041
  H      2.269457   -4.474171   -0.644068
  H      2.415305   -3.188383   -1.859156
  H      3.234500   -3.030206   -0.296086
  H     -0.290922    2.364620    1.604285
  H      0.989118    1.281313    2.256637
  H     -2.411460    3.742269   -0.825678
  H     -1.972592    2.436977   -1.966680
  H     -4.342226    3.208584   -2.301967
  H     -4.244743    1.503688   -1.834932
  H     -4.712830    2.719379   -0.636685
  H     -5.094105   -1.423003    0.578180
  H     -3.921105   -1.761272   -0.731837
  H     -3.341044   -2.085803    2.256811
  H     -3.677372   -3.415165    1.130098
  H     -2.220065   -2.426328    0.934348

 Total Charge           Charge          ....    0
 Multiplicity           Mult            ....    1
 Number of Electrons    NEL             ....  202
 Basis Dimension        Dim             ....  539

ORBITAL ENERGIES
----------------

  NO   OCC          E(Eh)            E(eV)
   0   2.0000     -88.577148     -2410.3067
   1   2.0000     -88.574576     -2410.2367
   2   2.0000     -88.526746     -2408.9352
   3   2.0000     -88.520964     -2408.7779
   4   2.0000     -76.916822     -2093.0131
   5   2.0000     -76.916596     -2093.0070
   6   2.0000     -18.995436      -516.8921
   7   2.0000     -18.994458      -516.8655
   8   2.0000     -18.991849      -516.7945
   9   2.0000     -18.986053      -516.6368
  10   2.0000     -10.104176      -274.9486
  11   2.0000     -10.089652      -274.5534
  12   2.0000     -10.089333      -274.5447
  13   2.0000     -10.088460      -274.5210
  14   2.0000     -10.087193      -274.4865
  15   2.0000     -10.020660      -272.6760
  16   2.0000     -10.018524      -272.6179
  17   2.0000     -10.018303      -272.6119
  18   2.0000     -10.017804      -272.5983
  19   2.0000      -7.871622      -214.1977
  20   2.0000      -7.868936      -214.1246
  21   2.0000      -7.821862      -212.8437
  22   2.0000      -7.815969      -212.6833
  23   2.0000      -6.595482      -179.4722
  24   2.0000      -6.595040      -179.4602
  25   2.0000      -5.818502      -158.3295
  26   2.0000      -5.816139      -158.2652
  27   2.0000      -5.815549      -158.2491
  28   2.0000      -5.812627      -158.1696
  29   2.0000      -5.808640      -158.0611
  30   2.0000      -5.805881      -157.9861
  31   2.0000      -5.769344      -156.9918
  32   2.0000      -5.763597      -156.8354
  33   2.0000      -5.762210      -156.7977
  34   2.0000      -5.761895      -156.7891
  35   2.0000      -5.756407      -156.6398
  36   2.0000      -5.755807      -156.6235
  37   2.0000      -4.740804      -129.0038
  38   2.0000      -4.740611      -128.9986
  39   2.0000      -4.740341      -128.9912
  40   2.0000      -4.740068      -128.9838
  41   2.0000      -4.739467      -128.9675
  42   2.0000      -4.738616      -128.9443
  43   2.0000      -1.051882       -28.6232
  44   2.0000      -1.050428       -28.5836
  45   2.0000      -1.013547       -27.5800
  46   2.0000      -1.010605       -27.5000
  47   2.0000      -0.801355       -21.8060
  48   2.0000      -0.753446       -20.5023
  49   2.0000      -0.741195       -20.1689
  50   2.0000      -0.723821       -19.6962
  51   2.0000      -0.722469       -19.6594
  52   2.0000      -0.707584       -19.2544
  53   2.0000      -0.688811       -18.7435
  54   2.0000      -0.673317       -18.3219
  55   2.0000      -0.632572       -17.2132
  56   2.0000      -0.622430       -16.9372
  57   2.0000      -0.599530       -16.3141
  58   2.0000      -0.598562       -16.2877
  59   2.0000      -0.588806       -16.0222
  60   2.0000      -0.517021       -14.0689
  61   2.0000      -0.510820       -13.9001
  62   2.0000      -0.491035       -13.3617
  63   2.0000      -0.487348       -13.2614
  64   2.0000      -0.474517       -12.9123
  65   2.0000      -0.456670       -12.4266
  66   2.0000      -0.453987       -12.3536
  67   2.0000      -0.452524       -12.3138
  68   2.0000      -0.437410       -11.9025
  69   2.0000      -0.428714       -11.6659
  70   2.0000      -0.422678       -11.5017
  71   2.0000      -0.406751       -11.0683
  72   2.0000      -0.406278       -11.0554
  73   2.0000      -0.405046       -11.0219
  74   2.0000      -0.400094       -10.8871
  75   2.0000      -0.387729       -10.5506
  76   2.0000      -0.383189       -10.4271
  77   2.0000      -0.368782       -10.0351
  78   2.0000      -0.365947        -9.9579
  79   2.0000      -0.362064        -9.8523
  80   2.0000      -0.354060        -9.6345
  81   2.0000      -0.352791        -9.5999
  82   2.0000      -0.350768        -9.5449
  83   2.0000      -0.346585        -9.4311
  84   2.0000      -0.341562        -9.2944
  85   2.0000      -0.330155        -8.9840
  86   2.0000      -0.317223        -8.6321
  87   2.0000      -0.304434        -8.2841
  88   2.0000      -0.304030        -8.2731
  89   2.0000      -0.299506        -8.1500
  90   2.0000      -0.296071        -8.0565
  91   2.0000      -0.286969        -7.8088
  92   2.0000      -0.285236        -7.7617
  93   2.0000      -0.278747        -7.5851
  94   2.0000      -0.276863        -7.5338
  95   2.0000      -0.250386        -6.8134
  96   2.0000      -0.234212        -6.3732
  97   2.0000      -0.229441        -6.2434
  98   2.0000      -0.226083        -6.1520
  99   2.0000      -0.214334        -5.8323
 100   2.0000      -0.211011        -5.7419
 101   0.0000      -0.052420        -1.4264
 102   0.0000      -0.028189        -0.7671
 103   0.0000      -0.019302        -0.5252
 104   0.0000       0.003061         0.0833
 105   0.0000       0.016386         0.4459

MULLIKEN ATOMIC CHARGES
-----------------------
   0 C :   -0.488796
   1 C :   -0.150408
   2 O :   -0.330321
   3 P :    0.733941
   4 S :   -0.539987
   5 O :   -0.267255
   6 C :   -0.168059
   7 C :   -0.486667
   8 S :   -0.140938
   9 C :   -0.204113
  10 S :   -0.172758
  11 P :    0.768594
  12 S :   -0.516441
  13 O :   -0.358134
  14 C :   -0.142938
  15 C :   -0.488215
  16 O :   -0.321323
  17 C :   -0.146628
  18 C :   -0.498755
  19 H :    0.169317
  20 H :    0.172884
  21 H :    0.172828
  22 H :    0.178025
  23 H :    0.175432
  24 H :    0.177448
  25 H :    0.178324
  26 H :    0.171638
  27 H :    0.169757
  28 H :    0.168541
  29 H :    0.223078
  30 H :    0.225809
  31 H :    0.176436
  32 H :    0.177344
  33 H :    0.172406
  34 H :    0.169064
  35 H :    0.169160
  36 H :    0.174589
  37 H :    0.178103
  38 H :    0.175471
  39 H :    0.176682
  40 H :    0.166863
Sum of atomic charges:    0.0000000

LOEWDIN ATOMIC CHARGES
----------------------
   0 C :   -0.409921
   1 C :    0.025459
   2 O :   -0.671854
   3 P :    0.383611
   4 S :   -0.164012
   5 O :   -0.698419
   6 C :    0.018515
   7 C :   -0.403549
   8 S :    0.174387
   9 C :   -0.404350
  10 S :    0.158686
  11 P :    0.395442
  12 S :   -0.131364
  13 O :   -0.691246
  14 C :    0.026309
  15 C :   -0.403281
  16 O :   -0.682574
  17 C :    0.021139
  18 C :   -0.406438
  19 H :    0.163671
  20 H :    0.161581
  21 H :    0.168427
  22 H :    0.181656
  23 H :    0.190898
  24 H :    0.181284
  25 H :    0.190583
  26 H :    0.168190
  27 H :    0.164049
  28 H :    0.162512
  29 H :    0.196984
  30 H :    0.197441
  31 H :    0.190405
  32 H :    0.182483
  33 H :    0.169037
  34 H :    0.162801
  35 H :    0.163990
  36 H :    0.190555
  37 H :    0.181096
  38 H :    0.164179
  39 H :    0.170028
  40 H :    0.161610

  Mayer bond orders larger than 0.100000
B(  0-C ,  1-C ) :   0.9097 B(  0-C , 19-H ) :   0.9657 B(  0-C , 20-H ) :   0.9638
B(  0-C , 21-H ) :   0.9534 B(  1-C ,  2-O ) :   0.7996 B(  1-C , 22-H ) :   0.9655
B(  1-C , 23-H ) :   0.9485 B(  2-O ,  3-P ) :   1.0725 B(  3-P ,  4-S ) :   1.6905
B(  3-P ,  5-O ) :   1.1719 B(  3-P ,  8-S ) :   1.0984 B(  5-O ,  6-C ) :   0.7789
B(  6-C ,  7-C ) :   0.9081 B(  6-C , 24-H ) :   0.9619 B(  6-C , 25-H ) :   0.9520
B(  7-C , 26-H ) :   0.9557 B(  7-C , 27-H ) :   0.9712 B(  7-C , 28-H ) :   0.9603
B(  8-S ,  9-C ) :   0.9092 B(  9-C , 10-S ) :   0.8803 B(  9-C , 29-H ) :   0.9062
B(  9-C , 30-H ) :   0.9079 B( 10-S , 11-P ) :   1.0676 B( 11-P , 12-S ) :   1.7101
B( 11-P , 13-O ) :   1.1694 B( 11-P , 16-O ) :   1.0745 B( 13-O , 14-C ) :   0.7885
B( 14-C , 15-C ) :   0.9176 B( 14-C , 31-H ) :   0.9503 B( 14-C , 32-H ) :   0.9586
B( 15-C , 33-H ) :   0.9563 B( 15-C , 34-H ) :   0.9599 B( 15-C , 35-H ) :   0.9701
B( 16-O , 17-C ) :   0.8066 B( 17-C , 18-C ) :   0.9018 B( 17-C , 36-H ) :   0.9463
B( 17-C , 37-H ) :   0.9631 B( 18-C , 38-H ) :   0.9659 B( 18-C , 39-H ) :   0.9528
B( 18-C , 40-H ) :   0.9616

Dispersion correction           -0.022053646
FINAL SINGLE POINT ENERGY     -2932.465794165676

DIPOLE MOMENT
-------------

Method             : SCF
Type of density    : Electron Density
Multiplicity       :   1
Irrep              :   0
Energy             : -2932.4902383276717046 Eh
Relativity type    :
Basis              : AO
                                X                 Y                 Z
Electronic contribution:      2.030508918       4.352744443       5.428159687
Nuclear contribution   :     -2.446003178      -3.907854592      -5.711552118
                        -----------------------------------------
Total Dipole Moment    :     -0.415494260       0.444889851      -0.283392431
                        -----------------------------------------
Magnitude (a.u.)       :      0.671471317
Magnitude (Debye)      :      1.706744450

Rotational constants in cm-1:             0.012516             0.005419             0.004755
Rotational constants in MHz :           375.218635           162.443827           142.562506

                             ****ORCA TERMINATED NORMALLY****
TOTAL RUN TIME: 0 days 0 hours 1 minutes 51 seconds 28 msec
