                         Program Version 6.0.0  -   RELEASE  -
|  1> ! r2scan-3c def2/J RI DEFGRID2 scfconv6 printgap
|  2> %output
|  3>     printlevel normal
|  4> end
|  5> * xyz 0 1
|  6> C 4.4083073961 2.135509598 -0.0589996341
|  7> C 4.6048234793 0.6924068887 -0.4764576057
|  8> O 3.3704536027 0.0716368154 -0.8794934586
|  9> P 2.2029472722 -0.2430247843 0.1490240872
| 10> S 2.7876731487 -0.8696815761 1.9147562945
| 11> O 1.2899272206 -1.2373271424 -0.6767602383
| 12> C 1.4241314252 -2.669125181 -0.6004595899
| 13> C 2.7340096998 -3.1444706508 -1.1913779116
| 14> S 0.9823218694 1.4742988601 0.0978826778
| 15> C 0.0229557633 1.0846574548 1.585865842
| 16> S -1.0237784773 -0.3920169741 1.4180725472
| 17> P -2.0980866929 0.1025684786 -0.3439286833
| 18> S -1.3837143277 -0.2466961008 -2.1275068164
| 19> O -2.405241597 1.6346902405 -0.0005352493
| 20> C -2.6342567917 2.6102829791 -1.0350055992
| 21> C -4.010645024 2.4462379749 -1.6462196257
| 22> O -3.4500242386 -0.7081828719 -0.1739662488
| 23> C -4.2953927708 -0.6265860203 1.0001932417
| 24> C -4.1781000836 -1.8943413891 1.8222468707
| 25> H 3.8835972364 2.6852494563 -0.8365955754
| 26> H 3.8232575726 2.1816443769 0.8587230899
| 27> H 5.3765476061 2.5931748168 0.1167357654
| 28> H 5.03121528 0.1092285658 0.3462133389
| 29> H 5.2390466948 0.6096235435 -1.3600110838
| 30> H 1.3366230167 -2.9672480762 0.4499700651
| 31> H 0.5645785039 -3.038147323 -1.1632080558
| 32> H 2.7497275999 -4.2297390647 -1.2044568719
| 33> H 2.8448415606 -2.7662712175 -2.2044992066
| 34> H 3.5651031307 -2.7839529472 -0.5858312009
| 35> H -0.5969725967 1.9511772851 1.7979880124
| 36> H 0.7015893838 0.8676390701 2.4117573361
| 37> H -2.5231031116 3.5696090739 -0.527947172
| 38> H -1.8564348925 2.5001549727 -1.7970296639
| 39> H -4.7781247921 2.52652971 -0.8808390972
| 40> H -4.1664626616 3.2161437679 -2.3951402618
| 41> H -4.0842590137 1.4688904487 -2.1227629079
| 42> H -4.0156913726 0.253843163 1.5836042677
| 43> H -5.305952579 -0.5040264574 0.6067340625
| 44> H -4.8694832542 -1.8426783811 2.6572922876
| 45> H -4.4186292404 -2.758002313 1.2086456201
| 46> H -3.1653015883 -2.007249019 2.2036700152
| 47> *
| 48>
| 49>                          ****END OF INPUT****

CARTESIAN COORDINATES (ANGSTROEM)
---------------------------------
  C      4.408307    2.135510   -0.059000
  C      4.604823    0.692407   -0.476458
  O      3.370454    0.071637   -0.879493
  P      2.202947   -0.243025    0.149024
  S      2.787673   -0.869682    1.914756
  O      1.289927   -1.237327   -0.676760
  C      1.424131   -2.669125   -0.600460
  C      2.734010   -3.144471   -1.191378
  S      0.982322    1.474299    0.097883
  C      0.022956    1.084657    1.585866
  S     -1.023778   -0.392017    1.418073
  P     -2.098087    0.102568   -0.343929
  S     -1.383714   -0.246696   -2.127507
  O     -2.405242    1.634690   -0.000535
  C     -2.634257    2.610283   -1.035006
  C     -4.010645    2.446238   -1.646220
  O     -3.450024   -0.708183   -0.173966
  C     -4.295393   -0.626586    1.000193
  C     -4.178100   -1.894341    1.822247
  H      3.883597    2.685249   -0.836596
  H      3.823258    2.181644    0.858723
  H      5.376548    2.593175    0.116736
  H      5.031215    0.109229    0.346213
  H      5.239047    0.609624   -1.360011
  H      1.336623   -2.967248    0.449970
  H      0.564579   -3.038147   -1.163208
  H      2.749728   -4.229739   -1.204457
  H      2.844842   -2.766271   -2.204499
  H      3.565103   -2.783953   -0.585831
  H     -0.596973    1.951177    1.797988
  H      0.701589    0.867639    2.411757
  H     -2.523103    3.569609   -0.527947
  H     -1.856435    2.500155   -1.797030
  H     -4.778125    2.526530   -0.880839
  H     -4.166463    3.216144   -2.395140
  H     -4.084259    1.468890   -2.122763
  H     -4.015691    0.253843    1.583604
  H     -5.305953   -0.504026    0.606734
  H     -4.869483   -1.842678    2.657292
  H     -4.418629   -2.758002    1.208646
  H     -3.165302   -2.007249    2.203670

 Total Charge           Charge          ....    0
 Multiplicity           Mult            ....    1
 Number of Electrons    NEL             ....  202
 Basis Dimension        Dim             ....  539

ORBITAL ENERGIES
----------------

  NO   OCC          E(Eh)            E(eV)
   0   2.0000     -88.573924     -2410.2190
   1   2.0000     -88.572769     -2410.1876
   2   2.0000     -88.518732     -2408.7172
   3   2.0000     -88.509318     -2408.4610
   4   2.0000     -76.910527     -2092.8418
   5   2.0000     -76.909845     -2092.8233
   6   2.0000     -18.991324      -516.7802
   7   2.0000     -18.991310      -516.7798
   8   2.0000     -18.989517      -516.7310
   9   2.0000     -18.978971      -516.4441
  10   2.0000     -10.107885      -275.0495
  11   2.0000     -10.101429      -274.8739
  12   2.0000     -10.097587      -274.7693
  13   2.0000     -10.096912      -274.7509
  14   2.0000     -10.086856      -274.4773
  15   2.0000     -10.031688      -272.9761
  16   2.0000     -10.029249      -272.9098
  17   2.0000     -10.028115      -272.8789
  18   2.0000     -10.020991      -272.6850
  19   2.0000      -7.868469      -214.1119
  20   2.0000      -7.867185      -214.0770
  21   2.0000      -7.813590      -212.6186
  22   2.0000      -7.804121      -212.3609
  23   2.0000      -6.589111      -179.2988
  24   2.0000      -6.587998      -179.2685
  25   2.0000      -5.815360      -158.2440
  26   2.0000      -5.814317      -158.2156
  27   2.0000      -5.812405      -158.1636
  28   2.0000      -5.810781      -158.1194
  29   2.0000      -5.805438      -157.9740
  30   2.0000      -5.804263      -157.9420
  31   2.0000      -5.761114      -156.7679
  32   2.0000      -5.753980      -156.5738
  33   2.0000      -5.753592      -156.5632
  34   2.0000      -5.752049      -156.5212
  35   2.0000      -5.744339      -156.3114
  36   2.0000      -5.743911      -156.2998
  37   2.0000      -4.734432      -128.8304
  38   2.0000      -4.734035      -128.8196
  39   2.0000      -4.733965      -128.8177
  40   2.0000      -4.733089      -128.7939
  41   2.0000      -4.732890      -128.7885
  42   2.0000      -4.731286      -128.7448
  43   2.0000      -1.046033       -28.4640
  44   2.0000      -1.045077       -28.4380
  45   2.0000      -1.009341       -27.4656
  46   2.0000      -1.005272       -27.3548
  47   2.0000      -0.800871       -21.7928
  48   2.0000      -0.756091       -20.5743
  49   2.0000      -0.746244       -20.3063
  50   2.0000      -0.734866       -19.9967
  51   2.0000      -0.726504       -19.7692
  52   2.0000      -0.707100       -19.2412
  53   2.0000      -0.683687       -18.6041
  54   2.0000      -0.667546       -18.1648
  55   2.0000      -0.629902       -17.1405
  56   2.0000      -0.617654       -16.8072
  57   2.0000      -0.607788       -16.5388
  58   2.0000      -0.600726       -16.3466
  59   2.0000      -0.592135       -16.1128
  60   2.0000      -0.525489       -14.2993
  61   2.0000      -0.513098       -13.9621
  62   2.0000      -0.498166       -13.5558
  63   2.0000      -0.487684       -13.2705
  64   2.0000      -0.474393       -12.9089
  65   2.0000      -0.461008       -12.5447
  66   2.0000      -0.455008       -12.3814
  67   2.0000      -0.452668       -12.3177
  68   2.0000      -0.440775       -11.9941
  69   2.0000      -0.427655       -11.6371
  70   2.0000      -0.425314       -11.5734
  71   2.0000      -0.416959       -11.3460
  72   2.0000      -0.404403       -11.0044
  73   2.0000      -0.399882       -10.8813
  74   2.0000      -0.393936       -10.7195
  75   2.0000      -0.390591       -10.6285
  76   2.0000      -0.382657       -10.4126
  77   2.0000      -0.372625       -10.1397
  78   2.0000      -0.370998       -10.0954
  79   2.0000      -0.366468        -9.9721
  80   2.0000      -0.359715        -9.7883
  81   2.0000      -0.359150        -9.7730
  82   2.0000      -0.358363        -9.7515
  83   2.0000      -0.351457        -9.5636
  84   2.0000      -0.344448        -9.3729
  85   2.0000      -0.330999        -9.0069
  86   2.0000      -0.323326        -8.7982
  87   2.0000      -0.313845        -8.5402
  88   2.0000      -0.307724        -8.3736
  89   2.0000      -0.296005        -8.0547
  90   2.0000      -0.292615        -7.9625
  91   2.0000      -0.284772        -7.7490
  92   2.0000      -0.281608        -7.6629
  93   2.0000      -0.279880        -7.6159
  94   2.0000      -0.276434        -7.5222
  95   2.0000      -0.246775        -6.7151
  96   2.0000      -0.229217        -6.2373
  97   2.0000      -0.220587        -6.0025
  98   2.0000      -0.217439        -5.9168
  99   2.0000      -0.205179        -5.5832
 100   2.0000      -0.199869        -5.4387
 101   0.0000      -0.048735        -1.3262
 102   0.0000      -0.021700        -0.5905
 103   0.0000      -0.008632        -0.2349
 104   0.0000       0.007475         0.2034
 105   0.0000       0.019211         0.5227

MULLIKEN ATOMIC CHARGES
-----------------------
   0 C :   -0.456325
   1 C :   -0.148459
   2 O :   -0.304558
   3 P :    0.711239
   4 S :   -0.493767
   5 O :   -0.252686
   6 C :   -0.162326
   7 C :   -0.446734
   8 S :   -0.130874
   9 C :   -0.211742
  10 S :   -0.172472
  11 P :    0.700601
  12 S :   -0.425871
  13 O :   -0.326736
  14 C :   -0.149180
  15 C :   -0.451390
  16 O :   -0.284630
  17 C :   -0.145715
  18 C :   -0.438472
  19 H :    0.156732
  20 H :    0.176815
  21 H :    0.147848
  22 H :    0.172002
  23 H :    0.149265
  24 H :    0.168838
  25 H :    0.165758
  26 H :    0.145546
  27 H :    0.159595
  28 H :    0.163625
  29 H :    0.187551
  30 H :    0.210138
  31 H :    0.146067
  32 H :    0.181023
  33 H :    0.146670
  34 H :    0.148103
  35 H :    0.182514
  36 H :    0.161906
  37 H :    0.152987
  38 H :    0.147104
  39 H :    0.158756
  40 H :    0.161255
Sum of atomic charges:    0.0000000

LOEWDIN ATOMIC CHARGES
----------------------
   0 C :   -0.407536
   1 C :    0.020042
   2 O :   -0.656524
   3 P :    0.378961
   4 S :   -0.136365
   5 O :   -0.681639
   6 C :    0.018856
   7 C :   -0.399810
   8 S :    0.179044
   9 C :   -0.412133
  10 S :    0.165542
  11 P :    0.381393
  12 S :   -0.067551
  13 O :   -0.706551
  14 C :    0.015362
  15 C :   -0.399388
  16 O :   -0.664048
  17 C :    0.016025
  18 C :   -0.396820
  19 H :    0.160494
  20 H :    0.165235
  21 H :    0.159208
  22 H :    0.179549
  23 H :    0.179920
  24 H :    0.179164
  25 H :    0.186171
  26 H :    0.158626
  27 H :    0.161933
  28 H :    0.162669
  29 H :    0.183508
  30 H :    0.191874
  31 H :    0.176412
  32 H :    0.183506
  33 H :    0.155509
  34 H :    0.160531
  35 H :    0.169338
  36 H :    0.177050
  37 H :    0.178844
  38 H :    0.159407
  39 H :    0.161281
  40 H :    0.162913

  Mayer bond orders larger than 0.100000
B(  0-C ,  1-C ) :   0.9210 B(  0-C , 19-H ) :   0.9687 B(  0-C , 20-H ) :   0.9633
B(  0-C , 21-H ) :   0.9586 B(  1-C ,  2-O ) :   0.8123 B(  1-C , 22-H ) :   0.9678
B(  1-C , 23-H ) :   0.9579 B(  2-O ,  3-P ) :   1.0669 B(  3-P ,  4-S ) :   1.7337
B(  3-P ,  5-O ) :   1.1636 B(  3-P ,  8-S ) :   1.0829 B(  5-O ,  6-C ) :   0.7879
B(  6-C ,  7-C ) :   0.9171 B(  6-C , 24-H ) :   0.9665 B(  6-C , 25-H ) :   0.9593
B(  7-C , 26-H ) :   0.9623 B(  7-C , 27-H ) :   0.9725 B(  7-C , 28-H ) :   0.9620
B(  8-S ,  9-C ) :   0.9141 B(  9-C , 10-S ) :   0.8959 B(  9-C , 29-H ) :   0.9159
B(  9-C , 30-H ) :   0.9113 B( 10-S , 11-P ) :   1.0176 B( 11-P , 12-S ) :   1.8689
B( 11-P , 13-O ) :   1.0501 B( 11-P , 16-O ) :   1.1137 B( 13-O , 14-C ) :   0.8030
B( 14-C , 15-C ) :   0.9273 B( 14-C , 31-H ) :   0.9615 B( 14-C , 32-H ) :   0.9587
B( 15-C , 33-H ) :   0.9720 B( 15-C , 34-H ) :   0.9620 B( 15-C , 35-H ) :   0.9601
B( 16-O , 17-C ) :   0.7532 B( 17-C , 18-C ) :   0.9580 B( 17-C , 36-H ) :   0.9672
B( 17-C , 37-H ) :   0.9579 B( 18-C , 38-H ) :   0.9667 B( 18-C , 39-H ) :   0.9722
B( 18-C , 40-H ) :   0.9598

Dispersion correction           -0.021746825
FINAL SINGLE POINT ENERGY     -2932.456539290493

DIPOLE MOMENT
-------------

Method             : SCF
Type of density    : Electron Density
Multiplicity       :   1
Irrep              :   0
Energy             : -2932.4812334663070033 Eh
Relativity type    :
Basis              : AO
                                X                 Y                 Z
Electronic contribution:      3.986717469      -0.816157928       1.074418673
Nuclear contribution   :     -4.526733571       1.657410724      -0.674446565
                        -----------------------------------------
Total Dipole Moment    :     -0.540016103       0.841252795       0.399972107
                        -----------------------------------------
Magnitude (a.u.)       :      1.076708569
Magnitude (Debye)      :      2.736775688

Rotational constants in cm-1:             0.012696             0.005098             0.004685
Rotational constants in MHz :           380.629294           152.843329           140.464693

                             ****ORCA TERMINATED NORMALLY****
TOTAL RUN TIME: 0 days 0 hours 1 minutes 23 seconds 94 msec
