                         Program Version 6.0.0  -   RELEASE  -
|  1> ! r2scan-3c def2/J RI DEFGRID2 scfconv6 printgap
|  2> %output
|  3>     printlevel normal
|  4> end
|  5> %cpcm
|  6>     smd true
|  7>     smdsolvent "water"
|  8> end
|  9> * xyz 0 1
| 10> C 4.4083073961 2.135509598 -0.0589996341
| 11> C 4.6048234793 0.6924068887 -0.4764576057
| 12> O 3.3704536027 0.0716368154 -0.8794934586
| 13> P 2.2029472722 -0.2430247843 0.1490240872
| 14> S 2.7876731487 -0.8696815761 1.9147562945
| 15> O 1.2899272206 -1.2373271424 -0.6767602383
| 16> C 1.4241314252 -2.669125181 -0.6004595899
| 17> C 2.7340096998 -3.1444706508 -1.1913779116
| 18> S 0.9823218694 1.4742988601 0.0978826778
| 19> C 0.0229557633 1.0846574548 1.585865842
| 20> S -1.0237784773 -0.3920169741 1.4180725472
| 21> P -2.0980866929 0.1025684786 -0.3439286833
| 22> S -1.3837143277 -0.2466961008 -2.1275068164
| 23> O -2.405241597 1.6346902405 -0.0005352493
| 24> C -2.6342567917 2.6102829791 -1.0350055992
| 25> C -4.010645024 2.4462379749 -1.6462196257
| 26> O -3.4500242386 -0.7081828719 -0.1739662488
| 27> C -4.2953927708 -0.6265860203 1.0001932417
| 28> C -4.1781000836 -1.8943413891 1.8222468707
| 29> H 3.8835972364 2.6852494563 -0.8365955754
| 30> H 3.8232575726 2.1816443769 0.8587230899
| 31> H 5.3765476061 2.5931748168 0.1167357654
| 32> H 5.03121528 0.1092285658 0.3462133389
| 33> H 5.2390466948 0.6096235435 -1.3600110838
| 34> H 1.3366230167 -2.9672480762 0.4499700651
| 35> H 0.5645785039 -3.038147323 -1.1632080558
| 36> H 2.7497275999 -4.2297390647 -1.2044568719
| 37> H 2.8448415606 -2.7662712175 -2.2044992066
| 38> H 3.5651031307 -2.7839529472 -0.5858312009
| 39> H -0.5969725967 1.9511772851 1.7979880124
| 40> H 0.7015893838 0.8676390701 2.4117573361
| 41> H -2.5231031116 3.5696090739 -0.527947172
| 42> H -1.8564348925 2.5001549727 -1.7970296639
| 43> H -4.7781247921 2.52652971 -0.8808390972
| 44> H -4.1664626616 3.2161437679 -2.3951402618
| 45> H -4.0842590137 1.4688904487 -2.1227629079
| 46> H -4.0156913726 0.253843163 1.5836042677
| 47> H -5.305952579 -0.5040264574 0.6067340625
| 48> H -4.8694832542 -1.8426783811 2.6572922876
| 49> H -4.4186292404 -2.758002313 1.2086456201
| 50> H -3.1653015883 -2.007249019 2.2036700152
| 51> *
| 52>
| 53>                          ****END OF INPUT****

CARTESIAN COORDINATES (ANGSTROEM)
---------------------------------
  C      4.408307    2.135510   -0.059000
  C      4.604823    0.692407   -0.476458
  O      3.370454    0.071637   -0.879493
  P      2.202947   -0.243025    0.149024
  S      2.787673   -0.869682    1.914756
  O      1.289927   -1.237327   -0.676760
  C      1.424131   -2.669125   -0.600460
  C      2.734010   -3.144471   -1.191378
  S      0.982322    1.474299    0.097883
  C      0.022956    1.084657    1.585866
  S     -1.023778   -0.392017    1.418073
  P     -2.098087    0.102568   -0.343929
  S     -1.383714   -0.246696   -2.127507
  O     -2.405242    1.634690   -0.000535
  C     -2.634257    2.610283   -1.035006
  C     -4.010645    2.446238   -1.646220
  O     -3.450024   -0.708183   -0.173966
  C     -4.295393   -0.626586    1.000193
  C     -4.178100   -1.894341    1.822247
  H      3.883597    2.685249   -0.836596
  H      3.823258    2.181644    0.858723
  H      5.376548    2.593175    0.116736
  H      5.031215    0.109229    0.346213
  H      5.239047    0.609624   -1.360011
  H      1.336623   -2.967248    0.449970
  H      0.564579   -3.038147   -1.163208
  H      2.749728   -4.229739   -1.204457
  H      2.844842   -2.766271   -2.204499
  H      3.565103   -2.783953   -0.585831
  H     -0.596973    1.951177    1.797988
  H      0.701589    0.867639    2.411757
  H     -2.523103    3.569609   -0.527947
  H     -1.856435    2.500155   -1.797030
  H     -4.778125    2.526530   -0.880839
  H     -4.166463    3.216144   -2.395140
  H     -4.084259    1.468890   -2.122763
  H     -4.015691    0.253843    1.583604
  H     -5.305953   -0.504026    0.606734
  H     -4.869483   -1.842678    2.657292
  H     -4.418629   -2.758002    1.208646
  H     -3.165302   -2.007249    2.203670

 Total Charge           Charge          ....    0
 Multiplicity           Mult            ....    1
 Number of Electrons    NEL             ....  202
 Basis Dimension        Dim             ....  539

ORBITAL ENERGIES
----------------

  NO   OCC          E(Eh)            E(eV)
   0   2.0000     -88.577778     -2410.3239
   1   2.0000     -88.576055     -2410.2770
   2   2.0000     -88.526861     -2408.9384
   3   2.0000     -88.520833     -2408.7743
   4   2.0000     -76.917022     -2093.0186
   5   2.0000     -76.916622     -2093.0077
   6   2.0000     -18.995660      -516.8982
   7   2.0000     -18.993206      -516.8314
   8   2.0000     -18.991670      -516.7896
   9   2.0000     -18.986239      -516.6418
  10   2.0000     -10.105100      -274.9738
  11   2.0000     -10.090528      -274.5772
  12   2.0000     -10.089762      -274.5564
  13   2.0000     -10.087190      -274.4864
  14   2.0000     -10.086975      -274.4805
  15   2.0000     -10.019301      -272.6390
  16   2.0000     -10.018646      -272.6212
  17   2.0000     -10.017837      -272.5992
  18   2.0000     -10.017802      -272.5983
  19   2.0000      -7.872295      -214.2160
  20   2.0000      -7.870460      -214.1661
  21   2.0000      -7.821982      -212.8469
  22   2.0000      -7.816054      -212.6856
  23   2.0000      -6.595697      -179.4780
  24   2.0000      -6.594776      -179.4530
  25   2.0000      -5.819168      -158.3476
  26   2.0000      -5.817611      -158.3052
  27   2.0000      -5.816222      -158.2675
  28   2.0000      -5.814041      -158.2081
  29   2.0000      -5.809310      -158.0793
  30   2.0000      -5.807547      -158.0314
  31   2.0000      -5.769459      -156.9950
  32   2.0000      -5.763849      -156.8423
  33   2.0000      -5.762338      -156.8012
  34   2.0000      -5.762014      -156.7924
  35   2.0000      -5.756254      -156.6356
  36   2.0000      -5.755913      -156.6264
  37   2.0000      -4.741005      -129.0093
  38   2.0000      -4.740739      -129.0021
  39   2.0000      -4.740566      -128.9974
  40   2.0000      -4.739685      -128.9734
  41   2.0000      -4.739627      -128.9718
  42   2.0000      -4.738238      -128.9340
  43   2.0000      -1.050427       -28.5836
  44   2.0000      -1.047576       -28.5060
  45   2.0000      -1.010734       -27.5035
  46   2.0000      -1.010326       -27.4924
  47   2.0000      -0.802043       -21.8247
  48   2.0000      -0.753967       -20.5165
  49   2.0000      -0.742392       -20.2015
  50   2.0000      -0.726071       -19.7574
  51   2.0000      -0.722531       -19.6611
  52   2.0000      -0.707195       -19.2438
  53   2.0000      -0.687679       -18.7127
  54   2.0000      -0.674157       -18.3447
  55   2.0000      -0.630860       -17.1666
  56   2.0000      -0.614193       -16.7130
  57   2.0000      -0.601626       -16.3711
  58   2.0000      -0.598504       -16.2861
  59   2.0000      -0.590503       -16.0684
  60   2.0000      -0.522154       -14.2085
  61   2.0000      -0.512158       -13.9365
  62   2.0000      -0.494025       -13.4431
  63   2.0000      -0.487948       -13.2777
  64   2.0000      -0.473615       -12.8877
  65   2.0000      -0.458545       -12.4777
  66   2.0000      -0.453207       -12.3324
  67   2.0000      -0.447578       -12.1792
  68   2.0000      -0.437932       -11.9167
  69   2.0000      -0.426422       -11.6035
  70   2.0000      -0.422990       -11.5102
  71   2.0000      -0.410684       -11.1753
  72   2.0000      -0.405474       -11.0335
  73   2.0000      -0.401906       -10.9364
  74   2.0000      -0.391445       -10.6517
  75   2.0000      -0.385652       -10.4941
  76   2.0000      -0.380478       -10.3533
  77   2.0000      -0.370456       -10.0806
  78   2.0000      -0.364124        -9.9083
  79   2.0000      -0.361698        -9.8423
  80   2.0000      -0.355099        -9.6627
  81   2.0000      -0.352849        -9.6015
  82   2.0000      -0.350092        -9.5265
  83   2.0000      -0.348012        -9.4699
  84   2.0000      -0.344359        -9.3705
  85   2.0000      -0.328602        -8.9417
  86   2.0000      -0.319906        -8.7051
  87   2.0000      -0.309484        -8.4215
  88   2.0000      -0.304443        -8.2843
  89   2.0000      -0.296992        -8.0816
  90   2.0000      -0.294286        -8.0079
  91   2.0000      -0.286482        -7.7956
  92   2.0000      -0.283563        -7.7161
  93   2.0000      -0.279377        -7.6022
  94   2.0000      -0.277406        -7.5486
  95   2.0000      -0.251795        -6.8517
  96   2.0000      -0.235005        -6.3948
  97   2.0000      -0.229637        -6.2488
  98   2.0000      -0.226844        -6.1727
  99   2.0000      -0.214885        -5.8473
 100   2.0000      -0.211755        -5.7622
 101   0.0000      -0.053335        -1.4513
 102   0.0000      -0.027873        -0.7585
 103   0.0000      -0.013129        -0.3573
 104   0.0000       0.002883         0.0785
 105   0.0000       0.015994         0.4352

MULLIKEN ATOMIC CHARGES
-----------------------
   0 C :   -0.489466
   1 C :   -0.150450
   2 O :   -0.330261
   3 P :    0.737377
   4 S :   -0.539505
   5 O :   -0.275195
   6 C :   -0.164475
   7 C :   -0.483481
   8 S :   -0.137945
   9 C :   -0.218448
  10 S :   -0.183515
  11 P :    0.724845
  12 S :   -0.498392
  13 O :   -0.336530
  14 C :   -0.137402
  15 C :   -0.484921
  16 O :   -0.317716
  17 C :   -0.141280
  18 C :   -0.474537
  19 H :    0.169525
  20 H :    0.173428
  21 H :    0.173028
  22 H :    0.178142
  23 H :    0.175610
  24 H :    0.175237
  25 H :    0.177774
  26 H :    0.171372
  27 H :    0.169521
  28 H :    0.167976
  29 H :    0.224515
  30 H :    0.226576
  31 H :    0.175674
  32 H :    0.176499
  33 H :    0.167050
  34 H :    0.171180
  35 H :    0.170625
  36 H :    0.176650
  37 H :    0.178642
  38 H :    0.172939
  39 H :    0.168600
  40 H :    0.160734
Sum of atomic charges:   -0.0000000

LOEWDIN ATOMIC CHARGES
----------------------
   0 C :   -0.410021
   1 C :    0.025472
   2 O :   -0.671436
   3 P :    0.382178
   4 S :   -0.163752
   5 O :   -0.698473
   6 C :    0.019988
   7 C :   -0.403086
   8 S :    0.176865
   9 C :   -0.401954
  10 S :    0.163681
  11 P :    0.385814
  12 S :   -0.119430
  13 O :   -0.704576
  14 C :    0.021669
  15 C :   -0.402239
  16 O :   -0.683949
  17 C :    0.023961
  18 C :   -0.400346
  19 H :    0.163710
  20 H :    0.161722
  21 H :    0.168525
  22 H :    0.181638
  23 H :    0.191001
  24 H :    0.181141
  25 H :    0.190349
  26 H :    0.168078
  27 H :    0.163942
  28 H :    0.162437
  29 H :    0.197539
  30 H :    0.197626
  31 H :    0.188950
  32 H :    0.181795
  33 H :    0.162690
  34 H :    0.168452
  35 H :    0.162880
  36 H :    0.183285
  37 H :    0.190125
  38 H :    0.169516
  39 H :    0.163618
  40 H :    0.160615

  Mayer bond orders larger than 0.100000
B(  0-C ,  1-C ) :   0.9089 B(  0-C , 19-H ) :   0.9657 B(  0-C , 20-H ) :   0.9637
B(  0-C , 21-H ) :   0.9532 B(  1-C ,  2-O ) :   0.8000 B(  1-C , 22-H ) :   0.9657
B(  1-C , 23-H ) :   0.9484 B(  2-O ,  3-P ) :   1.0732 B(  3-P ,  4-S ) :   1.6926
B(  3-P ,  5-O ) :   1.1669 B(  3-P ,  8-S ) :   1.1012 B(  5-O ,  6-C ) :   0.7791
B(  6-C ,  7-C ) :   0.9091 B(  6-C , 24-H ) :   0.9616 B(  6-C , 25-H ) :   0.9538
B(  7-C , 26-H ) :   0.9564 B(  7-C , 27-H ) :   0.9712 B(  7-C , 28-H ) :   0.9602
B(  8-S ,  9-C ) :   0.9107 B(  9-C , 10-S ) :   0.8878 B(  9-C , 29-H ) :   0.9051
B(  9-C , 30-H ) :   0.9078 B( 10-S , 11-P ) :   1.0337 B( 11-P , 12-S ) :   1.8234
B( 11-P , 13-O ) :   1.0684 B( 11-P , 16-O ) :   1.1208 B( 13-O , 14-C ) :   0.7878
B( 14-C , 15-C ) :   0.9201 B( 14-C , 31-H ) :   0.9517 B( 14-C , 32-H ) :   0.9579
B( 15-C , 33-H ) :   0.9674 B( 15-C , 34-H ) :   0.9575 B( 15-C , 35-H ) :   0.9629
B( 16-O , 17-C ) :   0.7433 B( 17-C , 18-C ) :   0.9462 B( 17-C , 36-H ) :   0.9592
B( 17-C , 37-H ) :   0.9478 B( 18-C , 38-H ) :   0.9607 B( 18-C , 39-H ) :   0.9695
B( 18-C , 40-H ) :   0.9605

Dispersion correction           -0.021746825
FINAL SINGLE POINT ENERGY     -2932.466191121044

DIPOLE MOMENT
-------------

Method             : SCF
Type of density    : Electron Density
Multiplicity       :   1
Irrep              :   0
Energy             : -2932.4908852968574138 Eh
Relativity type    :
Basis              : AO
                                X                 Y                 Z
Electronic contribution:      3.781955444      -0.302569407       1.510211515
Nuclear contribution   :     -4.526733571       1.657410724      -0.674446565
                        -----------------------------------------
Total Dipole Moment    :     -0.744778127       1.354841316       0.835764949
                        -----------------------------------------
Magnitude (a.u.)       :      1.757496089
Magnitude (Debye)      :      4.467200043

Rotational constants in cm-1:             0.012696             0.005098             0.004685
Rotational constants in MHz :           380.629294           152.843329           140.464693

                             ****ORCA TERMINATED NORMALLY****
TOTAL RUN TIME: 0 days 0 hours 1 minutes 55 seconds 217 msec
