                         Program Version 6.0.0  -   RELEASE  -
|  1> ! wb97x-v def2-tzvp def2/J RIJCOSX DEFGRID2 scfconv7 GCP(DFT/TZ) printgap
|  2> %output
|  3>     printlevel normal
|  4> end
|  5> * xyz 0 1
|  6> C -2.9362893635239677 -0.0002633787690157577 0.00011284730686481635
|  7> C -1.4327618765122228 -0.0064893299228474186 -0.0007262272079810046
|  8> C -0.7079236052352257 -1.1998567467682026 -0.0007951477595654021
|  9> C 0.6859205030385429 -1.2064983513179832 -0.0004392121274499057
| 10> C 1.3774803346389153 0.0016006392628440708 -9.378996250954637e-05
| 11> C 0.6784244396677895 1.2083494562688093 -0.0001560825725624876
| 12> C -0.7112125845592185 1.1937877716835081 -0.0004701184541144906
| 13> O 2.757312058382817 0.061081166526977725 -2.9208125932337257e-05
| 14> H -3.3314015886889643 0.5284697423720073 -0.8742496197131919
| 15> H -3.3335140687879163 -1.0183530383649901 -0.011335963589512252
| 16> H -3.3303479794198765 0.507773369341151 0.887237709105629
| 17> H -1.2385912925387947 -2.148088399915821 -0.0012698373721105394
| 18> H 1.2355473072518812 -2.144043815767841 -0.0007200568908472585
| 19> H 1.226308223471865 2.145350312166689 -0.00021456253105024264
| 20> H -1.248680728532749 2.1386166783552465 -0.0006152508332805743
| 21> H 3.1057156268775326 -0.8413181838761269 -0.00038112579469975306
| 22> *
| 23>
| 24>                          ****END OF INPUT****

CARTESIAN COORDINATES (ANGSTROEM)
---------------------------------
  C     -2.936289   -0.000263    0.000113
  C     -1.432762   -0.006489   -0.000726
  C     -0.707924   -1.199857   -0.000795
  C      0.685921   -1.206498   -0.000439
  C      1.377480    0.001601   -0.000094
  C      0.678424    1.208349   -0.000156
  C     -0.711213    1.193788   -0.000470
  O      2.757312    0.061081   -0.000029
  H     -3.331402    0.528470   -0.874250
  H     -3.333514   -1.018353   -0.011336
  H     -3.330348    0.507773    0.887238
  H     -1.238591   -2.148088   -0.001270
  H      1.235547   -2.144044   -0.000720
  H      1.226308    2.145350   -0.000215
  H     -1.248681    2.138617   -0.000615
  H      3.105716   -0.841318   -0.000381

 Total Charge           Charge          ....    0
 Multiplicity           Mult            ....    1
 Number of Electrons    NEL             ....   58
 Basis Dimension        Dim             ....  296

ORBITAL ENERGIES
----------------

  NO   OCC          E(Eh)            E(eV)
   0   2.0000     -21.700711      -590.5064
   1   2.0000     -12.110590      -329.5459
   2   2.0000     -12.054204      -328.0116
   3   2.0000     -12.052621      -327.9685
   4   2.0000     -12.050651      -327.9149
   5   2.0000     -12.050267      -327.9044
   6   2.0000     -12.046013      -327.7887
   7   2.0000     -12.042137      -327.6832
   8   2.0000      -1.712276       -46.5934
   9   2.0000      -1.385598       -37.7040
  10   2.0000      -1.297241       -35.2997
  11   2.0000      -1.275774       -34.7156
  12   2.0000      -1.201089       -32.6833
  13   2.0000      -1.137862       -30.9628
  14   2.0000      -1.110696       -30.2236
  15   2.0000      -1.053393       -28.6643
  16   2.0000      -1.003029       -27.2938
  17   2.0000      -0.944273       -25.6950
  18   2.0000      -0.942910       -25.6579
  19   2.0000      -0.933869       -25.4119
  20   2.0000      -0.897888       -24.4328
  21   2.0000      -0.875263       -23.8171
  22   2.0000      -0.836369       -22.7587
  23   2.0000      -0.835760       -22.7422
  24   2.0000      -0.825808       -22.4714
  25   2.0000      -0.797218       -21.6934
  26   2.0000      -0.760046       -20.6819
  27   2.0000      -0.641104       -17.4453
  28   2.0000      -0.631161       -17.1748
  29   0.0000      -0.244045        -6.6408
  30   0.0000      -0.238537        -6.4909
  31   0.0000      -0.144512        -3.9324
  32   0.0000      -0.072023        -1.9598
  33   0.0000      -0.069403        -1.8885

MULLIKEN ATOMIC CHARGES
-----------------------
   0 C :   -0.360690
   1 C :    0.145903
   2 C :   -0.208062
   3 C :   -0.188058
   4 C :    0.235172
   5 C :   -0.181676
   6 C :   -0.174194
   7 O :   -0.394335
   8 H :    0.121651
   9 H :    0.113130
  10 H :    0.121727
  11 H :    0.113548
  12 H :    0.107413
  13 H :    0.121432
  14 H :    0.116239
  15 H :    0.310801
Sum of atomic charges:   -0.0000000

LOEWDIN ATOMIC CHARGES
----------------------
   0 C :   -0.255559
   1 C :   -0.183174
   2 C :   -0.116182
   3 C :   -0.146891
   4 C :   -0.261978
   5 C :   -0.119786
   6 C :   -0.107840
   7 O :    0.057357
   8 H :    0.125654
   9 H :    0.123312
  10 H :    0.125698
  11 H :    0.143584
  12 H :    0.139247
  13 H :    0.147520
  14 H :    0.145353
  15 H :    0.183685

  Mayer bond orders larger than 0.100000
B(  0-C ,  1-C ) :   0.9113 B(  0-C ,  8-H ) :   0.9773 B(  0-C ,  9-H ) :   0.9969
B(  0-C , 10-H ) :   0.9763 B(  1-C ,  2-C ) :   1.4337 B(  1-C ,  6-C ) :   1.3660
B(  2-C ,  3-C ) :   1.4211 B(  2-C , 11-H ) :   0.9568 B(  3-C ,  4-C ) :   1.3785
B(  3-C , 12-H ) :   0.9607 B(  4-C ,  5-C ) :   1.4015 B(  4-C ,  7-O ) :   1.1358
B(  5-C ,  6-C ) :   1.4609 B(  5-C , 13-H ) :   0.9760 B(  6-C , 14-H ) :   0.9788
B(  7-O , 15-H ) :   0.8923

FINAL SINGLE POINT ENERGY      -346.803084821363

DIPOLE MOMENT
-------------

Method             : SCF
Type of density    : Electron Density
Multiplicity       :   1
Irrep              :   0
Energy             :  -346.8119104223628142 Eh
Relativity type    :
Basis              : AO
                                X                 Y                 Z
Electronic contribution:      6.297399895       0.278125577      -0.000742289
Nuclear contribution   :     -6.485210455      -0.781117218       0.000832390
                        -----------------------------------------
Total Dipole Moment    :     -0.187810560      -0.502991641       0.000090102
                        -----------------------------------------
Magnitude (a.u.)       :      0.536910985
Magnitude (Debye)      :      1.364719267

Rotational constants in cm-1:             0.183457             0.048590             0.038691
Rotational constants in MHz :          5499.891494          1456.683493          1159.927204

                             ****ORCA TERMINATED NORMALLY****
TOTAL RUN TIME: 0 days 0 hours 2 minutes 22 seconds 826 msec
