                         Program Version 6.0.0  -   RELEASE  -
|  1> ! wb97x-v def2-tzvp def2/J RIJCOSX DEFGRID2 scfconv7 GCP(DFT/TZ) printgap
|  2> %output
|  3>     printlevel normal
|  4> end
|  5> %cpcm
|  6>     smd true
|  7>     smdsolvent "water"
|  8> end
|  9> * xyz 0 1
| 10> C -2.9362893635239677 -0.0002633787690157577 0.00011284730686481635
| 11> C -1.4327618765122228 -0.0064893299228474186 -0.0007262272079810046
| 12> C -0.7079236052352257 -1.1998567467682026 -0.0007951477595654021
| 13> C 0.6859205030385429 -1.2064983513179832 -0.0004392121274499057
| 14> C 1.3774803346389153 0.0016006392628440708 -9.378996250954637e-05
| 15> C 0.6784244396677895 1.2083494562688093 -0.0001560825725624876
| 16> C -0.7112125845592185 1.1937877716835081 -0.0004701184541144906
| 17> O 2.757312058382817 0.061081166526977725 -2.9208125932337257e-05
| 18> H -3.3314015886889643 0.5284697423720073 -0.8742496197131919
| 19> H -3.3335140687879163 -1.0183530383649901 -0.011335963589512252
| 20> H -3.3303479794198765 0.507773369341151 0.887237709105629
| 21> H -1.2385912925387947 -2.148088399915821 -0.0012698373721105394
| 22> H 1.2355473072518812 -2.144043815767841 -0.0007200568908472585
| 23> H 1.226308223471865 2.145350312166689 -0.00021456253105024264
| 24> H -1.248680728532749 2.1386166783552465 -0.0006152508332805743
| 25> H 3.1057156268775326 -0.8413181838761269 -0.00038112579469975306
| 26> *
| 27>
| 28>                          ****END OF INPUT****

CARTESIAN COORDINATES (ANGSTROEM)
---------------------------------
  C     -2.936289   -0.000263    0.000113
  C     -1.432762   -0.006489   -0.000726
  C     -0.707924   -1.199857   -0.000795
  C      0.685921   -1.206498   -0.000439
  C      1.377480    0.001601   -0.000094
  C      0.678424    1.208349   -0.000156
  C     -0.711213    1.193788   -0.000470
  O      2.757312    0.061081   -0.000029
  H     -3.331402    0.528470   -0.874250
  H     -3.333514   -1.018353   -0.011336
  H     -3.330348    0.507773    0.887238
  H     -1.238591   -2.148088   -0.001270
  H      1.235547   -2.144044   -0.000720
  H      1.226308    2.145350   -0.000215
  H     -1.248681    2.138617   -0.000615
  H      3.105716   -0.841318   -0.000381

 Total Charge           Charge          ....    0
 Multiplicity           Mult            ....    1
 Number of Electrons    NEL             ....   58
 Basis Dimension        Dim             ....  296

ORBITAL ENERGIES
----------------

  NO   OCC          E(Eh)            E(eV)
   0   2.0000     -21.699221      -590.4658
   1   2.0000     -12.109672      -329.5209
   2   2.0000     -12.052106      -327.9545
   3   2.0000     -12.048880      -327.8667
   4   2.0000     -12.047949      -327.8414
   5   2.0000     -12.045901      -327.7856
   6   2.0000     -12.045072      -327.7631
   7   2.0000     -12.032530      -327.4218
   8   2.0000      -1.711217       -46.5646
   9   2.0000      -1.384750       -37.6810
  10   2.0000      -1.294997       -35.2387
  11   2.0000      -1.273909       -34.6648
  12   2.0000      -1.196247       -32.5515
  13   2.0000      -1.134666       -30.8758
  14   2.0000      -1.108438       -30.1621
  15   2.0000      -1.050847       -28.5950
  16   2.0000      -1.004049       -27.3216
  17   2.0000      -0.945849       -25.7379
  18   2.0000      -0.941915       -25.6308
  19   2.0000      -0.928743       -25.2724
  20   2.0000      -0.893000       -24.2998
  21   2.0000      -0.870870       -23.6976
  22   2.0000      -0.830737       -22.6055
  23   2.0000      -0.828900       -22.5555
  24   2.0000      -0.818087       -22.2613
  25   2.0000      -0.790941       -21.5226
  26   2.0000      -0.759698       -20.6724
  27   2.0000      -0.640831       -17.4379
  28   2.0000      -0.631321       -17.1791
  29   0.0000      -0.243749        -6.6328
  30   0.0000      -0.238035        -6.4773
  31   0.0000      -0.142082        -3.8662
  32   0.0000      -0.070641        -1.9222
  33   0.0000      -0.042870        -1.1666

MULLIKEN ATOMIC CHARGES
-----------------------
   0 C :   -0.389495
   1 C :    0.115178
   2 C :   -0.234307
   3 C :   -0.239530
   4 C :    0.247513
   5 C :   -0.233483
   6 C :   -0.222802
   7 O :   -0.475899
   8 H :    0.138037
   9 H :    0.139431
  10 H :    0.137939
  11 H :    0.159867
  12 H :    0.168535
  13 H :    0.154676
  14 H :    0.157322
  15 H :    0.377019
Sum of atomic charges:    0.0000000

LOEWDIN ATOMIC CHARGES
----------------------
   0 C :   -0.257891
   1 C :   -0.191971
   2 C :   -0.123555
   3 C :   -0.143667
   4 C :   -0.275138
   5 C :   -0.136862
   6 C :   -0.117383
   7 O :    0.030328
   8 H :    0.129905
   9 H :    0.128925
  10 H :    0.129924
  11 H :    0.153996
  12 H :    0.155752
  13 H :    0.153767
  14 H :    0.154857
  15 H :    0.209012

  Mayer bond orders larger than 0.100000
B(  0-C ,  1-C ) :   0.9232 B(  0-C ,  8-H ) :   0.9717 B(  0-C ,  9-H ) :   0.9928
B(  0-C , 10-H ) :   0.9708 B(  1-C ,  2-C ) :   1.4013 B(  1-C ,  6-C ) :   1.3489
B(  2-C ,  3-C ) :   1.3771 B(  2-C , 11-H ) :   0.9640 B(  3-C ,  4-C ) :   1.3795
B(  3-C , 12-H ) :   0.9708 B(  4-C ,  5-C ) :   1.3729 B(  4-C ,  7-O ) :   1.0914
B(  5-C ,  6-C ) :   1.4525 B(  5-C , 13-H ) :   0.9826 B(  6-C , 14-H ) :   0.9831
B(  7-O , 15-H ) :   0.8508

FINAL SINGLE POINT ENERGY      -346.812084178884

DIPOLE MOMENT
-------------

Method             : SCF
Type of density    : Electron Density
Multiplicity       :   1
Irrep              :   0
Energy             :  -346.8209097798844596 Eh
Relativity type    :
Basis              : AO
                                X                 Y                 Z
Electronic contribution:      6.210576440       0.024814561      -0.000788180
Nuclear contribution   :     -6.485210455      -0.781117218       0.000832390
                        -----------------------------------------
Total Dipole Moment    :     -0.274634015      -0.756302656       0.000044210
                        -----------------------------------------
Magnitude (a.u.)       :      0.804622615
Magnitude (Debye)      :      2.045188153

Rotational constants in cm-1:             0.183457             0.048590             0.038691
Rotational constants in MHz :          5499.891494          1456.683493          1159.927204

                             ****ORCA TERMINATED NORMALLY****
TOTAL RUN TIME: 0 days 0 hours 2 minutes 27 seconds 978 msec
