                         Program Version 6.0.0  -   RELEASE  -
|  1> ! pbe def2-sv(p) def2/J RI DEFGRID1 loosescf d4 GCP(DFT/SV(P)) printgap
|  2> %output
|  3>     printlevel normal
|  4> end
|  5> * xyz 0 1
|  6> C 3.1593127669 2.4185513074 2.2498204583
|  7> C 1.776409858 1.821135754 2.1004469007
|  8> O 1.6001587272 1.2026982628 0.8069445085
|  9> P 2.3511953118 -0.1335456757 0.404222332
| 10> S 2.6988254625 -1.3975507386 1.8661607039
| 11> O 3.6396932786 0.4265262982 -0.3357136586
| 12> C 4.7877590257 -0.3952181931 -0.6093406907
| 13> C 4.4874702533 -1.4764159435 -1.6272803047
| 14> S 1.0857307957 -0.7930879527 -1.1593586534
| 15> C -0.0595149275 -1.7114789258 -0.0946370697
| 16> S -1.1429143512 -0.6296222853 0.8627597271
| 17> P -2.3750784993 -0.0071701269 -0.7701795691
| 18> S -2.6355508426 -1.3554063194 -2.1640020699
| 19> O -1.788689109 1.3217077224 -1.3681373228
| 20> C -1.2015467359 2.4467090077 -0.6676122378
| 21> C -2.0196987532 2.9067823758 0.5190595288
| 22> O -3.7073645454 0.4719864645 -0.0528997765
| 23> C -4.6440242426 -0.4815269111 0.4878378289
| 24> C -5.9795138809 0.2161127176 0.6481846258
| 25> H 3.217779236 2.9612714996 3.1880208529
| 26> H 3.9068058092 1.6261673155 2.2526759948
| 27> H 3.3680635013 3.0947308727 1.424956476
| 28> H 0.9977455019 2.5840172562 2.1355136287
| 29> H 1.5915363958 1.0663842371 2.8711763005
| 30> H 5.5332954454 0.3102975126 -0.9782839361
| 31> H 5.1266632331 -0.8397336908 0.3319857187
| 32> H 3.7836657589 -2.196183454 -1.2104247711
| 33> H 4.0514224119 -1.0425543566 -2.5238935256
| 34> H 5.4060239084 -1.9932590952 -1.8861618665
| 35> H 0.5068079838 -2.3094110405 0.6197556129
| 36> H -0.6655939223 -2.3358890306 -0.752052969
| 37> H -0.1911609566 2.1598270773 -0.3650201943
| 38> H -1.1463568789 3.2145426897 -1.4411473004
| 39> H -2.0318355006 2.1404144512 1.2922393098
| 40> H -1.5767859916 3.8122893891 0.9231685001
| 41> H -3.0417109929 3.113788921 0.2125981804
| 42> H -4.7157628526 -1.3303572688 -0.2006704914
| 43> H -4.2563416968 -0.831386268 1.4482933633
| 44> H -6.3328232017 0.5693941924 -0.316489226
| 45> H -6.6994383418 -0.4845536077 1.058043767
| 46> H -5.8791943119 1.0635503118 1.3197623785
| 47> *
| 48>
| 49>                          ****END OF INPUT****

CARTESIAN COORDINATES (ANGSTROEM)
---------------------------------
  C      3.159313    2.418551    2.249820
  C      1.776410    1.821136    2.100447
  O      1.600159    1.202698    0.806945
  P      2.351195   -0.133546    0.404222
  S      2.698825   -1.397551    1.866161
  O      3.639693    0.426526   -0.335714
  C      4.787759   -0.395218   -0.609341
  C      4.487470   -1.476416   -1.627280
  S      1.085731   -0.793088   -1.159359
  C     -0.059515   -1.711479   -0.094637
  S     -1.142914   -0.629622    0.862760
  P     -2.375078   -0.007170   -0.770180
  S     -2.635551   -1.355406   -2.164002
  O     -1.788689    1.321708   -1.368137
  C     -1.201547    2.446709   -0.667612
  C     -2.019699    2.906782    0.519060
  O     -3.707365    0.471986   -0.052900
  C     -4.644024   -0.481527    0.487838
  C     -5.979514    0.216113    0.648185
  H      3.217779    2.961271    3.188021
  H      3.906806    1.626167    2.252676
  H      3.368064    3.094731    1.424956
  H      0.997746    2.584017    2.135514
  H      1.591536    1.066384    2.871176
  H      5.533295    0.310298   -0.978284
  H      5.126663   -0.839734    0.331986
  H      3.783666   -2.196183   -1.210425
  H      4.051422   -1.042554   -2.523894
  H      5.406024   -1.993259   -1.886162
  H      0.506808   -2.309411    0.619756
  H     -0.665594   -2.335889   -0.752053
  H     -0.191161    2.159827   -0.365020
  H     -1.146357    3.214543   -1.441147
  H     -2.031836    2.140414    1.292239
  H     -1.576786    3.812289    0.923169
  H     -3.041711    3.113789    0.212598
  H     -4.715763   -1.330357   -0.200670
  H     -4.256342   -0.831386    1.448293
  H     -6.332823    0.569394   -0.316489
  H     -6.699438   -0.484554    1.058044
  H     -5.879194    1.063550    1.319762

 Total Charge           Charge          ....    0
 Multiplicity           Mult            ....    1
 Number of Electrons    NEL             ....  202
 Basis Dimension        Dim             ....  334

ORBITAL ENERGIES
----------------

  NO   OCC          E(Eh)            E(eV)
   0   2.0000     -88.043736     -2395.7919
   1   2.0000     -88.040997     -2395.7173
   2   2.0000     -87.995112     -2394.4687
   3   2.0000     -87.980288     -2394.0654
   4   2.0000     -76.431194     -2079.7985
   5   2.0000     -76.424299     -2079.6109
   6   2.0000     -18.799194      -511.5521
   7   2.0000     -18.797089      -511.4948
   8   2.0000     -18.793466      -511.3962
   9   2.0000     -18.789502      -511.2883
  10   2.0000      -9.957407      -270.9548
  11   2.0000      -9.957004      -270.9439
  12   2.0000      -9.952095      -270.8103
  13   2.0000      -9.951801      -270.8023
  14   2.0000      -9.950755      -270.7738
  15   2.0000      -9.889503      -269.1071
  16   2.0000      -9.888643      -269.0837
  17   2.0000      -9.888333      -269.0752
  18   2.0000      -9.886450      -269.0240
  19   2.0000      -7.688723      -209.2208
  20   2.0000      -7.685824      -209.1419
  21   2.0000      -7.639968      -207.8941
  22   2.0000      -7.625666      -207.5049
  23   2.0000      -6.428943      -174.9404
  24   2.0000      -6.421690      -174.7431
  25   2.0000      -5.716507      -155.5541
  26   2.0000      -5.713504      -155.4724
  27   2.0000      -5.713444      -155.4707
  28   2.0000      -5.710393      -155.3877
  29   2.0000      -5.705591      -155.2570
  30   2.0000      -5.703013      -155.1869
  31   2.0000      -5.668680      -154.2526
  32   2.0000      -5.660658      -154.0343
  33   2.0000      -5.660299      -154.0246
  34   2.0000      -5.654612      -153.8698
  35   2.0000      -5.646189      -153.6406
  36   2.0000      -5.645822      -153.6306
  37   2.0000      -4.651393      -126.5708
  38   2.0000      -4.650658      -126.5508
  39   2.0000      -4.649497      -126.5193
  40   2.0000      -4.644458      -126.3821
  41   2.0000      -4.643605      -126.3589
  42   2.0000      -4.641843      -126.3110
  43   2.0000      -0.993251       -27.0277
  44   2.0000      -0.986057       -26.8320
  45   2.0000      -0.952631       -25.9224
  46   2.0000      -0.944464       -25.7002
  47   2.0000      -0.764634       -20.8067
  48   2.0000      -0.723338       -19.6830
  49   2.0000      -0.712018       -19.3750
  50   2.0000      -0.692496       -18.8438
  51   2.0000      -0.691708       -18.8223
  52   2.0000      -0.677360       -18.4319
  53   2.0000      -0.652084       -17.7441
  54   2.0000      -0.637397       -17.3444
  55   2.0000      -0.605935       -16.4883
  56   2.0000      -0.594452       -16.1758
  57   2.0000      -0.577495       -15.7145
  58   2.0000      -0.568056       -15.4576
  59   2.0000      -0.562691       -15.3116
  60   2.0000      -0.504957       -13.7406
  61   2.0000      -0.496701       -13.5159
  62   2.0000      -0.478864       -13.0306
  63   2.0000      -0.473478       -12.8840
  64   2.0000      -0.461554       -12.5595
  65   2.0000      -0.447866       -12.1870
  66   2.0000      -0.444116       -12.0850
  67   2.0000      -0.436027       -11.8649
  68   2.0000      -0.431864       -11.7516
  69   2.0000      -0.418943       -11.4000
  70   2.0000      -0.410123       -11.1600
  71   2.0000      -0.401864       -10.9353
  72   2.0000      -0.397606       -10.8194
  73   2.0000      -0.390313       -10.6210
  74   2.0000      -0.378546       -10.3008
  75   2.0000      -0.375257       -10.2113
  76   2.0000      -0.368001       -10.0138
  77   2.0000      -0.361795        -9.8450
  78   2.0000      -0.358910        -9.7664
  79   2.0000      -0.353174        -9.6103
  80   2.0000      -0.351940        -9.5768
  81   2.0000      -0.350602        -9.5404
  82   2.0000      -0.345904        -9.4125
  83   2.0000      -0.342104        -9.3091
  84   2.0000      -0.336331        -9.1520
  85   2.0000      -0.322126        -8.7655
  86   2.0000      -0.312429        -8.5016
  87   2.0000      -0.300050        -8.1648
  88   2.0000      -0.298492        -8.1224
  89   2.0000      -0.289840        -7.8870
  90   2.0000      -0.289293        -7.8721
  91   2.0000      -0.280313        -7.6277
  92   2.0000      -0.271547        -7.3892
  93   2.0000      -0.267285        -7.2732
  94   2.0000      -0.258905        -7.0452
  95   2.0000      -0.236180        -6.4268
  96   2.0000      -0.219429        -5.9710
  97   2.0000      -0.216475        -5.8906
  98   2.0000      -0.207970        -5.6591
  99   2.0000      -0.199857        -5.4384
 100   2.0000      -0.196944        -5.3591
 101   0.0000      -0.044835        -1.2200
 102   0.0000      -0.025665        -0.6984
 103   0.0000      -0.001561        -0.0425
 104   0.0000       0.002070         0.0563
 105   0.0000       0.012829         0.3491

MULLIKEN ATOMIC CHARGES
-----------------------
   0 C :   -0.305425
   1 C :   -0.005396
   2 O :   -0.359215
   3 P :    0.611766
   4 S :   -0.334453
   5 O :   -0.370509
   6 C :   -0.006636
   7 C :   -0.316717
   8 S :   -0.057931
   9 C :   -0.373952
  10 S :   -0.108984
  11 P :    0.604049
  12 S :   -0.319773
  13 O :   -0.354875
  14 C :   -0.022018
  15 C :   -0.320979
  16 O :   -0.379073
  17 C :   -0.010453
  18 C :   -0.281061
  19 H :    0.113790
  20 H :    0.123241
  21 H :    0.117282
  22 H :    0.103310
  23 H :    0.115400
  24 H :    0.107526
  25 H :    0.112098
  26 H :    0.128409
  27 H :    0.122242
  28 H :    0.115161
  29 H :    0.191906
  30 H :    0.197456
  31 H :    0.142193
  32 H :    0.106946
  33 H :    0.119580
  34 H :    0.112877
  35 H :    0.124568
  36 H :    0.107013
  37 H :    0.101683
  38 H :    0.122004
  39 H :    0.112686
  40 H :    0.114265
Sum of atomic charges:    0.0000000

LOEWDIN ATOMIC CHARGES
----------------------
   0 C :   -0.363758
   1 C :   -0.117262
   2 O :   -0.236207
   3 P :    0.575304
   4 S :   -0.320250
   5 O :   -0.242150
   6 C :   -0.118750
   7 C :   -0.369319
   8 S :    0.102789
   9 C :   -0.489734
  10 S :    0.061501
  11 P :    0.570560
  12 S :   -0.314543
  13 O :   -0.229797
  14 C :   -0.115311
  15 C :   -0.368955
  16 O :   -0.245616
  17 C :   -0.121444
  18 C :   -0.350383
  19 H :    0.131246
  20 H :    0.123262
  21 H :    0.126848
  22 H :    0.115651
  23 H :    0.112209
  24 H :    0.119845
  25 H :    0.111015
  26 H :    0.122056
  27 H :    0.126297
  28 H :    0.132253
  29 H :    0.127674
  30 H :    0.129049
  31 H :    0.115470
  32 H :    0.122169
  33 H :    0.116289
  34 H :    0.129161
  35 H :    0.128214
  36 H :    0.109404
  37 H :    0.108842
  38 H :    0.129751
  39 H :    0.131309
  40 H :    0.125311

  Mayer bond orders larger than 0.100000
B(  0-C ,  1-C ) :   1.1641 B(  0-C , 19-H ) :   0.9390 B(  0-C , 20-H ) :   0.9369
B(  0-C , 21-H ) :   0.9460 B(  1-C ,  2-O ) :   0.8984 B(  1-C , 22-H ) :   0.9315
B(  1-C , 23-H ) :   0.9164 B(  2-O ,  3-P ) :   1.1107 B(  3-P ,  4-S ) :   1.5860
B(  3-P ,  5-O ) :   1.1144 B(  3-P ,  8-S ) :   0.9672 B(  4-S ,  8-S ) :   0.1100
B(  5-O ,  6-C ) :   0.9050 B(  6-C ,  7-C ) :   1.1663 B(  6-C , 24-H ) :   0.9335
B(  6-C , 25-H ) :   0.9171 B(  7-C , 26-H ) :   0.9349 B(  7-C , 27-H ) :   0.9442
B(  7-C , 28-H ) :   0.9375 B(  8-S ,  9-C ) :   1.0026 B(  9-C , 10-S ) :   1.0078
B(  9-C , 29-H ) :   0.8719 B(  9-C , 30-H ) :   0.8656 B( 10-S , 11-P ) :   0.9347
B( 10-S , 12-S ) :   0.1096 B( 11-P , 12-S ) :   1.6343 B( 11-P , 13-O ) :   1.1622
B( 11-P , 16-O ) :   1.0890 B( 13-O , 14-C ) :   0.8898 B( 14-C , 15-C ) :   1.1716
B( 14-C , 31-H ) :   0.9033 B( 14-C , 32-H ) :   0.9331 B( 15-C , 33-H ) :   0.9377
B( 15-C , 34-H ) :   0.9337 B( 15-C , 35-H ) :   0.9404 B( 16-O , 17-C ) :   0.9026
B( 17-C , 18-C ) :   1.1603 B( 17-C , 36-H ) :   0.9071 B( 17-C , 37-H ) :   0.9287
B( 18-C , 38-H ) :   0.9506 B( 18-C , 39-H ) :   0.9418 B( 18-C , 40-H ) :   0.9515

Dispersion correction           -0.065139675
FINAL SINGLE POINT ENERGY     -2929.524056331960

DIPOLE MOMENT
-------------

Method             : SCF
Type of density    : Electron Density
Multiplicity       :   1
Irrep              :   0
Energy             : -2929.6445635169957313 Eh
Relativity type    :
Basis              : AO
                                X                 Y                 Z
Electronic contribution:     -0.491538092     -12.529355335      -8.245284416
Nuclear contribution   :      0.911263466      13.763204689       9.152735918
                        -----------------------------------------
Total Dipole Moment    :      0.419725374       1.233849354       0.907451502
                        -----------------------------------------
Magnitude (a.u.)       :      1.588087481
Magnitude (Debye)      :      4.036597582

Rotational constants in cm-1:             0.013646             0.004641             0.004181
Rotational constants in MHz :           409.088956           139.129769           125.339017

                             ****ORCA TERMINATED NORMALLY****
TOTAL RUN TIME: 0 days 0 hours 0 minutes 21 seconds 179 msec
