                         Program Version 6.0.0  -   RELEASE  -
|  1> ! pbe def2-sv(p) def2/J RI DEFGRID1 loosescf d4 GCP(DFT/SV(P)) printgap
|  2> %output
|  3>     printlevel normal
|  4> end
|  5> * xyz 0 1
|  6> C 1.9206477054 -0.3907183688 -3.192074551
|  7> C 1.8819606127 -1.3658292765 -2.0331463284
|  8> O 1.2661469316 -0.7749204016 -0.8670152489
|  9> P 2.0406300674 0.1305628429 0.1750199953
| 10> S 2.8254724552 1.8358366448 -0.3817148041
| 11> O 3.1249259195 -0.9235328683 0.6994328857
| 12> C 4.2960693672 -0.5157025851 1.4213143184
| 13> C 3.9622121879 -0.0822656316 2.8345899532
| 14> S 0.5798504913 0.2538666681 1.6932882001
| 15> C -0.0414251167 -1.4477872588 1.6989707321
| 16> S -1.1644644395 -1.8632537844 0.3192804135
| 17> P -2.0235976853 0.0212948026 -0.1178763001
| 18> S -1.0149644698 1.3570801793 -1.1657070376
| 19> O -2.5057648122 0.4074957232 1.3408918848
| 20> C -3.6119486303 1.2859996672 1.6428357988
| 21> C -3.36240951 2.7082800721 1.1866880128
| 22> O -3.3922978145 -0.373578126 -0.8267036695
| 23> C -3.4943830475 -0.526860865 -2.2518692277
| 24> C -2.7045263989 -1.72270536 -2.7417141663
| 25> H 2.5868956014 0.4401570089 -2.9680700513
| 26> H 2.272071246 -0.9018802698 -4.0824523189
| 27> H 0.9268753176 0.0129113013 -3.3732234475
| 28> H 2.8841015302 -1.7101346455 -1.7675856592
| 29> H 1.2418590323 -2.2233576197 -2.2526122227
| 30> H 4.9376475077 -1.3978720628 1.4088593365
| 31> H 4.7723837998 0.303062443 0.8722351417
| 32> H 3.4321149552 -0.8713469654 3.3611532674
| 33> H 4.8798953801 0.1515759692 3.3643243476
| 34> H 3.3334664228 0.8074024272 2.8077309957
| 35> H -0.5869655324 -1.5520785259 2.6339140132
| 36> H 0.7910967565 -2.1461695092 1.6424734884
| 37> H -4.5114813842 0.8767135814 1.1780302189
| 38> H -3.6895592364 1.2241835715 2.7296007086
| 39> H -4.1790994249 3.3420833758 1.517608997
| 40> H -2.4273226107 3.0789898172 1.6010937484
| 41> H -3.2960530278 2.7513457864 0.1004455811
| 42> H -4.5640356197 -0.6432313387 -2.4297077078
| 43> H -3.1329292937 0.3924549279 -2.7246983704
| 44> H -2.8621088107 -1.8513782176 -3.8075612176
| 45> H -1.6431107969 -1.5550914103 -2.5571742643
| 46> H -3.0116211054 -2.6222813965 -2.2146011913
| 47> *
| 48>
| 49>                          ****END OF INPUT****

CARTESIAN COORDINATES (ANGSTROEM)
---------------------------------
  C      1.920648   -0.390718   -3.192075
  C      1.881961   -1.365829   -2.033146
  O      1.266147   -0.774920   -0.867015
  P      2.040630    0.130563    0.175020
  S      2.825472    1.835837   -0.381715
  O      3.124926   -0.923533    0.699433
  C      4.296069   -0.515703    1.421314
  C      3.962212   -0.082266    2.834590
  S      0.579850    0.253867    1.693288
  C     -0.041425   -1.447787    1.698971
  S     -1.164464   -1.863254    0.319280
  P     -2.023598    0.021295   -0.117876
  S     -1.014964    1.357080   -1.165707
  O     -2.505765    0.407496    1.340892
  C     -3.611949    1.286000    1.642836
  C     -3.362410    2.708280    1.186688
  O     -3.392298   -0.373578   -0.826704
  C     -3.494383   -0.526861   -2.251869
  C     -2.704526   -1.722705   -2.741714
  H      2.586896    0.440157   -2.968070
  H      2.272071   -0.901880   -4.082452
  H      0.926875    0.012911   -3.373223
  H      2.884102   -1.710135   -1.767586
  H      1.241859   -2.223358   -2.252612
  H      4.937648   -1.397872    1.408859
  H      4.772384    0.303062    0.872235
  H      3.432115   -0.871347    3.361153
  H      4.879895    0.151576    3.364324
  H      3.333466    0.807402    2.807731
  H     -0.586966   -1.552079    2.633914
  H      0.791097   -2.146170    1.642473
  H     -4.511481    0.876714    1.178030
  H     -3.689559    1.224184    2.729601
  H     -4.179099    3.342083    1.517609
  H     -2.427323    3.078990    1.601094
  H     -3.296053    2.751346    0.100446
  H     -4.564036   -0.643231   -2.429708
  H     -3.132929    0.392455   -2.724698
  H     -2.862109   -1.851378   -3.807561
  H     -1.643111   -1.555091   -2.557174
  H     -3.011621   -2.622281   -2.214601

 Total Charge           Charge          ....    0
 Multiplicity           Mult            ....    1
 Number of Electrons    NEL             ....  202
 Basis Dimension        Dim             ....  334

ORBITAL ENERGIES
----------------

  NO   OCC          E(Eh)            E(eV)
   0   2.0000     -88.042053     -2395.7461
   1   2.0000     -88.034224     -2395.5330
   2   2.0000     -87.980602     -2394.0739
   3   2.0000     -87.975991     -2393.9484
   4   2.0000     -76.423571     -2079.5911
   5   2.0000     -76.421646     -2079.5387
   6   2.0000     -18.791661      -511.3471
   7   2.0000     -18.787681      -511.2388
   8   2.0000     -18.786657      -511.2109
   9   2.0000     -18.783321      -511.1202
  10   2.0000      -9.958809      -270.9930
  11   2.0000      -9.953335      -270.8440
  12   2.0000      -9.950786      -270.7746
  13   2.0000      -9.948989      -270.7257
  14   2.0000      -9.947106      -270.6745
  15   2.0000      -9.885884      -269.0086
  16   2.0000      -9.881311      -268.8841
  17   2.0000      -9.877933      -268.7922
  18   2.0000      -9.872152      -268.6349
  19   2.0000      -7.686770      -209.1676
  20   2.0000      -7.679408      -208.9673
  21   2.0000      -7.625764      -207.5076
  22   2.0000      -7.620642      -207.3682
  23   2.0000      -6.420309      -174.7055
  24   2.0000      -6.418825      -174.6651
  25   2.0000      -5.715116      -155.5162
  26   2.0000      -5.711045      -155.4054
  27   2.0000      -5.707658      -155.3133
  28   2.0000      -5.704100      -155.2165
  29   2.0000      -5.703477      -155.1995
  30   2.0000      -5.695783      -154.9901
  31   2.0000      -5.654709      -153.8725
  32   2.0000      -5.649649      -153.7348
  33   2.0000      -5.646551      -153.6505
  34   2.0000      -5.645729      -153.6281
  35   2.0000      -5.641083      -153.5017
  36   2.0000      -5.640944      -153.4979
  37   2.0000      -4.643532      -126.3569
  38   2.0000      -4.641997      -126.3152
  39   2.0000      -4.641481      -126.3011
  40   2.0000      -4.640720      -126.2804
  41   2.0000      -4.640360      -126.2706
  42   2.0000      -4.639167      -126.2382
  43   2.0000      -0.984992       -26.8030
  44   2.0000      -0.981890       -26.7186
  45   2.0000      -0.942367       -25.6431
  46   2.0000      -0.937902       -25.5216
  47   2.0000      -0.761115       -20.7110
  48   2.0000      -0.716592       -19.4994
  49   2.0000      -0.703797       -19.1513
  50   2.0000      -0.686835       -18.6897
  51   2.0000      -0.681460       -18.5435
  52   2.0000      -0.669222       -18.2105
  53   2.0000      -0.651103       -17.7174
  54   2.0000      -0.632707       -17.2168
  55   2.0000      -0.591718       -16.1015
  56   2.0000      -0.585558       -15.9339
  57   2.0000      -0.576418       -15.6851
  58   2.0000      -0.570862       -15.5340
  59   2.0000      -0.561049       -15.2669
  60   2.0000      -0.495952       -13.4955
  61   2.0000      -0.494504       -13.4562
  62   2.0000      -0.468838       -12.7577
  63   2.0000      -0.464490       -12.6394
  64   2.0000      -0.459194       -12.4953
  65   2.0000      -0.441945       -12.0259
  66   2.0000      -0.433526       -11.7968
  67   2.0000      -0.429082       -11.6759
  68   2.0000      -0.420562       -11.4441
  69   2.0000      -0.416633       -11.3372
  70   2.0000      -0.413559       -11.2535
  71   2.0000      -0.404340       -11.0026
  72   2.0000      -0.393607       -10.7106
  73   2.0000      -0.384629       -10.4663
  74   2.0000      -0.376477       -10.2445
  75   2.0000      -0.366165        -9.9638
  76   2.0000      -0.362108        -9.8535
  77   2.0000      -0.357093        -9.7170
  78   2.0000      -0.349585        -9.5127
  79   2.0000      -0.345601        -9.4043
  80   2.0000      -0.341616        -9.2959
  81   2.0000      -0.340031        -9.2527
  82   2.0000      -0.337539        -9.1849
  83   2.0000      -0.333661        -9.0794
  84   2.0000      -0.329547        -8.9674
  85   2.0000      -0.318154        -8.6574
  86   2.0000      -0.308605        -8.3976
  87   2.0000      -0.295067        -8.0292
  88   2.0000      -0.291800        -7.9403
  89   2.0000      -0.288393        -7.8476
  90   2.0000      -0.283956        -7.7268
  91   2.0000      -0.273095        -7.4313
  92   2.0000      -0.270066        -7.3489
  93   2.0000      -0.259089        -7.0502
  94   2.0000      -0.256391        -6.9768
  95   2.0000      -0.227347        -6.1864
  96   2.0000      -0.214558        -5.8384
  97   2.0000      -0.201743        -5.4897
  98   2.0000      -0.194768        -5.2999
  99   2.0000      -0.186107        -5.0642
 100   2.0000      -0.183064        -4.9814
 101   0.0000      -0.050576        -1.3763
 102   0.0000      -0.022521        -0.6128
 103   0.0000      -0.012885        -0.3506
 104   0.0000      -0.002880        -0.0784
 105   0.0000       0.017318         0.4712

MULLIKEN ATOMIC CHARGES
-----------------------
   0 C :   -0.306609
   1 C :   -0.004652
   2 O :   -0.366158
   3 P :    0.637358
   4 S :   -0.310211
   5 O :   -0.386667
   6 C :   -0.007265
   7 C :   -0.305306
   8 S :   -0.081207
   9 C :   -0.312321
  10 S :   -0.113364
  11 P :    0.627226
  12 S :   -0.300345
  13 O :   -0.383432
  14 C :   -0.000276
  15 C :   -0.309670
  16 O :   -0.379547
  17 C :    0.000616
  18 C :   -0.342229
  19 H :    0.126546
  20 H :    0.101557
  21 H :    0.129159
  22 H :    0.100013
  23 H :    0.104921
  24 H :    0.099471
  25 H :    0.109931
  26 H :    0.108253
  27 H :    0.110874
  28 H :    0.124707
  29 H :    0.184103
  30 H :    0.179600
  31 H :    0.108303
  32 H :    0.103448
  33 H :    0.106518
  34 H :    0.125811
  35 H :    0.127670
  36 H :    0.102850
  37 H :    0.109955
  38 H :    0.115064
  39 H :    0.144280
  40 H :    0.121025
Sum of atomic charges:    0.0000000

LOEWDIN ATOMIC CHARGES
----------------------
   0 C :   -0.366018
   1 C :   -0.109707
   2 O :   -0.236834
   3 P :    0.568385
   4 S :   -0.306786
   5 O :   -0.254598
   6 C :   -0.125233
   7 C :   -0.366315
   8 S :    0.111944
   9 C :   -0.467748
  10 S :    0.071613
  11 P :    0.568317
  12 S :   -0.297565
  13 O :   -0.252862
  14 C :   -0.107740
  15 C :   -0.367250
  16 O :   -0.247423
  17 C :   -0.122789
  18 C :   -0.372925
  19 H :    0.124003
  20 H :    0.125173
  21 H :    0.127307
  22 H :    0.108555
  23 H :    0.115017
  24 H :    0.115205
  25 H :    0.107975
  26 H :    0.121154
  27 H :    0.129725
  28 H :    0.120818
  29 H :    0.136493
  30 H :    0.132254
  31 H :    0.112744
  32 H :    0.118734
  33 H :    0.127412
  34 H :    0.131339
  35 H :    0.122144
  36 H :    0.117425
  37 H :    0.108853
  38 H :    0.132209
  39 H :    0.122053
  40 H :    0.124941

  Mayer bond orders larger than 0.100000
B(  0-C ,  1-C ) :   1.1720 B(  0-C , 19-H ) :   0.9338 B(  0-C , 20-H ) :   0.9385
B(  0-C , 21-H ) :   0.9403 B(  1-C ,  2-O ) :   0.9016 B(  1-C , 22-H ) :   0.9238
B(  1-C , 23-H ) :   0.9282 B(  2-O ,  3-P ) :   1.1168 B(  3-P ,  4-S ) :   1.6581
B(  3-P ,  5-O ) :   1.0511 B(  3-P ,  8-S ) :   0.9565 B(  5-O ,  6-C ) :   0.9173
B(  6-C ,  7-C ) :   1.1641 B(  6-C , 24-H ) :   0.9333 B(  6-C , 25-H ) :   0.9090
B(  7-C , 26-H ) :   0.9472 B(  7-C , 27-H ) :   0.9394 B(  7-C , 28-H ) :   0.9362
B(  8-S ,  9-C ) :   1.0043 B(  9-C , 10-S ) :   0.9747 B(  9-C , 29-H ) :   0.9085
B(  9-C , 30-H ) :   0.9048 B( 10-S , 11-P ) :   0.9606 B( 10-S , 12-S ) :   0.1229
B( 11-P , 12-S ) :   1.6154 B( 11-P , 13-O ) :   1.0970 B( 11-P , 16-O ) :   1.0777
B( 13-O , 14-C ) :   0.9089 B( 14-C , 15-C ) :   1.1671 B( 14-C , 31-H ) :   0.9290
B( 14-C , 32-H ) :   0.9362 B( 15-C , 33-H ) :   0.9358 B( 15-C , 34-H ) :   0.9455
B( 15-C , 35-H ) :   0.9335 B( 16-O , 17-C ) :   0.9098 B( 17-C , 18-C ) :   1.1648
B( 17-C , 36-H ) :   0.9317 B( 17-C , 37-H ) :   0.9094 B( 18-C , 38-H ) :   0.9379
B( 18-C , 39-H ) :   0.9273 B( 18-C , 40-H ) :   0.9430

Dispersion correction           -0.068637741
FINAL SINGLE POINT ENERGY     -2929.507063966458

DIPOLE MOMENT
-------------

Method             : SCF
Type of density    : Electron Density
Multiplicity       :   1
Irrep              :   0
Energy             : -2929.6235260439366357 Eh
Relativity type    :
Basis              : AO
                                X                 Y                 Z
Electronic contribution:      1.236061552       2.696501908       5.086556564
Nuclear contribution   :     -1.804775446      -4.046997126      -4.712925022
                        -----------------------------------------
Total Dipole Moment    :     -0.568713894      -1.350495218       0.373631542
                        -----------------------------------------
Magnitude (a.u.)       :      1.512241170
Magnitude (Debye)      :      3.843811582

Rotational constants in cm-1:             0.011970             0.005826             0.005191
Rotational constants in MHz :           358.839868           174.667916           155.629567

                             ****ORCA TERMINATED NORMALLY****
TOTAL RUN TIME: 0 days 0 hours 0 minutes 21 seconds 690 msec
