                         Program Version 6.0.1  -  RELEASE   -
|  1> ! pbe def2-sv(p) def2/J RI DEFGRID1 loosescf d4 GCP(DFT/SV(P)) printgap
|  2> %output
|  3>     printlevel normal
|  4> end
|  5> * xyz 0 1
|  6> C 4.9993128614 -1.0622874015 -1.1176090831
|  7> C 4.1957465558 -2.3254587849 -1.3815039708
|  8> O 2.8578537001 -1.9881921487 -1.8006814889
|  9> C 1.9251167676 -1.8495994512 -0.8879448792
| 10> O 2.0782803866 -2.0346957568 0.301616221
| 11> C 0.6154439066 -1.3724385607 -1.4893157572
| 12> C 0.5256255619 0.142378355 -1.2580524711
| 13> H 1.1823533216 0.6890965453 -1.9354391261
| 14> C 0.8662271974 0.4712504632 0.1791584413
| 15> O 0.0821858026 0.2455455784 1.080292119
| 16> O 2.0506107516 0.9975103145 0.3167778235
| 17> C 2.480238636 1.3631432913 1.6489180368
| 18> C 1.8675310584 2.6853649834 2.0784848022
| 19> S -1.1628959672 0.7592323671 -1.5522338766
| 20> P -2.2119929302 0.5313589945 0.3000942797
| 21> S -2.1371990853 1.8415256417 1.756254337
| 22> O -3.6710674895 0.7325621499 -0.3238214446
| 23> C -4.2691235265 -0.1182717919 -1.3176082414
| 24> O -2.2608963251 -1.037266336 0.648860133
| 25> C -1.765621168 -1.6239726329 1.8514712991
| 26> H 6.009085747 -1.3323142234 -0.8272053913
| 27> H 5.0349317882 -0.4465353246 -2.0116765073
| 28> H 4.5396174368 -0.4906358868 -0.3142089201
| 29> H 4.1343977979 -2.9448317655 -0.4824158254
| 30> H 4.6105068074 -2.8971669587 -2.2114835037
| 31> H -0.2076695747 -1.8699183252 -0.9740851365
| 32> H 0.580177989 -1.5856451895 -2.5554042207
| 33> H 2.1992470774 0.5581812647 2.3330337559
| 34> H 3.5646824402 1.4347352594 1.566604358
| 35> H 2.2612041597 2.9592583037 3.0514615493
| 36> H 2.1112428157 3.4639141074 1.3607678982
| 37> H 0.7843462429 2.6008950964 2.1536714733
| 38> H -3.8294848986 0.0873626485 -2.2924597664
| 39> H -5.325042293 0.1405958227 -1.3125019757
| 40> H -4.1299166512 -1.1644230559 -1.0511860426
| 41> H -0.7610035194 -2.014030996 1.6867772003
| 42> H -2.4565906803 -2.4265169783 2.1000210485
| 43> H -1.7365747486 -0.8821434765 2.6504962341
| 44> *
| 45>
| 46>                          ****END OF INPUT****

CARTESIAN COORDINATES (ANGSTROEM)
---------------------------------
  C      4.999313   -1.062287   -1.117609
  C      4.195747   -2.325459   -1.381504
  O      2.857854   -1.988192   -1.800681
  C      1.925117   -1.849599   -0.887945
  O      2.078280   -2.034696    0.301616
  C      0.615444   -1.372439   -1.489316
  C      0.525626    0.142378   -1.258052
  H      1.182353    0.689097   -1.935439
  C      0.866227    0.471250    0.179158
  O      0.082186    0.245546    1.080292
  O      2.050611    0.997510    0.316778
  C      2.480239    1.363143    1.648918
  C      1.867531    2.685365    2.078485
  S     -1.162896    0.759232   -1.552234
  P     -2.211993    0.531359    0.300094
  S     -2.137199    1.841526    1.756254
  O     -3.671067    0.732562   -0.323821
  C     -4.269124   -0.118272   -1.317608
  O     -2.260896   -1.037266    0.648860
  C     -1.765621   -1.623973    1.851471
  H      6.009086   -1.332314   -0.827205
  H      5.034932   -0.446535   -2.011677
  H      4.539617   -0.490636   -0.314209
  H      4.134398   -2.944832   -0.482416
  H      4.610507   -2.897167   -2.211484
  H     -0.207670   -1.869918   -0.974085
  H      0.580178   -1.585645   -2.555404
  H      2.199247    0.558181    2.333034
  H      3.564682    1.434735    1.566604
  H      2.261204    2.959258    3.051462
  H      2.111243    3.463914    1.360768
  H      0.784346    2.600895    2.153671
  H     -3.829485    0.087363   -2.292460
  H     -5.325042    0.140596   -1.312502
  H     -4.129917   -1.164423   -1.051186
  H     -0.761004   -2.014031    1.686777
  H     -2.456591   -2.426517    2.100021
  H     -1.736575   -0.882143    2.650496

 Total Charge           Charge          ....    0
 Multiplicity           Mult            ....    1
 Number of Electrons    NEL             ....  174
 Basis Dimension        Dim             ....  316

ORBITAL ENERGIES
----------------

  NO   OCC          E(Eh)            E(eV)
   0   2.0000     -88.036589     -2395.5974
   1   2.0000     -87.962232     -2393.5740
   2   2.0000     -76.417249     -2079.4191
   3   2.0000     -18.822583      -512.1885
   4   2.0000     -18.818907      -512.0885
   5   2.0000     -18.781064      -511.0587
   6   2.0000     -18.771847      -510.8079
   7   2.0000     -18.763025      -510.5679
   8   2.0000     -18.752257      -510.2749
   9   2.0000     -10.027982      -272.8753
  10   2.0000     -10.023740      -272.7598
  11   2.0000      -9.960154      -271.0296
  12   2.0000      -9.957410      -270.9549
  13   2.0000      -9.954833      -270.8848
  14   2.0000      -9.934910      -270.3426
  15   2.0000      -9.929581      -270.1976
  16   2.0000      -9.919481      -269.9228
  17   2.0000      -9.899056      -269.3670
  18   2.0000      -9.882341      -268.9122
  19   2.0000      -7.681556      -209.0258
  20   2.0000      -7.607581      -207.0128
  21   2.0000      -6.412519      -174.4935
  22   2.0000      -5.709830      -155.3724
  23   2.0000      -5.705718      -155.2605
  24   2.0000      -5.698480      -155.0635
  25   2.0000      -5.637088      -153.3930
  26   2.0000      -5.628202      -153.1512
  27   2.0000      -5.627079      -153.1206
  28   2.0000      -4.635676      -126.1432
  29   2.0000      -4.634370      -126.1076
  30   2.0000      -4.632870      -126.0668
  31   2.0000      -1.033285       -28.1171
  32   2.0000      -1.025883       -27.9157
  33   2.0000      -0.968413       -26.3519
  34   2.0000      -0.941280       -25.6135
  35   2.0000      -0.930014       -25.3070
  36   2.0000      -0.924285       -25.1511
  37   2.0000      -0.771725       -20.9997
  38   2.0000      -0.722058       -19.6482
  39   2.0000      -0.709043       -19.2940
  40   2.0000      -0.690079       -18.7780
  41   2.0000      -0.660192       -17.9647
  42   2.0000      -0.626352       -17.0439
  43   2.0000      -0.622821       -16.9478
  44   2.0000      -0.606092       -16.4926
  45   2.0000      -0.601221       -16.3601
  46   2.0000      -0.569941       -15.5089
  47   2.0000      -0.514033       -13.9875
  48   2.0000      -0.511314       -13.9136
  49   2.0000      -0.500928       -13.6310
  50   2.0000      -0.487091       -13.2544
  51   2.0000      -0.467198       -12.7131
  52   2.0000      -0.465714       -12.6727
  53   2.0000      -0.459116       -12.4932
  54   2.0000      -0.447653       -12.1812
  55   2.0000      -0.435341       -11.8462
  56   2.0000      -0.425869       -11.5885
  57   2.0000      -0.424207       -11.5433
  58   2.0000      -0.415831       -11.3153
  59   2.0000      -0.408943       -11.1279
  60   2.0000      -0.403833       -10.9888
  61   2.0000      -0.397617       -10.8197
  62   2.0000      -0.392413       -10.6781
  63   2.0000      -0.390609       -10.6290
  64   2.0000      -0.382246       -10.4014
  65   2.0000      -0.369266       -10.0482
  66   2.0000      -0.360566        -9.8115
  67   2.0000      -0.357830        -9.7370
  68   2.0000      -0.352452        -9.5907
  69   2.0000      -0.345897        -9.4123
  70   2.0000      -0.338175        -9.2022
  71   2.0000      -0.336861        -9.1664
  72   2.0000      -0.325015        -8.8441
  73   2.0000      -0.309796        -8.4300
  74   2.0000      -0.305669        -8.3177
  75   2.0000      -0.299348        -8.1457
  76   2.0000      -0.293398        -7.9838
  77   2.0000      -0.283151        -7.7049
  78   2.0000      -0.278210        -7.5705
  79   2.0000      -0.274504        -7.4696
  80   2.0000      -0.258376        -7.0308
  81   2.0000      -0.253595        -6.9007
  82   2.0000      -0.244023        -6.6402
  83   2.0000      -0.237172        -6.4538
  84   2.0000      -0.219874        -5.9831
  85   2.0000      -0.182425        -4.9640
  86   2.0000      -0.172290        -4.6882
  87   0.0000      -0.055801        -1.5184
  88   0.0000      -0.045477        -1.2375
  89   0.0000      -0.023754        -0.6464
  90   0.0000       0.011949         0.3251
  91   0.0000       0.030028         0.8171

MULLIKEN ATOMIC CHARGES
-----------------------
   0 C :   -0.313432
   1 C :   -0.018927
   2 O :   -0.220011
   3 C :    0.096305
   4 O :   -0.209774
   5 C :   -0.024256
   6 C :   -0.300764
   7 H :    0.137622
   8 C :    0.213976
   9 O :   -0.196564
  10 O :   -0.217693
  11 C :   -0.018854
  12 C :   -0.321345
  13 S :   -0.100920
  14 P :    0.636560
  15 S :   -0.306093
  16 O :   -0.377503
  17 C :   -0.110228
  18 O :   -0.402325
  19 C :   -0.098250
  20 H :    0.117168
  21 H :    0.117327
  22 H :    0.132090
  23 H :    0.114379
  24 H :    0.109405
  25 H :    0.129147
  26 H :    0.110745
  27 H :    0.120227
  28 H :    0.106627
  29 H :    0.112907
  30 H :    0.112205
  31 H :    0.156087
  32 H :    0.118313
  33 H :    0.125050
  34 H :    0.115884
  35 H :    0.121373
  36 H :    0.113479
  37 H :    0.120064
Sum of atomic charges:   -0.0000000

LOEWDIN ATOMIC CHARGES
----------------------
   0 C :   -0.355780
   1 C :   -0.110648
   2 O :   -0.050720
   3 C :    0.027490
   4 O :   -0.168101
   5 C :   -0.242662
   6 C :   -0.259132
   7 H :    0.141727
   8 C :    0.018605
   9 O :   -0.139996
  10 O :   -0.034291
  11 C :   -0.104889
  12 C :   -0.362464
  13 S :    0.099536
  14 P :    0.583104
  15 S :   -0.313930
  16 O :   -0.259243
  17 C :   -0.216552
  18 O :   -0.262182
  19 C :   -0.216006
  20 H :    0.132799
  21 H :    0.126604
  22 H :    0.129090
  23 H :    0.122430
  24 H :    0.120712
  25 H :    0.144538
  26 H :    0.137479
  27 H :    0.126417
  28 H :    0.117124
  29 H :    0.132498
  30 H :    0.125101
  31 H :    0.133705
  32 H :    0.106373
  33 H :    0.122491
  34 H :    0.110490
  35 H :    0.111220
  36 H :    0.114923
  37 H :    0.112139

  Mayer bond orders larger than 0.100000
B(  0-C ,  1-C ) :   1.1746 B(  0-C , 20-H ) :   0.9427 B(  0-C , 21-H ) :   0.9484
B(  0-C , 22-H ) :   0.9409 B(  1-C ,  2-O ) :   0.9034 B(  1-C , 23-H ) :   0.9113
B(  1-C , 24-H ) :   0.9366 B(  2-O ,  3-C ) :   1.2568 B(  3-C ,  4-O ) :   1.9758
B(  3-C ,  5-C ) :   1.0062 B(  5-C ,  6-C ) :   1.0308 B(  5-C , 25-H ) :   0.8808
B(  5-C , 26-H ) :   0.9015 B(  6-C ,  7-H ) :   0.8798 B(  6-C ,  8-C ) :   0.9172
B(  6-C , 13-S ) :   1.0224 B(  8-C ,  9-O ) :   1.8665 B(  8-C , 10-O ) :   1.2663
B(  9-O , 14-P ) :   0.1532 B( 10-O , 11-C ) :   0.8933 B( 11-C , 12-C ) :   1.1749
B( 11-C , 27-H ) :   0.9183 B( 11-C , 28-H ) :   0.9329 B( 12-C , 29-H ) :   0.9406
B( 12-C , 30-H ) :   0.9463 B( 12-C , 31-H ) :   0.9223 B( 13-S , 14-P ) :   0.9206
B( 13-S , 15-S ) :   0.1022 B( 14-P , 15-S ) :   1.5996 B( 14-P , 16-O ) :   1.0862
B( 14-P , 18-O ) :   1.0523 B( 16-O , 17-C ) :   0.9299 B( 17-C , 32-H ) :   0.9464
B( 17-C , 33-H ) :   0.9597 B( 17-C , 34-H ) :   0.9438 B( 18-O , 19-C ) :   0.9239
B( 19-C , 35-H ) :   0.9436 B( 19-C , 36-H ) :   0.9533 B( 19-C , 37-H ) :   0.9355

Dispersion correction           -0.052682183
FINAL SINGLE POINT ENERGY     -1979.004616629873

DIPOLE MOMENT
-------------

Method             : SCF
Type of density    : Electron Density
Multiplicity       :   1
Irrep              :   0
Energy             : -1979.1372634082517834 Eh
Relativity type    :
Basis              : AO
                                X                 Y                 Z
Electronic contribution:    -17.658728214       5.121706848      -1.678101056
Nuclear contribution   :     19.506432460      -6.337467816       0.606232550
                        -----------------------------------------
Total Dipole Moment    :      1.847704246      -1.215760967      -1.071868506
                        -----------------------------------------
Magnitude (a.u.)       :      2.457842104
Magnitude (Debye)      :      6.247338143

Rotational constants in cm-1:             0.015680             0.006651             0.005624
Rotational constants in MHz :           470.062989           199.400100           168.608465

                             ****ORCA TERMINATED NORMALLY****
TOTAL RUN TIME: 0 days 0 hours 0 minutes 40 seconds 739 msec
