                         Program Version 6.0.1  -  RELEASE   -
|  1> ! r2scan-3c def2/J RI DEFGRID2 scfconv6 printgap
|  2> %output
|  3>     printlevel normal
|  4> end
|  5> * xyz 0 1
|  6> C 4.0420648927 -3.7912780523 -2.3047451498
|  7> C 3.4080402537 -3.9254258619 -0.9293512242
|  8> O 3.3141667589 -2.6438182525 -0.2770834917
|  9> C 2.2539110516 -1.8954582096 -0.5108763694
| 10> O 1.3239788393 -2.2176216157 -1.2169338618
| 11> C 2.3437204804 -0.5778907142 0.2328122315
| 12> C 1.043583257 0.197336563 0.1095175734
| 13> H 0.691366459 0.1484742159 -0.9326224737
| 14> C 1.1892799104 1.6703789788 0.4411097301
| 15> O 2.2063333539 2.2924340758 0.2415370893
| 16> O 0.0743180269 2.1689019335 0.932614176
| 17> C 0.0036989266 3.582528202 1.2114665461
| 18> C -0.6855787782 4.3120256625 0.0717566812
| 19> S -0.2662420106 -0.5697181609 1.118532311
| 20> P -1.929193212 0.2818142584 0.1028328195
| 21> S -1.6209163654 1.0049610336 -1.6894321751
| 22> O -2.9935844584 -0.9180559972 0.1511537204
| 23> C -2.8039742273 -2.0929804986 -0.6418264858
| 24> O -2.626630316 1.3175924201 1.06748311
| 25> C -2.9964880655 0.9781825507 2.4185361854
| 26> H 4.1622793419 -4.7767971265 -2.7421666839
| 27> H 3.4065294797 -3.1928395345 -2.9537853299
| 28> H 5.0145478888 -3.3135469433 -2.2238968276
| 29> H 4.0277565287 -4.524502453 -0.2623458609
| 30> H 2.4040588198 -4.352020277 -1.0056637599
| 31> H 3.1531794515 0.0175214993 -0.1974787198
| 32> H 2.5912679523 -0.7776549899 1.2759636565
| 33> H -0.5720063927 3.6566217336 2.1346112314
| 34> H 1.0220426115 3.9515002026 1.3604291225
| 35> H -0.1005940646 4.2254673348 -0.8413633593
| 36> H -1.6672941797 3.8793547668 -0.1073071971
| 37> H -0.7940622088 5.3603804218 0.3281188849
| 38> H -3.6859259383 -2.705457539 -0.4746727378
| 39> H -1.9026174934 -2.6202148373 -0.3268085495
| 40> H -2.7167760883 -1.8245431839 -1.6957261358
| 41> H -3.7867854186 0.23022229 2.4093343288
| 42> H -3.3491595664 1.9072570983 2.8585892821
| 43> H -2.1281319144 0.5975616095 2.9565281463
| 44> *
| 45>
| 46>                          ****END OF INPUT****

CARTESIAN COORDINATES (ANGSTROEM)
---------------------------------
  C      4.042065   -3.791278   -2.304745
  C      3.408040   -3.925426   -0.929351
  O      3.314167   -2.643818   -0.277083
  C      2.253911   -1.895458   -0.510876
  O      1.323979   -2.217622   -1.216934
  C      2.343720   -0.577891    0.232812
  C      1.043583    0.197337    0.109518
  H      0.691366    0.148474   -0.932622
  C      1.189280    1.670379    0.441110
  O      2.206333    2.292434    0.241537
  O      0.074318    2.168902    0.932614
  C      0.003699    3.582528    1.211467
  C     -0.685579    4.312026    0.071757
  S     -0.266242   -0.569718    1.118532
  P     -1.929193    0.281814    0.102833
  S     -1.620916    1.004961   -1.689432
  O     -2.993584   -0.918056    0.151154
  C     -2.803974   -2.092980   -0.641826
  O     -2.626630    1.317592    1.067483
  C     -2.996488    0.978183    2.418536
  H      4.162279   -4.776797   -2.742167
  H      3.406529   -3.192840   -2.953785
  H      5.014548   -3.313547   -2.223897
  H      4.027757   -4.524502   -0.262346
  H      2.404059   -4.352020   -1.005664
  H      3.153179    0.017521   -0.197479
  H      2.591268   -0.777655    1.275964
  H     -0.572006    3.656622    2.134611
  H      1.022043    3.951500    1.360429
  H     -0.100594    4.225467   -0.841363
  H     -1.667294    3.879355   -0.107307
  H     -0.794062    5.360380    0.328119
  H     -3.685926   -2.705458   -0.474673
  H     -1.902617   -2.620215   -0.326809
  H     -2.716776   -1.824543   -1.695726
  H     -3.786785    0.230222    2.409334
  H     -3.349160    1.907257    2.858589
  H     -2.128132    0.597562    2.956528

 Total Charge           Charge          ....    0
 Multiplicity           Mult            ....    1
 Number of Electrons    NEL             ....  174
 Basis Dimension        Dim             ....  510

ORBITAL ENERGIES
----------------

  NO   OCC          E(Eh)            E(eV)
   0   2.0000     -88.571875     -2410.1633
   1   2.0000     -88.516780     -2408.6640
   2   2.0000     -76.911728     -2092.8745
   3   2.0000     -19.005586      -517.1683
   4   2.0000     -19.002289      -517.0786
   5   2.0000     -18.994346      -516.8624
   6   2.0000     -18.988042      -516.6909
   7   2.0000     -18.938226      -515.3353
   8   2.0000     -18.937754      -515.3225
   9   2.0000     -10.163489      -276.5626
  10   2.0000     -10.162597      -276.5383
  11   2.0000     -10.099138      -274.8115
  12   2.0000     -10.097922      -274.7784
  13   2.0000     -10.091964      -274.6163
  14   2.0000     -10.089073      -274.5376
  15   2.0000     -10.085008      -274.4270
  16   2.0000     -10.061589      -273.7898
  17   2.0000     -10.033146      -273.0158
  18   2.0000     -10.021685      -272.7039
  19   2.0000      -7.866278      -214.0523
  20   2.0000      -7.811492      -212.5615
  21   2.0000      -6.590086      -179.3253
  22   2.0000      -5.813085      -158.1821
  23   2.0000      -5.810344      -158.1075
  24   2.0000      -5.803241      -157.9142
  25   2.0000      -5.759405      -156.7214
  26   2.0000      -5.751731      -156.5126
  27   2.0000      -5.751286      -156.5004
  28   2.0000      -4.735777      -128.8670
  29   2.0000      -4.735115      -128.8490
  30   2.0000      -4.733588      -128.8075
  31   2.0000      -1.082463       -29.4553
  32   2.0000      -1.081271       -29.4229
  33   2.0000      -1.049606       -28.5612
  34   2.0000      -1.007241       -27.4084
  35   2.0000      -0.987997       -26.8848
  36   2.0000      -0.987138       -26.8614
  37   2.0000      -0.809086       -22.0164
  38   2.0000      -0.758162       -20.6306
  39   2.0000      -0.740099       -20.1391
  40   2.0000      -0.732463       -19.9313
  41   2.0000      -0.697612       -18.9830
  42   2.0000      -0.673186       -18.3183
  43   2.0000      -0.657708       -17.8971
  44   2.0000      -0.649300       -17.6684
  45   2.0000      -0.632414       -17.2089
  46   2.0000      -0.593759       -16.1570
  47   2.0000      -0.539606       -14.6834
  48   2.0000      -0.532139       -14.4802
  49   2.0000      -0.522627       -14.2214
  50   2.0000      -0.500184       -13.6107
  51   2.0000      -0.492388       -13.3986
  52   2.0000      -0.484652       -13.1881
  53   2.0000      -0.469698       -12.7811
  54   2.0000      -0.458014       -12.4632
  55   2.0000      -0.451406       -12.2834
  56   2.0000      -0.446392       -12.1469
  57   2.0000      -0.443026       -12.0553
  58   2.0000      -0.434336       -11.8189
  59   2.0000      -0.429357       -11.6834
  60   2.0000      -0.420547       -11.4437
  61   2.0000      -0.418027       -11.3751
  62   2.0000      -0.416447       -11.3321
  63   2.0000      -0.398813       -10.8523
  64   2.0000      -0.397317       -10.8115
  65   2.0000      -0.380612       -10.3570
  66   2.0000      -0.371404       -10.1064
  67   2.0000      -0.370166       -10.0727
  68   2.0000      -0.360669        -9.8143
  69   2.0000      -0.351252        -9.5581
  70   2.0000      -0.349483        -9.5099
  71   2.0000      -0.346146        -9.4191
  72   2.0000      -0.336466        -9.1557
  73   2.0000      -0.328798        -8.9470
  74   2.0000      -0.323575        -8.8049
  75   2.0000      -0.314779        -8.5656
  76   2.0000      -0.311726        -8.4825
  77   2.0000      -0.305036        -8.3005
  78   2.0000      -0.286458        -7.7949
  79   2.0000      -0.281610        -7.6630
  80   2.0000      -0.278353        -7.5744
  81   2.0000      -0.273056        -7.4302
  82   2.0000      -0.262686        -7.1480
  83   2.0000      -0.246090        -6.6964
  84   2.0000      -0.223677        -6.0865
  85   2.0000      -0.216915        -5.9026
  86   2.0000      -0.210886        -5.7385
  87   0.0000      -0.043375        -1.1803
  88   0.0000      -0.026444        -0.7196
  89   0.0000      -0.016713        -0.4548
  90   0.0000       0.009299         0.2530
  91   0.0000       0.019046         0.5183

MULLIKEN ATOMIC CHARGES
-----------------------
   0 C :   -0.466382
   1 C :   -0.137667
   2 O :   -0.170099
   3 C :    0.396527
   4 O :   -0.423488
   5 C :   -0.442511
   6 C :    0.004284
   7 H :    0.251742
   8 C :    0.324128
   9 O :   -0.416821
  10 O :   -0.122523
  11 C :   -0.151540
  12 C :   -0.458416
  13 S :   -0.244968
  14 P :    0.780224
  15 S :   -0.449802
  16 O :   -0.345412
  17 C :   -0.286831
  18 O :   -0.318757
  19 C :   -0.296853
  20 H :    0.148522
  21 H :    0.172879
  22 H :    0.154297
  23 H :    0.150546
  24 H :    0.167349
  25 H :    0.214436
  26 H :    0.185818
  27 H :    0.142954
  28 H :    0.174982
  29 H :    0.162596
  30 H :    0.176303
  31 H :    0.143978
  32 H :    0.147727
  33 H :    0.165657
  34 H :    0.173201
  35 H :    0.170194
  36 H :    0.155502
  37 H :    0.168220
Sum of atomic charges:   -0.0000000

LOEWDIN ATOMIC CHARGES
----------------------
   0 C :   -0.388486
   1 C :    0.030339
   2 O :   -0.583304
   3 C :    0.358443
   4 O :   -0.441266
   5 C :   -0.202680
   6 C :   -0.197900
   7 H :    0.228050
   8 C :    0.356792
   9 O :   -0.428033
  10 O :   -0.625024
  11 C :    0.035642
  12 C :   -0.389064
  13 S :    0.215531
  14 P :    0.399787
  15 S :   -0.084742
  16 O :   -0.685422
  17 C :   -0.058398
  18 O :   -0.653052
  19 C :   -0.052589
  20 H :    0.160078
  21 H :    0.165516
  22 H :    0.158363
  23 H :    0.178982
  24 H :    0.188310
  25 H :    0.210277
  26 H :    0.191302
  27 H :    0.177689
  28 H :    0.193174
  29 H :    0.164424
  30 H :    0.167959
  31 H :    0.156619
  32 H :    0.174990
  33 H :    0.173613
  34 H :    0.176979
  35 H :    0.174647
  36 H :    0.179066
  37 H :    0.173385

  Mayer bond orders larger than 0.100000
B(  0-C ,  1-C ) :   0.9421 B(  0-C , 20-H ) :   0.9640 B(  0-C , 21-H ) :   0.9701
B(  0-C , 22-H ) :   0.9733 B(  1-C ,  2-O ) :   0.8034 B(  1-C , 23-H ) :   0.9623
B(  1-C , 24-H ) :   0.9668 B(  2-O ,  3-C ) :   1.1141 B(  3-C ,  4-O ) :   1.8393
B(  3-C ,  5-C ) :   0.9672 B(  5-C ,  6-C ) :   0.9510 B(  5-C , 25-H ) :   0.9141
B(  5-C , 26-H ) :   0.9668 B(  6-C ,  7-H ) :   0.9051 B(  6-C ,  8-C ) :   0.8750
B(  6-C , 13-S ) :   0.7966 B(  8-C ,  9-O ) :   1.8890 B(  8-C , 10-O ) :   1.1884
B( 10-O , 11-C ) :   0.7622 B( 11-C , 12-C ) :   0.9393 B( 11-C , 27-H ) :   0.9635
B( 11-C , 28-H ) :   0.9613 B( 12-C , 29-H ) :   0.9675 B( 12-C , 30-H ) :   0.9656
B( 12-C , 31-H ) :   0.9673 B( 13-S , 14-P ) :   1.0093 B( 14-P , 15-S ) :   1.7906
B( 14-P , 16-O ) :   1.0429 B( 14-P , 18-O ) :   1.1455 B( 16-O , 17-C ) :   0.8345
B( 17-C , 32-H ) :   0.9673 B( 17-C , 33-H ) :   0.9519 B( 17-C , 34-H ) :   0.9586
B( 18-O , 19-C ) :   0.7960 B( 19-C , 35-H ) :   0.9603 B( 19-C , 36-H ) :   0.9663
B( 19-C , 37-H ) :   0.9563

Dispersion correction           -0.017282758
FINAL SINGLE POINT ENERGY     -1981.455201755735

DIPOLE MOMENT
-------------

Method             : SCF
Type of density    : Electron Density
Multiplicity       :   1
Irrep              :   0
Energy             : -1981.4754381802072203 Eh
Relativity type    :
Basis              : AO
                                X                 Y                 Z
Electronic contribution:     -7.175706091       3.216104331       1.744994790
Nuclear contribution   :      7.210553335      -4.123312002      -0.475086068
                        -----------------------------------------
Total Dipole Moment    :      0.034847244      -0.907207671       1.269908722
                        -----------------------------------------
Magnitude (a.u.)       :      1.561059977
Magnitude (Debye)      :      3.967899127

Rotational constants in cm-1:             0.013797             0.006461             0.005225
Rotational constants in MHz :           413.623227           193.710049           156.639550

                             ****ORCA TERMINATED NORMALLY****
TOTAL RUN TIME: 0 days 0 hours 1 minutes 24 seconds 67 msec
