                         Program Version 6.0.1  -  RELEASE   -
|  1> ! r2scan-3c def2/J RI DEFGRID2 scfconv6 printgap
|  2> %output
|  3>     printlevel normal
|  4> end
|  5> %cpcm
|  6>     smd true
|  7>     smdsolvent "water"
|  8> end
|  9> * xyz 0 1
| 10> C 4.0420648927 -3.7912780523 -2.3047451498
| 11> C 3.4080402537 -3.9254258619 -0.9293512242
| 12> O 3.3141667589 -2.6438182525 -0.2770834917
| 13> C 2.2539110516 -1.8954582096 -0.5108763694
| 14> O 1.3239788393 -2.2176216157 -1.2169338618
| 15> C 2.3437204804 -0.5778907142 0.2328122315
| 16> C 1.043583257 0.197336563 0.1095175734
| 17> H 0.691366459 0.1484742159 -0.9326224737
| 18> C 1.1892799104 1.6703789788 0.4411097301
| 19> O 2.2063333539 2.2924340758 0.2415370893
| 20> O 0.0743180269 2.1689019335 0.932614176
| 21> C 0.0036989266 3.582528202 1.2114665461
| 22> C -0.6855787782 4.3120256625 0.0717566812
| 23> S -0.2662420106 -0.5697181609 1.118532311
| 24> P -1.929193212 0.2818142584 0.1028328195
| 25> S -1.6209163654 1.0049610336 -1.6894321751
| 26> O -2.9935844584 -0.9180559972 0.1511537204
| 27> C -2.8039742273 -2.0929804986 -0.6418264858
| 28> O -2.626630316 1.3175924201 1.06748311
| 29> C -2.9964880655 0.9781825507 2.4185361854
| 30> H 4.1622793419 -4.7767971265 -2.7421666839
| 31> H 3.4065294797 -3.1928395345 -2.9537853299
| 32> H 5.0145478888 -3.3135469433 -2.2238968276
| 33> H 4.0277565287 -4.524502453 -0.2623458609
| 34> H 2.4040588198 -4.352020277 -1.0056637599
| 35> H 3.1531794515 0.0175214993 -0.1974787198
| 36> H 2.5912679523 -0.7776549899 1.2759636565
| 37> H -0.5720063927 3.6566217336 2.1346112314
| 38> H 1.0220426115 3.9515002026 1.3604291225
| 39> H -0.1005940646 4.2254673348 -0.8413633593
| 40> H -1.6672941797 3.8793547668 -0.1073071971
| 41> H -0.7940622088 5.3603804218 0.3281188849
| 42> H -3.6859259383 -2.705457539 -0.4746727378
| 43> H -1.9026174934 -2.6202148373 -0.3268085495
| 44> H -2.7167760883 -1.8245431839 -1.6957261358
| 45> H -3.7867854186 0.23022229 2.4093343288
| 46> H -3.3491595664 1.9072570983 2.8585892821
| 47> H -2.1281319144 0.5975616095 2.9565281463
| 48> *
| 49>
| 50>                          ****END OF INPUT****

CARTESIAN COORDINATES (ANGSTROEM)
---------------------------------
  C      4.042065   -3.791278   -2.304745
  C      3.408040   -3.925426   -0.929351
  O      3.314167   -2.643818   -0.277083
  C      2.253911   -1.895458   -0.510876
  O      1.323979   -2.217622   -1.216934
  C      2.343720   -0.577891    0.232812
  C      1.043583    0.197337    0.109518
  H      0.691366    0.148474   -0.932622
  C      1.189280    1.670379    0.441110
  O      2.206333    2.292434    0.241537
  O      0.074318    2.168902    0.932614
  C      0.003699    3.582528    1.211467
  C     -0.685579    4.312026    0.071757
  S     -0.266242   -0.569718    1.118532
  P     -1.929193    0.281814    0.102833
  S     -1.620916    1.004961   -1.689432
  O     -2.993584   -0.918056    0.151154
  C     -2.803974   -2.092980   -0.641826
  O     -2.626630    1.317592    1.067483
  C     -2.996488    0.978183    2.418536
  H      4.162279   -4.776797   -2.742167
  H      3.406529   -3.192840   -2.953785
  H      5.014548   -3.313547   -2.223897
  H      4.027757   -4.524502   -0.262346
  H      2.404059   -4.352020   -1.005664
  H      3.153179    0.017521   -0.197479
  H      2.591268   -0.777655    1.275964
  H     -0.572006    3.656622    2.134611
  H      1.022043    3.951500    1.360429
  H     -0.100594    4.225467   -0.841363
  H     -1.667294    3.879355   -0.107307
  H     -0.794062    5.360380    0.328119
  H     -3.685926   -2.705458   -0.474673
  H     -1.902617   -2.620215   -0.326809
  H     -2.716776   -1.824543   -1.695726
  H     -3.786785    0.230222    2.409334
  H     -3.349160    1.907257    2.858589
  H     -2.128132    0.597562    2.956528

 Total Charge           Charge          ....    0
 Multiplicity           Mult            ....    1
 Number of Electrons    NEL             ....  174
 Basis Dimension        Dim             ....  510

ORBITAL ENERGIES
----------------

  NO   OCC          E(Eh)            E(eV)
   0   2.0000     -88.578130     -2410.3335
   1   2.0000     -88.529879     -2409.0205
   2   2.0000     -76.920251     -2093.1064
   3   2.0000     -19.009503      -517.2749
   4   2.0000     -19.007348      -517.2162
   5   2.0000     -18.997917      -516.9596
   6   2.0000     -18.993997      -516.8529
   7   2.0000     -18.952623      -515.7271
   8   2.0000     -18.949305      -515.6368
   9   2.0000     -10.174919      -276.8736
  10   2.0000     -10.171191      -276.7722
  11   2.0000     -10.094126      -274.6751
  12   2.0000     -10.086800      -274.4758
  13   2.0000     -10.085990      -274.4537
  14   2.0000     -10.085203      -274.4323
  15   2.0000     -10.080975      -274.3173
  16   2.0000     -10.058546      -273.7070
  17   2.0000     -10.019231      -272.6371
  18   2.0000     -10.018458      -272.6161
  19   2.0000      -7.872454      -214.2204
  20   2.0000      -7.824942      -212.9275
  21   2.0000      -6.598681      -179.5593
  22   2.0000      -5.819285      -158.3508
  23   2.0000      -5.816534      -158.2759
  24   2.0000      -5.809387      -158.0815
  25   2.0000      -5.772715      -157.0836
  26   2.0000      -5.765260      -156.8807
  27   2.0000      -5.764723      -156.8661
  28   2.0000      -4.744319      -129.0995
  29   2.0000      -4.743674      -129.0819
  30   2.0000      -4.742312      -129.0449
  31   2.0000      -1.089897       -29.6576
  32   2.0000      -1.085647       -29.5419
  33   2.0000      -1.053914       -28.6784
  34   2.0000      -1.011385       -27.5212
  35   2.0000      -1.000876       -27.2352
  36   2.0000      -0.996220       -27.1085
  37   2.0000      -0.812760       -22.1163
  38   2.0000      -0.753561       -20.5054
  39   2.0000      -0.739681       -20.1277
  40   2.0000      -0.730978       -19.8909
  41   2.0000      -0.695497       -18.9254
  42   2.0000      -0.670154       -18.2358
  43   2.0000      -0.660506       -17.9733
  44   2.0000      -0.653450       -17.7813
  45   2.0000      -0.627939       -17.0871
  46   2.0000      -0.591973       -16.1084
  47   2.0000      -0.540593       -14.7103
  48   2.0000      -0.529128       -14.3983
  49   2.0000      -0.521682       -14.1957
  50   2.0000      -0.503538       -13.7020
  51   2.0000      -0.491978       -13.3874
  52   2.0000      -0.486214       -13.2306
  53   2.0000      -0.469184       -12.7671
  54   2.0000      -0.464035       -12.6270
  55   2.0000      -0.458924       -12.4880
  56   2.0000      -0.450283       -12.2528
  57   2.0000      -0.445856       -12.1324
  58   2.0000      -0.437594       -11.9075
  59   2.0000      -0.427568       -11.6347
  60   2.0000      -0.420801       -11.4506
  61   2.0000      -0.415322       -11.3015
  62   2.0000      -0.411434       -11.1957
  63   2.0000      -0.397784       -10.8243
  64   2.0000      -0.394906       -10.7459
  65   2.0000      -0.379101       -10.3159
  66   2.0000      -0.371124       -10.0988
  67   2.0000      -0.367669       -10.0048
  68   2.0000      -0.359599        -9.7852
  69   2.0000      -0.355066        -9.6618
  70   2.0000      -0.347702        -9.4615
  71   2.0000      -0.345020        -9.3885
  72   2.0000      -0.334521        -9.1028
  73   2.0000      -0.328993        -8.9524
  74   2.0000      -0.323742        -8.8095
  75   2.0000      -0.315191        -8.5768
  76   2.0000      -0.307753        -8.3744
  77   2.0000      -0.305907        -8.3242
  78   2.0000      -0.287561        -7.8249
  79   2.0000      -0.286339        -7.7917
  80   2.0000      -0.283019        -7.7013
  81   2.0000      -0.278670        -7.5830
  82   2.0000      -0.275046        -7.4844
  83   2.0000      -0.258507        -7.0343
  84   2.0000      -0.235271        -6.4021
  85   2.0000      -0.231030        -6.2866
  86   2.0000      -0.222612        -6.0576
  87   0.0000      -0.050719        -1.3801
  88   0.0000      -0.034655        -0.9430
  89   0.0000      -0.023867        -0.6494
  90   0.0000       0.004101         0.1116
  91   0.0000       0.012758         0.3472

MULLIKEN ATOMIC CHARGES
-----------------------
   0 C :   -0.494657
   1 C :   -0.142104
   2 O :   -0.184113
   3 C :    0.423816
   4 O :   -0.490423
   5 C :   -0.444187
   6 C :    0.005172
   7 H :    0.251560
   8 C :    0.342420
   9 O :   -0.477129
  10 O :   -0.131246
  11 C :   -0.152087
  12 C :   -0.492815
  13 S :   -0.233184
  14 P :    0.798614
  15 S :   -0.504785
  16 O :   -0.365850
  17 C :   -0.308755
  18 O :   -0.356084
  19 C :   -0.299558
  20 H :    0.171561
  21 H :    0.169749
  22 H :    0.166835
  23 H :    0.176558
  24 H :    0.174056
  25 H :    0.227314
  26 H :    0.222541
  27 H :    0.178555
  28 H :    0.180110
  29 H :    0.167691
  30 H :    0.169227
  31 H :    0.171373
  32 H :    0.179636
  33 H :    0.173221
  34 H :    0.178542
  35 H :    0.185324
  36 H :    0.184181
  37 H :    0.178921
Sum of atomic charges:   -0.0000000

LOEWDIN ATOMIC CHARGES
----------------------
   0 C :   -0.391747
   1 C :    0.035990
   2 O :   -0.583100
   3 C :    0.370192
   4 O :   -0.491004
   5 C :   -0.198147
   6 C :   -0.195703
   7 H :    0.226861
   8 C :    0.365236
   9 O :   -0.471587
  10 O :   -0.622965
  11 C :    0.042438
  12 C :   -0.392656
  13 S :    0.226687
  14 P :    0.399577
  15 S :   -0.126873
  16 O :   -0.694730
  17 C :   -0.056797
  18 O :   -0.670840
  19 C :   -0.042658
  20 H :    0.168504
  21 H :    0.162696
  22 H :    0.162506
  23 H :    0.190339
  24 H :    0.190681
  25 H :    0.217174
  26 H :    0.205316
  27 H :    0.191611
  28 H :    0.195701
  29 H :    0.162407
  30 H :    0.163516
  31 H :    0.167134
  32 H :    0.188662
  33 H :    0.175713
  34 H :    0.177076
  35 H :    0.181727
  36 H :    0.191666
  37 H :    0.179398

  Mayer bond orders larger than 0.100000
B(  0-C ,  1-C ) :   0.9389 B(  0-C , 20-H ) :   0.9590 B(  0-C , 21-H ) :   0.9688
B(  0-C , 22-H ) :   0.9697 B(  1-C ,  2-O ) :   0.7859 B(  1-C , 23-H ) :   0.9526
B(  1-C , 24-H ) :   0.9627 B(  2-O ,  3-C ) :   1.1338 B(  3-C ,  4-O ) :   1.7940
B(  3-C ,  5-C ) :   0.9698 B(  5-C ,  6-C ) :   0.9511 B(  5-C , 25-H ) :   0.9064
B(  5-C , 26-H ) :   0.9546 B(  6-C ,  7-H ) :   0.9016 B(  6-C ,  8-C ) :   0.8877
B(  6-C , 13-S ) :   0.8027 B(  8-C ,  9-O ) :   1.8426 B(  8-C , 10-O ) :   1.2097
B( 10-O , 11-C ) :   0.7506 B( 11-C , 12-C ) :   0.9224 B( 11-C , 27-H ) :   0.9540
B( 11-C , 28-H ) :   0.9565 B( 12-C , 29-H ) :   0.9698 B( 12-C , 30-H ) :   0.9678
B( 12-C , 31-H ) :   0.9608 B( 13-S , 14-P ) :   1.0228 B( 14-P , 15-S ) :   1.7630
B( 14-P , 16-O ) :   1.0441 B( 14-P , 18-O ) :   1.1491 B( 16-O , 17-C ) :   0.8238
B( 17-C , 32-H ) :   0.9565 B( 17-C , 33-H ) :   0.9486 B( 17-C , 34-H ) :   0.9556
B( 18-O , 19-C ) :   0.7883 B( 19-C , 35-H ) :   0.9520 B( 19-C , 36-H ) :   0.9549
B( 19-C , 37-H ) :   0.9477

Dispersion correction           -0.017282758
FINAL SINGLE POINT ENERGY     -1981.468079360815

DIPOLE MOMENT
-------------

Method             : SCF
Type of density    : Electron Density
Multiplicity       :   1
Irrep              :   0
Energy             : -1981.4883157852875684 Eh
Relativity type    :
Basis              : AO
                                X                 Y                 Z
Electronic contribution:     -7.056979721       2.946564155       2.521542993
Nuclear contribution   :      7.210553335      -4.123312002      -0.475086068
                        -----------------------------------------
Total Dipole Moment    :      0.153573614      -1.176747847       2.046456926
                        -----------------------------------------
Magnitude (a.u.)       :      2.365651347
Magnitude (Debye)      :      6.013007864

Rotational constants in cm-1:             0.013797             0.006461             0.005225
Rotational constants in MHz :           413.623227           193.710049           156.639550

                             ****ORCA TERMINATED NORMALLY****
TOTAL RUN TIME: 0 days 0 hours 1 minutes 47 seconds 54 msec
