                         Program Version 6.0.0  -   RELEASE  -
|  1> ! pbe def2-sv(p) def2/J RI DEFGRID1 loosescf d4 GCP(DFT/SV(P)) printgap
|  2> %output
|  3>     printlevel normal
|  4> end
|  5> * xyz 0 1
|  6> C -0.6841304653 -1.1991409441 0.3353761501
|  7> C 0.6855397229 -1.1984919157 -0.3353420125
|  8> C 1.4840065375 0.0201697026 0.1213028867
|  9> C 0.6583124039 1.2686556314 0.0549814117
| 10> C -0.6597568964 1.2679081866 -0.0550084662
| 11> C -1.4840607896 0.0185084261 -0.1213492534
| 12> H -0.5519878188 -1.1604039559 1.4186907774
| 13> H -1.2268675528 -2.1146132488 0.0931671991
| 14> H 1.2292872157 -2.1132966191 -0.0928570459
| 15> H 0.5533447834 -1.1601479621 -1.4186800185
| 16> H 1.8239764815 -0.1230564921 1.1526486356
| 17> H 2.3772415478 0.1405274479 -0.4966295274
| 18> H 1.2029455315 2.2016491785 0.1128495167
| 19> H -1.2054545258 2.20026889 -0.1125825278
| 20> H -2.3775129651 0.1378199329 0.4963564009
| 21> H -1.8239063594 -0.1251571254 -1.1524953013
| 22> *
| 23>
| 24>                          ****END OF INPUT****

CARTESIAN COORDINATES (ANGSTROEM)
---------------------------------
  C     -0.684130   -1.199141    0.335376
  C      0.685540   -1.198492   -0.335342
  C      1.484007    0.020170    0.121303
  C      0.658312    1.268656    0.054981
  C     -0.659757    1.267908   -0.055008
  C     -1.484061    0.018508   -0.121349
  H     -0.551988   -1.160404    1.418691
  H     -1.226868   -2.114613    0.093167
  H      1.229287   -2.113297   -0.092857
  H      0.553345   -1.160148   -1.418680
  H      1.823976   -0.123056    1.152649
  H      2.377242    0.140527   -0.496630
  H      1.202946    2.201649    0.112850
  H     -1.205455    2.200269   -0.112583
  H     -2.377513    0.137820    0.496356
  H     -1.823906   -0.125157   -1.152495

 Total Charge           Charge          ....    0
 Multiplicity           Mult            ....    1
 Number of Electrons    NEL             ....   46
 Basis Dimension        Dim             ....  104

ORBITAL ENERGIES
----------------

  NO   OCC          E(Eh)            E(eV)
   0   2.0000      -9.883058      -268.9317
   1   2.0000      -9.883032      -268.9310
   2   2.0000      -9.879901      -268.8458
   3   2.0000      -9.879884      -268.8453
   4   2.0000      -9.878555      -268.8091
   5   2.0000      -9.877948      -268.7926
   6   2.0000      -0.751611       -20.4524
   7   2.0000      -0.663286       -18.0489
   8   2.0000      -0.659879       -17.9562
   9   2.0000      -0.547918       -14.9096
  10   2.0000      -0.530627       -14.4391
  11   2.0000      -0.454460       -12.3665
  12   2.0000      -0.442301       -12.0356
  13   2.0000      -0.393056       -10.6956
  14   2.0000      -0.380566       -10.3557
  15   2.0000      -0.360389        -9.8067
  16   2.0000      -0.341647        -9.2967
  17   2.0000      -0.335881        -9.1398
  18   2.0000      -0.332471        -9.0470
  19   2.0000      -0.287122        -7.8130
  20   2.0000      -0.272534        -7.4160
  21   2.0000      -0.260397        -7.0858
  22   2.0000      -0.209361        -5.6970
  23   0.0000      -0.004956        -0.1349
  24   0.0000       0.037911         1.0316
  25   0.0000       0.069107         1.8805
  26   0.0000       0.076217         2.0740
  27   0.0000       0.080378         2.1872

MULLIKEN ATOMIC CHARGES
-----------------------
   0 C :   -0.166947
   1 C :   -0.166866
   2 C :   -0.103162
   3 C :   -0.139981
   4 C :   -0.139995
   5 C :   -0.103030
   6 H :    0.086583
   7 H :    0.082066
   8 H :    0.082079
   9 H :    0.086590
  10 H :    0.093579
  11 H :    0.089036
  12 H :    0.058754
  13 H :    0.058738
  14 H :    0.089015
  15 H :    0.093540
Sum of atomic charges:    0.0000000

LOEWDIN ATOMIC CHARGES
----------------------
   0 C :   -0.223610
   1 C :   -0.223613
   2 C :   -0.224507
   3 C :   -0.148911
   4 C :   -0.148902
   5 C :   -0.224537
   6 H :    0.116968
   7 H :    0.115314
   8 H :    0.115323
   9 H :    0.116969
  10 H :    0.125087
  11 H :    0.122685
  12 H :    0.116978
  13 H :    0.116975
  14 H :    0.122690
  15 H :    0.125093

  Mayer bond orders larger than 0.100000
B(  0-C ,  1-C ) :   1.1104 B(  0-C ,  5-C ) :   1.1347 B(  0-C ,  6-H ) :   0.9273
B(  0-C ,  7-H ) :   0.9206 B(  1-C ,  2-C ) :   1.1347 B(  1-C ,  8-H ) :   0.9206
B(  1-C ,  9-H ) :   0.9273 B(  2-C ,  3-C ) :   1.0625 B(  2-C , 10-H ) :   0.8988
B(  2-C , 11-H ) :   0.9115 B(  3-C ,  4-C ) :   1.9706 B(  3-C , 12-H ) :   0.9383
B(  4-C ,  5-C ) :   1.0625 B(  4-C , 13-H ) :   0.9383 B(  5-C , 14-H ) :   0.9115
B(  5-C , 15-H ) :   0.8988

Dispersion correction           -0.013384331
FINAL SINGLE POINT ENERGY      -234.071318901660

DIPOLE MOMENT
-------------

Method             : SCF
Type of density    : Electron Density
Multiplicity       :   1
Irrep              :   0
Energy             :  -234.1226588891763072 Eh
Relativity type    :
Basis              : AO
                                X                 Y                 Z
Electronic contribution:     -0.001018068       1.885302735      -0.000410965
Nuclear contribution   :      0.001000409      -1.985556942       0.000439167
                        -----------------------------------------
Total Dipole Moment    :     -0.000017659      -0.100254207       0.000028202
                        -----------------------------------------
Magnitude (a.u.)       :      0.100254213
Magnitude (Debye)      :      0.254825957

Rotational constants in cm-1:             0.160342             0.153686             0.086887
Rotational constants in MHz :          4806.932255          4607.387562          2604.815426

                             ****ORCA TERMINATED NORMALLY****
TOTAL RUN TIME: 0 days 0 hours 0 minutes 21 seconds 799 msec
