                         Program Version 6.0.0  -   RELEASE  -
|  1> ! pbe def2-sv(p) def2/J RI DEFGRID1 loosescf d4 GCP(DFT/SV(P)) printgap
|  2> %output
|  3>     printlevel normal
|  4> end
|  5> * xyz 0 1
|  6> C 2.6478362373 -1.681084847 -2.5855532025
|  7> C 2.8604115324 -0.1908422798 -2.4221623622
|  8> O 2.0173368642 0.3900623014 -1.389834838
|  9> P 2.066793765 -0.0103920998 0.1318564749
| 10> S 1.5146925064 1.4255117037 1.3479569653
| 11> O 3.5867737079 -0.4521802041 0.2946623211
| 12> C 4.1180345405 -0.8080185791 1.5852528541
| 13> C 5.6300164064 -0.7935697601 1.4856115144
| 14> S 1.0025463716 -1.8464635391 0.3712458312
| 15> C -0.2914757536 -1.3927089296 1.5572838186
| 16> S -1.9541397414 -1.4594144716 0.8402754401
| 17> P -2.0615888277 0.559452329 0.1740296468
| 18> S -1.9293831151 1.9169176439 1.5759040308
| 19> O -3.4267050988 0.5671447464 -0.6329338848
| 20> C -4.6913774653 0.527388838 0.0611675298
| 21> C -5.7700988135 0.9512443798 -0.9145519635
| 22> O -0.9754261884 0.6845203822 -0.9663355596
| 23> C -1.1177689798 -0.0274881627 -2.2271939118
| 24> C -1.7216112029 0.8720673399 -3.2838979659
| 25> H 1.6111942592 -1.9066187661 -2.8218332367
| 26> H 3.2809261073 -2.0379997913 -3.3921213471
| 27> H 2.9148636132 -2.2034893787 -1.6686362305
| 28> H 2.5705858694 0.3619933151 -3.3172331846
| 29> H 3.8993133066 0.0280400029 -2.1714873983
| 30> H 3.7559908605 -0.0841596324 2.3232492
| 31> H 3.7444923793 -1.8025228324 1.8448876385
| 32> H 5.9603454449 -1.500531841 0.730414704
| 33> H 5.9766202763 0.2002180648 1.2164101674
| 34> H 6.051632044 -1.0702682741 2.44622487
| 35> H -0.095454971 -0.3806152877 1.927401687
| 36> H -0.2701565719 -2.1204828568 2.3635640426
| 37> H -4.849832632 -0.4941943128 0.4165109804
| 38> H -4.6357241611 1.2016126488 0.9220607583
| 39> H -5.5857802283 1.9653233577 -1.2582043594
| 40> H -5.7815495651 0.2826465447 -1.7703541865
| 41> H -6.7329024966 0.91326743 -0.4160025833
| 42> H -0.0991666974 -0.3141587741 -2.4896537565
| 43> H -1.7267779318 -0.9204065704 -2.062240824
| 44> H -2.7347649441 1.1517005052 -3.0085348588
| 45> H -1.1247861114 1.7747956176 -3.3853301347
| 46> H -1.7387524899 0.3418808189 -4.2310914997
| 47> *
| 48>
| 49>                          ****END OF INPUT****

CARTESIAN COORDINATES (ANGSTROEM)
---------------------------------
  C      2.647836   -1.681085   -2.585553
  C      2.860412   -0.190842   -2.422162
  O      2.017337    0.390062   -1.389835
  P      2.066794   -0.010392    0.131856
  S      1.514693    1.425512    1.347957
  O      3.586774   -0.452180    0.294662
  C      4.118035   -0.808019    1.585253
  C      5.630016   -0.793570    1.485612
  S      1.002546   -1.846464    0.371246
  C     -0.291476   -1.392709    1.557284
  S     -1.954140   -1.459414    0.840275
  P     -2.061589    0.559452    0.174030
  S     -1.929383    1.916918    1.575904
  O     -3.426705    0.567145   -0.632934
  C     -4.691377    0.527389    0.061168
  C     -5.770099    0.951244   -0.914552
  O     -0.975426    0.684520   -0.966336
  C     -1.117769   -0.027488   -2.227194
  C     -1.721611    0.872067   -3.283898
  H      1.611194   -1.906619   -2.821833
  H      3.280926   -2.038000   -3.392121
  H      2.914864   -2.203489   -1.668636
  H      2.570586    0.361993   -3.317233
  H      3.899313    0.028040   -2.171487
  H      3.755991   -0.084160    2.323249
  H      3.744492   -1.802523    1.844888
  H      5.960345   -1.500532    0.730415
  H      5.976620    0.200218    1.216410
  H      6.051632   -1.070268    2.446225
  H     -0.095455   -0.380615    1.927402
  H     -0.270157   -2.120483    2.363564
  H     -4.849833   -0.494194    0.416511
  H     -4.635724    1.201613    0.922061
  H     -5.585780    1.965323   -1.258204
  H     -5.781550    0.282647   -1.770354
  H     -6.732902    0.913267   -0.416003
  H     -0.099167   -0.314159   -2.489654
  H     -1.726778   -0.920407   -2.062241
  H     -2.734765    1.151701   -3.008535
  H     -1.124786    1.774796   -3.385330
  H     -1.738752    0.341881   -4.231091

 Total Charge           Charge          ....    0
 Multiplicity           Mult            ....    1
 Number of Electrons    NEL             ....  202
 Basis Dimension        Dim             ....  334

ORBITAL ENERGIES
----------------

  NO   OCC          E(Eh)            E(eV)
   0   2.0000     -88.040555     -2395.7053
   1   2.0000     -88.034749     -2395.5473
   2   2.0000     -87.977956     -2394.0019
   3   2.0000     -87.971640     -2393.8300
   4   2.0000     -76.423392     -2079.5862
   5   2.0000     -76.417925     -2079.4375
   6   2.0000     -18.794693      -511.4296
   7   2.0000     -18.793464      -511.3961
   8   2.0000     -18.792161      -511.3607
   9   2.0000     -18.787102      -511.2230
  10   2.0000      -9.962868      -271.1034
  11   2.0000      -9.952387      -270.8182
  12   2.0000      -9.952380      -270.8180
  13   2.0000      -9.950794      -270.7749
  14   2.0000      -9.948922      -270.7239
  15   2.0000      -9.896809      -269.3059
  16   2.0000      -9.889774      -269.1144
  17   2.0000      -9.888689      -269.0849
  18   2.0000      -9.881942      -268.9013
  19   2.0000      -7.685303      -209.1277
  20   2.0000      -7.680241      -208.9900
  21   2.0000      -7.622963      -207.4314
  22   2.0000      -7.616926      -207.2671
  23   2.0000      -6.420832      -174.7197
  24   2.0000      -6.415710      -174.5803
  25   2.0000      -5.713145      -155.4626
  26   2.0000      -5.709635      -155.3671
  27   2.0000      -5.707947      -155.3211
  28   2.0000      -5.704746      -155.2340
  29   2.0000      -5.702584      -155.1752
  30   2.0000      -5.697342      -155.0326
  31   2.0000      -5.652065      -153.8005
  32   2.0000      -5.646102      -153.6382
  33   2.0000      -5.643349      -153.5633
  34   2.0000      -5.643148      -153.5579
  35   2.0000      -5.637406      -153.4016
  36   2.0000      -5.636949      -153.3892
  37   2.0000      -4.643795      -126.3641
  38   2.0000      -4.642388      -126.3258
  39   2.0000      -4.641060      -126.2897
  40   2.0000      -4.638778      -126.2276
  41   2.0000      -4.637508      -126.1930
  42   2.0000      -4.635582      -126.1406
  43   2.0000      -0.990773       -26.9603
  44   2.0000      -0.985742       -26.8234
  45   2.0000      -0.945684       -25.7334
  46   2.0000      -0.941463       -25.6185
  47   2.0000      -0.757096       -20.6016
  48   2.0000      -0.720839       -19.6150
  49   2.0000      -0.710921       -19.3451
  50   2.0000      -0.696771       -18.9601
  51   2.0000      -0.690268       -18.7832
  52   2.0000      -0.673573       -18.3289
  53   2.0000      -0.644622       -17.5411
  54   2.0000      -0.626801       -17.0561
  55   2.0000      -0.595983       -16.2175
  56   2.0000      -0.583101       -15.8670
  57   2.0000      -0.575357       -15.6563
  58   2.0000      -0.567567       -15.4443
  59   2.0000      -0.562049       -15.2941
  60   2.0000      -0.508617       -13.8402
  61   2.0000      -0.502828       -13.6826
  62   2.0000      -0.478809       -13.0291
  63   2.0000      -0.477172       -12.9845
  64   2.0000      -0.454042       -12.3551
  65   2.0000      -0.449506       -12.2317
  66   2.0000      -0.442965       -12.0537
  67   2.0000      -0.437583       -11.9072
  68   2.0000      -0.430672       -11.7192
  69   2.0000      -0.422750       -11.5036
  70   2.0000      -0.403898       -10.9906
  71   2.0000      -0.402618       -10.9558
  72   2.0000      -0.388501       -10.5717
  73   2.0000      -0.382879       -10.4187
  74   2.0000      -0.379430       -10.3248
  75   2.0000      -0.369749       -10.0614
  76   2.0000      -0.362290        -9.8584
  77   2.0000      -0.359947        -9.7947
  78   2.0000      -0.354089        -9.6352
  79   2.0000      -0.352844        -9.6014
  80   2.0000      -0.351252        -9.5580
  81   2.0000      -0.347929        -9.4676
  82   2.0000      -0.341296        -9.2871
  83   2.0000      -0.338522        -9.2117
  84   2.0000      -0.333863        -9.0849
  85   2.0000      -0.315663        -8.5896
  86   2.0000      -0.314556        -8.5595
  87   2.0000      -0.303471        -8.2579
  88   2.0000      -0.298510        -8.1229
  89   2.0000      -0.296725        -8.0743
  90   2.0000      -0.291260        -7.9256
  91   2.0000      -0.275940        -7.5087
  92   2.0000      -0.268287        -7.3005
  93   2.0000      -0.258077        -7.0226
  94   2.0000      -0.252861        -6.8807
  95   2.0000      -0.233634        -6.3575
  96   2.0000      -0.218184        -5.9371
  97   2.0000      -0.211653        -5.7594
  98   2.0000      -0.198373        -5.3980
  99   2.0000      -0.181643        -4.9428
 100   2.0000      -0.176368        -4.7992
 101   0.0000      -0.035145        -0.9563
 102   0.0000      -0.027417        -0.7461
 103   0.0000      -0.016302        -0.4436
 104   0.0000       0.010939         0.2977
 105   0.0000       0.018960         0.5159

MULLIKEN ATOMIC CHARGES
-----------------------
   0 C :   -0.337026
   1 C :    0.007307
   2 O :   -0.366255
   3 P :    0.604961
   4 S :   -0.267772
   5 O :   -0.390339
   6 C :   -0.003643
   7 C :   -0.281479
   8 S :   -0.130979
   9 C :   -0.342154
  10 S :   -0.110180
  11 P :    0.591789
  12 S :   -0.286842
  13 O :   -0.387044
  14 C :   -0.013859
  15 C :   -0.283250
  16 O :   -0.353350
  17 C :   -0.029881
  18 C :   -0.291683
  19 H :    0.132509
  20 H :    0.117852
  21 H :    0.131103
  22 H :    0.111157
  23 H :    0.116834
  24 H :    0.104817
  25 H :    0.096792
  26 H :    0.111899
  27 H :    0.121083
  28 H :    0.113158
  29 H :    0.200467
  30 H :    0.181791
  31 H :    0.104578
  32 H :    0.107979
  33 H :    0.124095
  34 H :    0.114779
  35 H :    0.113508
  36 H :    0.120493
  37 H :    0.098936
  38 H :    0.122956
  39 H :    0.121400
  40 H :    0.103489
Sum of atomic charges:    0.0000000

LOEWDIN ATOMIC CHARGES
----------------------
   0 C :   -0.369784
   1 C :   -0.109695
   2 O :   -0.231246
   3 P :    0.563958
   4 S :   -0.270933
   5 O :   -0.253443
   6 C :   -0.123004
   7 C :   -0.350502
   8 S :    0.054789
   9 C :   -0.481181
  10 S :    0.049442
  11 P :    0.567848
  12 S :   -0.301086
  13 O :   -0.249071
  14 C :   -0.120850
  15 C :   -0.350934
  16 O :   -0.231615
  17 C :   -0.120941
  18 C :   -0.359018
  19 H :    0.125980
  20 H :    0.134393
  21 H :    0.119696
  22 H :    0.122109
  23 H :    0.118000
  24 H :    0.108427
  25 H :    0.105867
  26 H :    0.124202
  27 H :    0.128953
  28 H :    0.131524
  29 H :    0.125360
  30 H :    0.137414
  31 H :    0.109353
  32 H :    0.110358
  33 H :    0.129945
  34 H :    0.125172
  35 H :    0.131707
  36 H :    0.112899
  37 H :    0.104138
  38 H :    0.125278
  39 H :    0.129657
  40 H :    0.126833

  Mayer bond orders larger than 0.100000
B(  0-C ,  1-C ) :   1.1683 B(  0-C , 19-H ) :   0.9430 B(  0-C , 20-H ) :   0.9345
B(  0-C , 21-H ) :   0.9291 B(  1-C ,  2-O ) :   0.8900 B(  1-C , 22-H ) :   0.9327
B(  1-C , 23-H ) :   0.9262 B(  2-O ,  3-P ) :   1.1216 B(  3-P ,  4-S ) :   1.6762
B(  3-P ,  5-O ) :   1.0536 B(  3-P ,  8-S ) :   0.9365 B(  4-S ,  8-S ) :   0.1220
B(  4-S , 29-H ) :   0.1031 B(  5-O ,  6-C ) :   0.9047 B(  6-C ,  7-C ) :   1.1603
B(  6-C , 24-H ) :   0.9071 B(  6-C , 25-H ) :   0.9248 B(  7-C , 26-H ) :   0.9518
B(  7-C , 27-H ) :   0.9509 B(  7-C , 28-H ) :   0.9421 B(  8-S ,  9-C ) :   0.9988
B(  9-C , 10-S ) :   1.0021 B(  9-C , 29-H ) :   0.8348 B(  9-C , 30-H ) :   0.9120
B( 10-S , 11-P ) :   0.9503 B( 10-S , 12-S ) :   0.1084 B( 11-P , 12-S ) :   1.6872
B( 11-P , 13-O ) :   1.0642 B( 11-P , 16-O ) :   1.1268 B( 13-O , 14-C ) :   0.9064
B( 14-C , 15-C ) :   1.1600 B( 14-C , 31-H ) :   0.9295 B( 14-C , 32-H ) :   0.9060
B( 15-C , 33-H ) :   0.9504 B( 15-C , 34-H ) :   0.9507 B( 15-C , 35-H ) :   0.9418
B( 16-O , 17-C ) :   0.8939 B( 17-C , 18-C ) :   1.1648 B( 17-C , 36-H ) :   0.9089
B( 17-C , 37-H ) :   0.9133 B( 18-C , 38-H ) :   0.9420 B( 18-C , 39-H ) :   0.9454
B( 18-C , 40-H ) :   0.9400

Dispersion correction           -0.065505816
FINAL SINGLE POINT ENERGY     -2929.511304380204

DIPOLE MOMENT
-------------

Method             : SCF
Type of density    : Electron Density
Multiplicity       :   1
Irrep              :   0
Energy             : -2929.6328925785928732 Eh
Relativity type    :
Basis              : AO
                                X                 Y                 Z
Electronic contribution:     -3.707844726       5.097788999      15.783472825
Nuclear contribution   :      4.171571077      -6.679069035     -17.134257939
                        -----------------------------------------
Total Dipole Moment    :      0.463726351      -1.581280036      -1.350785114
                        -----------------------------------------
Magnitude (a.u.)       :      2.130753178
Magnitude (Debye)      :      5.415944166

Rotational constants in cm-1:             0.013914             0.004894             0.004461
Rotational constants in MHz :           417.139151           146.722814           133.725165

                             ****ORCA TERMINATED NORMALLY****
TOTAL RUN TIME: 0 days 0 hours 0 minutes 21 seconds 262 msec
