                         Program Version 6.0.0  -   RELEASE  -
|  1> ! pbe def2-sv(p) def2/J RI DEFGRID1 loosescf d4 GCP(DFT/SV(P)) printgap
|  2> %output
|  3>     printlevel normal
|  4> end
|  5> * xyz 0 1
|  6> C 3.0257620958 2.2608796914 -1.9254239805
|  7> C 3.8120930905 1.9708426013 -0.6625616132
|  8> O 3.6466381871 0.6100021753 -0.2336353403
|  9> P 2.2914620067 0.0851046408 0.4153547727
| 10> S 1.5079569061 1.3639719497 1.6807352975
| 11> O 2.7569617853 -1.2988210905 1.0219421651
| 12> C 2.8933471078 -1.5480984785 2.4399242562
| 13> C 1.7996960549 -2.485432546 2.9124784728
| 14> S 1.1968733357 -0.5922990472 -1.2718155245
| 15> C 0.1343444117 -1.8119910265 -0.4484211703
| 16> S -1.0213708029 -1.0850217452 0.7389381943
| 17> P -2.2161384691 -0.0506208651 -0.6953247079
| 18> S -2.3669795933 -0.9048829585 -2.4463652784
| 19> O -1.6130721055 1.4038127905 -0.7897349533
| 20> C -1.6699671469 2.3575238539 0.3031148346
| 21> C -0.9020086494 3.5888055864 -0.1254668737
| 22> O -3.5839510041 0.2124048091 0.0718258243
| 23> C -4.6751056369 -0.7277473039 0.0529784421
| 24> C -4.3325649637 -2.025954231 0.7539627039
| 25> H 3.2233598404 3.2771393481 -2.2510621632
| 26> H 3.3061133906 1.5665218967 -2.7134091997
| 27> H 1.957537487 2.1504893505 -1.7356901988
| 28> H 3.496849537 2.6319026664 0.1522447347
| 29> H 4.8858845393 2.0703853063 -0.8258247204
| 30> H 3.8830634118 -1.9909043353 2.5600179251
| 31> H 2.847181399 -0.5957832306 2.9770724026
| 32> H 1.9375161644 -2.6841243251 3.9703216056
| 33> H 0.8217867133 -2.0294898256 2.7625905367
| 34> H 1.8420551538 -3.4235726512 2.3659203401
| 35> H 0.7466820805 -2.5285022987 0.0924078374
| 36> H -0.4297557677 -2.2916080243 -1.2493624932
| 37> H -2.7190699786 2.5832127497 0.5006180567
| 38> H -1.2222034076 1.9015631522 1.1910989974
| 39> H 0.1505689129 3.3480377767 -0.2484911011
| 40> H -1.2928934036 3.9650181187 -1.0664242091
| 41> H -0.9989422269 4.3493876429 0.6421657747
| 42> H -5.4810361421 -0.1956412884 0.5603646043
| 43> H -4.9486600422 -0.9140738425 -0.9899547526
| 44> H -3.9456115505 -1.8284982513 1.7506037954
| 45> H -5.2261006738 -2.6373981644 0.8279185127
| 46> H -3.5804320052 -2.5695901325 0.1843772202
| 47> *
| 48>
| 49>                          ****END OF INPUT****

CARTESIAN COORDINATES (ANGSTROEM)
---------------------------------
  C      3.025762    2.260880   -1.925424
  C      3.812093    1.970843   -0.662562
  O      3.646638    0.610002   -0.233635
  P      2.291462    0.085105    0.415355
  S      1.507957    1.363972    1.680735
  O      2.756962   -1.298821    1.021942
  C      2.893347   -1.548098    2.439924
  C      1.799696   -2.485433    2.912478
  S      1.196873   -0.592299   -1.271816
  C      0.134344   -1.811991   -0.448421
  S     -1.021371   -1.085022    0.738938
  P     -2.216138   -0.050621   -0.695325
  S     -2.366980   -0.904883   -2.446365
  O     -1.613072    1.403813   -0.789735
  C     -1.669967    2.357524    0.303115
  C     -0.902009    3.588806   -0.125467
  O     -3.583951    0.212405    0.071826
  C     -4.675106   -0.727747    0.052978
  C     -4.332565   -2.025954    0.753963
  H      3.223360    3.277139   -2.251062
  H      3.306113    1.566522   -2.713409
  H      1.957537    2.150489   -1.735690
  H      3.496850    2.631903    0.152245
  H      4.885885    2.070385   -0.825825
  H      3.883063   -1.990904    2.560018
  H      2.847181   -0.595783    2.977072
  H      1.937516   -2.684124    3.970322
  H      0.821787   -2.029490    2.762591
  H      1.842055   -3.423573    2.365920
  H      0.746682   -2.528502    0.092408
  H     -0.429756   -2.291608   -1.249362
  H     -2.719070    2.583213    0.500618
  H     -1.222203    1.901563    1.191099
  H      0.150569    3.348038   -0.248491
  H     -1.292893    3.965018   -1.066424
  H     -0.998942    4.349388    0.642166
  H     -5.481036   -0.195641    0.560365
  H     -4.948660   -0.914074   -0.989955
  H     -3.945612   -1.828498    1.750604
  H     -5.226101   -2.637398    0.827919
  H     -3.580432   -2.569590    0.184377

 Total Charge           Charge          ....    0
 Multiplicity           Mult            ....    1
 Number of Electrons    NEL             ....  202
 Basis Dimension        Dim             ....  334

ORBITAL ENERGIES
----------------

  NO   OCC          E(Eh)            E(eV)
   0   2.0000     -88.040448     -2395.7024
   1   2.0000     -88.040179     -2395.6951
   2   2.0000     -87.989494     -2394.3159
   3   2.0000     -87.985822     -2394.2159
   4   2.0000     -76.427983     -2079.7111
   5   2.0000     -76.424431     -2079.6145
   6   2.0000     -18.796280      -511.4728
   7   2.0000     -18.794381      -511.4211
   8   2.0000     -18.790222      -511.3079
   9   2.0000     -18.785007      -511.1660
  10   2.0000      -9.956131      -270.9201
  11   2.0000      -9.955000      -270.8893
  12   2.0000      -9.954168      -270.8667
  13   2.0000      -9.951432      -270.7922
  14   2.0000      -9.943344      -270.5721
  15   2.0000      -9.890860      -269.1440
  16   2.0000      -9.885098      -268.9872
  17   2.0000      -9.884633      -268.9745
  18   2.0000      -9.877347      -268.7763
  19   2.0000      -7.685186      -209.1245
  20   2.0000      -7.685069      -209.1214
  21   2.0000      -7.634314      -207.7402
  22   2.0000      -7.631086      -207.6524
  23   2.0000      -6.425667      -174.8513
  24   2.0000      -6.421940      -174.7499
  25   2.0000      -5.713239      -155.4651
  26   2.0000      -5.712819      -155.4537
  27   2.0000      -5.709775      -155.3709
  28   2.0000      -5.709706      -155.3690
  29   2.0000      -5.702089      -155.1617
  30   2.0000      -5.701923      -155.1572
  31   2.0000      -5.662990      -154.0978
  32   2.0000      -5.660031      -154.0173
  33   2.0000      -5.654995      -153.8802
  34   2.0000      -5.654637      -153.8705
  35   2.0000      -5.651576      -153.7872
  36   2.0000      -5.651318      -153.7802
  37   2.0000      -4.648297      -126.4866
  38   2.0000      -4.647545      -126.4661
  39   2.0000      -4.645941      -126.4225
  40   2.0000      -4.644882      -126.3937
  41   2.0000      -4.643484      -126.3556
  42   2.0000      -4.642296      -126.3233
  43   2.0000      -0.988349       -26.8943
  44   2.0000      -0.985752       -26.8237
  45   2.0000      -0.948168       -25.8010
  46   2.0000      -0.940547       -25.5936
  47   2.0000      -0.762823       -20.7575
  48   2.0000      -0.721806       -19.6413
  49   2.0000      -0.709136       -19.2966
  50   2.0000      -0.688010       -18.7217
  51   2.0000      -0.687129       -18.6977
  52   2.0000      -0.672761       -18.3068
  53   2.0000      -0.652781       -17.7631
  54   2.0000      -0.638290       -17.3687
  55   2.0000      -0.601285       -16.3618
  56   2.0000      -0.590886       -16.0788
  57   2.0000      -0.575169       -15.6511
  58   2.0000      -0.564599       -15.3635
  59   2.0000      -0.559162       -15.2156
  60   2.0000      -0.503675       -13.7057
  61   2.0000      -0.499926       -13.6037
  62   2.0000      -0.473823       -12.8934
  63   2.0000      -0.472369       -12.8538
  64   2.0000      -0.461997       -12.5716
  65   2.0000      -0.443498       -12.0682
  66   2.0000      -0.440605       -11.9895
  67   2.0000      -0.434188       -11.8148
  68   2.0000      -0.427762       -11.6400
  69   2.0000      -0.418912       -11.3992
  70   2.0000      -0.410196       -11.1620
  71   2.0000      -0.395494       -10.7619
  72   2.0000      -0.391239       -10.6461
  73   2.0000      -0.387185       -10.5358
  74   2.0000      -0.377523       -10.2729
  75   2.0000      -0.375189       -10.2094
  76   2.0000      -0.364126        -9.9084
  77   2.0000      -0.361455        -9.8357
  78   2.0000      -0.357397        -9.7253
  79   2.0000      -0.352527        -9.5928
  80   2.0000      -0.348321        -9.4783
  81   2.0000      -0.345393        -9.3986
  82   2.0000      -0.339340        -9.2339
  83   2.0000      -0.336458        -9.1555
  84   2.0000      -0.332074        -9.0362
  85   2.0000      -0.318698        -8.6722
  86   2.0000      -0.307163        -8.3583
  87   2.0000      -0.299043        -8.1374
  88   2.0000      -0.297689        -8.1005
  89   2.0000      -0.294318        -8.0088
  90   2.0000      -0.287262        -7.8168
  91   2.0000      -0.275900        -7.5076
  92   2.0000      -0.266542        -7.2530
  93   2.0000      -0.263334        -7.1657
  94   2.0000      -0.256685        -6.9848
  95   2.0000      -0.240889        -6.5549
  96   2.0000      -0.218435        -5.9439
  97   2.0000      -0.208801        -5.6818
  98   2.0000      -0.206668        -5.6237
  99   2.0000      -0.201066        -5.4713
 100   2.0000      -0.194064        -5.2808
 101   0.0000      -0.046885        -1.2758
 102   0.0000      -0.026135        -0.7112
 103   0.0000      -0.013761        -0.3745
 104   0.0000       0.000120         0.0033
 105   0.0000       0.014783         0.4023

MULLIKEN ATOMIC CHARGES
-----------------------
   0 C :   -0.343848
   1 C :   -0.005132
   2 O :   -0.364148
   3 P :    0.607031
   4 S :   -0.329475
   5 O :   -0.372415
   6 C :   -0.005779
   7 C :   -0.314739
   8 S :   -0.068805
   9 C :   -0.372801
  10 S :   -0.103622
  11 P :    0.627497
  12 S :   -0.317704
  13 O :   -0.357463
  14 C :   -0.021686
  15 C :   -0.290800
  16 O :   -0.387755
  17 C :    0.000371
  18 C :   -0.315606
  19 H :    0.115730
  20 H :    0.123625
  21 H :    0.154739
  22 H :    0.109622
  23 H :    0.106433
  24 H :    0.109270
  25 H :    0.113738
  26 H :    0.115555
  27 H :    0.131719
  28 H :    0.120961
  29 H :    0.192596
  30 H :    0.194502
  31 H :    0.102919
  32 H :    0.120181
  33 H :    0.131017
  34 H :    0.114617
  35 H :    0.104824
  36 H :    0.104919
  37 H :    0.113547
  38 H :    0.117712
  39 H :    0.113213
  40 H :    0.125440
Sum of atomic charges:   -0.0000000

LOEWDIN ATOMIC CHARGES
----------------------
   0 C :   -0.370942
   1 C :   -0.121699
   2 O :   -0.243644
   3 P :    0.569449
   4 S :   -0.307805
   5 O :   -0.241856
   6 C :   -0.116417
   7 C :   -0.361250
   8 S :    0.097049
   9 C :   -0.484163
  10 S :    0.076051
  11 P :    0.576028
  12 S :   -0.310148
  13 O :   -0.235671
  14 C :   -0.117916
  15 C :   -0.353387
  16 O :   -0.247392
  17 C :   -0.115444
  18 C :   -0.370877
  19 H :    0.132524
  20 H :    0.128028
  21 H :    0.123612
  22 H :    0.107243
  23 H :    0.119477
  24 H :    0.119667
  25 H :    0.108994
  26 H :    0.133356
  27 H :    0.121407
  28 H :    0.124475
  29 H :    0.131505
  30 H :    0.129723
  31 H :    0.109855
  32 H :    0.105280
  33 H :    0.121979
  34 H :    0.126263
  35 H :    0.129498
  36 H :    0.118736
  37 H :    0.113259
  38 H :    0.123469
  39 H :    0.131156
  40 H :    0.120527

  Mayer bond orders larger than 0.100000
B(  0-C ,  1-C ) :   1.1623 B(  0-C , 19-H ) :   0.9391 B(  0-C , 20-H ) :   0.9429
B(  0-C , 21-H ) :   0.9236 B(  1-C ,  2-O ) :   0.9134 B(  1-C , 22-H ) :   0.9122
B(  1-C , 23-H ) :   0.9323 B(  2-O ,  3-P ) :   1.1165 B(  3-P ,  4-S ) :   1.6005
B(  3-P ,  5-O ) :   1.1169 B(  3-P ,  8-S ) :   0.9704 B(  4-S ,  8-S ) :   0.1076
B(  5-O ,  6-C ) :   0.8962 B(  6-C ,  7-C ) :   1.1697 B(  6-C , 24-H ) :   0.9318
B(  6-C , 25-H ) :   0.9035 B(  7-C , 26-H ) :   0.9380 B(  7-C , 27-H ) :   0.9356
B(  7-C , 28-H ) :   0.9426 B(  8-S ,  9-C ) :   1.0003 B(  9-C , 10-S ) :   1.0135
B(  9-C , 29-H ) :   0.8907 B(  9-C , 30-H ) :   0.8746 B( 10-S , 11-P ) :   0.9385
B( 10-S , 12-S ) :   0.1075 B( 11-P , 12-S ) :   1.6273 B( 11-P , 13-O ) :   1.1486
B( 11-P , 16-O ) :   1.0849 B( 13-O , 14-C ) :   0.8871 B( 14-C , 15-C ) :   1.1698
B( 14-C , 31-H ) :   0.9275 B( 14-C , 32-H ) :   0.9057 B( 15-C , 33-H ) :   0.9335
B( 15-C , 34-H ) :   0.9494 B( 15-C , 35-H ) :   0.9393 B( 16-O , 17-C ) :   0.9073
B( 17-C , 18-C ) :   1.1663 B( 17-C , 36-H ) :   0.9343 B( 17-C , 37-H ) :   0.9191
B( 18-C , 38-H ) :   0.9435 B( 18-C , 39-H ) :   0.9366 B( 18-C , 40-H ) :   0.9350

Dispersion correction           -0.066418442
FINAL SINGLE POINT ENERGY     -2929.522514115107

DIPOLE MOMENT
-------------

Method             : SCF
Type of density    : Electron Density
Multiplicity       :   1
Irrep              :   0
Energy             : -2929.6408273275387728 Eh
Relativity type    :
Basis              : AO
                                X                 Y                 Z
Electronic contribution:      0.882346629      -4.021059379      -8.083644002
Nuclear contribution   :     -0.729622515       3.915796181       9.161548551
                        -----------------------------------------
Total Dipole Moment    :      0.152724115      -0.105263198       1.077904548
                        -----------------------------------------
Magnitude (a.u.)       :      1.093747325
Magnitude (Debye)      :      2.780084763

Rotational constants in cm-1:             0.011311             0.005589             0.004894
Rotational constants in MHz :           339.104968           167.553615           146.704760

                             ****ORCA TERMINATED NORMALLY****
TOTAL RUN TIME: 0 days 0 hours 0 minutes 21 seconds 124 msec
