                         Program Version 6.0.0  -   RELEASE  -
|  1> ! pbe def2-sv(p) def2/J RI DEFGRID1 loosescf d4 GCP(DFT/SV(P)) printgap
|  2> %output
|  3>     printlevel normal
|  4> end
|  5> * xyz 0 1
|  6> C 4.2948598535 -0.2899804981 -2.1994822188
|  7> C 4.4373259019 0.6540376759 -1.023384467
|  8> O 3.6651217649 0.2343027971 0.1154172411
|  9> P 2.0759270978 0.1943712593 0.1108095332
| 10> S 1.1918004854 1.6972893771 -0.7768958799
| 11> O 1.7265462911 0.1400227964 1.6486103325
| 12> C 2.233928648 -0.8640146029 2.5627788665
| 13> C 3.4667451154 -0.3621292451 3.2854049375
| 14> S 1.6353780925 -1.7546847326 -0.6308526026
| 15> C -0.1210000155 -1.5123643064 -0.9459014943
| 16> S -1.054972722 -1.1799848158 0.5925969225
| 17> P -2.5025562754 0.1993448853 -0.1383043228
| 18> S -2.2261884118 0.8512481087 -1.9722041412
| 19> O -2.6627950697 1.3258892085 0.9595945307
| 20> C -1.8987700084 2.5421885121 0.9971788418
| 21> C -0.915769986 2.5089615946 2.1507851445
| 22> O -3.8886343216 -0.4909487117 0.1891820808
| 23> C -4.2184458171 -1.8558338998 -0.122736525
| 24> C -4.2087989832 -2.1304144701 -1.6134204444
| 25> H 4.4880977348 -1.3139598308 -1.8898404244
| 26> H 3.2870498835 -0.229635662 -2.6075826798
| 27> H 5.0018201593 -0.006531874 -2.9726756007
| 28> H 4.1208520499 1.6644180831 -1.3001740288
| 29> H 5.4614387106 0.6767403879 -0.6480160306
| 30> H 1.4073918468 -1.0416952733 3.2534681539
| 31> H 2.4469818974 -1.7781428343 2.0019171721
| 32> H 4.275956187 -0.1954321057 2.5797710877
| 33> H 3.2469244222 0.5720623265 3.7948327413
| 34> H 3.7743854798 -1.1045615589 4.0151040634
| 35> H -0.4744285692 -2.4414936256 -1.3861437787
| 36> H -0.2707568226 -0.6665207733 -1.624183933
| 37> H -1.3841829764 2.6855383711 0.0401156015
| 38> H -2.6341688917 3.3385341244 1.1295956509
| 39> H -1.4397087912 2.2922767827 3.0772402934
| 40> H -0.1580548649 1.7458425127 1.9842006515
| 41> H -0.4252923303 3.4742630311 2.2251222684
| 42> H -3.5159188756 -2.5118481915 0.4004738246
| 43> H -5.2180116727 -1.9791590299 0.2976297627
| 44> H -4.8782709691 -1.4448209306 -2.1270242343
| 45> H -3.2068075697 -1.991779702 -2.0174008313
| 46> H -4.5295557068 -3.151189585 -1.7947932826
| 47> *
| 48>
| 49>                          ****END OF INPUT****

CARTESIAN COORDINATES (ANGSTROEM)
---------------------------------
  C      4.294860   -0.289980   -2.199482
  C      4.437326    0.654038   -1.023384
  O      3.665122    0.234303    0.115417
  P      2.075927    0.194371    0.110810
  S      1.191800    1.697289   -0.776896
  O      1.726546    0.140023    1.648610
  C      2.233929   -0.864015    2.562779
  C      3.466745   -0.362129    3.285405
  S      1.635378   -1.754685   -0.630853
  C     -0.121000   -1.512364   -0.945901
  S     -1.054973   -1.179985    0.592597
  P     -2.502556    0.199345   -0.138304
  S     -2.226188    0.851248   -1.972204
  O     -2.662795    1.325889    0.959595
  C     -1.898770    2.542189    0.997179
  C     -0.915770    2.508962    2.150785
  O     -3.888634   -0.490949    0.189182
  C     -4.218446   -1.855834   -0.122737
  C     -4.208799   -2.130414   -1.613420
  H      4.488098   -1.313960   -1.889840
  H      3.287050   -0.229636   -2.607583
  H      5.001820   -0.006532   -2.972676
  H      4.120852    1.664418   -1.300174
  H      5.461439    0.676740   -0.648016
  H      1.407392   -1.041695    3.253468
  H      2.446982   -1.778143    2.001917
  H      4.275956   -0.195432    2.579771
  H      3.246924    0.572062    3.794833
  H      3.774385   -1.104562    4.015104
  H     -0.474429   -2.441494   -1.386144
  H     -0.270757   -0.666521   -1.624184
  H     -1.384183    2.685538    0.040116
  H     -2.634169    3.338534    1.129596
  H     -1.439709    2.292277    3.077240
  H     -0.158055    1.745843    1.984201
  H     -0.425292    3.474263    2.225122
  H     -3.515919   -2.511848    0.400474
  H     -5.218012   -1.979159    0.297630
  H     -4.878271   -1.444821   -2.127024
  H     -3.206808   -1.991780   -2.017401
  H     -4.529556   -3.151190   -1.794793

 Total Charge           Charge          ....    0
 Multiplicity           Mult            ....    1
 Number of Electrons    NEL             ....  202
 Basis Dimension        Dim             ....  334

ORBITAL ENERGIES
----------------

  NO   OCC          E(Eh)            E(eV)
   0   2.0000     -88.049627     -2395.9522
   1   2.0000     -88.042585     -2395.7605
   2   2.0000     -87.987352     -2394.2576
   3   2.0000     -87.980949     -2394.0833
   4   2.0000     -76.430124     -2079.7694
   5   2.0000     -76.421399     -2079.5320
   6   2.0000     -18.799710      -511.5661
   7   2.0000     -18.795978      -511.4646
   8   2.0000     -18.784106      -511.1415
   9   2.0000     -18.780717      -511.0493
  10   2.0000      -9.957815      -270.9659
  11   2.0000      -9.957722      -270.9634
  12   2.0000      -9.955332      -270.8984
  13   2.0000      -9.951701      -270.7995
  14   2.0000      -9.936170      -270.3769
  15   2.0000      -9.888692      -269.0850
  16   2.0000      -9.887969      -269.0653
  17   2.0000      -9.882104      -268.9057
  18   2.0000      -9.866262      -268.4746
  19   2.0000      -7.694506      -209.3781
  20   2.0000      -7.686994      -209.1737
  21   2.0000      -7.632178      -207.6821
  22   2.0000      -7.625957      -207.5129
  23   2.0000      -6.427404      -174.8986
  24   2.0000      -6.418525      -174.6569
  25   2.0000      -5.722370      -155.7136
  26   2.0000      -5.718856      -155.6180
  27   2.0000      -5.714809      -155.5079
  28   2.0000      -5.711683      -155.4228
  29   2.0000      -5.711506      -155.4180
  30   2.0000      -5.704132      -155.2173
  31   2.0000      -5.661218      -154.0496
  32   2.0000      -5.654834      -153.8759
  33   2.0000      -5.652526      -153.8130
  34   2.0000      -5.652485      -153.8119
  35   2.0000      -5.646529      -153.6499
  36   2.0000      -5.646198      -153.6409
  37   2.0000      -4.650271      -126.5403
  38   2.0000      -4.649179      -126.5106
  39   2.0000      -4.647615      -126.4680
  40   2.0000      -4.640740      -126.2810
  41   2.0000      -4.640693      -126.2797
  42   2.0000      -4.638949      -126.2322
  43   2.0000      -0.992955       -27.0197
  44   2.0000      -0.981533       -26.7089
  45   2.0000      -0.950519       -25.8649
  46   2.0000      -0.935931       -25.4680
  47   2.0000      -0.763721       -20.7819
  48   2.0000      -0.720634       -19.6095
  49   2.0000      -0.709746       -19.3132
  50   2.0000      -0.694155       -18.8889
  51   2.0000      -0.680859       -18.5271
  52   2.0000      -0.671986       -18.2857
  53   2.0000      -0.651731       -17.7345
  54   2.0000      -0.633207       -17.2304
  55   2.0000      -0.599116       -16.3028
  56   2.0000      -0.590492       -16.0681
  57   2.0000      -0.579303       -15.7636
  58   2.0000      -0.567114       -15.4320
  59   2.0000      -0.555381       -15.1127
  60   2.0000      -0.504052       -13.7160
  61   2.0000      -0.491926       -13.3860
  62   2.0000      -0.478646       -13.0246
  63   2.0000      -0.463447       -12.6110
  64   2.0000      -0.453013       -12.3271
  65   2.0000      -0.449476       -12.2309
  66   2.0000      -0.445102       -12.1118
  67   2.0000      -0.432712       -11.7747
  68   2.0000      -0.421955       -11.4820
  69   2.0000      -0.413757       -11.2589
  70   2.0000      -0.412561       -11.2264
  71   2.0000      -0.408370       -11.1123
  72   2.0000      -0.395728       -10.7683
  73   2.0000      -0.382827       -10.4172
  74   2.0000      -0.377536       -10.2733
  75   2.0000      -0.370876       -10.0921
  76   2.0000      -0.364815        -9.9271
  77   2.0000      -0.357405        -9.7255
  78   2.0000      -0.355839        -9.6829
  79   2.0000      -0.350538        -9.5386
  80   2.0000      -0.346358        -9.4249
  81   2.0000      -0.344559        -9.3759
  82   2.0000      -0.340985        -9.2787
  83   2.0000      -0.335264        -9.1230
  84   2.0000      -0.321234        -8.7412
  85   2.0000      -0.319353        -8.6900
  86   2.0000      -0.311260        -8.4698
  87   2.0000      -0.300365        -8.1733
  88   2.0000      -0.296019        -8.0551
  89   2.0000      -0.291050        -7.9199
  90   2.0000      -0.277415        -7.5489
  91   2.0000      -0.276257        -7.5173
  92   2.0000      -0.267437        -7.2773
  93   2.0000      -0.263478        -7.1696
  94   2.0000      -0.255053        -6.9403
  95   2.0000      -0.234816        -6.3897
  96   2.0000      -0.223909        -6.0929
  97   2.0000      -0.212213        -5.7746
  98   2.0000      -0.205533        -5.5928
  99   2.0000      -0.196439        -5.3454
 100   2.0000      -0.187598        -5.1048
 101   0.0000      -0.043919        -1.1951
 102   0.0000      -0.034409        -0.9363
 103   0.0000      -0.013628        -0.3708
 104   0.0000       0.009837         0.2677
 105   0.0000       0.014950         0.4068

MULLIKEN ATOMIC CHARGES
-----------------------
   0 C :   -0.322088
   1 C :   -0.000281
   2 O :   -0.379496
   3 P :    0.601771
   4 S :   -0.295825
   5 O :   -0.346664
   6 C :   -0.010698
   7 C :   -0.290069
   8 S :   -0.103390
   9 C :   -0.356998
  10 S :   -0.129389
  11 P :    0.607267
  12 S :   -0.310724
  13 O :   -0.356381
  14 C :   -0.011801
  15 C :   -0.308793
  16 O :   -0.356167
  17 C :   -0.006908
  18 C :   -0.311702
  19 H :    0.117518
  20 H :    0.133607
  21 H :    0.116532
  22 H :    0.115093
  23 H :    0.105771
  24 H :    0.111748
  25 H :    0.102103
  26 H :    0.121729
  27 H :    0.120303
  28 H :    0.110166
  29 H :    0.181675
  30 H :    0.215420
  31 H :    0.122637
  32 H :    0.099455
  33 H :    0.101886
  34 H :    0.140672
  35 H :    0.102883
  36 H :    0.105568
  37 H :    0.108181
  38 H :    0.125761
  39 H :    0.121736
  40 H :    0.107893
Sum of atomic charges:   -0.0000000

LOEWDIN ATOMIC CHARGES
----------------------
   0 C :   -0.371421
   1 C :   -0.116494
   2 O :   -0.246911
   3 P :    0.568233
   4 S :   -0.287008
   5 O :   -0.228317
   6 C :   -0.116956
   7 C :   -0.359492
   8 S :    0.082329
   9 C :   -0.483371
  10 S :    0.061349
  11 P :    0.567112
  12 S :   -0.295423
  13 O :   -0.231888
  14 C :   -0.118314
  15 C :   -0.366601
  16 O :   -0.235426
  17 C :   -0.119688
  18 C :   -0.367462
  19 H :    0.122886
  20 H :    0.123563
  21 H :    0.132879
  22 H :    0.114335
  23 H :    0.118811
  24 H :    0.120932
  25 H :    0.102377
  26 H :    0.125950
  27 H :    0.128963
  28 H :    0.129823
  29 H :    0.132047
  30 H :    0.123816
  31 H :    0.105591
  32 H :    0.114899
  33 H :    0.119606
  34 H :    0.121786
  35 H :    0.127895
  36 H :    0.102182
  37 H :    0.120760
  38 H :    0.131116
  39 H :    0.117693
  40 H :    0.127841

  Mayer bond orders larger than 0.100000
B(  0-C ,  1-C ) :   1.1662 B(  0-C , 19-H ) :   0.9433 B(  0-C , 20-H ) :   0.9348
B(  0-C , 21-H ) :   0.9369 B(  1-C ,  2-O ) :   0.9036 B(  1-C , 22-H ) :   0.9184
B(  1-C , 23-H ) :   0.9340 B(  2-O ,  3-P ) :   1.0849 B(  3-P ,  4-S ) :   1.6536
B(  3-P ,  5-O ) :   1.1198 B(  3-P ,  8-S ) :   0.9401 B(  4-S ,  8-S ) :   0.1071
B(  5-O ,  6-C ) :   0.8888 B(  6-C ,  7-C ) :   1.1649 B(  6-C , 24-H ) :   0.9341
B(  6-C , 25-H ) :   0.9099 B(  7-C , 26-H ) :   0.9417 B(  7-C , 27-H ) :   0.9475
B(  7-C , 28-H ) :   0.9398 B(  8-S ,  9-C ) :   1.0063 B(  9-C , 10-S ) :   0.9894
B(  9-C , 29-H ) :   0.9056 B(  9-C , 30-H ) :   0.8410 B( 10-S , 11-P ) :   0.9269
B( 10-S , 12-S ) :   0.1278 B( 11-P , 12-S ) :   1.6249 B( 11-P , 13-O ) :   1.1470
B( 11-P , 16-O ) :   1.1183 B( 13-O , 14-C ) :   0.9019 B( 14-C , 15-C ) :   1.1701
B( 14-C , 31-H ) :   0.9009 B( 14-C , 32-H ) :   0.9342 B( 15-C , 33-H ) :   0.9463
B( 15-C , 34-H ) :   0.9255 B( 15-C , 35-H ) :   0.9407 B( 16-O , 17-C ) :   0.9264
B( 17-C , 18-C ) :   1.1606 B( 17-C , 36-H ) :   0.9163 B( 17-C , 37-H ) :   0.9339
B( 18-C , 38-H ) :   0.9447 B( 18-C , 39-H ) :   0.9333 B( 18-C , 40-H ) :   0.9370

Dispersion correction           -0.066501117
FINAL SINGLE POINT ENERGY     -2929.520644418693

DIPOLE MOMENT
-------------

Method             : SCF
Type of density    : Electron Density
Multiplicity       :   1
Irrep              :   0
Energy             : -2929.6391572976540374 Eh
Relativity type    :
Basis              : AO
                                X                 Y                 Z
Electronic contribution:     -8.092127423       2.294482491      -5.466790270
Nuclear contribution   :      9.173215906      -3.519141348       6.182372125
                        -----------------------------------------
Total Dipole Moment    :      1.081088483      -1.224658856       0.715581855
                        -----------------------------------------
Magnitude (a.u.)       :      1.783423397
Magnitude (Debye)      :      4.533102024

Rotational constants in cm-1:             0.012224             0.005104             0.004867
Rotational constants in MHz :           366.461192           152.999392           145.903540

                             ****ORCA TERMINATED NORMALLY****
TOTAL RUN TIME: 0 days 0 hours 0 minutes 21 seconds 480 msec
