                         Program Version 6.0.0  -   RELEASE  -
|  1> ! pbe def2-sv(p) def2/J RI DEFGRID1 loosescf d4 GCP(DFT/SV(P)) printgap
|  2> %output
|  3>     printlevel normal
|  4> end
|  5> * xyz 0 1
|  6> C 4.6573503422 -2.9902836412 -1.4751692577
|  7> C 3.8528794702 -1.7133227215 -1.6086944836
|  8> O 2.9402673687 -1.647628806 -0.4931480389
|  9> P 2.1933751642 -0.3012987372 -0.1133458647
| 10> S 3.3376460981 1.2881578671 0.0376481702
| 11> O 1.4020621591 -0.7351142246 1.1845345574
| 12> C 1.879477398 -0.4277732894 2.5099313054
| 13> C 3.0955832344 -1.2583312084 2.8603880666
| 14> S 0.6451131901 -0.1885332436 -1.552461714
| 15> C 0.2061705776 1.537230025 -1.225472881
| 16> S -0.5135882731 1.7674520106 0.422358858
| 17> P -2.3541740849 0.7951873548 0.0417775294
| 18> S -2.9936501147 0.9152116604 -1.8118956864
| 19> O -3.1450598446 1.5534352462 1.1842602202
| 20> C -4.3581090474 1.0586400583 1.792195069
| 21> C -5.497082758 0.9501484122 0.7988443694
| 22> O -2.2845630343 -0.6901246469 0.6140606902
| 23> C -2.234576837 -1.8865689805 -0.1908359459
| 24> C -1.1866026949 -2.8277257128 0.3665487531
| 25> H 5.232954302 -2.9766896804 -0.5542001698
| 26> H 3.9904907315 -3.8471517063 -1.4618186697
| 27> H 5.3343205157 -3.0735908941 -2.3189921027
| 28> H 3.2664483479 -1.7043410176 -2.5314663964
| 29> H 4.495380176 -0.8267814586 -1.5850993572
| 30> H 2.107925497 0.6418190977 2.5587535984
| 31> H 1.0288015426 -0.6516549027 3.1546761476
| 32> H 3.3859616455 -1.0599101985 3.8872538601
| 33> H 2.8761442935 -2.3158574102 2.7411790655
| 34> H 3.9212134563 -0.993032759 2.2007961467
| 35> H -0.5179870198 1.8275551656 -1.9870523621
| 36> H 1.1029317931 2.1551195534 -1.26829647
| 37> H -4.1443501704 0.0906151375 2.2513094221
| 38> H -4.5722970334 1.7973291811 2.5664262921
| 39> H -6.4012502946 0.6467609718 1.317264728
| 40> H -5.6653175663 1.9076585726 0.3116339855
| 41> H -5.2606897511 0.2132357663 0.0321141734
| 42> H -3.2293277096 -2.3360530159 -0.1373342722
| 43> H -2.0230976917 -1.6154021089 -1.2297823527
| 44> H -0.1964910332 -2.3847701875 0.2963363166
| 45> H -1.3998801824 -3.0460459799 1.4090648867
| 46> H -1.2029562323 -3.7492987131 -0.2059331405
| 47> *
| 48>
| 49>                          ****END OF INPUT****

CARTESIAN COORDINATES (ANGSTROEM)
---------------------------------
  C      4.657350   -2.990284   -1.475169
  C      3.852879   -1.713323   -1.608694
  O      2.940267   -1.647629   -0.493148
  P      2.193375   -0.301299   -0.113346
  S      3.337646    1.288158    0.037648
  O      1.402062   -0.735114    1.184535
  C      1.879477   -0.427773    2.509931
  C      3.095583   -1.258331    2.860388
  S      0.645113   -0.188533   -1.552462
  C      0.206171    1.537230   -1.225473
  S     -0.513588    1.767452    0.422359
  P     -2.354174    0.795187    0.041778
  S     -2.993650    0.915212   -1.811896
  O     -3.145060    1.553435    1.184260
  C     -4.358109    1.058640    1.792195
  C     -5.497083    0.950148    0.798844
  O     -2.284563   -0.690125    0.614061
  C     -2.234577   -1.886569   -0.190836
  C     -1.186603   -2.827726    0.366549
  H      5.232954   -2.976690   -0.554200
  H      3.990491   -3.847152   -1.461819
  H      5.334321   -3.073591   -2.318992
  H      3.266448   -1.704341   -2.531466
  H      4.495380   -0.826781   -1.585099
  H      2.107925    0.641819    2.558754
  H      1.028802   -0.651655    3.154676
  H      3.385962   -1.059910    3.887254
  H      2.876144   -2.315857    2.741179
  H      3.921213   -0.993033    2.200796
  H     -0.517987    1.827555   -1.987052
  H      1.102932    2.155120   -1.268296
  H     -4.144350    0.090615    2.251309
  H     -4.572297    1.797329    2.566426
  H     -6.401250    0.646761    1.317265
  H     -5.665318    1.907659    0.311634
  H     -5.260690    0.213236    0.032114
  H     -3.229328   -2.336053   -0.137334
  H     -2.023098   -1.615402   -1.229782
  H     -0.196491   -2.384770    0.296336
  H     -1.399880   -3.046046    1.409065
  H     -1.202956   -3.749299   -0.205933

 Total Charge           Charge          ....    0
 Multiplicity           Mult            ....    1
 Number of Electrons    NEL             ....  202
 Basis Dimension        Dim             ....  334

ORBITAL ENERGIES
----------------

  NO   OCC          E(Eh)            E(eV)
   0   2.0000     -88.043851     -2395.7950
   1   2.0000     -88.037110     -2395.6116
   2   2.0000     -87.991317     -2394.3655
   3   2.0000     -87.986012     -2394.2211
   4   2.0000     -76.429480     -2079.7519
   5   2.0000     -76.425538     -2079.6446
   6   2.0000     -18.799107      -511.5497
   7   2.0000     -18.794265      -511.4180
   8   2.0000     -18.792093      -511.3589
   9   2.0000     -18.790825      -511.3243
  10   2.0000      -9.956927      -270.9418
  11   2.0000      -9.956707      -270.9358
  12   2.0000      -9.952367      -270.8177
  13   2.0000      -9.949616      -270.7428
  14   2.0000      -9.947521      -270.6858
  15   2.0000      -9.892011      -269.1753
  16   2.0000      -9.885258      -268.9916
  17   2.0000      -9.884789      -268.9788
  18   2.0000      -9.878281      -268.8017
  19   2.0000      -7.688814      -209.2233
  20   2.0000      -7.682337      -209.0470
  21   2.0000      -7.636210      -207.7918
  22   2.0000      -7.631027      -207.6508
  23   2.0000      -6.427047      -174.8888
  24   2.0000      -6.422863      -174.7750
  25   2.0000      -5.716564      -155.5556
  26   2.0000      -5.713398      -155.4695
  27   2.0000      -5.710241      -155.3836
  28   2.0000      -5.706955      -155.2941
  29   2.0000      -5.705858      -155.2643
  30   2.0000      -5.699146      -155.0816
  31   2.0000      -5.664985      -154.1521
  32   2.0000      -5.659838      -154.0120
  33   2.0000      -5.656822      -153.9299
  34   2.0000      -5.656546      -153.9225
  35   2.0000      -5.651847      -153.7946
  36   2.0000      -5.651098      -153.7742
  37   2.0000      -4.649460      -126.5183
  38   2.0000      -4.648847      -126.5016
  39   2.0000      -4.647564      -126.4666
  40   2.0000      -4.645674      -126.4152
  41   2.0000      -4.644331      -126.3787
  42   2.0000      -4.643441      -126.3545
  43   2.0000      -0.992117       -26.9969
  44   2.0000      -0.985631       -26.8204
  45   2.0000      -0.950963       -25.8770
  46   2.0000      -0.941662       -25.6239
  47   2.0000      -0.764291       -20.7974
  48   2.0000      -0.724740       -19.7212
  49   2.0000      -0.710269       -19.3274
  50   2.0000      -0.691042       -18.8042
  51   2.0000      -0.687493       -18.7076
  52   2.0000      -0.672237       -18.2925
  53   2.0000      -0.650357       -17.6971
  54   2.0000      -0.638003       -17.3610
  55   2.0000      -0.602309       -16.3897
  56   2.0000      -0.593139       -16.1401
  57   2.0000      -0.571805       -15.5596
  58   2.0000      -0.568589       -15.4721
  59   2.0000      -0.558620       -15.2008
  60   2.0000      -0.508073       -13.8254
  61   2.0000      -0.499701       -13.5975
  62   2.0000      -0.481025       -13.0894
  63   2.0000      -0.473890       -12.8952
  64   2.0000      -0.460181       -12.5222
  65   2.0000      -0.448373       -12.2009
  66   2.0000      -0.438989       -11.9455
  67   2.0000      -0.433373       -11.7927
  68   2.0000      -0.425560       -11.5801
  69   2.0000      -0.414385       -11.2760
  70   2.0000      -0.411591       -11.2000
  71   2.0000      -0.397474       -10.8158
  72   2.0000      -0.388593       -10.5742
  73   2.0000      -0.384706       -10.4684
  74   2.0000      -0.380785       -10.3617
  75   2.0000      -0.375494       -10.2177
  76   2.0000      -0.368165       -10.0183
  77   2.0000      -0.360693        -9.8149
  78   2.0000      -0.352702        -9.5975
  79   2.0000      -0.350289        -9.5319
  80   2.0000      -0.349580        -9.5126
  81   2.0000      -0.347423        -9.4539
  82   2.0000      -0.343295        -9.3415
  83   2.0000      -0.338747        -9.2178
  84   2.0000      -0.331617        -9.0238
  85   2.0000      -0.324681        -8.8350
  86   2.0000      -0.311421        -8.4742
  87   2.0000      -0.304891        -8.2965
  88   2.0000      -0.292520        -7.9599
  89   2.0000      -0.292241        -7.9523
  90   2.0000      -0.288313        -7.8454
  91   2.0000      -0.278643        -7.5823
  92   2.0000      -0.274229        -7.4621
  93   2.0000      -0.267470        -7.2782
  94   2.0000      -0.257129        -6.9968
  95   2.0000      -0.234388        -6.3780
  96   2.0000      -0.216358        -5.8874
  97   2.0000      -0.215172        -5.8551
  98   2.0000      -0.206704        -5.6247
  99   2.0000      -0.201705        -5.4887
 100   2.0000      -0.198077        -5.3899
 101   0.0000      -0.045226        -1.2307
 102   0.0000      -0.023303        -0.6341
 103   0.0000       0.000594         0.0162
 104   0.0000       0.002869         0.0781
 105   0.0000       0.012685         0.3452

MULLIKEN ATOMIC CHARGES
-----------------------
   0 C :   -0.279795
   1 C :   -0.015307
   2 O :   -0.379210
   3 P :    0.617944
   4 S :   -0.327905
   5 O :   -0.358499
   6 C :   -0.000636
   7 C :   -0.306433
   8 S :   -0.087689
   9 C :   -0.375977
  10 S :   -0.070843
  11 P :    0.638095
  12 S :   -0.334166
  13 O :   -0.377500
  14 C :   -0.002863
  15 C :   -0.316125
  16 O :   -0.384559
  17 C :   -0.003012
  18 C :   -0.300899
  19 H :    0.119699
  20 H :    0.117396
  21 H :    0.114181
  22 H :    0.105401
  23 H :    0.108464
  24 H :    0.115436
  25 H :    0.106715
  26 H :    0.113095
  27 H :    0.115645
  28 H :    0.122270
  29 H :    0.197035
  30 H :    0.193965
  31 H :    0.107591
  32 H :    0.109334
  33 H :    0.110236
  34 H :    0.126120
  35 H :    0.129413
  36 H :    0.096494
  37 H :    0.112084
  38 H :    0.136951
  39 H :    0.104608
  40 H :    0.103246
Sum of atomic charges:    0.0000000

LOEWDIN ATOMIC CHARGES
----------------------
   0 C :   -0.349863
   1 C :   -0.119976
   2 O :   -0.246593
   3 P :    0.571072
   4 S :   -0.319384
   5 O :   -0.227763
   6 C :   -0.116390
   7 C :   -0.364558
   8 S :    0.086803
   9 C :   -0.487531
  10 S :    0.093949
  11 P :    0.571065
  12 S :   -0.315014
  13 O :   -0.245975
  14 C :   -0.110675
  15 C :   -0.366468
  16 O :   -0.249138
  17 C :   -0.118394
  18 C :   -0.360734
  19 H :    0.128310
  20 H :    0.127429
  21 H :    0.132019
  22 H :    0.110760
  23 H :    0.109996
  24 H :    0.111832
  25 H :    0.119775
  26 H :    0.130897
  27 H :    0.125832
  28 H :    0.121889
  29 H :    0.129105
  30 H :    0.129809
  31 H :    0.111885
  32 H :    0.121540
  33 H :    0.129268
  34 H :    0.131253
  35 H :    0.121749
  36 H :    0.110266
  37 H :    0.103160
  38 H :    0.119111
  39 H :    0.122086
  40 H :    0.127597

  Mayer bond orders larger than 0.100000
B(  0-C ,  1-C ) :   1.1608 B(  0-C , 19-H ) :   0.9514 B(  0-C , 20-H ) :   0.9504
B(  0-C , 21-H ) :   0.9416 B(  1-C ,  2-O ) :   0.9022 B(  1-C , 22-H ) :   0.9280
B(  1-C , 23-H ) :   0.9119 B(  2-O ,  3-P ) :   1.1041 B(  3-P ,  4-S ) :   1.5996
B(  3-P ,  5-O ) :   1.1129 B(  3-P ,  8-S ) :   0.9607 B(  4-S ,  8-S ) :   0.1060
B(  5-O ,  6-C ) :   0.8956 B(  6-C ,  7-C ) :   1.1642 B(  6-C , 24-H ) :   0.9149
B(  6-C , 25-H ) :   0.9340 B(  7-C , 26-H ) :   0.9394 B(  7-C , 27-H ) :   0.9469
B(  7-C , 28-H ) :   0.9345 B(  8-S ,  9-C ) :   0.9937 B(  9-C , 10-S ) :   1.0131
B(  9-C , 29-H ) :   0.8717 B(  9-C , 30-H ) :   0.8776 B( 10-S , 11-P ) :   0.9534
B( 10-S , 12-S ) :   0.1125 B( 11-P , 12-S ) :   1.6142 B( 11-P , 13-O ) :   1.1266
B( 11-P , 16-O ) :   1.0904 B( 13-O , 14-C ) :   0.9103 B( 14-C , 15-C ) :   1.1648
B( 14-C , 31-H ) :   0.9283 B( 14-C , 32-H ) :   0.9351 B( 15-C , 33-H ) :   0.9363
B( 15-C , 34-H ) :   0.9454 B( 15-C , 35-H ) :   0.9357 B( 16-O , 17-C ) :   0.8954
B( 17-C , 18-C ) :   1.1655 B( 17-C , 36-H ) :   0.9347 B( 17-C , 37-H ) :   0.9022
B( 18-C , 38-H ) :   0.9289 B( 18-C , 39-H ) :   0.9481 B( 18-C , 40-H ) :   0.9392

Dispersion correction           -0.064863228
FINAL SINGLE POINT ENERGY     -2929.526415826125

DIPOLE MOMENT
-------------

Method             : SCF
Type of density    : Electron Density
Multiplicity       :   1
Irrep              :   0
Energy             : -2929.6464000155801841 Eh
Relativity type    :
Basis              : AO
                                X                 Y                 Z
Electronic contribution:     -2.124213143      19.130778583      -8.237291654
Nuclear contribution   :      2.111106460     -20.556797789       9.047645279
                        -----------------------------------------
Total Dipole Moment    :     -0.013106684      -1.426019206       0.810353625
                        -----------------------------------------
Magnitude (a.u.)       :      1.640236434
Magnitude (Debye)      :      4.169149687

Rotational constants in cm-1:             0.013845             0.004525             0.004492
Rotational constants in MHz :           415.076062           135.651638           134.669150

                             ****ORCA TERMINATED NORMALLY****
TOTAL RUN TIME: 0 days 0 hours 0 minutes 21 seconds 370 msec
