                         Program Version 6.0.0  -   RELEASE  -
|  1> ! pbe def2-sv(p) def2/J RI DEFGRID1 loosescf d4 GCP(DFT/SV(P)) printgap
|  2> %output
|  3>     printlevel normal
|  4> end
|  5> * xyz 0 1
|  6> C 4.2784473575 -0.216506431 -2.2021787158
|  7> C 4.4276867722 -0.591810948 -0.7412629298
|  8> O 3.1550233078 -0.7615040958 -0.0953097185
|  9> P 2.2135518952 0.4809057679 0.2473999775
| 10> S 3.1463905393 2.1199047485 0.7711888274
| 11> O 1.2329122 -0.1340332076 1.3276479243
| 12> C 1.5205702741 -0.0990772763 2.739164522
| 13> C 2.6498183496 -1.0381644018 3.1066269619
| 14> S 0.8769526076 0.6399017195 -1.3823576209
| 15> C 0.4234814249 -1.1059242389 -1.6031700741
| 16> S -0.6393181344 -1.7851282768 -0.2943631495
| 17> P -2.1036231618 -0.2755592859 -0.3095031109
| 18> S -2.6396639058 0.4211494369 -2.0665514607
| 19> O -1.5164781071 0.7680061425 0.7286351783
| 20> C -1.8551607503 2.1665016911 0.6761674931
| 21> C -3.2782433474 2.4055365879 1.1333672428
| 22> O -3.279825371 -0.9211594817 0.5402503343
| 23> C -4.1711775273 -1.9001229682 -0.0333084698
| 24> C -5.3954291711 -1.9933034237 0.8546544481
| 25> H 5.2620567836 -0.1446758329 -2.6552390141
| 26> H 3.6937719307 -0.9619920299 -2.7349491139
| 27> H 3.7804617992 0.7491499609 -2.2880929161
| 28> H 4.986676746 0.1818286879 -0.2052185854
| 29> H 4.9182114436 -1.5584924147 -0.6193707043
| 30> H 1.7657547028 0.9315858669 3.01632738
| 31> H 0.5775201405 -0.3944470235 3.2019259396
| 32> H 2.7529663544 -1.0691331531 4.1868068715
| 33> H 2.4418534568 -2.0373490384 2.7327842146
| 34> H 3.5830938676 -0.683465103 2.6719062547
| 35> H 1.31685966 -1.7247836607 -1.6231412656
| 36> H -0.1093390008 -1.1395352996 -2.5524421443
| 37> H -1.1261551704 2.6429829928 1.3343187292
| 38> H -1.7082839815 2.5233215319 -0.3493748786
| 39> H -3.4752679716 3.4726266872 1.1585199257
| 40> H -3.969192748 1.9322392518 0.4365452464
| 41> H -3.4300701621 1.9824540995 2.1227738528
| 42> H -4.4321321285 -1.5801396041 -1.0477421724
| 43> H -3.641199986 -2.8550379931 -0.0847446607
| 44> H -5.1003632544 -2.2663740033 1.8635751635
| 45> H -5.9111237966 -1.0377278832 0.8851623883
| 46> H -6.0653747036 -2.7489342902 0.4579206108
| 47> *
| 48>
| 49>                          ****END OF INPUT****

CARTESIAN COORDINATES (ANGSTROEM)
---------------------------------
  C      4.278447   -0.216506   -2.202179
  C      4.427687   -0.591811   -0.741263
  O      3.155023   -0.761504   -0.095310
  P      2.213552    0.480906    0.247400
  S      3.146391    2.119905    0.771189
  O      1.232912   -0.134033    1.327648
  C      1.520570   -0.099077    2.739165
  C      2.649818   -1.038164    3.106627
  S      0.876953    0.639902   -1.382358
  C      0.423481   -1.105924   -1.603170
  S     -0.639318   -1.785128   -0.294363
  P     -2.103623   -0.275559   -0.309503
  S     -2.639664    0.421149   -2.066551
  O     -1.516478    0.768006    0.728635
  C     -1.855161    2.166502    0.676167
  C     -3.278243    2.405537    1.133367
  O     -3.279825   -0.921159    0.540250
  C     -4.171178   -1.900123   -0.033308
  C     -5.395429   -1.993303    0.854654
  H      5.262057   -0.144676   -2.655239
  H      3.693772   -0.961992   -2.734949
  H      3.780462    0.749150   -2.288093
  H      4.986677    0.181829   -0.205219
  H      4.918211   -1.558492   -0.619371
  H      1.765755    0.931586    3.016327
  H      0.577520   -0.394447    3.201926
  H      2.752966   -1.069133    4.186807
  H      2.441853   -2.037349    2.732784
  H      3.583094   -0.683465    2.671906
  H      1.316860   -1.724784   -1.623141
  H     -0.109339   -1.139535   -2.552442
  H     -1.126155    2.642983    1.334319
  H     -1.708284    2.523322   -0.349375
  H     -3.475268    3.472627    1.158520
  H     -3.969193    1.932239    0.436545
  H     -3.430070    1.982454    2.122774
  H     -4.432132   -1.580140   -1.047742
  H     -3.641200   -2.855038   -0.084745
  H     -5.100363   -2.266374    1.863575
  H     -5.911124   -1.037728    0.885162
  H     -6.065375   -2.748934    0.457921

 Total Charge           Charge          ....    0
 Multiplicity           Mult            ....    1
 Number of Electrons    NEL             ....  202
 Basis Dimension        Dim             ....  334

ORBITAL ENERGIES
----------------

  NO   OCC          E(Eh)            E(eV)
   0   2.0000     -88.043152     -2395.7760
   1   2.0000     -88.039450     -2395.6752
   2   2.0000     -87.988319     -2394.2839
   3   2.0000     -87.986139     -2394.2246
   4   2.0000     -76.425087     -2079.6323
   5   2.0000     -76.425053     -2079.6314
   6   2.0000     -18.796109      -511.4681
   7   2.0000     -18.793913      -511.4084
   8   2.0000     -18.785840      -511.1887
   9   2.0000     -18.785430      -511.1775
  10   2.0000      -9.959392      -271.0088
  11   2.0000      -9.954633      -270.8793
  12   2.0000      -9.953131      -270.8385
  13   2.0000      -9.949008      -270.7263
  14   2.0000      -9.944915      -270.6149
  15   2.0000      -9.889223      -269.0994
  16   2.0000      -9.887159      -269.0433
  17   2.0000      -9.883314      -268.9387
  18   2.0000      -9.879598      -268.8375
  19   2.0000      -7.687801      -209.1957
  20   2.0000      -7.685050      -209.1208
  21   2.0000      -7.633498      -207.7181
  22   2.0000      -7.631104      -207.6529
  23   2.0000      -6.422960      -174.7776
  24   2.0000      -6.422519      -174.7656
  25   2.0000      -5.716113      -155.5433
  26   2.0000      -5.712988      -155.4583
  27   2.0000      -5.712103      -155.4342
  28   2.0000      -5.709674      -155.3681
  29   2.0000      -5.704568      -155.2292
  30   2.0000      -5.701713      -155.1515
  31   2.0000      -5.662348      -154.0803
  32   2.0000      -5.659910      -154.0140
  33   2.0000      -5.654133      -153.8568
  34   2.0000      -5.653723      -153.8456
  35   2.0000      -5.651749      -153.7919
  36   2.0000      -5.651395      -153.7823
  37   2.0000      -4.645291      -126.4048
  38   2.0000      -4.644935      -126.3951
  39   2.0000      -4.644846      -126.3927
  40   2.0000      -4.644350      -126.3792
  41   2.0000      -4.643419      -126.3539
  42   2.0000      -4.643155      -126.3467
  43   2.0000      -0.986688       -26.8492
  44   2.0000      -0.985022       -26.8038
  45   2.0000      -0.945753       -25.7353
  46   2.0000      -0.943532       -25.6748
  47   2.0000      -0.764217       -20.7954
  48   2.0000      -0.721339       -19.6286
  49   2.0000      -0.708101       -19.2684
  50   2.0000      -0.688165       -18.7259
  51   2.0000      -0.685644       -18.6573
  52   2.0000      -0.673189       -18.3184
  53   2.0000      -0.652949       -17.7676
  54   2.0000      -0.637933       -17.3590
  55   2.0000      -0.600458       -16.3393
  56   2.0000      -0.594009       -16.1638
  57   2.0000      -0.573941       -15.6177
  58   2.0000      -0.566904       -15.4262
  59   2.0000      -0.561095       -15.2682
  60   2.0000      -0.503372       -13.6974
  61   2.0000      -0.494011       -13.4427
  62   2.0000      -0.475719       -12.9450
  63   2.0000      -0.472498       -12.8573
  64   2.0000      -0.457551       -12.4506
  65   2.0000      -0.443230       -12.0609
  66   2.0000      -0.442271       -12.0348
  67   2.0000      -0.434456       -11.8221
  68   2.0000      -0.426675       -11.6104
  69   2.0000      -0.415313       -11.3012
  70   2.0000      -0.406979       -11.0745
  71   2.0000      -0.397579       -10.8187
  72   2.0000      -0.392252       -10.6737
  73   2.0000      -0.389402       -10.5962
  74   2.0000      -0.381398       -10.3784
  75   2.0000      -0.372595       -10.1388
  76   2.0000      -0.369562       -10.0563
  77   2.0000      -0.357957        -9.7405
  78   2.0000      -0.356007        -9.6874
  79   2.0000      -0.352019        -9.5789
  80   2.0000      -0.348964        -9.4958
  81   2.0000      -0.345736        -9.4079
  82   2.0000      -0.341489        -9.2924
  83   2.0000      -0.339784        -9.2460
  84   2.0000      -0.329258        -8.9596
  85   2.0000      -0.321606        -8.7513
  86   2.0000      -0.312974        -8.5165
  87   2.0000      -0.301490        -8.2040
  88   2.0000      -0.294958        -8.0262
  89   2.0000      -0.289286        -7.8719
  90   2.0000      -0.280802        -7.6410
  91   2.0000      -0.273630        -7.4459
  92   2.0000      -0.265897        -7.2354
  93   2.0000      -0.263999        -7.1838
  94   2.0000      -0.260835        -7.0977
  95   2.0000      -0.229843        -6.2543
  96   2.0000      -0.218351        -5.9416
  97   2.0000      -0.210352        -5.7240
  98   2.0000      -0.207337        -5.6419
  99   2.0000      -0.200542        -5.4570
 100   2.0000      -0.198984        -5.4146
 101   0.0000      -0.042291        -1.1508
 102   0.0000      -0.021608        -0.5880
 103   0.0000      -0.006796        -0.1849
 104   0.0000       0.004260         0.1159
 105   0.0000       0.009590         0.2610

MULLIKEN ATOMIC CHARGES
-----------------------
   0 C :   -0.314874
   1 C :   -0.008058
   2 O :   -0.383803
   3 P :    0.615182
   4 S :   -0.328522
   5 O :   -0.356245
   6 C :   -0.001181
   7 C :   -0.306961
   8 S :   -0.064084
   9 C :   -0.353544
  10 S :   -0.082193
  11 P :    0.611830
  12 S :   -0.338834
  13 O :   -0.353337
  14 C :   -0.007636
  15 C :   -0.302830
  16 O :   -0.374540
  17 C :   -0.012626
  18 C :   -0.280773
  19 H :    0.114493
  20 H :    0.114453
  21 H :    0.131447
  22 H :    0.112962
  23 H :    0.104695
  24 H :    0.108947
  25 H :    0.106066
  26 H :    0.110791
  27 H :    0.117133
  28 H :    0.119847
  29 H :    0.182602
  30 H :    0.194004
  31 H :    0.107531
  32 H :    0.115855
  33 H :    0.111542
  34 H :    0.120241
  35 H :    0.113123
  36 H :    0.106165
  37 H :    0.101776
  38 H :    0.116812
  39 H :    0.120297
  40 H :    0.112248
Sum of atomic charges:    0.0000000

LOEWDIN ATOMIC CHARGES
----------------------
   0 C :   -0.366536
   1 C :   -0.122174
   2 O :   -0.249253
   3 P :    0.564960
   4 S :   -0.323920
   5 O :   -0.235001
   6 C :   -0.115671
   7 C :   -0.364013
   8 S :    0.108883
   9 C :   -0.475217
  10 S :    0.085266
  11 P :    0.569347
  12 S :   -0.330505
  13 O :   -0.232289
  14 C :   -0.119050
  15 C :   -0.364153
  16 O :   -0.248193
  17 C :   -0.121281
  18 C :   -0.350265
  19 H :    0.132069
  20 H :    0.122287
  21 H :    0.123774
  22 H :    0.110288
  23 H :    0.117894
  24 H :    0.109498
  25 H :    0.119304
  26 H :    0.129625
  27 H :    0.126583
  28 H :    0.121938
  29 H :    0.130310
  30 H :    0.135961
  31 H :    0.119031
  32 H :    0.110671
  33 H :    0.130088
  34 H :    0.121005
  35 H :    0.124601
  36 H :    0.108431
  37 H :    0.109204
  38 H :    0.127076
  39 H :    0.128391
  40 H :    0.131036

  Mayer bond orders larger than 0.100000
B(  0-C ,  1-C ) :   1.1633 B(  0-C , 19-H ) :   0.9386 B(  0-C , 20-H ) :   0.9461
B(  0-C , 21-H ) :   0.9346 B(  1-C ,  2-O ) :   0.9087 B(  1-C , 22-H ) :   0.9129
B(  1-C , 23-H ) :   0.9340 B(  2-O ,  3-P ) :   1.0622 B(  3-P ,  4-S ) :   1.6337
B(  3-P ,  5-O ) :   1.1314 B(  3-P ,  8-S ) :   0.9625 B(  5-O ,  6-C ) :   0.9082
B(  6-C ,  7-C ) :   1.1621 B(  6-C , 24-H ) :   0.9173 B(  6-C , 25-H ) :   0.9331
B(  7-C , 26-H ) :   0.9391 B(  7-C , 27-H ) :   0.9467 B(  7-C , 28-H ) :   0.9394
B(  8-S ,  9-C ) :   0.9953 B(  9-C , 10-S ) :   0.9977 B(  9-C , 29-H ) :   0.8950
B(  9-C , 30-H ) :   0.8937 B( 10-S , 11-P ) :   0.9774 B( 10-S , 12-S ) :   0.1106
B( 11-P , 12-S ) :   1.5930 B( 11-P , 13-O ) :   1.1347 B( 11-P , 16-O ) :   1.1100
B( 13-O , 14-C ) :   0.9024 B( 14-C , 15-C ) :   1.1629 B( 14-C , 31-H ) :   0.9325
B( 14-C , 32-H ) :   0.9146 B( 15-C , 33-H ) :   0.9400 B( 15-C , 34-H ) :   0.9362
B( 15-C , 35-H ) :   0.9466 B( 16-O , 17-C ) :   0.9043 B( 17-C , 18-C ) :   1.1606
B( 17-C , 36-H ) :   0.9095 B( 17-C , 37-H ) :   0.9287 B( 18-C , 38-H ) :   0.9505
B( 18-C , 39-H ) :   0.9514 B( 18-C , 40-H ) :   0.9419

Dispersion correction           -0.065688065
FINAL SINGLE POINT ENERGY     -2929.522693078952

DIPOLE MOMENT
-------------

Method             : SCF
Type of density    : Electron Density
Multiplicity       :   1
Irrep              :   0
Energy             : -2929.6417894624100882 Eh
Relativity type    :
Basis              : AO
                                X                 Y                 Z
Electronic contribution:      3.759621808       4.456140947      -8.901161771
Nuclear contribution   :     -3.774626128      -5.667581317       9.474208468
                        -----------------------------------------
Total Dipole Moment    :     -0.015004320      -1.211440370       0.573046697
                        -----------------------------------------
Magnitude (a.u.)       :      1.340222152
Magnitude (Debye)      :      3.406573986

Rotational constants in cm-1:             0.013090             0.004827             0.004672
Rotational constants in MHz :           392.426414           144.702827           140.059061

                             ****ORCA TERMINATED NORMALLY****
TOTAL RUN TIME: 0 days 0 hours 0 minutes 21 seconds 383 msec
