                         Program Version 6.0.0  -   RELEASE  -
|  1> ! r2scan-3c def2/J RI DEFGRID2 scfconv6 printgap
|  2> %output
|  3>     printlevel normal
|  4> end
|  5> * xyz 0 1
|  6> C -1.8736247829 -0.142981513 0.3795845481
|  7> C -0.7107545952 -0.624099476 -0.4829836477
|  8> N 0.5152026678 0.0606542311 -0.0813201234
|  9> O 0.5486925107 1.2700980886 -0.1713835395
| 10> O 1.4391640792 -0.6125248802 0.3292256004
| 11> H -1.7230794025 -0.4232931143 1.4188021718
| 12> H -1.9628195031 0.9385000375 0.3151811331
| 13> H -2.7937605493 -0.5951817622 0.0252585427
| 14> H -0.8980657699 -0.3650323891 -1.5272112847
| 15> H -0.5399179383 -1.6951370875 -0.3753454699
| 16> *
| 17>
| 18>                          ****END OF INPUT****

CARTESIAN COORDINATES (ANGSTROEM)
---------------------------------
  C     -1.873625   -0.142982    0.379585
  C     -0.710755   -0.624099   -0.482984
  N      0.515203    0.060654   -0.081320
  O      0.548693    1.270098   -0.171384
  O      1.439164   -0.612525    0.329226
  H     -1.723079   -0.423293    1.418802
  H     -1.962820    0.938500    0.315181
  H     -2.793761   -0.595182    0.025259
  H     -0.898066   -0.365032   -1.527211
  H     -0.539918   -1.695137   -0.375345

 Total Charge           Charge          ....    0
 Multiplicity           Mult            ....    1
 Number of Electrons    NEL             ....   40
 Basis Dimension        Dim             ....  135

ORBITAL ENERGIES
----------------

  NO   OCC          E(Eh)            E(eV)
   0   2.0000     -18.985067      -516.6099
   1   2.0000     -18.984748      -516.6013
   2   2.0000     -14.391951      -391.6249
   3   2.0000     -10.101558      -274.8774
   4   2.0000     -10.054108      -273.5862
   5   2.0000      -1.207480       -32.8572
   6   2.0000      -1.028436       -27.9852
   7   2.0000      -0.812819       -22.1179
   8   2.0000      -0.683871       -18.6091
   9   2.0000      -0.574130       -15.6229
  10   2.0000      -0.523782       -14.2528
  11   2.0000      -0.504901       -13.7391
  12   2.0000      -0.489765       -13.3272
  13   2.0000      -0.443881       -12.0786
  14   2.0000      -0.394714       -10.7407
  15   2.0000      -0.374774       -10.1981
  16   2.0000      -0.356358        -9.6970
  17   2.0000      -0.293339        -7.9822
  18   2.0000      -0.277122        -7.5409
  19   2.0000      -0.257525        -7.0076
  20   0.0000      -0.101831        -2.7710
  21   0.0000       0.078946         2.1482
  22   0.0000       0.090836         2.4718
  23   0.0000       0.105672         2.8755
  24   0.0000       0.132014         3.5923

MULLIKEN ATOMIC CHARGES
-----------------------
   0 C :   -0.442245
   1 C :   -0.258308
   2 N :    0.240281
   3 O :   -0.193656
   4 O :   -0.198383
   5 H :    0.159015
   6 H :    0.176896
   7 H :    0.156537
   8 H :    0.173160
   9 H :    0.186703
Sum of atomic charges:    0.0000000

LOEWDIN ATOMIC CHARGES
----------------------
   0 C :   -0.363375
   1 C :    0.019235
   2 N :   -0.541321
   3 O :   -0.007098
   4 O :   -0.000944
   5 H :    0.161788
   6 H :    0.172594
   7 H :    0.160580
   8 H :    0.200796
   9 H :    0.197748

  Mayer bond orders larger than 0.100000
B(  0-C ,  1-C ) :   0.9168 B(  0-C ,  5-H ) :   0.9664 B(  0-C ,  6-H ) :   0.9625
B(  0-C ,  7-H ) :   0.9664 B(  1-C ,  2-N ) :   0.8542 B(  1-C ,  8-H ) :   0.9420
B(  1-C ,  9-H ) :   0.9633 B(  2-N ,  3-O ) :   1.8573 B(  2-N ,  4-O ) :   1.8497
B(  3-O ,  4-O ) :   0.2800

Dispersion correction           -0.001891957
FINAL SINGLE POINT ENERGY      -284.280772607318

DIPOLE MOMENT
-------------

Method             : SCF
Type of density    : Electron Density
Multiplicity       :   1
Irrep              :   0
Energy             :  -284.2901314980344978 Eh
Relativity type    :
Basis              : AO
                                X                 Y                 Z
Electronic contribution:      6.097472890       1.401251993      -0.192480650
Nuclear contribution   :     -7.395796490      -1.997737509      -0.132560297
                        -----------------------------------------
Total Dipole Moment    :     -1.298323600      -0.596485516      -0.325040948
                        -----------------------------------------
Magnitude (a.u.)       :      1.465295451
Magnitude (Debye)      :      3.724485047

Rotational constants in cm-1:             0.325757             0.143024             0.114457
Rotational constants in MHz :          9765.936835          4287.738403          3431.348249

                             ****ORCA TERMINATED NORMALLY****
TOTAL RUN TIME: 0 days 0 hours 0 minutes 17 seconds 664 msec
