                         Program Version 6.0.0  -   RELEASE  -
|  1> ! r2scan-3c def2/J RI DEFGRID2 scfconv6 printgap
|  2> %output
|  3>     printlevel normal
|  4> end
|  5> %cpcm
|  6>     smd true
|  7>     smdsolvent "water"
|  8> end
|  9> * xyz 0 1
| 10> C -1.8736247829 -0.142981513 0.3795845481
| 11> C -0.7107545952 -0.624099476 -0.4829836477
| 12> N 0.5152026678 0.0606542311 -0.0813201234
| 13> O 0.5486925107 1.2700980886 -0.1713835395
| 14> O 1.4391640792 -0.6125248802 0.3292256004
| 15> H -1.7230794025 -0.4232931143 1.4188021718
| 16> H -1.9628195031 0.9385000375 0.3151811331
| 17> H -2.7937605493 -0.5951817622 0.0252585427
| 18> H -0.8980657699 -0.3650323891 -1.5272112847
| 19> H -0.5399179383 -1.6951370875 -0.3753454699
| 20> *
| 21>
| 22>                          ****END OF INPUT****

CARTESIAN COORDINATES (ANGSTROEM)
---------------------------------
  C     -1.873625   -0.142982    0.379585
  C     -0.710755   -0.624099   -0.482984
  N      0.515203    0.060654   -0.081320
  O      0.548693    1.270098   -0.171384
  O      1.439164   -0.612525    0.329226
  H     -1.723079   -0.423293    1.418802
  H     -1.962820    0.938500    0.315181
  H     -2.793761   -0.595182    0.025259
  H     -0.898066   -0.365032   -1.527211
  H     -0.539918   -1.695137   -0.375345

 Total Charge           Charge          ....    0
 Multiplicity           Mult            ....    1
 Number of Electrons    NEL             ....   40
 Basis Dimension        Dim             ....  135

ORBITAL ENERGIES
----------------

  NO   OCC          E(Eh)            E(eV)
   0   2.0000     -18.996605      -516.9239
   1   2.0000     -18.995900      -516.9047
   2   2.0000     -14.398315      -391.7981
   3   2.0000     -10.082669      -274.3634
   4   2.0000     -10.030557      -272.9453
   5   2.0000      -1.216390       -33.0997
   6   2.0000      -1.038790       -28.2669
   7   2.0000      -0.801329       -21.8053
   8   2.0000      -0.668722       -18.1969
   9   2.0000      -0.571738       -15.5578
  10   2.0000      -0.526821       -14.3355
  11   2.0000      -0.505614       -13.7585
  12   2.0000      -0.496783       -13.5182
  13   2.0000      -0.427128       -11.6228
  14   2.0000      -0.374580       -10.1928
  15   2.0000      -0.353811        -9.6277
  16   2.0000      -0.334532        -9.1031
  17   2.0000      -0.305813        -8.3216
  18   2.0000      -0.287382        -7.8201
  19   2.0000      -0.270117        -7.3502
  20   0.0000      -0.109534        -2.9806
  21   0.0000       0.096729         2.6321
  22   0.0000       0.108790         2.9603
  23   0.0000       0.127208         3.4615
  24   0.0000       0.156163         4.2494

MULLIKEN ATOMIC CHARGES
-----------------------
   0 C :   -0.473235
   1 C :   -0.252836
   2 N :    0.283734
   3 O :   -0.249796
   4 O :   -0.256404
   5 H :    0.174749
   6 H :    0.174807
   7 H :    0.181738
   8 H :    0.211892
   9 H :    0.205350
Sum of atomic charges:    0.0000000

LOEWDIN ATOMIC CHARGES
----------------------
   0 C :   -0.361037
   1 C :    0.034932
   2 N :   -0.531509
   3 O :   -0.040584
   4 O :   -0.035917
   5 H :    0.166289
   6 H :    0.170562
   7 H :    0.171257
   8 H :    0.217844
   9 H :    0.208162

  Mayer bond orders larger than 0.100000
B(  0-C ,  1-C ) :   0.8897 B(  0-C ,  5-H ) :   0.9644 B(  0-C ,  6-H ) :   0.9635
B(  0-C ,  7-H ) :   0.9584 B(  1-C ,  2-N ) :   0.8740 B(  1-C ,  8-H ) :   0.9250
B(  1-C ,  9-H ) :   0.9507 B(  2-N ,  3-O ) :   1.8138 B(  2-N ,  4-O ) :   1.8050
B(  3-O ,  4-O ) :   0.2693

Dispersion correction           -0.001891957
FINAL SINGLE POINT ENERGY      -284.286256636691

DIPOLE MOMENT
-------------

Method             : SCF
Type of density    : Electron Density
Multiplicity       :   1
Irrep              :   0
Energy             :  -284.2956155274079038 Eh
Relativity type    :
Basis              : AO
                                X                 Y                 Z
Electronic contribution:      5.712568228       1.181858999      -0.330476385
Nuclear contribution   :     -7.395796490      -1.997737509      -0.132560297
                        -----------------------------------------
Total Dipole Moment    :     -1.683228261      -0.815878511      -0.463036683
                        -----------------------------------------
Magnitude (a.u.)       :      1.926997170
Magnitude (Debye)      :      4.898037553

Rotational constants in cm-1:             0.325757             0.143024             0.114457
Rotational constants in MHz :          9765.936835          4287.738403          3431.348249

                             ****ORCA TERMINATED NORMALLY****
TOTAL RUN TIME: 0 days 0 hours 0 minutes 20 seconds 422 msec
