                         Program Version 6.0.0  -   RELEASE  -
|  1> ! pbe def2-sv(p) def2/J RI DEFGRID1 loosescf d4 GCP(DFT/SV(P)) printgap
|  2> %output
|  3>     printlevel normal
|  4> end
|  5> * xyz 0 1
|  6> C 3.7588406799 0.3190751619 -2.7962531099
|  7> C 4.6224917 -0.1903744559 -1.6588855919
|  8> O 3.8960261984 -1.0669734732 -0.7829807824
|  9> P 2.7635343696 -0.5332407225 0.1865731482
| 10> S 3.1172208428 1.2544968992 0.9265574902
| 11> O 2.8211778126 -1.7753399368 1.1665875559
| 12> C 1.748665701 -2.2055898497 2.0203846827
| 13> C 1.4013816742 -1.1772460183 3.0789512671
| 14> S 0.928930268 -0.758339648 -0.8822696171
| 15> C 0.1715814408 0.8525992158 -0.5327873929
| 16> S -0.9435189543 0.8384717058 0.8976647326
| 17> P -2.7811601046 0.3909809734 -0.0921262566
| 18> S -2.7459928586 0.4947335008 -2.0558645239
| 19> O -3.8709315052 1.3152728444 0.5883928339
| 20> C -4.2137961406 2.604330122 0.054595517
| 21> C -3.1003319703 3.6145175166 0.2510986344
| 22> O -3.2926929246 -0.9486071215 0.5799743306
| 23> C -2.4995427001 -2.1325044949 0.7624016673
| 24> C -2.1682909933 -2.8142151324 -0.55085103
| 25> H 4.3776531766 0.8637502372 -3.5021123897
| 26> H 3.2767394979 -0.511752443 -3.3054049728
| 27> H 2.9919660601 0.9903459325 -2.4114885276
| 28> H 5.018028815 0.6449574108 -1.0712788044
| 29> H 5.4450523833 -0.8065964569 -2.0242590508
| 30> H 0.8789622008 -2.4375179576 1.3974499265
| 31> H 2.1311512696 -3.1241208773 2.4690320554
| 32> H 2.2901969362 -0.9040088053 3.6423688279
| 33> H 0.9951798814 -0.2760954791 2.6195605441
| 34> H 0.6609933875 -1.5906302825 3.7564792197
| 35> H -0.3988526197 1.1317280766 -1.4201030116
| 36> H 0.9610102407 1.5714005071 -0.3065626854
| 37> H -4.4498799362 2.4928277397 -1.0090463351
| 38> H -5.1128261929 2.8856256161 0.604550298
| 39> H -2.2423095375 3.3495315464 -0.3654869196
| 40> H -3.4511801536 4.5986640966 -0.0425103076
| 41> H -2.791413967 3.6375247241 1.2931887203
| 42> H -1.5879416666 -1.8634877397 1.3058137466
| 43> H -3.125721742 -2.7666413114 1.3925170432
| 44> H -1.6646888623 -3.7550766184 -0.3529088666
| 45> H -3.0786285295 -3.0057835833 -1.1132800054
| 46> H -1.5147848732 -2.1851114044 -1.1544766454
| 47> *
| 48>
| 49>                          ****END OF INPUT****

CARTESIAN COORDINATES (ANGSTROEM)
---------------------------------
  C      3.758841    0.319075   -2.796253
  C      4.622492   -0.190374   -1.658886
  O      3.896026   -1.066973   -0.782981
  P      2.763534   -0.533241    0.186573
  S      3.117221    1.254497    0.926557
  O      2.821178   -1.775340    1.166588
  C      1.748666   -2.205590    2.020385
  C      1.401382   -1.177246    3.078951
  S      0.928930   -0.758340   -0.882270
  C      0.171581    0.852599   -0.532787
  S     -0.943519    0.838472    0.897665
  P     -2.781160    0.390981   -0.092126
  S     -2.745993    0.494734   -2.055865
  O     -3.870932    1.315273    0.588393
  C     -4.213796    2.604330    0.054596
  C     -3.100332    3.614518    0.251099
  O     -3.292693   -0.948607    0.579974
  C     -2.499543   -2.132504    0.762402
  C     -2.168291   -2.814215   -0.550851
  H      4.377653    0.863750   -3.502112
  H      3.276739   -0.511752   -3.305405
  H      2.991966    0.990346   -2.411489
  H      5.018029    0.644957   -1.071279
  H      5.445052   -0.806596   -2.024259
  H      0.878962   -2.437518    1.397450
  H      2.131151   -3.124121    2.469032
  H      2.290197   -0.904009    3.642369
  H      0.995180   -0.276095    2.619561
  H      0.660993   -1.590630    3.756479
  H     -0.398853    1.131728   -1.420103
  H      0.961010    1.571401   -0.306563
  H     -4.449880    2.492828   -1.009046
  H     -5.112826    2.885626    0.604550
  H     -2.242310    3.349532   -0.365487
  H     -3.451180    4.598664   -0.042510
  H     -2.791414    3.637525    1.293189
  H     -1.587942   -1.863488    1.305814
  H     -3.125722   -2.766641    1.392517
  H     -1.664689   -3.755077   -0.352909
  H     -3.078629   -3.005784   -1.113280
  H     -1.514785   -2.185111   -1.154477

 Total Charge           Charge          ....    0
 Multiplicity           Mult            ....    1
 Number of Electrons    NEL             ....  202
 Basis Dimension        Dim             ....  334

ORBITAL ENERGIES
----------------

  NO   OCC          E(Eh)            E(eV)
   0   2.0000     -88.050984     -2395.9891
   1   2.0000     -88.050887     -2395.9864
   2   2.0000     -87.995595     -2394.4819
   3   2.0000     -87.995517     -2394.4798
   4   2.0000     -76.431862     -2079.8167
   5   2.0000     -76.431704     -2079.8124
   6   2.0000     -18.794821      -511.4331
   7   2.0000     -18.794397      -511.4216
   8   2.0000     -18.792656      -511.3742
   9   2.0000     -18.792059      -511.3579
  10   2.0000      -9.959218      -271.0041
  11   2.0000      -9.958333      -270.9800
  12   2.0000      -9.955658      -270.9072
  13   2.0000      -9.952931      -270.8330
  14   2.0000      -9.952659      -270.8256
  15   2.0000      -9.885375      -268.9947
  16   2.0000      -9.885269      -268.9918
  17   2.0000      -9.884867      -268.9809
  18   2.0000      -9.884187      -268.9624
  19   2.0000      -7.695219      -209.3976
  20   2.0000      -7.695148      -209.3956
  21   2.0000      -7.640409      -207.9061
  22   2.0000      -7.640345      -207.9044
  23   2.0000      -6.429128      -174.9455
  24   2.0000      -6.429020      -174.9425
  25   2.0000      -5.722960      -155.7297
  26   2.0000      -5.722908      -155.7282
  27   2.0000      -5.719623      -155.6389
  28   2.0000      -5.719588      -155.6379
  29   2.0000      -5.712522      -155.4456
  30   2.0000      -5.712475      -155.4443
  31   2.0000      -5.669225      -154.2675
  32   2.0000      -5.669155      -154.2655
  33   2.0000      -5.660952      -154.0423
  34   2.0000      -5.660911      -154.0412
  35   2.0000      -5.660786      -154.0378
  36   2.0000      -5.660706      -154.0357
  37   2.0000      -4.651331      -126.5691
  38   2.0000      -4.651247      -126.5669
  39   2.0000      -4.651217      -126.5660
  40   2.0000      -4.651138      -126.5639
  41   2.0000      -4.649577      -126.5214
  42   2.0000      -4.649468      -126.5184
  43   2.0000      -0.992633       -27.0109
  44   2.0000      -0.992543       -27.0085
  45   2.0000      -0.948195       -25.8017
  46   2.0000      -0.948080       -25.7986
  47   2.0000      -0.765969       -20.8431
  48   2.0000      -0.724498       -19.7146
  49   2.0000      -0.715566       -19.4715
  50   2.0000      -0.685405       -18.6508
  51   2.0000      -0.685034       -18.6407
  52   2.0000      -0.684646       -18.6302
  53   2.0000      -0.657039       -17.8789
  54   2.0000      -0.645209       -17.5570
  55   2.0000      -0.605308       -16.4713
  56   2.0000      -0.600575       -16.3425
  57   2.0000      -0.576034       -15.6747
  58   2.0000      -0.572315       -15.5735
  59   2.0000      -0.565491       -15.3878
  60   2.0000      -0.501862       -13.6563
  61   2.0000      -0.497843       -13.5470
  62   2.0000      -0.473545       -12.8858
  63   2.0000      -0.470207       -12.7950
  64   2.0000      -0.461643       -12.5619
  65   2.0000      -0.449656       -12.2358
  66   2.0000      -0.438913       -11.9434
  67   2.0000      -0.433469       -11.7953
  68   2.0000      -0.427475       -11.6322
  69   2.0000      -0.425911       -11.5896
  70   2.0000      -0.414904       -11.2901
  71   2.0000      -0.412697       -11.2301
  72   2.0000      -0.410962       -11.1829
  73   2.0000      -0.388932       -10.5834
  74   2.0000      -0.381631       -10.3847
  75   2.0000      -0.376739       -10.2516
  76   2.0000      -0.374835       -10.1998
  77   2.0000      -0.361173        -9.8280
  78   2.0000      -0.351886        -9.5753
  79   2.0000      -0.351157        -9.5555
  80   2.0000      -0.349632        -9.5140
  81   2.0000      -0.344095        -9.3633
  82   2.0000      -0.343358        -9.3432
  83   2.0000      -0.341286        -9.2869
  84   2.0000      -0.338205        -9.2030
  85   2.0000      -0.318749        -8.6736
  86   2.0000      -0.315808        -8.5936
  87   2.0000      -0.303809        -8.2671
  88   2.0000      -0.301902        -8.2152
  89   2.0000      -0.293582        -7.9888
  90   2.0000      -0.289026        -7.8648
  91   2.0000      -0.275076        -7.4852
  92   2.0000      -0.273626        -7.4458
  93   2.0000      -0.266678        -7.2567
  94   2.0000      -0.261930        -7.1275
  95   2.0000      -0.243219        -6.6183
  96   2.0000      -0.222975        -6.0675
  97   2.0000      -0.219273        -5.9667
  98   2.0000      -0.211864        -5.7651
  99   2.0000      -0.210043        -5.7156
 100   2.0000      -0.207787        -5.6542
 101   0.0000      -0.051048        -1.3891
 102   0.0000      -0.042420        -1.1543
 103   0.0000      -0.016491        -0.4488
 104   0.0000      -0.001677        -0.0456
 105   0.0000       0.008276         0.2252

MULLIKEN ATOMIC CHARGES
-----------------------
   0 C :   -0.312245
   1 C :   -0.004268
   2 O :   -0.354453
   3 P :    0.598096
   4 S :   -0.321733
   5 O :   -0.352571
   6 C :   -0.023382
   7 C :   -0.316722
   8 S :   -0.103513
   9 C :   -0.362691
  10 S :   -0.100542
  11 P :    0.599835
  12 S :   -0.322570
  13 O :   -0.354634
  14 C :   -0.005031
  15 C :   -0.311743
  16 O :   -0.350900
  17 C :   -0.029224
  18 C :   -0.312431
  19 H :    0.113586
  20 H :    0.120583
  21 H :    0.119678
  22 H :    0.114429
  23 H :    0.108031
  24 H :    0.118979
  25 H :    0.109809
  26 H :    0.124221
  27 H :    0.136219
  28 H :    0.110117
  29 H :    0.196078
  30 H :    0.195744
  31 H :    0.114692
  32 H :    0.108203
  33 H :    0.120004
  34 H :    0.113596
  35 H :    0.120199
  36 H :    0.119955
  37 H :    0.109268
  38 H :    0.109394
  39 H :    0.122438
  40 H :    0.135501
Sum of atomic charges:    0.0000000

LOEWDIN ATOMIC CHARGES
----------------------
   0 C :   -0.367021
   1 C :   -0.119953
   2 O :   -0.233850
   3 P :    0.570262
   4 S :   -0.304063
   5 O :   -0.230551
   6 C :   -0.118871
   7 C :   -0.369587
   8 S :    0.090644
   9 C :   -0.493017
  10 S :    0.093591
  11 P :    0.569866
  12 S :   -0.304189
  13 O :   -0.233249
  14 C :   -0.119842
  15 C :   -0.367296
  16 O :   -0.230386
  17 C :   -0.120321
  18 C :   -0.368393
  19 H :    0.131025
  20 H :    0.126362
  21 H :    0.118895
  22 H :    0.110327
  23 H :    0.120342
  24 H :    0.102136
  25 H :    0.122015
  26 H :    0.130616
  27 H :    0.112795
  28 H :    0.129385
  29 H :    0.125167
  30 H :    0.125022
  31 H :    0.110495
  32 H :    0.120389
  33 H :    0.119050
  34 H :    0.131035
  35 H :    0.126173
  36 H :    0.100865
  37 H :    0.121515
  38 H :    0.128882
  39 H :    0.130052
  40 H :    0.113683

  Mayer bond orders larger than 0.100000
B(  0-C ,  1-C ) :   1.1617 B(  0-C , 19-H ) :   0.9388 B(  0-C , 20-H ) :   0.9444
B(  0-C , 21-H ) :   0.9400 B(  1-C ,  2-O ) :   0.9139 B(  1-C , 22-H ) :   0.9142
B(  1-C , 23-H ) :   0.9336 B(  2-O ,  3-P ) :   1.1311 B(  3-P ,  4-S ) :   1.5989
B(  3-P ,  5-O ) :   1.1338 B(  3-P ,  8-S ) :   0.9349 B(  4-S ,  8-S ) :   0.1222
B(  4-S , 30-H ) :   0.1049 B(  5-O ,  6-C ) :   0.9188 B(  6-C ,  7-C ) :   1.1627
B(  6-C , 24-H ) :   0.9132 B(  6-C , 25-H ) :   0.9318 B(  7-C , 26-H ) :   0.9427
B(  7-C , 27-H ) :   0.9253 B(  7-C , 28-H ) :   0.9363 B(  8-S ,  9-C ) :   1.0077
B(  9-C , 10-S ) :   1.0089 B(  9-C , 29-H ) :   0.8555 B(  9-C , 30-H ) :   0.8534
B( 10-S , 11-P ) :   0.9356 B( 10-S , 12-S ) :   0.1218 B( 11-P , 12-S ) :   1.6003
B( 11-P , 13-O ) :   1.1326 B( 11-P , 16-O ) :   1.1329 B( 12-S , 29-H ) :   0.1026
B( 13-O , 14-C ) :   0.9127 B( 14-C , 15-C ) :   1.1623 B( 14-C , 31-H ) :   0.9144
B( 14-C , 32-H ) :   0.9335 B( 15-C , 33-H ) :   0.9396 B( 15-C , 34-H ) :   0.9387
B( 15-C , 35-H ) :   0.9446 B( 16-O , 17-C ) :   0.9204 B( 17-C , 18-C ) :   1.1620
B( 17-C , 36-H ) :   0.9083 B( 17-C , 37-H ) :   0.9324 B( 18-C , 38-H ) :   0.9369
B( 18-C , 39-H ) :   0.9433 B( 18-C , 40-H ) :   0.9271

Dispersion correction           -0.065096601
FINAL SINGLE POINT ENERGY     -2929.524009513384

DIPOLE MOMENT
-------------

Method             : SCF
Type of density    : Electron Density
Multiplicity       :   1
Irrep              :   0
Energy             : -2929.6430960568859518 Eh
Relativity type    :
Basis              : AO
                                X                 Y                 Z
Electronic contribution:      0.287381543       0.587493748      -0.112927511
Nuclear contribution   :     -0.368287834      -0.957410333       0.348025285
                        -----------------------------------------
Total Dipole Moment    :     -0.080906291      -0.369916584       0.235097775
                        -----------------------------------------
Magnitude (a.u.)       :      0.445707382
Magnitude (Debye)      :      1.132898133

Rotational constants in cm-1:             0.012164             0.004549             0.004321
Rotational constants in MHz :           364.661146           136.369643           129.539102

                             ****ORCA TERMINATED NORMALLY****
TOTAL RUN TIME: 0 days 0 hours 0 minutes 21 seconds 8 msec
