                         Program Version 6.0.0  -   RELEASE  -
|  1> ! pbe def2-sv(p) def2/J RI DEFGRID1 loosescf d4 GCP(DFT/SV(P)) printgap
|  2> %output
|  3>     printlevel normal
|  4> end
|  5> * xyz 0 1
|  6> C 4.0397577784 -0.8833421726 -2.5263346429
|  7> C 4.3522882539 -0.8499790271 -1.0432913264
|  8> O 3.6670623386 0.2611272424 -0.405808659
|  9> P 2.4500367568 0.0871724123 0.5846135411
| 10> S 1.973652054 1.7868614973 1.4205901291
| 11> O 2.9629391383 -1.0499280554 1.5711218439
| 12> C 2.3859543669 -1.2439529012 2.875536732
| 13> C 0.9431837677 -1.6984038525 2.7954387201
| 14> S 0.966916766 -0.92805837 -0.5753627942
| 15> C 0.5093070059 0.4956908549 -1.5957036188
| 16> S -0.6794445098 1.6092485368 -0.797476117
| 17> P -2.281477917 0.2310001912 -0.7781578538
| 18> S -2.4881748036 -0.9060839373 -2.3534787678
| 19> O -3.5652152385 1.13258084 -0.5538877857
| 20> C -3.632335462 2.3350606007 0.246579216
| 21> C -3.2979872298 2.0887621792 1.7027908183
| 22> O -1.998489096 -0.560261403 0.5828207408
| 23> C -2.3695063754 -1.9403747663 0.7489858198
| 24> C -3.8676775917 -2.0867219033 0.9206432457
| 25> H 4.6591984886 -1.638848103 -2.999280489
| 26> H 2.9944024167 -1.1305320929 -2.6958949115
| 27> H 4.2532553325 0.0831135711 -2.9750517293
| 28> H 5.4116521755 -0.6578751092 -0.8671209838
| 29> H 4.0602535127 -1.7797222682 -0.5522228663
| 30> H 3.0245795056 -2.0008330394 3.3328834742
| 31> H 2.4631753771 -0.3034231413 3.4295260231
| 32> H 0.8602501929 -2.5792236652 2.1627233408
| 33> H 0.5836860162 -1.9310328662 3.7927690917
| 34> H 0.3295038344 -0.9016256759 2.3751673968
| 35> H 0.0612923399 0.0974856328 -2.5064816797
| 36> H 1.3927008759 1.093957275 -1.8127404924
| 37> H -2.954344528 3.0749940418 -0.1873742903
| 38> H -4.6658553498 2.6616114293 0.119500902
| 39> H -2.258714544 1.7818791421 1.8056550966
| 40> H -3.4469716767 3.0083770277 2.2601884348
| 41> H -3.939789953 1.3132354075 2.1124139207
| 42> H -2.0223379647 -2.5033739735 -0.1232388531
| 43> H -1.8249941832 -2.2605770335 1.6379057074
| 44> H -4.3751976584 -1.7095029605 0.0326846503
| 45> H -4.1162188345 -3.1349894982 1.0517724431
| 46> H -4.2074375939 -1.5240280489 1.785983636
| 47> *
| 48>
| 49>                          ****END OF INPUT****

CARTESIAN COORDINATES (ANGSTROEM)
---------------------------------
  C      4.039758   -0.883342   -2.526335
  C      4.352288   -0.849979   -1.043291
  O      3.667062    0.261127   -0.405809
  P      2.450037    0.087172    0.584614
  S      1.973652    1.786861    1.420590
  O      2.962939   -1.049928    1.571122
  C      2.385954   -1.243953    2.875537
  C      0.943184   -1.698404    2.795439
  S      0.966917   -0.928058   -0.575363
  C      0.509307    0.495691   -1.595704
  S     -0.679445    1.609249   -0.797476
  P     -2.281478    0.231000   -0.778158
  S     -2.488175   -0.906084   -2.353479
  O     -3.565215    1.132581   -0.553888
  C     -3.632335    2.335061    0.246579
  C     -3.297987    2.088762    1.702791
  O     -1.998489   -0.560261    0.582821
  C     -2.369506   -1.940375    0.748986
  C     -3.867678   -2.086722    0.920643
  H      4.659198   -1.638848   -2.999280
  H      2.994402   -1.130532   -2.695895
  H      4.253255    0.083114   -2.975052
  H      5.411652   -0.657875   -0.867121
  H      4.060254   -1.779722   -0.552223
  H      3.024580   -2.000833    3.332883
  H      2.463175   -0.303423    3.429526
  H      0.860250   -2.579224    2.162723
  H      0.583686   -1.931033    3.792769
  H      0.329504   -0.901626    2.375167
  H      0.061292    0.097486   -2.506482
  H      1.392701    1.093957   -1.812740
  H     -2.954345    3.074994   -0.187374
  H     -4.665855    2.661611    0.119501
  H     -2.258715    1.781879    1.805655
  H     -3.446972    3.008377    2.260188
  H     -3.939790    1.313235    2.112414
  H     -2.022338   -2.503374   -0.123239
  H     -1.824994   -2.260577    1.637906
  H     -4.375198   -1.709503    0.032685
  H     -4.116219   -3.134989    1.051772
  H     -4.207438   -1.524028    1.785984

 Total Charge           Charge          ....    0
 Multiplicity           Mult            ....    1
 Number of Electrons    NEL             ....  202
 Basis Dimension        Dim             ....  334

ORBITAL ENERGIES
----------------

  NO   OCC          E(Eh)            E(eV)
   0   2.0000     -88.043206     -2395.7774
   1   2.0000     -88.039614     -2395.6797
   2   2.0000     -87.985734     -2394.2135
   3   2.0000     -87.983081     -2394.1413
   4   2.0000     -76.427379     -2079.6947
   5   2.0000     -76.423244     -2079.5822
   6   2.0000     -18.796767      -511.4860
   7   2.0000     -18.793049      -511.3849
   8   2.0000     -18.791722      -511.3488
   9   2.0000     -18.787889      -511.2445
  10   2.0000      -9.959017      -270.9986
  11   2.0000      -9.958824      -270.9934
  12   2.0000      -9.957660      -270.9617
  13   2.0000      -9.956892      -270.9408
  14   2.0000      -9.947705      -270.6908
  15   2.0000      -9.889876      -269.1172
  16   2.0000      -9.887975      -269.0655
  17   2.0000      -9.887539      -269.0536
  18   2.0000      -9.882509      -268.9167
  19   2.0000      -7.687736      -209.1939
  20   2.0000      -7.684743      -209.1125
  21   2.0000      -7.630919      -207.6479
  22   2.0000      -7.628363      -207.5783
  23   2.0000      -6.424796      -174.8276
  24   2.0000      -6.421040      -174.7254
  25   2.0000      -5.715407      -155.5241
  26   2.0000      -5.712579      -155.4472
  27   2.0000      -5.712472      -155.4443
  28   2.0000      -5.709408      -155.3609
  29   2.0000      -5.704745      -155.2340
  30   2.0000      -5.701569      -155.1476
  31   2.0000      -5.659942      -154.0149
  32   2.0000      -5.657347      -153.9442
  33   2.0000      -5.651576      -153.7872
  34   2.0000      -5.650939      -153.7699
  35   2.0000      -5.649151      -153.7212
  36   2.0000      -5.648213      -153.6957
  37   2.0000      -4.647841      -126.4742
  38   2.0000      -4.646492      -126.4375
  39   2.0000      -4.644901      -126.3942
  40   2.0000      -4.643889      -126.3666
  41   2.0000      -4.642506      -126.3290
  42   2.0000      -4.641522      -126.3022
  43   2.0000      -0.990585       -26.9552
  44   2.0000      -0.981875       -26.7182
  45   2.0000      -0.947762       -25.7899
  46   2.0000      -0.943710       -25.6797
  47   2.0000      -0.764567       -20.8049
  48   2.0000      -0.721707       -19.6387
  49   2.0000      -0.711579       -19.3631
  50   2.0000      -0.693099       -18.8602
  51   2.0000      -0.691054       -18.8045
  52   2.0000      -0.675332       -18.3767
  53   2.0000      -0.650929       -17.7127
  54   2.0000      -0.638791       -17.3824
  55   2.0000      -0.597690       -16.2640
  56   2.0000      -0.592877       -16.1330
  57   2.0000      -0.579338       -15.7646
  58   2.0000      -0.575354       -15.6562
  59   2.0000      -0.561196       -15.2709
  60   2.0000      -0.506471       -13.7818
  61   2.0000      -0.493222       -13.4213
  62   2.0000      -0.476008       -12.9528
  63   2.0000      -0.475579       -12.9412
  64   2.0000      -0.461334       -12.5535
  65   2.0000      -0.447742       -12.1837
  66   2.0000      -0.446499       -12.1498
  67   2.0000      -0.435920       -11.8620
  68   2.0000      -0.431229       -11.7343
  69   2.0000      -0.419825       -11.4240
  70   2.0000      -0.411292       -11.1918
  71   2.0000      -0.399914       -10.8822
  72   2.0000      -0.388563       -10.5733
  73   2.0000      -0.386442       -10.5156
  74   2.0000      -0.377905       -10.2833
  75   2.0000      -0.374483       -10.1902
  76   2.0000      -0.369517       -10.0551
  77   2.0000      -0.360933        -9.8215
  78   2.0000      -0.359093        -9.7714
  79   2.0000      -0.353081        -9.6078
  80   2.0000      -0.350972        -9.5504
  81   2.0000      -0.347247        -9.4491
  82   2.0000      -0.344598        -9.3770
  83   2.0000      -0.343829        -9.3561
  84   2.0000      -0.333173        -9.0661
  85   2.0000      -0.318321        -8.6620
  86   2.0000      -0.314147        -8.5484
  87   2.0000      -0.305488        -8.3127
  88   2.0000      -0.304574        -8.2879
  89   2.0000      -0.296677        -8.0730
  90   2.0000      -0.278773        -7.5858
  91   2.0000      -0.273458        -7.4412
  92   2.0000      -0.271993        -7.4013
  93   2.0000      -0.266263        -7.2454
  94   2.0000      -0.261069        -7.1041
  95   2.0000      -0.233404        -6.3512
  96   2.0000      -0.215706        -5.8696
  97   2.0000      -0.211613        -5.7583
  98   2.0000      -0.203369        -5.5340
  99   2.0000      -0.199846        -5.4381
 100   2.0000      -0.190154        -5.1744
 101   0.0000      -0.043458        -1.1825
 102   0.0000      -0.027041        -0.7358
 103   0.0000      -0.004411        -0.1200
 104   0.0000       0.002763         0.0752
 105   0.0000       0.015566         0.4236

MULLIKEN ATOMIC CHARGES
-----------------------
   0 C :   -0.297278
   1 C :   -0.010638
   2 O :   -0.363153
   3 P :    0.585341
   4 S :   -0.304013
   5 O :   -0.382297
   6 C :    0.014344
   7 C :   -0.361123
   8 S :   -0.088159
   9 C :   -0.359138
  10 S :   -0.066914
  11 P :    0.613002
  12 S :   -0.324410
  13 O :   -0.371905
  14 C :   -0.021749
  15 C :   -0.321259
  16 O :   -0.374603
  17 C :   -0.017680
  18 C :   -0.308986
  19 H :    0.112411
  20 H :    0.124277
  21 H :    0.120408
  22 H :    0.112398
  23 H :    0.109569
  24 H :    0.104565
  25 H :    0.114133
  26 H :    0.120714
  27 H :    0.114735
  28 H :    0.153529
  29 H :    0.195988
  30 H :    0.188609
  31 H :    0.123290
  32 H :    0.114117
  33 H :    0.141736
  34 H :    0.115011
  35 H :    0.120326
  36 H :    0.111727
  37 H :    0.110074
  38 H :    0.128441
  39 H :    0.110408
  40 H :    0.114150
Sum of atomic charges:    0.0000000

LOEWDIN ATOMIC CHARGES
----------------------
   0 C :   -0.361289
   1 C :   -0.112297
   2 O :   -0.243520
   3 P :    0.567158
   4 S :   -0.308531
   5 O :   -0.249107
   6 C :   -0.114945
   7 C :   -0.376909
   8 S :    0.080116
   9 C :   -0.479892
  10 S :    0.095704
  11 P :    0.570230
  12 S :   -0.316603
  13 O :   -0.243501
  14 C :   -0.115031
  15 C :   -0.368497
  16 O :   -0.247934
  17 C :   -0.124215
  18 C :   -0.364559
  19 H :    0.131440
  20 H :    0.121178
  21 H :    0.128234
  22 H :    0.122573
  23 H :    0.111190
  24 H :    0.118722
  25 H :    0.113812
  26 H :    0.122429
  27 H :    0.131474
  28 H :    0.126638
  29 H :    0.131237
  30 H :    0.133268
  31 H :    0.111584
  32 H :    0.124004
  33 H :    0.127147
  34 H :    0.132479
  35 H :    0.125682
  36 H :    0.107472
  37 H :    0.116129
  38 H :    0.125114
  39 H :    0.130092
  40 H :    0.121722

  Mayer bond orders larger than 0.100000
B(  0-C ,  1-C ) :   1.1649 B(  0-C , 19-H ) :   0.9396 B(  0-C , 20-H ) :   0.9362
B(  0-C , 21-H ) :   0.9455 B(  1-C ,  2-O ) :   0.8907 B(  1-C , 22-H ) :   0.9343
B(  1-C , 23-H ) :   0.9175 B(  2-O ,  3-P ) :   1.1227 B(  3-P ,  4-S ) :   1.6570
B(  3-P ,  5-O ) :   1.0869 B(  3-P ,  8-S ) :   0.9446 B(  4-S ,  8-S ) :   0.1138
B(  5-O ,  6-C ) :   0.9054 B(  6-C ,  7-C ) :   1.1616 B(  6-C , 24-H ) :   0.9328
B(  6-C , 25-H ) :   0.9172 B(  7-C , 26-H ) :   0.9409 B(  7-C , 27-H ) :   0.9371
B(  7-C , 28-H ) :   0.9248 B(  8-S ,  9-C ) :   0.9865 B(  9-C , 10-S ) :   1.0174
B(  9-C , 29-H ) :   0.8760 B(  9-C , 30-H ) :   0.8924 B( 10-S , 11-P ) :   0.9700
B( 11-P , 12-S ) :   1.6125 B( 11-P , 13-O ) :   1.1248 B( 11-P , 16-O ) :   1.0731
B( 13-O , 14-C ) :   0.9065 B( 14-C , 15-C ) :   1.1647 B( 14-C , 31-H ) :   0.9204
B( 14-C , 32-H ) :   0.9346 B( 15-C , 33-H ) :   0.9341 B( 15-C , 34-H ) :   0.9353
B( 15-C , 35-H ) :   0.9428 B( 16-O , 17-C ) :   0.9053 B( 17-C , 18-C ) :   1.1635
B( 17-C , 36-H ) :   0.9098 B( 17-C , 37-H ) :   0.9268 B( 18-C , 38-H ) :   0.9345
B( 18-C , 39-H ) :   0.9400 B( 18-C , 40-H ) :   0.9443

Dispersion correction           -0.065953846
FINAL SINGLE POINT ENERGY     -2929.516655032102

DIPOLE MOMENT
-------------

Method             : SCF
Type of density    : Electron Density
Multiplicity       :   1
Irrep              :   0
Energy             : -2929.6362198408978657 Eh
Relativity type    :
Basis              : AO
                                X                 Y                 Z
Electronic contribution:      3.969591192       9.816951096      -9.829275301
Nuclear contribution   :     -3.616284067     -10.597185370      10.745907310
                        -----------------------------------------
Total Dipole Moment    :      0.353307126      -0.780234274       0.916632009
                        -----------------------------------------
Magnitude (a.u.)       :      1.254514124
Magnitude (Debye)      :      3.188721491

Rotational constants in cm-1:             0.011621             0.005125             0.004870
Rotational constants in MHz :           348.383252           153.635556           145.989728

                             ****ORCA TERMINATED NORMALLY****
TOTAL RUN TIME: 0 days 0 hours 0 minutes 21 seconds 351 msec
