                         Program Version 6.0.0  -   RELEASE  -
|  1> ! pbe def2-sv(p) def2/J RI DEFGRID1 loosescf d4 GCP(DFT/SV(P)) printgap
|  2> %output
|  3>     printlevel normal
|  4> end
|  5> * xyz 0 1
|  6> C 0.4761615452 3.0973318795 1.7824481967
|  7> C 1.4767355792 2.0164314208 1.4328327196
|  8> O 0.8518298815 0.7290389293 1.6724495019
|  9> P 1.474565043 -0.5948982982 1.0824378654
| 10> S 0.6730953831 -2.2478316935 1.7580361418
| 11> O 3.0016519036 -0.3956748103 1.5070412129
| 12> C 3.948989983 -1.4744530731 1.568777689
| 13> C 4.2357309795 -2.08117234 0.2102482736
| 14> S 1.5540246654 -0.3457130282 -1.035774721
| 15> C 0.4108447084 -1.6449736836 -1.5561650383
| 16> S -1.0965855545 -1.0456513849 -2.3903713503
| 17> P -1.8913936128 0.2670848327 -0.937141581
| 18> S -3.7887530156 0.6791949195 -1.1826322904
| 19> O -0.9278073503 1.535318134 -0.9501217738
| 20> C -0.9383576518 2.4005101691 -2.1080889942
| 21> C 0.3937419621 3.117023097 -2.1904564852
| 22> O -1.4612065239 -0.4036704832 0.4351553007
| 23> C -2.4066457684 -0.5820704019 1.5109226755
| 24> C -2.5075482559 0.6708200377 2.352677582
| 25> H -0.4121092726 2.9947004408 1.1648924798
| 26> H 0.187611373 3.0212025543 2.8270704896
| 27> H 0.928329239 4.068681841 1.6080445726
| 28> H 2.370310718 2.0757931756 2.0573347774
| 29> H 1.7678220635 2.0669639786 0.3798209245
| 30> H 4.8391275113 -1.0109448808 1.9966516058
| 31> H 3.5608783425 -2.2344962888 2.253965461
| 32> H 4.5032594724 -1.3061758363 -0.5033575371
| 33> H 5.0561071841 -2.7856969613 0.3025674265
| 34> H 3.357807362 -2.6123704897 -0.1541462808
| 35> H 0.1366837627 -2.2414026869 -0.6822603584
| 36> H 0.9088290903 -2.2524251826 -2.3081215304
| 37> H -1.115324574 1.7917724308 -3.002428141
| 38> H -1.7715186932 3.0987956673 -1.9919924219
| 39> H 1.1997518172 2.3940689071 -2.2877057654
| 40> H 0.3890799327 3.7649751188 -3.0607899011
| 41> H 0.5535000776 3.7154804053 -1.2987760921
| 42> H -3.3794855624 -0.8441016162 1.0836832261
| 43> H -2.0121559055 -1.4252661032 2.081124224
| 44> H -2.8909603163 1.4899804094 1.7458876237
| 45> H -3.1865273574 0.4913118619 3.1801129309
| 46> H -1.5265824586 0.9369557837 2.7364504503
| 47> *
| 48>
| 49>                          ****END OF INPUT****

CARTESIAN COORDINATES (ANGSTROEM)
---------------------------------
  C      0.476162    3.097332    1.782448
  C      1.476736    2.016431    1.432833
  O      0.851830    0.729039    1.672450
  P      1.474565   -0.594898    1.082438
  S      0.673095   -2.247832    1.758036
  O      3.001652   -0.395675    1.507041
  C      3.948990   -1.474453    1.568778
  C      4.235731   -2.081172    0.210248
  S      1.554025   -0.345713   -1.035775
  C      0.410845   -1.644974   -1.556165
  S     -1.096586   -1.045651   -2.390371
  P     -1.891394    0.267085   -0.937142
  S     -3.788753    0.679195   -1.182632
  O     -0.927807    1.535318   -0.950122
  C     -0.938358    2.400510   -2.108089
  C      0.393742    3.117023   -2.190456
  O     -1.461207   -0.403670    0.435155
  C     -2.406646   -0.582070    1.510923
  C     -2.507548    0.670820    2.352678
  H     -0.412109    2.994700    1.164892
  H      0.187611    3.021203    2.827070
  H      0.928329    4.068682    1.608045
  H      2.370311    2.075793    2.057335
  H      1.767822    2.066964    0.379821
  H      4.839128   -1.010945    1.996652
  H      3.560878   -2.234496    2.253965
  H      4.503259   -1.306176   -0.503358
  H      5.056107   -2.785697    0.302567
  H      3.357807   -2.612370   -0.154146
  H      0.136684   -2.241403   -0.682260
  H      0.908829   -2.252425   -2.308122
  H     -1.115325    1.791772   -3.002428
  H     -1.771519    3.098796   -1.991992
  H      1.199752    2.394069   -2.287706
  H      0.389080    3.764975   -3.060790
  H      0.553500    3.715480   -1.298776
  H     -3.379486   -0.844102    1.083683
  H     -2.012156   -1.425266    2.081124
  H     -2.890960    1.489980    1.745888
  H     -3.186527    0.491312    3.180113
  H     -1.526582    0.936956    2.736450

 Total Charge           Charge          ....    0
 Multiplicity           Mult            ....    1
 Number of Electrons    NEL             ....  202
 Basis Dimension        Dim             ....  334

ORBITAL ENERGIES
----------------

  NO   OCC          E(Eh)            E(eV)
   0   2.0000     -88.047694     -2395.8996
   1   2.0000     -88.041354     -2395.7270
   2   2.0000     -87.994224     -2394.4446
   3   2.0000     -87.983974     -2394.1657
   4   2.0000     -76.432116     -2079.8236
   5   2.0000     -76.423749     -2079.5959
   6   2.0000     -18.796008      -511.4654
   7   2.0000     -18.795473      -511.4508
   8   2.0000     -18.790346      -511.3113
   9   2.0000     -18.789136      -511.2784
  10   2.0000      -9.958792      -270.9925
  11   2.0000      -9.957379      -270.9541
  12   2.0000      -9.956019      -270.9170
  13   2.0000      -9.953618      -270.8517
  14   2.0000      -9.939974      -270.4804
  15   2.0000      -9.890874      -269.1444
  16   2.0000      -9.889158      -269.0977
  17   2.0000      -9.887444      -269.0510
  18   2.0000      -9.872104      -268.6336
  19   2.0000      -7.692249      -209.3167
  20   2.0000      -7.686724      -209.1664
  21   2.0000      -7.639139      -207.8715
  22   2.0000      -7.629211      -207.6014
  23   2.0000      -6.429318      -174.9506
  24   2.0000      -6.421669      -174.7425
  25   2.0000      -5.720138      -155.6529
  26   2.0000      -5.716802      -155.5621
  27   2.0000      -5.714978      -155.5124
  28   2.0000      -5.710768      -155.3979
  29   2.0000      -5.709155      -155.3540
  30   2.0000      -5.703764      -155.2073
  31   2.0000      -5.668148      -154.2382
  32   2.0000      -5.659762      -154.0100
  33   2.0000      -5.659142      -153.9931
  34   2.0000      -5.658202      -153.9675
  35   2.0000      -5.649963      -153.7433
  36   2.0000      -5.649173      -153.7218
  37   2.0000      -4.652070      -126.5893
  38   2.0000      -4.650888      -126.5571
  39   2.0000      -4.649880      -126.5297
  40   2.0000      -4.644098      -126.3723
  41   2.0000      -4.643601      -126.3588
  42   2.0000      -4.642029      -126.3160
  43   2.0000      -0.992899       -27.0181
  44   2.0000      -0.984462       -26.7886
  45   2.0000      -0.946791       -25.7635
  46   2.0000      -0.943751       -25.6808
  47   2.0000      -0.762961       -20.7612
  48   2.0000      -0.722922       -19.6717
  49   2.0000      -0.711541       -19.3620
  50   2.0000      -0.692322       -18.8390
  51   2.0000      -0.684995       -18.6397
  52   2.0000      -0.675849       -18.3908
  53   2.0000      -0.653578       -17.7848
  54   2.0000      -0.639857       -17.4114
  55   2.0000      -0.598198       -16.2778
  56   2.0000      -0.591397       -16.0927
  57   2.0000      -0.575624       -15.6635
  58   2.0000      -0.566681       -15.4202
  59   2.0000      -0.558752       -15.2044
  60   2.0000      -0.511266       -13.9123
  61   2.0000      -0.501052       -13.6343
  62   2.0000      -0.477526       -12.9942
  63   2.0000      -0.473595       -12.8872
  64   2.0000      -0.459474       -12.5029
  65   2.0000      -0.449047       -12.2192
  66   2.0000      -0.441822       -12.0226
  67   2.0000      -0.435997       -11.8641
  68   2.0000      -0.431048       -11.7294
  69   2.0000      -0.422212       -11.4890
  70   2.0000      -0.412797       -11.2328
  71   2.0000      -0.397544       -10.8177
  72   2.0000      -0.390157       -10.6167
  73   2.0000      -0.388013       -10.5584
  74   2.0000      -0.378169       -10.2905
  75   2.0000      -0.369145       -10.0449
  76   2.0000      -0.364514        -9.9189
  77   2.0000      -0.361205        -9.8289
  78   2.0000      -0.359441        -9.7809
  79   2.0000      -0.355180        -9.6649
  80   2.0000      -0.348069        -9.4714
  81   2.0000      -0.344376        -9.3709
  82   2.0000      -0.342166        -9.3108
  83   2.0000      -0.336571        -9.1586
  84   2.0000      -0.330780        -9.0010
  85   2.0000      -0.319964        -8.7067
  86   2.0000      -0.315061        -8.5732
  87   2.0000      -0.307322        -8.3627
  88   2.0000      -0.302470        -8.2306
  89   2.0000      -0.299356        -8.1459
  90   2.0000      -0.283050        -7.7022
  91   2.0000      -0.274681        -7.4745
  92   2.0000      -0.267061        -7.2671
  93   2.0000      -0.264454        -7.1962
  94   2.0000      -0.256699        -6.9851
  95   2.0000      -0.233406        -6.3513
  96   2.0000      -0.223383        -6.0786
  97   2.0000      -0.213880        -5.8200
  98   2.0000      -0.208204        -5.6655
  99   2.0000      -0.202806        -5.5186
 100   2.0000      -0.196542        -5.3482
 101   0.0000      -0.043254        -1.1770
 102   0.0000      -0.032851        -0.8939
 103   0.0000      -0.019103        -0.5198
 104   0.0000       0.000352         0.0096
 105   0.0000       0.010865         0.2957

MULLIKEN ATOMIC CHARGES
-----------------------
   0 C :   -0.302987
   1 C :   -0.024265
   2 O :   -0.358038
   3 P :    0.630765
   4 S :   -0.300036
   5 O :   -0.389353
   6 C :    0.001940
   7 C :   -0.311814
   8 S :   -0.115993
   9 C :   -0.340372
  10 S :   -0.092840
  11 P :    0.608319
  12 S :   -0.324288
  13 O :   -0.367297
  14 C :   -0.013563
  15 C :   -0.295830
  16 O :   -0.375082
  17 C :   -0.012456
  18 C :   -0.313875
  19 H :    0.142016
  20 H :    0.124948
  21 H :    0.110628
  22 H :    0.110141
  23 H :    0.108300
  24 H :    0.103616
  25 H :    0.112137
  26 H :    0.117689
  27 H :    0.113293
  28 H :    0.119334
  29 H :    0.200129
  30 H :    0.180399
  31 H :    0.103797
  32 H :    0.111279
  33 H :    0.127332
  34 H :    0.112943
  35 H :    0.119115
  36 H :    0.112203
  37 H :    0.114186
  38 H :    0.114879
  39 H :    0.106970
  40 H :    0.131733
Sum of atomic charges:    0.0000000

LOEWDIN ATOMIC CHARGES
----------------------
   0 C :   -0.355710
   1 C :   -0.113664
   2 O :   -0.230152
   3 P :    0.585601
   4 S :   -0.282877
   5 O :   -0.253042
   6 C :   -0.116932
   7 C :   -0.370565
   8 S :    0.083869
   9 C :   -0.482069
  10 S :    0.074066
  11 P :    0.565082
  12 S :   -0.320556
  13 O :   -0.245931
  14 C :   -0.121935
  15 C :   -0.355851
  16 O :   -0.237484
  17 C :   -0.122625
  18 C :   -0.365765
  19 H :    0.129959
  20 H :    0.128989
  21 H :    0.129186
  22 H :    0.114615
  23 H :    0.105244
  24 H :    0.118174
  25 H :    0.111735
  26 H :    0.123010
  27 H :    0.130756
  28 H :    0.119052
  29 H :    0.124476
  30 H :    0.137743
  31 H :    0.105237
  32 H :    0.115087
  33 H :    0.122375
  34 H :    0.131527
  35 H :    0.124533
  36 H :    0.108262
  37 H :    0.112676
  38 H :    0.119237
  39 H :    0.128976
  40 H :    0.125693

  Mayer bond orders larger than 0.100000
B(  0-C ,  1-C ) :   1.1692 B(  0-C , 19-H ) :   0.9327 B(  0-C , 20-H ) :   0.9424
B(  0-C , 21-H ) :   0.9364 B(  1-C ,  2-O ) :   0.8948 B(  1-C , 22-H ) :   0.9276
B(  1-C , 23-H ) :   0.9107 B(  2-O ,  3-P ) :   1.1275 B(  3-P ,  4-S ) :   1.6069
B(  3-P ,  5-O ) :   1.0708 B(  3-P ,  8-S ) :   0.9542 B(  4-S ,  8-S ) :   0.1135
B(  4-S , 29-H ) :   0.1117 B(  5-O ,  6-C ) :   0.9146 B(  6-C ,  7-C ) :   1.1668
B(  6-C , 24-H ) :   0.9344 B(  6-C , 25-H ) :   0.9184 B(  7-C , 26-H ) :   0.9420
B(  7-C , 27-H ) :   0.9369 B(  7-C , 28-H ) :   0.9390 B(  8-S ,  9-C ) :   1.0117
B(  9-C , 10-S ) :   0.9763 B(  9-C , 29-H ) :   0.8517 B(  9-C , 30-H ) :   0.9097
B( 10-S , 11-P ) :   0.9772 B( 11-P , 12-S ) :   1.6455 B( 11-P , 13-O ) :   1.0770
B( 11-P , 16-O ) :   1.1166 B( 13-O , 14-C ) :   0.8954 B( 14-C , 15-C ) :   1.1616
B( 14-C , 31-H ) :   0.9097 B( 14-C , 32-H ) :   0.9295 B( 15-C , 33-H ) :   0.9388
B( 15-C , 34-H ) :   0.9393 B( 15-C , 35-H ) :   0.9436 B( 16-O , 17-C ) :   0.8833
B( 17-C , 18-C ) :   1.1704 B( 17-C , 36-H ) :   0.9116 B( 17-C , 37-H ) :   0.9140
B( 18-C , 38-H ) :   0.9362 B( 18-C , 39-H ) :   0.9383 B( 18-C , 40-H ) :   0.9342

Dispersion correction           -0.069998171
FINAL SINGLE POINT ENERGY     -2929.519129468042

DIPOLE MOMENT
-------------

Method             : SCF
Type of density    : Electron Density
Multiplicity       :   1
Irrep              :   0
Energy             : -2929.6393392747913822 Eh
Relativity type    :
Basis              : AO
                                X                 Y                 Z
Electronic contribution:    -11.223828846     -13.876963076      -7.527122296
Nuclear contribution   :     13.103027647      14.658433775       7.617646993
                        -----------------------------------------
Total Dipole Moment    :      1.879198801       0.781470700       0.090524698
                        -----------------------------------------
Magnitude (a.u.)       :      2.037223431
Magnitude (Debye)      :      5.178210442

Rotational constants in cm-1:             0.011246             0.006086             0.006044
Rotational constants in MHz :           337.146946           182.443940           181.193155

                             ****ORCA TERMINATED NORMALLY****
TOTAL RUN TIME: 0 days 0 hours 0 minutes 23 seconds 278 msec
