                         Program Version 6.0.1  -  RELEASE   -
|  1> ! pbe def2-sv(p) def2/J RI DEFGRID1 loosescf d4 GCP(DFT/SV(P)) printgap
|  2> %output
|  3>     printlevel normal
|  4> end
|  5> * xyz 0 1
|  6> C 5.4637790768 -2.1250122621 -1.7449817403
|  7> C 4.9184645293 -1.0310113427 -0.8408084237
|  8> O 3.6584804048 -1.4199584484 -0.2602229932
|  9> C 2.5576868902 -1.2034629556 -0.9506601647
| 10> O 2.5157173229 -0.6756306761 -2.0393790724
| 11> C 1.333157633 -1.7082997935 -0.2068599535
| 12> C 0.2436303675 -0.6453393085 -0.2564244393
| 13> H 0.0886854195 -0.3227131237 -1.2946817099
| 14> C 0.5863570864 0.5935467726 0.5476909113
| 15> O -0.2473360918 1.1983673567 1.1912558074
| 16> O 1.8448436707 0.9261455697 0.4406170118
| 17> C 2.3087857482 2.0986294107 1.1480282866
| 18> C 2.7206282855 1.738630607 2.5655942788
| 19> S -1.3392669507 -1.2909205919 0.373687037
| 20> P -2.5359207581 0.4397277071 0.0664554951
| 21> S -1.9661851208 1.6878180661 -1.3317179606
| 22> O -3.9461072157 -0.2554567608 -0.2765826008
| 23> C -4.1541204423 -0.9564074704 -1.5050247524
| 24> O -2.9276393339 1.1067567705 1.4417424394
| 25> C -3.4521039021 0.3431965134 2.5462129422
| 26> H 5.5472144202 -3.0583082729 -1.1951197683
| 27> H 4.8016572667 -2.2713978843 -2.5952578435
| 28> H 6.4438050068 -1.8345768899 -2.1088462715
| 29> H 4.7709418991 -0.1033793495 -1.4009252214
| 30> H 5.5723533097 -0.8612950203 0.0145789446
| 31> H 1.603404437 -1.9568275952 0.8181164434
| 32> H 0.970825818 -2.606596524 -0.7101313569
| 33> H 3.1558819226 2.4496757702 0.5587227099
| 34> H 1.5088193318 2.8441056077 1.1450574706
| 35> H 1.8557750169 1.4031763987 3.1333297245
| 36> H 3.4653751848 0.9476289848 2.5489351309
| 37> H 3.1388950113 2.6160373502 3.0474303309
| 38> H -3.625203731 -1.9091980237 -1.4822200082
| 39> H -3.8023512196 -0.3538308654 -2.3443250188
| 40> H -5.2272420173 -1.1141497186 -1.5749892649
| 41> H -4.4309345245 -0.0564257439 2.2872464618
| 42> H -3.5238588492 1.0513402602 3.3675581566
| 43> H -2.7684331971 -0.4683824928 2.795909088
| 44> *
| 45>
| 46>                          ****END OF INPUT****

CARTESIAN COORDINATES (ANGSTROEM)
---------------------------------
  C      5.463779   -2.125012   -1.744982
  C      4.918465   -1.031011   -0.840808
  O      3.658480   -1.419958   -0.260223
  C      2.557687   -1.203463   -0.950660
  O      2.515717   -0.675631   -2.039379
  C      1.333158   -1.708300   -0.206860
  C      0.243630   -0.645339   -0.256424
  H      0.088685   -0.322713   -1.294682
  C      0.586357    0.593547    0.547691
  O     -0.247336    1.198367    1.191256
  O      1.844844    0.926146    0.440617
  C      2.308786    2.098629    1.148028
  C      2.720628    1.738631    2.565594
  S     -1.339267   -1.290921    0.373687
  P     -2.535921    0.439728    0.066455
  S     -1.966185    1.687818   -1.331718
  O     -3.946107   -0.255457   -0.276583
  C     -4.154120   -0.956407   -1.505025
  O     -2.927639    1.106757    1.441742
  C     -3.452104    0.343197    2.546213
  H      5.547214   -3.058308   -1.195120
  H      4.801657   -2.271398   -2.595258
  H      6.443805   -1.834577   -2.108846
  H      4.770942   -0.103379   -1.400925
  H      5.572353   -0.861295    0.014579
  H      1.603404   -1.956828    0.818116
  H      0.970826   -2.606597   -0.710131
  H      3.155882    2.449676    0.558723
  H      1.508819    2.844106    1.145057
  H      1.855775    1.403176    3.133330
  H      3.465375    0.947629    2.548935
  H      3.138895    2.616037    3.047430
  H     -3.625204   -1.909198   -1.482220
  H     -3.802351   -0.353831   -2.344325
  H     -5.227242   -1.114150   -1.574989
  H     -4.430935   -0.056426    2.287246
  H     -3.523859    1.051340    3.367558
  H     -2.768433   -0.468382    2.795909

 Total Charge           Charge          ....    0
 Multiplicity           Mult            ....    1
 Number of Electrons    NEL             ....  174
 Basis Dimension        Dim             ....  316

ORBITAL ENERGIES
----------------

  NO   OCC          E(Eh)            E(eV)
   0   2.0000     -88.036082     -2395.5836
   1   2.0000     -87.970030     -2393.7862
   2   2.0000     -76.416477     -2079.3980
   3   2.0000     -18.819401      -512.1019
   4   2.0000     -18.806780      -511.7585
   5   2.0000     -18.780525      -511.0441
   6   2.0000     -18.778502      -510.9890
   7   2.0000     -18.746381      -510.1150
   8   2.0000     -18.742124      -509.9991
   9   2.0000     -10.020483      -272.6712
  10   2.0000     -10.015434      -272.5338
  11   2.0000      -9.956709      -270.9358
  12   2.0000      -9.953355      -270.8446
  13   2.0000      -9.945558      -270.6324
  14   2.0000      -9.941811      -270.5304
  15   2.0000      -9.933949      -270.3165
  16   2.0000      -9.917614      -269.8720
  17   2.0000      -9.894629      -269.2465
  18   2.0000      -9.891744      -269.1680
  19   2.0000      -7.680956      -209.0095
  20   2.0000      -7.615284      -207.2224
  21   2.0000      -6.412733      -174.4993
  22   2.0000      -5.708704      -155.3417
  23   2.0000      -5.705584      -155.2568
  24   2.0000      -5.697993      -155.0503
  25   2.0000      -5.644603      -153.5974
  26   2.0000      -5.635867      -153.3597
  27   2.0000      -5.635050      -153.3375
  28   2.0000      -4.635473      -126.1376
  29   2.0000      -4.634791      -126.1191
  30   2.0000      -4.633031      -126.0712
  31   2.0000      -1.027383       -27.9565
  32   2.0000      -1.014310       -27.6008
  33   2.0000      -0.975101       -26.5338
  34   2.0000      -0.930592       -25.3227
  35   2.0000      -0.926952       -25.2236
  36   2.0000      -0.919678       -25.0257
  37   2.0000      -0.766393       -20.8546
  38   2.0000      -0.714853       -19.4522
  39   2.0000      -0.712811       -19.3966
  40   2.0000      -0.688908       -18.7461
  41   2.0000      -0.658531       -17.9195
  42   2.0000      -0.627074       -17.0635
  43   2.0000      -0.624324       -16.9887
  44   2.0000      -0.610465       -16.6116
  45   2.0000      -0.600352       -16.3364
  46   2.0000      -0.567656       -15.4467
  47   2.0000      -0.512444       -13.9443
  48   2.0000      -0.506016       -13.7694
  49   2.0000      -0.500714       -13.6251
  50   2.0000      -0.475341       -12.9347
  51   2.0000      -0.471624       -12.8335
  52   2.0000      -0.464284       -12.6338
  53   2.0000      -0.446138       -12.1400
  54   2.0000      -0.440264       -11.9802
  55   2.0000      -0.432984       -11.7821
  56   2.0000      -0.425365       -11.5748
  57   2.0000      -0.422079       -11.4853
  58   2.0000      -0.410440       -11.1686
  59   2.0000      -0.406509       -11.0617
  60   2.0000      -0.404480       -11.0065
  61   2.0000      -0.399482       -10.8705
  62   2.0000      -0.391825       -10.6621
  63   2.0000      -0.386851       -10.5268
  64   2.0000      -0.380253       -10.3472
  65   2.0000      -0.368025       -10.0145
  66   2.0000      -0.364852        -9.9281
  67   2.0000      -0.355553        -9.6751
  68   2.0000      -0.352369        -9.5884
  69   2.0000      -0.341826        -9.3016
  70   2.0000      -0.335906        -9.1405
  71   2.0000      -0.332923        -9.0593
  72   2.0000      -0.326984        -8.8977
  73   2.0000      -0.313248        -8.5239
  74   2.0000      -0.303831        -8.2677
  75   2.0000      -0.299416        -8.1475
  76   2.0000      -0.290856        -7.9146
  77   2.0000      -0.287123        -7.8130
  78   2.0000      -0.274485        -7.4691
  79   2.0000      -0.263182        -7.1615
  80   2.0000      -0.261655        -7.1200
  81   2.0000      -0.250202        -6.8083
  82   2.0000      -0.235403        -6.4056
  83   2.0000      -0.228162        -6.2086
  84   2.0000      -0.218968        -5.9584
  85   2.0000      -0.191501        -5.2110
  86   2.0000      -0.184327        -5.0158
  87   0.0000      -0.043064        -1.1718
  88   0.0000      -0.029213        -0.7949
  89   0.0000      -0.020086        -0.5466
  90   0.0000       0.013358         0.3635
  91   0.0000       0.026406         0.7185

MULLIKEN ATOMIC CHARGES
-----------------------
   0 C :   -0.305881
   1 C :   -0.014867
   2 O :   -0.231169
   3 C :    0.120064
   4 O :   -0.201473
   5 C :   -0.062101
   6 C :   -0.330497
   7 H :    0.174827
   8 C :    0.222302
   9 O :   -0.182739
  10 O :   -0.222257
  11 C :   -0.008196
  12 C :   -0.308184
  13 S :   -0.108845
  14 P :    0.624672
  15 S :   -0.324913
  16 O :   -0.396690
  17 C :   -0.098476
  18 O :   -0.353012
  19 C :   -0.101545
  20 H :    0.114580
  21 H :    0.129438
  22 H :    0.114671
  23 H :    0.111117
  24 H :    0.101618
  25 H :    0.104426
  26 H :    0.126906
  27 H :    0.109579
  28 H :    0.124190
  29 H :    0.128681
  30 H :    0.115162
  31 H :    0.118111
  32 H :    0.108574
  33 H :    0.115697
  34 H :    0.120065
  35 H :    0.122025
  36 H :    0.129493
  37 H :    0.114650
Sum of atomic charges:    0.0000000

LOEWDIN ATOMIC CHARGES
----------------------
   0 C :   -0.355996
   1 C :   -0.111072
   2 O :   -0.057155
   3 C :    0.028618
   4 O :   -0.166031
   5 C :   -0.246795
   6 C :   -0.272530
   7 H :    0.151470
   8 C :    0.021601
   9 O :   -0.154745
  10 O :   -0.033083
  11 C :   -0.104469
  12 C :   -0.355567
  13 S :    0.087247
  14 P :    0.586127
  15 S :   -0.321116
  16 O :   -0.268088
  17 C :   -0.220044
  18 O :   -0.231187
  19 C :   -0.207980
  20 H :    0.125077
  21 H :    0.131639
  22 H :    0.131538
  23 H :    0.120927
  24 H :    0.116944
  25 H :    0.133616
  26 H :    0.148821
  27 H :    0.121180
  28 H :    0.128526
  29 H :    0.131441
  30 H :    0.125059
  31 H :    0.133411
  32 H :    0.104747
  33 H :    0.109697
  34 H :    0.119703
  35 H :    0.114680
  36 H :    0.125449
  37 H :    0.108344

  Mayer bond orders larger than 0.100000
B(  0-C ,  1-C ) :   1.1745 B(  0-C , 20-H ) :   0.9488 B(  0-C , 21-H ) :   0.9458
B(  0-C , 22-H ) :   0.9440 B(  1-C ,  2-O ) :   0.9168 B(  1-C , 23-H ) :   0.9136
B(  1-C , 24-H ) :   0.9367 B(  2-O ,  3-C ) :   1.2342 B(  3-C ,  4-O ) :   2.0417
B(  3-C ,  5-C ) :   1.0049 B(  5-C ,  6-C ) :   1.0497 B(  5-C , 25-H ) :   0.9050
B(  5-C , 26-H ) :   0.8809 B(  6-C ,  7-H ) :   0.8315 B(  6-C ,  8-C ) :   0.8960
B(  6-C , 13-S ) :   1.0326 B(  8-C ,  9-O ) :   2.0045 B(  8-C , 10-O ) :   1.2636
B( 10-O , 11-C ) :   0.8986 B( 11-C , 12-C ) :   1.1742 B( 11-C , 27-H ) :   0.9360
B( 11-C , 28-H ) :   0.9141 B( 12-C , 29-H ) :   0.9456 B( 12-C , 30-H ) :   0.9476
B( 12-C , 31-H ) :   0.9435 B( 13-S , 14-P ) :   0.9335 B( 13-S , 15-S ) :   0.1125
B( 14-P , 15-S ) :   1.6280 B( 14-P , 16-O ) :   1.0480 B( 14-P , 18-O ) :   1.1321
B( 16-O , 17-C ) :   0.9399 B( 17-C , 32-H ) :   0.9462 B( 17-C , 33-H ) :   0.9330
B( 17-C , 34-H ) :   0.9589 B( 18-O , 19-C ) :   0.9232 B( 19-C , 35-H ) :   0.9473
B( 19-C , 36-H ) :   0.9601 B( 19-C , 37-H ) :   0.9394

Dispersion correction           -0.050471764
FINAL SINGLE POINT ENERGY     -1979.014917724287

DIPOLE MOMENT
-------------

Method             : SCF
Type of density    : Electron Density
Multiplicity       :   1
Irrep              :   0
Energy             : -1979.1465131968316200 Eh
Relativity type    :
Basis              : AO
                                X                 Y                 Z
Electronic contribution:    -19.411546830       4.578785292      -3.528441875
Nuclear contribution   :     20.711980354      -5.649913266       4.676324889
                        -----------------------------------------
Total Dipole Moment    :      1.300433524      -1.071127974       1.147883015
                        -----------------------------------------
Magnitude (a.u.)       :      2.038646096
Magnitude (Debye)      :      5.181826569

Rotational constants in cm-1:             0.017000             0.005508             0.004889
Rotational constants in MHz :           509.657387           165.132877           146.571811

                             ****ORCA TERMINATED NORMALLY****
TOTAL RUN TIME: 0 days 0 hours 0 minutes 28 seconds 193 msec
