                         Program Version 6.0.1  -  RELEASE   -
|  1> ! pbe def2-sv(p) def2/J RI DEFGRID1 loosescf d4 GCP(DFT/SV(P)) printgap
|  2> %output
|  3>     printlevel normal
|  4> end
|  5> * xyz 0 1
|  6> C 3.0504902733 -1.982750366 1.5736237608
|  7> C 2.844191171 -2.537188548 0.1736758312
|  8> O 2.6677799827 -1.4630141729 -0.7711877613
|  9> C 1.46075357 -1.0987890921 -1.1232566754
| 10> O 0.4369929318 -1.6305537394 -0.7244314316
| 11> C 1.4749908011 0.0450234596 -2.1097968494
| 12> C 0.3869429813 1.0629260466 -1.7844746028
| 13> H 0.3629026581 1.8414532679 -2.5525485369
| 14> C 0.5525888694 1.7443819807 -0.436447109
| 15> O -0.3841886949 2.2223459488 0.1695358227
| 16> O 1.7983075554 1.7521887606 -0.0360444161
| 17> C 2.1058878348 2.371960331 1.2306858763
| 18> C 2.1997493417 3.8821746008 1.0960482249
| 19> S -1.302907745 0.3504622963 -1.8383127686
| 20> P -1.6047842516 -0.3157559029 0.1430482756
| 21> S -0.429592821 -0.3666451487 1.7270463242
| 22> O -2.8630703773 0.6488239893 0.3675923455
| 23> C -3.5950184668 0.6735090796 1.5947536631
| 24> O -2.3958218441 -1.6960047884 -0.0456839968
| 25> C -1.8701050352 -3.003038924 0.1760396559
| 26> H 3.2324828973 -2.8024372473 2.2605027236
| 27> H 3.9005871936 -1.3070735779 1.5866494356
| 28> H 2.1633494362 -1.4424093098 1.9008837235
| 29> H 1.966014162 -3.1872909386 0.1373473739
| 30> H 3.7289756954 -3.0702149556 -0.1761448552
| 31> H 1.2787553289 -0.3648585887 -3.1024849657
| 32> H 2.4572852737 0.5158795797 -2.0925029183
| 33> H 1.3342391544 2.0848622467 1.9512205998
| 34> H 3.0629336935 1.9329064769 1.5113267774
| 35> H 1.2320981103 4.2946970504 0.8193114054
| 36> H 2.5012922446 4.3043131745 2.0487802423
| 37> H 2.9313216397 4.1462446961 0.3374962362
| 38> H -4.2476502827 -0.1974204797 1.6546161902
| 39> H -4.1760138925 1.5918773643 1.5717962758
| 40> H -2.9073003234 0.6808187753 2.4435609044
| 41> H -1.3855777808 -3.3608090894 -0.730088821
| 42> H -2.7242262192 -3.6252688133 0.433274011
| 43> H -1.14924826 -2.9807493476 0.9949458997
| 44> *
| 45>
| 46>                          ****END OF INPUT****

CARTESIAN COORDINATES (ANGSTROEM)
---------------------------------
  C      3.050490   -1.982750    1.573624
  C      2.844191   -2.537189    0.173676
  O      2.667780   -1.463014   -0.771188
  C      1.460754   -1.098789   -1.123257
  O      0.436993   -1.630554   -0.724431
  C      1.474991    0.045023   -2.109797
  C      0.386943    1.062926   -1.784475
  H      0.362903    1.841453   -2.552549
  C      0.552589    1.744382   -0.436447
  O     -0.384189    2.222346    0.169536
  O      1.798308    1.752189   -0.036044
  C      2.105888    2.371960    1.230686
  C      2.199749    3.882175    1.096048
  S     -1.302908    0.350462   -1.838313
  P     -1.604784   -0.315756    0.143048
  S     -0.429593   -0.366645    1.727046
  O     -2.863070    0.648824    0.367592
  C     -3.595018    0.673509    1.594754
  O     -2.395822   -1.696005   -0.045684
  C     -1.870105   -3.003039    0.176040
  H      3.232483   -2.802437    2.260503
  H      3.900587   -1.307074    1.586649
  H      2.163349   -1.442409    1.900884
  H      1.966014   -3.187291    0.137347
  H      3.728976   -3.070215   -0.176145
  H      1.278755   -0.364859   -3.102485
  H      2.457285    0.515880   -2.092503
  H      1.334239    2.084862    1.951221
  H      3.062934    1.932906    1.511327
  H      1.232098    4.294697    0.819311
  H      2.501292    4.304313    2.048780
  H      2.931322    4.146245    0.337496
  H     -4.247650   -0.197420    1.654616
  H     -4.176014    1.591877    1.571796
  H     -2.907300    0.680819    2.443561
  H     -1.385578   -3.360809   -0.730089
  H     -2.724226   -3.625269    0.433274
  H     -1.149248   -2.980749    0.994946

 Total Charge           Charge          ....    0
 Multiplicity           Mult            ....    1
 Number of Electrons    NEL             ....  174
 Basis Dimension        Dim             ....  316

ORBITAL ENERGIES
----------------

  NO   OCC          E(Eh)            E(eV)
   0   2.0000     -88.025049     -2395.2834
   1   2.0000     -87.968637     -2393.7483
   2   2.0000     -76.413476     -2079.3164
   3   2.0000     -18.811637      -511.8907
   4   2.0000     -18.811555      -511.8884
   5   2.0000     -18.773083      -510.8416
   6   2.0000     -18.763120      -510.5704
   7   2.0000     -18.750218      -510.2194
   8   2.0000     -18.737162      -509.8641
   9   2.0000     -10.019261      -272.6380
  10   2.0000     -10.015144      -272.5259
  11   2.0000      -9.950881      -270.7772
  12   2.0000      -9.949747      -270.7464
  13   2.0000      -9.947566      -270.6870
  14   2.0000      -9.925325      -270.0818
  15   2.0000      -9.922341      -270.0006
  16   2.0000      -9.914389      -269.7842
  17   2.0000      -9.886726      -269.0315
  18   2.0000      -9.883541      -268.9448
  19   2.0000      -7.670466      -208.7240
  20   2.0000      -7.613492      -207.1737
  21   2.0000      -6.408810      -174.3926
  22   2.0000      -5.698961      -155.0766
  23   2.0000      -5.695563      -154.9841
  24   2.0000      -5.686094      -154.7265
  25   2.0000      -5.642604      -153.5431
  26   2.0000      -5.634292      -153.3169
  27   2.0000      -5.633157      -153.2860
  28   2.0000      -4.631375      -126.0261
  29   2.0000      -4.631052      -126.0173
  30   2.0000      -4.629339      -125.9707
  31   2.0000      -1.020835       -27.7783
  32   2.0000      -1.017411       -27.6852
  33   2.0000      -0.961487       -26.1634
  34   2.0000      -0.925759       -25.1912
  35   2.0000      -0.919786       -25.0286
  36   2.0000      -0.916232       -24.9319
  37   2.0000      -0.762851       -20.7582
  38   2.0000      -0.714105       -19.4318
  39   2.0000      -0.704451       -19.1691
  40   2.0000      -0.684244       -18.6192
  41   2.0000      -0.649300       -17.6683
  42   2.0000      -0.619058       -16.8454
  43   2.0000      -0.615290       -16.7429
  44   2.0000      -0.610070       -16.6009
  45   2.0000      -0.595631       -16.2079
  46   2.0000      -0.566392       -15.4123
  47   2.0000      -0.507926       -13.8214
  48   2.0000      -0.503745       -13.7076
  49   2.0000      -0.493863       -13.4387
  50   2.0000      -0.481857       -13.1120
  51   2.0000      -0.458638       -12.4802
  52   2.0000      -0.454951       -12.3798
  53   2.0000      -0.447702       -12.1826
  54   2.0000      -0.431551       -11.7431
  55   2.0000      -0.424872       -11.5614
  56   2.0000      -0.421779       -11.4772
  57   2.0000      -0.409239       -11.1360
  58   2.0000      -0.408248       -11.1090
  59   2.0000      -0.398373       -10.8403
  60   2.0000      -0.395240       -10.7550
  61   2.0000      -0.391907       -10.6643
  62   2.0000      -0.389502       -10.5989
  63   2.0000      -0.380601       -10.3567
  64   2.0000      -0.373940       -10.1754
  65   2.0000      -0.367111        -9.9896
  66   2.0000      -0.359190        -9.7741
  67   2.0000      -0.355149        -9.6641
  68   2.0000      -0.348501        -9.4832
  69   2.0000      -0.340051        -9.2533
  70   2.0000      -0.334851        -9.1118
  71   2.0000      -0.330060        -8.9814
  72   2.0000      -0.321483        -8.7480
  73   2.0000      -0.300246        -8.1701
  74   2.0000      -0.298480        -8.1221
  75   2.0000      -0.293281        -7.9806
  76   2.0000      -0.284320        -7.7367
  77   2.0000      -0.271134        -7.3779
  78   2.0000      -0.269360        -7.3297
  79   2.0000      -0.262069        -7.1313
  80   2.0000      -0.252648        -6.8749
  81   2.0000      -0.244595        -6.6558
  82   2.0000      -0.241279        -6.5655
  83   2.0000      -0.224655        -6.1132
  84   2.0000      -0.190197        -5.1755
  85   2.0000      -0.188266        -5.1230
  86   2.0000      -0.178128        -4.8471
  87   0.0000      -0.045583        -1.2404
  88   0.0000      -0.038235        -1.0404
  89   0.0000      -0.031638        -0.8609
  90   0.0000       0.011067         0.3011
  91   0.0000       0.034084         0.9275

MULLIKEN ATOMIC CHARGES
-----------------------
   0 C :   -0.314495
   1 C :   -0.021374
   2 O :   -0.214415
   3 C :    0.114410
   4 O :   -0.211277
   5 C :   -0.008025
   6 C :   -0.329565
   7 H :    0.154324
   8 C :    0.182009
   9 O :   -0.175783
  10 O :   -0.223783
  11 C :   -0.014146
  12 C :   -0.309104
  13 S :   -0.056568
  14 P :    0.656618
  15 S :   -0.352771
  16 O :   -0.372739
  17 C :   -0.092488
  18 O :   -0.393817
  19 C :   -0.086753
  20 H :    0.109448
  21 H :    0.109072
  22 H :    0.147956
  23 H :    0.112868
  24 H :    0.103934
  25 H :    0.121506
  26 H :    0.111111
  27 H :    0.127811
  28 H :    0.101037
  29 H :    0.133042
  30 H :    0.115191
  31 H :    0.109180
  32 H :    0.103597
  33 H :    0.118566
  34 H :    0.111975
  35 H :    0.111761
  36 H :    0.110548
  37 H :    0.111140
Sum of atomic charges:    0.0000000

LOEWDIN ATOMIC CHARGES
----------------------
   0 C :   -0.360771
   1 C :   -0.108901
   2 O :   -0.040721
   3 C :    0.041012
   4 O :   -0.172495
   5 C :   -0.253977
   6 C :   -0.260646
   7 H :    0.153893
   8 C :   -0.004906
   9 O :   -0.154800
  10 O :   -0.042460
  11 C :   -0.109282
  12 C :   -0.357909
  13 S :    0.128019
  14 P :    0.604418
  15 S :   -0.313820
  16 O :   -0.253395
  17 C :   -0.215157
  18 O :   -0.258173
  19 C :   -0.213772
  20 H :    0.130152
  21 H :    0.121951
  22 H :    0.126343
  23 H :    0.120620
  24 H :    0.117952
  25 H :    0.148341
  26 H :    0.139598
  27 H :    0.124153
  28 H :    0.117209
  29 H :    0.132560
  30 H :    0.132364
  31 H :    0.122524
  32 H :    0.107622
  33 H :    0.119023
  34 H :    0.106015
  35 H :    0.110054
  36 H :    0.113273
  37 H :    0.104086

  Mayer bond orders larger than 0.100000
B(  0-C ,  1-C ) :   1.1792 B(  0-C , 20-H ) :   0.9412 B(  0-C , 21-H ) :   0.9471
B(  0-C , 22-H ) :   0.9250 B(  1-C ,  2-O ) :   0.9033 B(  1-C , 23-H ) :   0.9093
B(  1-C , 24-H ) :   0.9361 B(  2-O ,  3-C ) :   1.2715 B(  3-C ,  4-O ) :   1.9125
B(  3-C ,  5-C ) :   1.0117 B(  5-C ,  6-C ) :   1.0208 B(  5-C , 25-H ) :   0.8763
B(  5-C , 26-H ) :   0.8819 B(  6-C ,  7-H ) :   0.8709 B(  6-C ,  8-C ) :   0.8902
B(  6-C , 13-S ) :   1.0434 B(  8-C ,  9-O ) :   2.0374 B(  8-C , 10-O ) :   1.2619
B( 10-O , 11-C ) :   0.9011 B( 11-C , 12-C ) :   1.1701 B( 11-C , 27-H ) :   0.9084
B( 11-C , 28-H ) :   0.9370 B( 12-C , 29-H ) :   0.9433 B( 12-C , 30-H ) :   0.9441
B( 12-C , 31-H ) :   0.9475 B( 13-S , 14-P ) :   0.9297 B( 13-S , 15-S ) :   0.1204
B( 14-P , 15-S ) :   1.5065 B( 14-P , 16-O ) :   1.1014 B( 14-P , 18-O ) :   1.0920
B( 16-O , 17-C ) :   0.9421 B( 17-C , 32-H ) :   0.9516 B( 17-C , 33-H ) :   0.9605
B( 17-C , 34-H ) :   0.9308 B( 18-O , 19-C ) :   0.9368 B( 19-C , 35-H ) :   0.9513
B( 19-C , 36-H ) :   0.9552 B( 19-C , 37-H ) :   0.9317

Dispersion correction           -0.056293136
FINAL SINGLE POINT ENERGY     -1978.999055943002

DIPOLE MOMENT
-------------

Method             : SCF
Type of density    : Electron Density
Multiplicity       :   1
Irrep              :   0
Energy             : -1979.1273251324596458 Eh
Relativity type    :
Basis              : AO
                                X                 Y                 Z
Electronic contribution:    -12.744105976       0.285630077     -10.340972019
Nuclear contribution   :     14.196765980      -0.606885187      10.177954144
                        -----------------------------------------
Total Dipole Moment    :      1.452660003      -0.321255109      -0.163017874
                        -----------------------------------------
Magnitude (a.u.)       :      1.496663208
Magnitude (Debye)      :      3.804215549

Rotational constants in cm-1:             0.011805             0.009698             0.007633
Rotational constants in MHz :           353.890366           290.725877           228.825521

                             ****ORCA TERMINATED NORMALLY****
TOTAL RUN TIME: 0 days 0 hours 1 minutes 31 seconds 396 msec
