                         Program Version 6.0.0  -   RELEASE  -
|  1> ! pbe def2-sv(p) def2/J RI DEFGRID1 loosescf d4 GCP(DFT/SV(P)) printgap
|  2> %output
|  3>     printlevel normal
|  4> end
|  5> * xyz 0 1
|  6> C 2.3999000971 1.0030569882 -2.7648239479
|  7> C 1.7505548261 1.4518722926 -1.4708446614
|  8> O 1.6716357718 0.3277570495 -0.5805487408
|  9> P 2.1961687179 0.3270836802 0.92482975
| 10> S 3.5307333165 1.7109943515 1.2937075946
| 11> O 2.6427332241 -1.1817593553 1.1373594366
| 12> C 3.7350861419 -1.7408895088 0.3707662132
| 13> C 3.2023950892 -2.5950627067 -0.7622667703
| 14> S 0.5094344444 0.3079650232 2.1658774291
| 15> C -0.3018634776 -1.2316922059 1.5660124975
| 16> S -2.0658462818 -1.0052411244 1.297462632
| 17> P -1.8961625202 -0.1562864264 -0.6544153099
| 18> S -0.8003698267 -1.1473548763 -1.9312070634
| 19> O -1.3454622037 1.3061370366 -0.4065267436
| 20> C -1.9979991816 2.2724319808 0.4534524412
| 21> C -2.8755004706 3.2057454983 -0.3540535689
| 22> O -3.4014461254 0.1037306998 -1.0885098158
| 23> C -4.1976529551 -0.8990071872 -1.7461845623
| 24> C -4.4719968418 -2.0925980398 -0.8551754708
| 25> H 3.418033527 0.6697404967 -2.5796283691
| 26> H 1.8287585264 0.1849759007 -3.197526715
| 27> H 2.4172743056 1.835696546 -3.4602156761
| 28> H 0.7270913574 1.7931968133 -1.6403645287
| 29> H 2.3305066956 2.2454672066 -0.987215149
| 30> H 4.3625948583 -0.9238716304 0.0002912825
| 31> H 4.3044640839 -2.3359677857 1.0871804169
| 32> H 4.036436588 -2.9996888002 -1.3266538553
| 33> H 2.6080049587 -3.4134827157 -0.3654310425
| 34> H 2.575862267 -2.0029049908 -1.4257402633
| 35> H -0.1867882985 -1.9902755173 2.3346786809
| 36> H 0.1667190006 -1.5335496288 0.6287668454
| 37> H -2.577962459 1.7389513742 1.2115395619
| 38> H -1.1779353453 2.8083369074 0.9372505195
| 39> H -3.6828495577 2.6508994257 -0.8241784417
| 40> H -3.2941615752 3.956090959 0.3093014291
| 41> H -2.2897337494 3.6980849405 -1.125687673
| 42> H -5.1163253668 -0.371384452 -2.0063420908
| 43> H -3.6765505385 -1.2093594276 -2.6569487458
| 44> H -3.5511404153 -2.6449598176 -0.6756738625
| 45> H -4.877280344 -1.7680300018 0.0999375445
| 46> H -5.1845770298 -2.7480749959 -1.345517487
| 47> *
| 48>
| 49>                          ****END OF INPUT****

CARTESIAN COORDINATES (ANGSTROEM)
---------------------------------
  C      2.399900    1.003057   -2.764824
  C      1.750555    1.451872   -1.470845
  O      1.671636    0.327757   -0.580549
  P      2.196169    0.327084    0.924830
  S      3.530733    1.710994    1.293708
  O      2.642733   -1.181759    1.137359
  C      3.735086   -1.740890    0.370766
  C      3.202395   -2.595063   -0.762267
  S      0.509434    0.307965    2.165877
  C     -0.301863   -1.231692    1.566012
  S     -2.065846   -1.005241    1.297463
  P     -1.896163   -0.156286   -0.654415
  S     -0.800370   -1.147355   -1.931207
  O     -1.345462    1.306137   -0.406527
  C     -1.997999    2.272432    0.453452
  C     -2.875500    3.205745   -0.354054
  O     -3.401446    0.103731   -1.088510
  C     -4.197653   -0.899007   -1.746185
  C     -4.471997   -2.092598   -0.855175
  H      3.418034    0.669740   -2.579628
  H      1.828759    0.184976   -3.197527
  H      2.417274    1.835697   -3.460216
  H      0.727091    1.793197   -1.640365
  H      2.330507    2.245467   -0.987215
  H      4.362595   -0.923872    0.000291
  H      4.304464   -2.335968    1.087180
  H      4.036437   -2.999689   -1.326654
  H      2.608005   -3.413483   -0.365431
  H      2.575862   -2.002905   -1.425740
  H     -0.186788   -1.990276    2.334679
  H      0.166719   -1.533550    0.628767
  H     -2.577962    1.738951    1.211540
  H     -1.177935    2.808337    0.937251
  H     -3.682850    2.650899   -0.824178
  H     -3.294162    3.956091    0.309301
  H     -2.289734    3.698085   -1.125688
  H     -5.116325   -0.371384   -2.006342
  H     -3.676551   -1.209359   -2.656949
  H     -3.551140   -2.644960   -0.675674
  H     -4.877280   -1.768030    0.099938
  H     -5.184577   -2.748075   -1.345517

 Total Charge           Charge          ....    0
 Multiplicity           Mult            ....    1
 Number of Electrons    NEL             ....  202
 Basis Dimension        Dim             ....  334

ORBITAL ENERGIES
----------------

  NO   OCC          E(Eh)            E(eV)
   0   2.0000     -88.051508     -2396.0033
   1   2.0000     -88.038556     -2395.6509
   2   2.0000     -87.993296     -2394.4193
   3   2.0000     -87.980130     -2394.0610
   4   2.0000     -76.434115     -2079.8780
   5   2.0000     -76.419483     -2079.4798
   6   2.0000     -18.805522      -511.7243
   7   2.0000     -18.797863      -511.5159
   8   2.0000     -18.787747      -511.2406
   9   2.0000     -18.781389      -511.0676
  10   2.0000      -9.962239      -271.0863
  11   2.0000      -9.958622      -270.9879
  12   2.0000      -9.956040      -270.9176
  13   2.0000      -9.950741      -270.7734
  14   2.0000      -9.935706      -270.3643
  15   2.0000      -9.892475      -269.1879
  16   2.0000      -9.888553      -269.0812
  17   2.0000      -9.881486      -268.8889
  18   2.0000      -9.875432      -268.7242
  19   2.0000      -7.696470      -209.4316
  20   2.0000      -7.684022      -209.0929
  21   2.0000      -7.638315      -207.8491
  22   2.0000      -7.625417      -207.4981
  23   2.0000      -6.431662      -175.0144
  24   2.0000      -6.417571      -174.6310
  25   2.0000      -5.724220      -155.7639
  26   2.0000      -5.720974      -155.6756
  27   2.0000      -5.713591      -155.4747
  28   2.0000      -5.712374      -155.4416
  29   2.0000      -5.708285      -155.3303
  30   2.0000      -5.700682      -155.1235
  31   2.0000      -5.667277      -154.2144
  32   2.0000      -5.658847      -153.9851
  33   2.0000      -5.658459      -153.9745
  34   2.0000      -5.654378      -153.8635
  35   2.0000      -5.646251      -153.6423
  36   2.0000      -5.645294      -153.6163
  37   2.0000      -4.654601      -126.6581
  38   2.0000      -4.653381      -126.6249
  39   2.0000      -4.651829      -126.5827
  40   2.0000      -4.640104      -126.2636
  41   2.0000      -4.639451      -126.2459
  42   2.0000      -4.637907      -126.2039
  43   2.0000      -0.996756       -27.1231
  44   2.0000      -0.980007       -26.6673
  45   2.0000      -0.953695       -25.9513
  46   2.0000      -0.936774       -25.4909
  47   2.0000      -0.765422       -20.8282
  48   2.0000      -0.724976       -19.7276
  49   2.0000      -0.710616       -19.3368
  50   2.0000      -0.696840       -18.9620
  51   2.0000      -0.681117       -18.5341
  52   2.0000      -0.674293       -18.3484
  53   2.0000      -0.653467       -17.7817
  54   2.0000      -0.637299       -17.3418
  55   2.0000      -0.602796       -16.4029
  56   2.0000      -0.587180       -15.9780
  57   2.0000      -0.579468       -15.7681
  58   2.0000      -0.564056       -15.3487
  59   2.0000      -0.561320       -15.2743
  60   2.0000      -0.506534       -13.7835
  61   2.0000      -0.496113       -13.4999
  62   2.0000      -0.482009       -13.1161
  63   2.0000      -0.474534       -12.9127
  64   2.0000      -0.459388       -12.5006
  65   2.0000      -0.452255       -12.3065
  66   2.0000      -0.444648       -12.0995
  67   2.0000      -0.435087       -11.8393
  68   2.0000      -0.426442       -11.6041
  69   2.0000      -0.419008       -11.4018
  70   2.0000      -0.410579       -11.1724
  71   2.0000      -0.397382       -10.8133
  72   2.0000      -0.393390       -10.7047
  73   2.0000      -0.386718       -10.5231
  74   2.0000      -0.377125       -10.2621
  75   2.0000      -0.373486       -10.1631
  76   2.0000      -0.367487        -9.9998
  77   2.0000      -0.360510        -9.8100
  78   2.0000      -0.359484        -9.7821
  79   2.0000      -0.352418        -9.5898
  80   2.0000      -0.350263        -9.5311
  81   2.0000      -0.347088        -9.4448
  82   2.0000      -0.339671        -9.2429
  83   2.0000      -0.335298        -9.1239
  84   2.0000      -0.327532        -8.9126
  85   2.0000      -0.322905        -8.7867
  86   2.0000      -0.311315        -8.4713
  87   2.0000      -0.303464        -8.2577
  88   2.0000      -0.297320        -8.0905
  89   2.0000      -0.289313        -7.8726
  90   2.0000      -0.280759        -7.6398
  91   2.0000      -0.275482        -7.4962
  92   2.0000      -0.272561        -7.4168
  93   2.0000      -0.270914        -7.3720
  94   2.0000      -0.257253        -7.0002
  95   2.0000      -0.240615        -6.5475
  96   2.0000      -0.218716        -5.9516
  97   2.0000      -0.211518        -5.7557
  98   2.0000      -0.209672        -5.7055
  99   2.0000      -0.201474        -5.4824
 100   2.0000      -0.192383        -5.2350
 101   0.0000      -0.043213        -1.1759
 102   0.0000      -0.028026        -0.7626
 103   0.0000      -0.018552        -0.5048
 104   0.0000       0.004250         0.1156
 105   0.0000       0.018241         0.4964

MULLIKEN ATOMIC CHARGES
-----------------------
   0 C :   -0.296157
   1 C :   -0.012920
   2 O :   -0.374868
   3 P :    0.608321
   4 S :   -0.324519
   5 O :   -0.381497
   6 C :   -0.011183
   7 C :   -0.304584
   8 S :   -0.079780
   9 C :   -0.363694
  10 S :   -0.092715
  11 P :    0.604555
  12 S :   -0.299873
  13 O :   -0.356424
  14 C :   -0.013095
  15 C :   -0.286017
  16 O :   -0.378422
  17 C :   -0.002474
  18 C :   -0.325279
  19 H :    0.106435
  20 H :    0.125917
  21 H :    0.106440
  22 H :    0.109523
  23 H :    0.103225
  24 H :    0.102945
  25 H :    0.110147
  26 H :    0.108936
  27 H :    0.114246
  28 H :    0.139504
  29 H :    0.189974
  30 H :    0.210287
  31 H :    0.102821
  32 H :    0.115994
  33 H :    0.119502
  34 H :    0.112037
  35 H :    0.118113
  36 H :    0.108017
  37 H :    0.115102
  38 H :    0.132095
  39 H :    0.120649
  40 H :    0.118719
Sum of atomic charges:    0.0000000

LOEWDIN ATOMIC CHARGES
----------------------
   0 C :   -0.355653
   1 C :   -0.127745
   2 O :   -0.241500
   3 P :    0.559839
   4 S :   -0.323577
   5 O :   -0.251117
   6 C :   -0.114279
   7 C :   -0.362392
   8 S :    0.079018
   9 C :   -0.475413
  10 S :    0.084765
  11 P :    0.579267
  12 S :   -0.296046
  13 O :   -0.228864
  14 C :   -0.120412
  15 C :   -0.359187
  16 O :   -0.243998
  17 C :   -0.116893
  18 C :   -0.372373
  19 H :    0.120296
  20 H :    0.124136
  21 H :    0.128147
  22 H :    0.110088
  23 H :    0.101788
  24 H :    0.107898
  25 H :    0.120607
  26 H :    0.128865
  27 H :    0.125320
  28 H :    0.129764
  29 H :    0.139397
  30 H :    0.127727
  31 H :    0.103389
  32 H :    0.120124
  33 H :    0.125006
  34 H :    0.131069
  35 H :    0.127466
  36 H :    0.119937
  37 H :    0.114113
  38 H :    0.122912
  39 H :    0.124335
  40 H :    0.134178

  Mayer bond orders larger than 0.100000
B(  0-C ,  1-C ) :   1.1668 B(  0-C , 19-H ) :   0.9472 B(  0-C , 20-H ) :   0.9431
B(  0-C , 21-H ) :   0.9418 B(  1-C ,  2-O ) :   0.9031 B(  1-C , 22-H ) :   0.9135
B(  1-C , 23-H ) :   0.8989 B(  2-O ,  3-P ) :   1.0875 B(  3-P ,  4-S ) :   1.6590
B(  3-P ,  5-O ) :   1.0923 B(  3-P ,  8-S ) :   0.9945 B(  5-O ,  6-C ) :   0.8991
B(  6-C ,  7-C ) :   1.1664 B(  6-C , 24-H ) :   0.9091 B(  6-C , 25-H ) :   0.9360
B(  7-C , 26-H ) :   0.9403 B(  7-C , 27-H ) :   0.9451 B(  7-C , 28-H ) :   0.9355
B(  8-S ,  9-C ) :   0.9548 B(  9-C , 10-S ) :   1.0086 B(  9-C , 29-H ) :   0.9104
B(  9-C , 30-H ) :   0.8591 B( 10-S , 11-P ) :   0.9476 B( 10-S , 12-S ) :   0.1058
B( 11-P , 12-S ) :   1.6411 B( 11-P , 13-O ) :   1.1280 B( 11-P , 16-O ) :   1.0889
B( 13-O , 14-C ) :   0.8798 B( 14-C , 15-C ) :   1.1622 B( 14-C , 31-H ) :   0.9097
B( 14-C , 32-H ) :   0.9306 B( 15-C , 33-H ) :   0.9417 B( 15-C , 34-H ) :   0.9397
B( 15-C , 35-H ) :   0.9483 B( 16-O , 17-C ) :   0.9020 B( 17-C , 18-C ) :   1.1659
B( 17-C , 36-H ) :   0.9332 B( 17-C , 37-H ) :   0.9183 B( 18-C , 38-H ) :   0.9336
B( 18-C , 39-H ) :   0.9431 B( 18-C , 40-H ) :   0.9367

Dispersion correction           -0.066211319
FINAL SINGLE POINT ENERGY     -2929.519416699065

DIPOLE MOMENT
-------------

Method             : SCF
Type of density    : Electron Density
Multiplicity       :   1
Irrep              :   0
Energy             : -2929.6413303118756630 Eh
Relativity type    :
Basis              : AO
                                X                 Y                 Z
Electronic contribution:      5.226986988       1.838568683      15.688852638
Nuclear contribution   :     -6.725126717      -2.354695136     -16.293904843
                        -----------------------------------------
Total Dipole Moment    :     -1.498139729      -0.516126453      -0.605052205
                        -----------------------------------------
Magnitude (a.u.)       :      1.696141897
Magnitude (Debye)      :      4.311250081

Rotational constants in cm-1:             0.011875             0.005350             0.005135
Rotational constants in MHz :           355.990948           160.380170           153.936035

                             ****ORCA TERMINATED NORMALLY****
TOTAL RUN TIME: 0 days 0 hours 0 minutes 22 seconds 124 msec
