                         Program Version 6.0.0  -   RELEASE  -
|  1> ! pbe def2-sv(p) def2/J RI DEFGRID1 loosescf d4 GCP(DFT/SV(P)) printgap
|  2> %output
|  3>     printlevel normal
|  4> end
|  5> * xyz 0 1
|  6> C 2.8380378755 2.1644704799 -1.711786372
|  7> C 3.1630226138 0.7061796366 -1.9555087126
|  8> O 2.2695016634 -0.1844850207 -1.2550021646
|  9> P 2.1019472146 -0.265704141 0.3163470035
| 10> S 1.104020826 1.1459593134 1.2510088802
| 11> O 3.6068995513 -0.4005058617 0.8059738195
| 12> C 3.9800553085 -0.236810659 2.1851453262
| 13> C 3.4808334507 -1.382594509 3.0405700892
| 14> S 1.3279114532 -2.2293306518 0.4366524819
| 15> C -0.272247167 -1.9740229676 -0.3737255556
| 16> S -1.5015313695 -1.1670852845 0.7017531694
| 17> P -2.1314503997 0.3632288609 -0.6438197537
| 18> S -0.8124436604 1.0181897691 -1.9296332814
| 19> O -2.8860958717 1.3859896817 0.3053389082
| 20> C -2.3008206324 2.2083748732 1.3313297827
| 21> C -1.7065332703 3.4749465113 0.7503760563
| 22> O -3.3428409194 -0.239058383 -1.4530376753
| 23> C -4.5113814934 -0.8379082736 -0.8367746219
| 24> C -4.4972274276 -2.3396048875 -1.0428541751
| 25> H 3.0008130596 2.4200560668 -0.6656364853
| 26> H 3.474542549 2.7855086736 -2.333751462
| 27> H 1.7953114501 2.3568747395 -1.9583370152
| 28> H 4.1849862807 0.4717760412 -1.6486987506
| 29> H 3.0127653011 0.4377737334 -3.0025271463
| 30> H 5.0695948001 -0.1937129941 2.1591534605
| 31> H 3.5754071646 0.7156547854 2.543043611
| 32> H 3.800797194 -2.3337424426 2.6229015907
| 33> H 3.8716160196 -1.2780994947 4.0475272157
| 34> H 2.3920751359 -1.3678236271 3.0800379378
| 35> H -0.6324648753 -2.9678249336 -0.6254432391
| 36> H -0.1342663047 -1.358408656 -1.2659448983
| 37> H -3.136901272 2.4299042746 1.9972618496
| 38> H -1.5403433956 1.6371766908 1.8697048883
| 39> H -2.4502493064 4.0066213426 0.162903263
| 40> H -1.3578446931 4.1080378813 1.5595052427
| 41> H -0.860068637 3.2313785412 0.1114478977
| 42> H -4.530464771 -0.5804734925 0.2239697001
| 43> H -5.3600647185 -0.3747934455 -1.3421992969
| 44> H -5.4362121447 -2.7536821792 -0.6896708155
| 45> H -4.3789909486 -2.5678764567 -2.0984745534
| 46> H -3.6797217486 -2.7928905971 -0.4877840499
| 47> *
| 48>
| 49>                          ****END OF INPUT****

CARTESIAN COORDINATES (ANGSTROEM)
---------------------------------
  C      2.838038    2.164470   -1.711786
  C      3.163023    0.706180   -1.955509
  O      2.269502   -0.184485   -1.255002
  P      2.101947   -0.265704    0.316347
  S      1.104021    1.145959    1.251009
  O      3.606900   -0.400506    0.805974
  C      3.980055   -0.236811    2.185145
  C      3.480833   -1.382595    3.040570
  S      1.327911   -2.229331    0.436652
  C     -0.272247   -1.974023   -0.373726
  S     -1.501531   -1.167085    0.701753
  P     -2.131450    0.363229   -0.643820
  S     -0.812444    1.018190   -1.929633
  O     -2.886096    1.385990    0.305339
  C     -2.300821    2.208375    1.331330
  C     -1.706533    3.474947    0.750376
  O     -3.342841   -0.239058   -1.453038
  C     -4.511381   -0.837908   -0.836775
  C     -4.497227   -2.339605   -1.042854
  H      3.000813    2.420056   -0.665636
  H      3.474543    2.785509   -2.333751
  H      1.795311    2.356875   -1.958337
  H      4.184986    0.471776   -1.648699
  H      3.012765    0.437774   -3.002527
  H      5.069595   -0.193713    2.159153
  H      3.575407    0.715655    2.543044
  H      3.800797   -2.333742    2.622902
  H      3.871616   -1.278099    4.047527
  H      2.392075   -1.367824    3.080038
  H     -0.632465   -2.967825   -0.625443
  H     -0.134266   -1.358409   -1.265945
  H     -3.136901    2.429904    1.997262
  H     -1.540343    1.637177    1.869705
  H     -2.450249    4.006621    0.162903
  H     -1.357845    4.108038    1.559505
  H     -0.860069    3.231379    0.111448
  H     -4.530465   -0.580473    0.223970
  H     -5.360065   -0.374793   -1.342199
  H     -5.436212   -2.753682   -0.689671
  H     -4.378991   -2.567876   -2.098475
  H     -3.679722   -2.792891   -0.487784

 Total Charge           Charge          ....    0
 Multiplicity           Mult            ....    1
 Number of Electrons    NEL             ....  202
 Basis Dimension        Dim             ....  334

ORBITAL ENERGIES
----------------

  NO   OCC          E(Eh)            E(eV)
   0   2.0000     -88.039254     -2395.6699
   1   2.0000     -88.037173     -2395.6133
   2   2.0000     -87.981732     -2394.1046
   3   2.0000     -87.977935     -2394.0013
   4   2.0000     -76.424990     -2079.6297
   5   2.0000     -76.420897     -2079.5183
   6   2.0000     -18.794960      -511.4369
   7   2.0000     -18.790542      -511.3167
   8   2.0000     -18.784144      -511.1425
   9   2.0000     -18.782113      -511.0873
  10   2.0000      -9.953521      -270.8491
  11   2.0000      -9.952757      -270.8283
  12   2.0000      -9.952033      -270.8086
  13   2.0000      -9.949573      -270.7417
  14   2.0000      -9.947800      -270.6934
  15   2.0000      -9.885031      -268.9854
  16   2.0000      -9.884463      -268.9699
  17   2.0000      -9.873681      -268.6765
  18   2.0000      -9.872658      -268.6487
  19   2.0000      -7.684818      -209.1145
  20   2.0000      -7.681973      -209.0371
  21   2.0000      -7.626498      -207.5276
  22   2.0000      -7.623141      -207.4362
  23   2.0000      -6.422225      -174.7576
  24   2.0000      -6.418241      -174.6492
  25   2.0000      -5.712675      -155.4498
  26   2.0000      -5.709796      -155.3714
  27   2.0000      -5.709491      -155.3632
  28   2.0000      -5.706565      -155.2835
  29   2.0000      -5.701552      -155.1471
  30   2.0000      -5.698964      -155.0767
  31   2.0000      -5.655238      -153.8868
  32   2.0000      -5.652210      -153.8045
  33   2.0000      -5.647151      -153.6668
  34   2.0000      -5.646795      -153.6571
  35   2.0000      -5.643916      -153.5787
  36   2.0000      -5.642891      -153.5509
  37   2.0000      -4.645232      -126.4032
  38   2.0000      -4.643884      -126.3665
  39   2.0000      -4.642443      -126.3273
  40   2.0000      -4.641018      -126.2885
  41   2.0000      -4.640106      -126.2637
  42   2.0000      -4.638472      -126.2192
  43   2.0000      -0.986354       -26.8401
  44   2.0000      -0.982985       -26.7484
  45   2.0000      -0.942603       -25.6495
  46   2.0000      -0.938281       -25.5319
  47   2.0000      -0.758831       -20.6488
  48   2.0000      -0.718520       -19.5519
  49   2.0000      -0.707118       -19.2417
  50   2.0000      -0.686765       -18.6878
  51   2.0000      -0.683961       -18.6115
  52   2.0000      -0.670076       -18.2337
  53   2.0000      -0.650369       -17.6974
  54   2.0000      -0.631931       -17.1957
  55   2.0000      -0.593410       -16.1475
  56   2.0000      -0.581898       -15.8343
  57   2.0000      -0.574313       -15.6279
  58   2.0000      -0.570925       -15.5356
  59   2.0000      -0.559399       -15.2220
  60   2.0000      -0.501098       -13.6356
  61   2.0000      -0.494211       -13.4482
  62   2.0000      -0.471996       -12.8437
  63   2.0000      -0.468247       -12.7417
  64   2.0000      -0.453732       -12.3467
  65   2.0000      -0.442730       -12.0473
  66   2.0000      -0.437220       -11.8974
  67   2.0000      -0.430631       -11.7181
  68   2.0000      -0.424864       -11.5611
  69   2.0000      -0.413735       -11.2583
  70   2.0000      -0.408932       -11.1276
  71   2.0000      -0.404789       -11.0149
  72   2.0000      -0.395540       -10.7632
  73   2.0000      -0.381264       -10.3747
  74   2.0000      -0.377577       -10.2744
  75   2.0000      -0.367834       -10.0093
  76   2.0000      -0.356154        -9.6914
  77   2.0000      -0.353873        -9.6294
  78   2.0000      -0.351571        -9.5667
  79   2.0000      -0.347112        -9.4454
  80   2.0000      -0.342580        -9.3221
  81   2.0000      -0.338826        -9.2199
  82   2.0000      -0.335981        -9.1425
  83   2.0000      -0.331435        -9.0188
  84   2.0000      -0.327115        -8.9013
  85   2.0000      -0.316554        -8.6139
  86   2.0000      -0.308901        -8.4056
  87   2.0000      -0.295559        -8.0426
  88   2.0000      -0.291539        -7.9332
  89   2.0000      -0.288468        -7.8496
  90   2.0000      -0.284151        -7.7321
  91   2.0000      -0.274818        -7.4782
  92   2.0000      -0.269307        -7.3282
  93   2.0000      -0.260203        -7.0805
  94   2.0000      -0.257134        -6.9970
  95   2.0000      -0.238310        -6.4847
  96   2.0000      -0.221600        -6.0300
  97   2.0000      -0.199014        -5.4155
  98   2.0000      -0.197534        -5.3752
  99   2.0000      -0.189671        -5.1612
 100   2.0000      -0.182529        -4.9669
 101   0.0000      -0.037784        -1.0282
 102   0.0000      -0.030707        -0.8356
 103   0.0000      -0.012838        -0.3493
 104   0.0000       0.001299         0.0353
 105   0.0000       0.023859         0.6492

MULLIKEN ATOMIC CHARGES
-----------------------
   0 C :   -0.325494
   1 C :    0.004058
   2 O :   -0.368510
   3 P :    0.639531
   4 S :   -0.328627
   5 O :   -0.378545
   6 C :   -0.004543
   7 C :   -0.323409
   8 S :   -0.091547
   9 C :   -0.353455
  10 S :   -0.102758
  11 P :    0.604626
  12 S :   -0.303598
  13 O :   -0.379767
  14 C :   -0.017259
  15 C :   -0.305595
  16 O :   -0.358957
  17 C :   -0.005834
  18 C :   -0.289361
  19 H :    0.120790
  20 H :    0.105169
  21 H :    0.144773
  22 H :    0.104890
  23 H :    0.107550
  24 H :    0.104178
  25 H :    0.111639
  26 H :    0.119573
  27 H :    0.114987
  28 H :    0.131524
  29 H :    0.181737
  30 H :    0.200542
  31 H :    0.099879
  32 H :    0.128113
  33 H :    0.111379
  34 H :    0.105994
  35 H :    0.143838
  36 H :    0.101314
  37 H :    0.109499
  38 H :    0.107713
  39 H :    0.118708
  40 H :    0.115254
Sum of atomic charges:    0.0000000

LOEWDIN ATOMIC CHARGES
----------------------
   0 C :   -0.371009
   1 C :   -0.106799
   2 O :   -0.239554
   3 P :    0.577192
   4 S :   -0.308408
   5 O :   -0.243497
   6 C :   -0.121818
   7 C :   -0.370830
   8 S :    0.083189
   9 C :   -0.478751
  10 S :    0.063013
  11 P :    0.565567
  12 S :   -0.293244
  13 O :   -0.241459
  14 C :   -0.115725
  15 C :   -0.365213
  16 O :   -0.242134
  17 C :   -0.113784
  18 C :   -0.360358
  19 H :    0.119094
  20 H :    0.126962
  21 H :    0.129140
  22 H :    0.110933
  23 H :    0.121629
  24 H :    0.117991
  25 H :    0.109740
  26 H :    0.125103
  27 H :    0.132383
  28 H :    0.123123
  29 H :    0.135120
  30 H :    0.125755
  31 H :    0.115702
  32 H :    0.107686
  33 H :    0.124710
  34 H :    0.128851
  35 H :    0.126193
  36 H :    0.107099
  37 H :    0.121084
  38 H :    0.128710
  39 H :    0.128277
  40 H :    0.118338

  Mayer bond orders larger than 0.100000
B(  0-C ,  1-C ) :   1.1676 B(  0-C , 19-H ) :   0.9351 B(  0-C , 20-H ) :   0.9352
B(  0-C , 21-H ) :   0.9358 B(  1-C ,  2-O ) :   0.9040 B(  1-C , 22-H ) :   0.9314
B(  1-C , 23-H ) :   0.9347 B(  2-O ,  3-P ) :   1.1222 B(  3-P ,  4-S ) :   1.6234
B(  3-P ,  5-O ) :   1.0903 B(  3-P ,  8-S ) :   0.9553 B(  4-S ,  8-S ) :   0.1187
B(  5-O ,  6-C ) :   0.9061 B(  6-C ,  7-C ) :   1.1654 B(  6-C , 24-H ) :   0.9322
B(  6-C , 25-H ) :   0.9113 B(  7-C , 26-H ) :   0.9449 B(  7-C , 27-H ) :   0.9382
B(  7-C , 28-H ) :   0.9325 B(  8-S ,  9-C ) :   1.0063 B(  9-C , 10-S ) :   0.9896
B(  9-C , 29-H ) :   0.9114 B(  9-C , 30-H ) :   0.8519 B( 10-S , 11-P ) :   0.9429
B( 10-S , 12-S ) :   0.1154 B( 11-P , 12-S ) :   1.6392 B( 11-P , 13-O ) :   1.1066
B( 11-P , 16-O ) :   1.1260 B( 12-S , 30-H ) :   0.1004 B( 13-O , 14-C ) :   0.9005
B( 14-C , 15-C ) :   1.1731 B( 14-C , 31-H ) :   0.9349 B( 14-C , 32-H ) :   0.9119
B( 15-C , 33-H ) :   0.9463 B( 15-C , 34-H ) :   0.9388 B( 15-C , 35-H ) :   0.9301
B( 16-O , 17-C ) :   0.8954 B( 17-C , 18-C ) :   1.1634 B( 17-C , 36-H ) :   0.9177
B( 17-C , 37-H ) :   0.9350 B( 18-C , 38-H ) :   0.9404 B( 18-C , 39-H ) :   0.9467
B( 18-C , 40-H ) :   0.9382

Dispersion correction           -0.066971598
FINAL SINGLE POINT ENERGY     -2929.513505639801

DIPOLE MOMENT
-------------

Method             : SCF
Type of density    : Electron Density
Multiplicity       :   1
Irrep              :   0
Energy             : -2929.6312608635757897 Eh
Relativity type    :
Basis              : AO
                                X                 Y                 Z
Electronic contribution:     -0.546030013      -5.983779854      -3.618038874
Nuclear contribution   :      0.655979069       5.615376101       4.251304869
                        -----------------------------------------
Total Dipole Moment    :      0.109949056      -0.368403753       0.633265995
                        -----------------------------------------
Magnitude (a.u.)       :      0.740834625
Magnitude (Debye)      :      1.883051967

Rotational constants in cm-1:             0.011822             0.005408             0.004943
Rotational constants in MHz :           354.422297           162.119247           148.181188

                             ****ORCA TERMINATED NORMALLY****
TOTAL RUN TIME: 0 days 0 hours 0 minutes 21 seconds 248 msec
