                         Program Version 6.0.0  -   RELEASE  -
|  1> ! r2scan-3c def2/J RI DEFGRID2 scfconv6 printgap
|  2> %output
|  3>     printlevel normal
|  4> end
|  5> * xyz 0 1
|  6> C 5.2472432968 -0.3634768349 -1.5771946777
|  7> C 4.5084944517 -0.7322665883 -0.3058319245
|  8> O 3.5632400232 0.2855019163 0.077220925
|  9> P 2.0759210762 0.3835701959 -0.4853837101
| 10> S 1.8602528891 0.6752070025 -2.4065037722
| 11> O 1.5284603865 1.5774609348 0.3808768834
| 12> C 1.7157457213 1.6486638694 1.8179961225
| 13> C 0.782873156 2.7142188862 2.3519637064
| 14> S 1.2448744598 -1.4336822788 0.2551504886
| 15> C 0.0528494828 -1.8230783934 -1.0642113011
| 16> S -1.6361262881 -2.0164925283 -0.4576738873
| 17> P -1.9526459716 -0.0081868999 0.1764878224
| 18> S -1.4038626647 1.405676461 -1.0610470985
| 19> O -1.2143948324 0.09849722 1.5670475054
| 20> C -1.4926684414 -0.7859464384 2.6847367954
| 21> C -2.4032861858 -0.1060147997 3.6853494355
| 22> O -3.484037998 0.0026639023 0.6006089666
| 23> C -4.5464365801 0.2813620258 -0.3280930603
| 24> C -4.6759683979 -0.7866939355 -1.394316995
| 25> H 4.554610065 -0.2983001541 -2.4133882254
| 26> H 5.7383536168 0.5986534349 -1.4593546093
| 27> H 5.9917832865 -1.1236749866 -1.7901642686
| 28> H 5.190240253 -0.7912113971 0.5449218058
| 29> H 3.981208325 -1.6835426987 -0.4183085557
| 30> H 1.4904528021 0.6661729032 2.2431948431
| 31> H 2.7625056485 1.8945599766 2.0059201577
| 32> H -0.2467629375 2.4535462134 2.1197426048
| 33> H 0.9062317339 2.7910743947 3.4273914832
| 34> H 1.0084286327 3.6712342028 1.8899876902
| 35> H 0.3284806714 -2.781209039 -1.4974754543
| 36> H 0.0982620282 -1.0255712075 -1.8121641489
| 37> H -1.9392390089 -1.7084513061 2.3043678754
| 38> H -0.5137350368 -1.0054215668 3.1158321579
| 39> H -3.3659642527 0.1103131865 3.2301035543
| 40> H -2.5486033233 -0.7660660774 4.5346903121
| 41> H -1.9586961143 0.8248138993 4.0264311727
| 42> H -5.4355023298 0.3303713225 0.3022759807
| 43> H -4.3572884259 1.2583081928 -0.7833761257
| 44> H -4.737490598 -1.7721241737 -0.939311837
| 45> H -5.5714847148 -0.6017204597 -1.9788740079
| 46> H -3.8124518397 -0.7580803681 -2.0573401687
| 47> *
| 48>
| 49>                          ****END OF INPUT****

CARTESIAN COORDINATES (ANGSTROEM)
---------------------------------
  C      5.247243   -0.363477   -1.577195
  C      4.508494   -0.732267   -0.305832
  O      3.563240    0.285502    0.077221
  P      2.075921    0.383570   -0.485384
  S      1.860253    0.675207   -2.406504
  O      1.528460    1.577461    0.380877
  C      1.715746    1.648664    1.817996
  C      0.782873    2.714219    2.351964
  S      1.244874   -1.433682    0.255150
  C      0.052849   -1.823078   -1.064211
  S     -1.636126   -2.016493   -0.457674
  P     -1.952646   -0.008187    0.176488
  S     -1.403863    1.405676   -1.061047
  O     -1.214395    0.098497    1.567048
  C     -1.492668   -0.785946    2.684737
  C     -2.403286   -0.106015    3.685349
  O     -3.484038    0.002664    0.600609
  C     -4.546437    0.281362   -0.328093
  C     -4.675968   -0.786694   -1.394317
  H      4.554610   -0.298300   -2.413388
  H      5.738354    0.598653   -1.459355
  H      5.991783   -1.123675   -1.790164
  H      5.190240   -0.791211    0.544922
  H      3.981208   -1.683543   -0.418309
  H      1.490453    0.666173    2.243195
  H      2.762506    1.894560    2.005920
  H     -0.246763    2.453546    2.119743
  H      0.906232    2.791074    3.427391
  H      1.008429    3.671234    1.889988
  H      0.328481   -2.781209   -1.497475
  H      0.098262   -1.025571   -1.812164
  H     -1.939239   -1.708451    2.304368
  H     -0.513735   -1.005422    3.115832
  H     -3.365964    0.110313    3.230104
  H     -2.548603   -0.766066    4.534690
  H     -1.958696    0.824814    4.026431
  H     -5.435502    0.330371    0.302276
  H     -4.357288    1.258308   -0.783376
  H     -4.737491   -1.772124   -0.939312
  H     -5.571485   -0.601720   -1.978874
  H     -3.812452   -0.758080   -2.057340

 Total Charge           Charge          ....    0
 Multiplicity           Mult            ....    1
 Number of Electrons    NEL             ....  202
 Basis Dimension        Dim             ....  539

ORBITAL ENERGIES
----------------

  NO   OCC          E(Eh)            E(eV)
   0   2.0000     -88.574478     -2410.2341
   1   2.0000     -88.571760     -2410.1601
   2   2.0000     -88.513272     -2408.5686
   3   2.0000     -88.511147     -2408.5108
   4   2.0000     -76.911474     -2092.8676
   5   2.0000     -76.907799     -2092.7676
   6   2.0000     -18.993951      -516.8517
   7   2.0000     -18.991492      -516.7848
   8   2.0000     -18.987471      -516.6754
   9   2.0000     -18.982158      -516.5308
  10   2.0000     -10.103648      -274.9343
  11   2.0000     -10.103252      -274.9235
  12   2.0000     -10.099987      -274.8346
  13   2.0000     -10.096702      -274.7452
  14   2.0000     -10.095239      -274.7054
  15   2.0000     -10.034423      -273.0505
  16   2.0000     -10.029147      -272.9070
  17   2.0000     -10.023218      -272.7456
  18   2.0000     -10.020793      -272.6796
  19   2.0000      -7.869043      -214.1276
  20   2.0000      -7.866241      -214.0513
  21   2.0000      -7.807703      -212.4584
  22   2.0000      -7.806019      -212.4126
  23   2.0000      -6.589833      -179.3185
  24   2.0000      -6.585993      -179.2140
  25   2.0000      -5.815936      -158.2597
  26   2.0000      -5.813004      -158.1799
  27   2.0000      -5.812697      -158.1715
  28   2.0000      -5.809960      -158.0970
  29   2.0000      -5.806290      -157.9972
  30   2.0000      -5.803564      -157.9230
  31   2.0000      -5.755528      -156.6159
  32   2.0000      -5.753819      -156.5694
  33   2.0000      -5.747878      -156.4077
  34   2.0000      -5.747708      -156.4031
  35   2.0000      -5.746285      -156.3644
  36   2.0000      -5.745862      -156.3529
  37   2.0000      -4.735752      -128.8664
  38   2.0000      -4.734814      -128.8409
  39   2.0000      -4.733108      -128.7944
  40   2.0000      -4.731707      -128.7563
  41   2.0000      -4.731094      -128.7396
  42   2.0000      -4.729425      -128.6942
  43   2.0000      -1.052013       -28.6267
  44   2.0000      -1.045191       -28.4411
  45   2.0000      -1.011517       -27.5248
  46   2.0000      -1.001762       -27.2593
  47   2.0000      -0.797480       -21.7005
  48   2.0000      -0.756726       -20.5915
  49   2.0000      -0.749305       -20.3896
  50   2.0000      -0.735989       -20.0273
  51   2.0000      -0.727892       -19.8069
  52   2.0000      -0.709740       -19.3130
  53   2.0000      -0.682723       -18.5778
  54   2.0000      -0.662259       -18.0210
  55   2.0000      -0.625327       -17.0160
  56   2.0000      -0.612387       -16.6639
  57   2.0000      -0.610215       -16.6048
  58   2.0000      -0.598155       -16.2766
  59   2.0000      -0.593777       -16.1575
  60   2.0000      -0.531254       -14.4562
  61   2.0000      -0.522745       -14.2246
  62   2.0000      -0.495565       -13.4850
  63   2.0000      -0.493435       -13.4270
  64   2.0000      -0.470811       -12.8114
  65   2.0000      -0.464164       -12.6305
  66   2.0000      -0.459661       -12.5080
  67   2.0000      -0.448869       -12.2143
  68   2.0000      -0.445151       -12.1132
  69   2.0000      -0.435981       -11.8636
  70   2.0000      -0.424190       -11.5428
  71   2.0000      -0.414930       -11.2908
  72   2.0000      -0.410921       -11.1817
  73   2.0000      -0.397916       -10.8278
  74   2.0000      -0.394438       -10.7332
  75   2.0000      -0.381910       -10.3923
  76   2.0000      -0.378104       -10.2887
  77   2.0000      -0.369996       -10.0681
  78   2.0000      -0.366960        -9.9855
  79   2.0000      -0.365241        -9.9387
  80   2.0000      -0.360631        -9.8133
  81   2.0000      -0.358786        -9.7631
  82   2.0000      -0.354662        -9.6508
  83   2.0000      -0.346122        -9.4185
  84   2.0000      -0.344897        -9.3851
  85   2.0000      -0.329215        -8.9584
  86   2.0000      -0.325466        -8.8564
  87   2.0000      -0.314067        -8.5462
  88   2.0000      -0.308492        -8.3945
  89   2.0000      -0.307388        -8.3645
  90   2.0000      -0.305093        -8.3020
  91   2.0000      -0.287223        -7.8157
  92   2.0000      -0.281101        -7.6492
  93   2.0000      -0.277361        -7.5474
  94   2.0000      -0.270108        -7.3500
  95   2.0000      -0.246351        -6.7036
  96   2.0000      -0.233285        -6.3480
  97   2.0000      -0.223579        -6.0839
  98   2.0000      -0.212963        -5.7950
  99   2.0000      -0.202300        -5.5049
 100   2.0000      -0.193955        -5.2778
 101   0.0000      -0.039559        -1.0765
 102   0.0000      -0.029872        -0.8129
 103   0.0000      -0.007474        -0.2034
 104   0.0000       0.013219         0.3597
 105   0.0000       0.017685         0.4812

MULLIKEN ATOMIC CHARGES
-----------------------
   0 C :   -0.435514
   1 C :   -0.157637
   2 O :   -0.295670
   3 P :    0.687996
   4 S :   -0.431269
   5 O :   -0.258957
   6 C :   -0.094290
   7 C :   -0.486748
   8 S :   -0.214416
   9 C :   -0.224468
  10 S :   -0.148108
  11 P :    0.593062
  12 S :   -0.379942
  13 O :   -0.247600
  14 C :   -0.101191
  15 C :   -0.465999
  16 O :   -0.296267
  17 C :   -0.159377
  18 C :   -0.458241
  19 H :    0.179547
  20 H :    0.151153
  21 H :    0.141801
  22 H :    0.146508
  23 H :    0.153618
  24 H :    0.148245
  25 H :    0.157698
  26 H :    0.183608
  27 H :    0.139955
  28 H :    0.155036
  29 H :    0.193621
  30 H :    0.222694
  31 H :    0.162637
  32 H :    0.158230
  33 H :    0.168142
  34 H :    0.147937
  35 H :    0.153657
  36 H :    0.146348
  37 H :    0.176449
  38 H :    0.152911
  39 H :    0.149103
  40 H :    0.185737
Sum of atomic charges:   -0.0000000

LOEWDIN ATOMIC CHARGES
----------------------
   0 C :   -0.403506
   1 C :    0.019746
   2 O :   -0.673243
   3 P :    0.376425
   4 S :   -0.098208
   5 O :   -0.647900
   6 C :    0.025008
   7 C :   -0.389863
   8 S :    0.131269
   9 C :   -0.418173
  10 S :    0.123681
  11 P :    0.373533
  12 S :   -0.051742
  13 O :   -0.677427
  14 C :    0.013079
  15 C :   -0.392376
  16 O :   -0.674030
  17 C :    0.021360
  18 C :   -0.408943
  19 H :    0.169653
  20 H :    0.159587
  21 H :    0.156344
  22 H :    0.177592
  23 H :    0.174674
  24 H :    0.173216
  25 H :    0.175003
  26 H :    0.173424
  27 H :    0.156875
  28 H :    0.162543
  29 H :    0.180124
  30 H :    0.202679
  31 H :    0.178552
  32 H :    0.178853
  33 H :    0.166304
  34 H :    0.158886
  35 H :    0.159496
  36 H :    0.178643
  37 H :    0.181647
  38 H :    0.159103
  39 H :    0.159971
  40 H :    0.168141

  Mayer bond orders larger than 0.100000
B(  0-C ,  1-C ) :   0.9552 B(  0-C , 19-H ) :   0.9525 B(  0-C , 20-H ) :   0.9725
B(  0-C , 21-H ) :   0.9655 B(  1-C ,  2-O ) :   0.7976 B(  1-C , 22-H ) :   0.9654
B(  1-C , 23-H ) :   0.9578 B(  2-O ,  3-P ) :   1.0434 B(  3-P ,  4-S ) :   1.8312
B(  3-P ,  5-O ) :   1.1868 B(  3-P ,  8-S ) :   0.9909 B(  5-O ,  6-C ) :   0.7262
B(  6-C ,  7-C ) :   0.9303 B(  6-C , 24-H ) :   0.9615 B(  6-C , 25-H ) :   0.9399
B(  7-C , 26-H ) :   0.9692 B(  7-C , 27-H ) :   0.9678 B(  7-C , 28-H ) :   0.9676
B(  8-S ,  9-C ) :   0.8979 B(  9-C , 10-S ) :   0.9191 B(  9-C , 29-H ) :   0.9157
B(  9-C , 30-H ) :   0.9034 B( 10-S , 11-P ) :   1.0229 B( 11-P , 12-S ) :   1.9062
B( 11-P , 13-O ) :   1.0901 B( 11-P , 16-O ) :   1.0406 B( 13-O , 14-C ) :   0.7184
B( 14-C , 15-C ) :   0.9312 B( 14-C , 31-H ) :   0.9593 B( 14-C , 32-H ) :   0.9619
B( 15-C , 33-H ) :   0.9698 B( 15-C , 34-H ) :   0.9673 B( 15-C , 35-H ) :   0.9721
B( 16-O , 17-C ) :   0.8229 B( 17-C , 18-C ) :   0.9131 B( 17-C , 36-H ) :   0.9612
B( 17-C , 37-H ) :   0.9672 B( 18-C , 38-H ) :   0.9677 B( 18-C , 39-H ) :   0.9566
B( 18-C , 40-H ) :   0.9622

Dispersion correction           -0.022277531
FINAL SINGLE POINT ENERGY     -2932.456242915699

DIPOLE MOMENT
-------------

Method             : SCF
Type of density    : Electron Density
Multiplicity       :   1
Irrep              :   0
Energy             : -2932.4806411711920191 Eh
Relativity type    :
Basis              : AO
                                X                 Y                 Z
Electronic contribution:      2.062231993      -1.129579279     -12.351165066
Nuclear contribution   :     -2.392215320      -0.000545528      14.113839919
                        -----------------------------------------
Total Dipole Moment    :     -0.329983327      -1.130124807       1.762674853
                        -----------------------------------------
Magnitude (a.u.)       :      2.119691891
Magnitude (Debye)      :      5.387828609

Rotational constants in cm-1:             0.012649             0.005435             0.004936
Rotational constants in MHz :           379.193644           162.935712           147.964793

                             ****ORCA TERMINATED NORMALLY****
TOTAL RUN TIME: 0 days 0 hours 1 minutes 21 seconds 717 msec
