                         Program Version 6.0.0  -   RELEASE  -
|  1> ! r2scan-3c def2/J RI DEFGRID2 scfconv6 printgap
|  2> %output
|  3>     printlevel normal
|  4> end
|  5> %cpcm
|  6>     smd true
|  7>     smdsolvent "water"
|  8> end
|  9> * xyz 0 1
| 10> C 5.2472432968 -0.3634768349 -1.5771946777
| 11> C 4.5084944517 -0.7322665883 -0.3058319245
| 12> O 3.5632400232 0.2855019163 0.077220925
| 13> P 2.0759210762 0.3835701959 -0.4853837101
| 14> S 1.8602528891 0.6752070025 -2.4065037722
| 15> O 1.5284603865 1.5774609348 0.3808768834
| 16> C 1.7157457213 1.6486638694 1.8179961225
| 17> C 0.782873156 2.7142188862 2.3519637064
| 18> S 1.2448744598 -1.4336822788 0.2551504886
| 19> C 0.0528494828 -1.8230783934 -1.0642113011
| 20> S -1.6361262881 -2.0164925283 -0.4576738873
| 21> P -1.9526459716 -0.0081868999 0.1764878224
| 22> S -1.4038626647 1.405676461 -1.0610470985
| 23> O -1.2143948324 0.09849722 1.5670475054
| 24> C -1.4926684414 -0.7859464384 2.6847367954
| 25> C -2.4032861858 -0.1060147997 3.6853494355
| 26> O -3.484037998 0.0026639023 0.6006089666
| 27> C -4.5464365801 0.2813620258 -0.3280930603
| 28> C -4.6759683979 -0.7866939355 -1.394316995
| 29> H 4.554610065 -0.2983001541 -2.4133882254
| 30> H 5.7383536168 0.5986534349 -1.4593546093
| 31> H 5.9917832865 -1.1236749866 -1.7901642686
| 32> H 5.190240253 -0.7912113971 0.5449218058
| 33> H 3.981208325 -1.6835426987 -0.4183085557
| 34> H 1.4904528021 0.6661729032 2.2431948431
| 35> H 2.7625056485 1.8945599766 2.0059201577
| 36> H -0.2467629375 2.4535462134 2.1197426048
| 37> H 0.9062317339 2.7910743947 3.4273914832
| 38> H 1.0084286327 3.6712342028 1.8899876902
| 39> H 0.3284806714 -2.781209039 -1.4974754543
| 40> H 0.0982620282 -1.0255712075 -1.8121641489
| 41> H -1.9392390089 -1.7084513061 2.3043678754
| 42> H -0.5137350368 -1.0054215668 3.1158321579
| 43> H -3.3659642527 0.1103131865 3.2301035543
| 44> H -2.5486033233 -0.7660660774 4.5346903121
| 45> H -1.9586961143 0.8248138993 4.0264311727
| 46> H -5.4355023298 0.3303713225 0.3022759807
| 47> H -4.3572884259 1.2583081928 -0.7833761257
| 48> H -4.737490598 -1.7721241737 -0.939311837
| 49> H -5.5714847148 -0.6017204597 -1.9788740079
| 50> H -3.8124518397 -0.7580803681 -2.0573401687
| 51> *
| 52>
| 53>                          ****END OF INPUT****

CARTESIAN COORDINATES (ANGSTROEM)
---------------------------------
  C      5.247243   -0.363477   -1.577195
  C      4.508494   -0.732267   -0.305832
  O      3.563240    0.285502    0.077221
  P      2.075921    0.383570   -0.485384
  S      1.860253    0.675207   -2.406504
  O      1.528460    1.577461    0.380877
  C      1.715746    1.648664    1.817996
  C      0.782873    2.714219    2.351964
  S      1.244874   -1.433682    0.255150
  C      0.052849   -1.823078   -1.064211
  S     -1.636126   -2.016493   -0.457674
  P     -1.952646   -0.008187    0.176488
  S     -1.403863    1.405676   -1.061047
  O     -1.214395    0.098497    1.567048
  C     -1.492668   -0.785946    2.684737
  C     -2.403286   -0.106015    3.685349
  O     -3.484038    0.002664    0.600609
  C     -4.546437    0.281362   -0.328093
  C     -4.675968   -0.786694   -1.394317
  H      4.554610   -0.298300   -2.413388
  H      5.738354    0.598653   -1.459355
  H      5.991783   -1.123675   -1.790164
  H      5.190240   -0.791211    0.544922
  H      3.981208   -1.683543   -0.418309
  H      1.490453    0.666173    2.243195
  H      2.762506    1.894560    2.005920
  H     -0.246763    2.453546    2.119743
  H      0.906232    2.791074    3.427391
  H      1.008429    3.671234    1.889988
  H      0.328481   -2.781209   -1.497475
  H      0.098262   -1.025571   -1.812164
  H     -1.939239   -1.708451    2.304368
  H     -0.513735   -1.005422    3.115832
  H     -3.365964    0.110313    3.230104
  H     -2.548603   -0.766066    4.534690
  H     -1.958696    0.824814    4.026431
  H     -5.435502    0.330371    0.302276
  H     -4.357288    1.258308   -0.783376
  H     -4.737491   -1.772124   -0.939312
  H     -5.571485   -0.601720   -1.978874
  H     -3.812452   -0.758080   -2.057340

 Total Charge           Charge          ....    0
 Multiplicity           Mult            ....    1
 Number of Electrons    NEL             ....  202
 Basis Dimension        Dim             ....  539

ORBITAL ENERGIES
----------------

  NO   OCC          E(Eh)            E(eV)
   0   2.0000     -88.576741     -2410.2957
   1   2.0000     -88.575559     -2410.2635
   2   2.0000     -88.525171     -2408.8924
   3   2.0000     -88.523885     -2408.8574
   4   2.0000     -76.917617     -2093.0348
   5   2.0000     -76.916768     -2093.0117
   6   2.0000     -18.994304      -516.8613
   7   2.0000     -18.992586      -516.8145
   8   2.0000     -18.991433      -516.7832
   9   2.0000     -18.990881      -516.7682
  10   2.0000     -10.102313      -274.8979
  11   2.0000     -10.090801      -274.5846
  12   2.0000     -10.090665      -274.5810
  13   2.0000     -10.089916      -274.5606
  14   2.0000     -10.089370      -274.5457
  15   2.0000     -10.018655      -272.6215
  16   2.0000     -10.018386      -272.6141
  17   2.0000     -10.018361      -272.6135
  18   2.0000     -10.015432      -272.5338
  19   2.0000      -7.871238      -214.1873
  20   2.0000      -7.869936      -214.1518
  21   2.0000      -7.820450      -212.8053
  22   2.0000      -7.818813      -212.7607
  23   2.0000      -6.595852      -179.4823
  24   2.0000      -6.595146      -179.4630
  25   2.0000      -5.818155      -158.3201
  26   2.0000      -5.816743      -158.2816
  27   2.0000      -5.814916      -158.2319
  28   2.0000      -5.813703      -158.1989
  29   2.0000      -5.808448      -158.0559
  30   2.0000      -5.807180      -158.0214
  31   2.0000      -5.768115      -156.9584
  32   2.0000      -5.766497      -156.9144
  33   2.0000      -5.760797      -156.7592
  34   2.0000      -5.760269      -156.7449
  35   2.0000      -5.759015      -156.7108
  36   2.0000      -5.758838      -156.7059
  37   2.0000      -4.741524      -129.0234
  38   2.0000      -4.741000      -129.0092
  39   2.0000      -4.740870      -129.0056
  40   2.0000      -4.740101      -128.9847
  41   2.0000      -4.739445      -128.9669
  42   2.0000      -4.738582      -128.9434
  43   2.0000      -1.052325       -28.6352
  44   2.0000      -1.051500       -28.6128
  45   2.0000      -1.010664       -27.5016
  46   2.0000      -1.007871       -27.4256
  47   2.0000      -0.798977       -21.7413
  48   2.0000      -0.754325       -20.5262
  49   2.0000      -0.745482       -20.2856
  50   2.0000      -0.725627       -19.7453
  51   2.0000      -0.723840       -19.6967
  52   2.0000      -0.710084       -19.3224
  53   2.0000      -0.688074       -18.7234
  54   2.0000      -0.669746       -18.2247
  55   2.0000      -0.624221       -16.9859
  56   2.0000      -0.612210       -16.6591
  57   2.0000      -0.601730       -16.3739
  58   2.0000      -0.597516       -16.2592
  59   2.0000      -0.591721       -16.1016
  60   2.0000      -0.529683       -14.4134
  61   2.0000      -0.518602       -14.1119
  62   2.0000      -0.494621       -13.4593
  63   2.0000      -0.489109       -13.3093
  64   2.0000      -0.469158       -12.7664
  65   2.0000      -0.462914       -12.5965
  66   2.0000      -0.457649       -12.4533
  67   2.0000      -0.446656       -12.1541
  68   2.0000      -0.436181       -11.8691
  69   2.0000      -0.433640       -11.7999
  70   2.0000      -0.421038       -11.4570
  71   2.0000      -0.415571       -11.3083
  72   2.0000      -0.404207       -10.9990
  73   2.0000      -0.398734       -10.8501
  74   2.0000      -0.391202       -10.6452
  75   2.0000      -0.381064       -10.3693
  76   2.0000      -0.371510       -10.1093
  77   2.0000      -0.365698        -9.9511
  78   2.0000      -0.362550        -9.8655
  79   2.0000      -0.361749        -9.8437
  80   2.0000      -0.354841        -9.6557
  81   2.0000      -0.352729        -9.5982
  82   2.0000      -0.349210        -9.5025
  83   2.0000      -0.344967        -9.3870
  84   2.0000      -0.343246        -9.3402
  85   2.0000      -0.327550        -8.9131
  86   2.0000      -0.324206        -8.8221
  87   2.0000      -0.312242        -8.4965
  88   2.0000      -0.306427        -8.3383
  89   2.0000      -0.304033        -8.2732
  90   2.0000      -0.301954        -8.2166
  91   2.0000      -0.285099        -7.7579
  92   2.0000      -0.282935        -7.6990
  93   2.0000      -0.277659        -7.5555
  94   2.0000      -0.274226        -7.4621
  95   2.0000      -0.249073        -6.7776
  96   2.0000      -0.242334        -6.5942
  97   2.0000      -0.235074        -6.3967
  98   2.0000      -0.225106        -6.1254
  99   2.0000      -0.213005        -5.7962
 100   2.0000      -0.207022        -5.6334
 101   0.0000      -0.043408        -1.1812
 102   0.0000      -0.036885        -1.0037
 103   0.0000      -0.011412        -0.3105
 104   0.0000       0.005878         0.1599
 105   0.0000       0.013507         0.3675

MULLIKEN ATOMIC CHARGES
-----------------------
   0 C :   -0.483141
   1 C :   -0.140281
   2 O :   -0.319886
   3 P :    0.695317
   4 S :   -0.494109
   5 O :   -0.293221
   6 C :   -0.092644
   7 C :   -0.525467
   8 S :   -0.200540
   9 C :   -0.226254
  10 S :   -0.146123
  11 P :    0.628271
  12 S :   -0.458963
  13 O :   -0.271308
  14 C :   -0.088284
  15 C :   -0.509683
  16 O :   -0.314704
  17 C :   -0.155408
  18 C :   -0.493158
  19 H :    0.169326
  20 H :    0.165640
  21 H :    0.168458
  22 H :    0.174749
  23 H :    0.164207
  24 H :    0.174329
  25 H :    0.175867
  26 H :    0.173301
  27 H :    0.171805
  28 H :    0.167260
  29 H :    0.234495
  30 H :    0.213986
  31 H :    0.172854
  32 H :    0.181489
  33 H :    0.169898
  34 H :    0.171578
  35 H :    0.167117
  36 H :    0.175174
  37 H :    0.178888
  38 H :    0.169439
  39 H :    0.173357
  40 H :    0.176365
Sum of atomic charges:   -0.0000000

LOEWDIN ATOMIC CHARGES
----------------------
   0 C :   -0.408657
   1 C :    0.026805
   2 O :   -0.681989
   3 P :    0.377402
   4 S :   -0.147259
   5 O :   -0.674315
   6 C :    0.030315
   7 C :   -0.393465
   8 S :    0.146486
   9 C :   -0.413906
  10 S :    0.132877
  11 P :    0.380607
  12 S :   -0.108233
  13 O :   -0.687834
  14 C :    0.021293
  15 C :   -0.395124
  16 O :   -0.677715
  17 C :    0.026373
  18 C :   -0.411749
  19 H :    0.162739
  20 H :    0.161916
  21 H :    0.166739
  22 H :    0.189855
  23 H :    0.179563
  24 H :    0.182684
  25 H :    0.183595
  26 H :    0.167286
  27 H :    0.170354
  28 H :    0.163582
  29 H :    0.196012
  30 H :    0.199016
  31 H :    0.182791
  32 H :    0.188806
  33 H :    0.164844
  34 H :    0.168579
  35 H :    0.162906
  36 H :    0.190905
  37 H :    0.181524
  38 H :    0.163655
  39 H :    0.168646
  40 H :    0.162090

  Mayer bond orders larger than 0.100000
B(  0-C ,  1-C ) :   0.9391 B(  0-C , 19-H ) :   0.9581 B(  0-C , 20-H ) :   0.9729
B(  0-C , 21-H ) :   0.9594 B(  1-C ,  2-O ) :   0.7878 B(  1-C , 22-H ) :   0.9554
B(  1-C , 23-H ) :   0.9520 B(  2-O ,  3-P ) :   1.0538 B(  3-P ,  4-S ) :   1.7952
B(  3-P ,  5-O ) :   1.1900 B(  3-P ,  8-S ) :   1.0212 B(  5-O ,  6-C ) :   0.7175
B(  6-C ,  7-C ) :   0.9195 B(  6-C , 24-H ) :   0.9498 B(  6-C , 25-H ) :   0.9309
B(  7-C , 26-H ) :   0.9699 B(  7-C , 27-H ) :   0.9595 B(  7-C , 28-H ) :   0.9686
B(  8-S ,  9-C ) :   0.8892 B(  9-C , 10-S ) :   0.9128 B(  9-C , 29-H ) :   0.8998
B(  9-C , 30-H ) :   0.9083 B( 10-S , 11-P ) :   1.0407 B( 11-P , 12-S ) :   1.8477
B( 11-P , 13-O ) :   1.1063 B( 11-P , 16-O ) :   1.0542 B( 13-O , 14-C ) :   0.7070
B( 14-C , 15-C ) :   0.9236 B( 14-C , 31-H ) :   0.9524 B( 14-C , 32-H ) :   0.9510
B( 15-C , 33-H ) :   0.9699 B( 15-C , 34-H ) :   0.9604 B( 15-C , 35-H ) :   0.9702
B( 16-O , 17-C ) :   0.8117 B( 17-C , 18-C ) :   0.9005 B( 17-C , 36-H ) :   0.9507
B( 17-C , 37-H ) :   0.9670 B( 18-C , 38-H ) :   0.9645 B( 18-C , 39-H ) :   0.9515
B( 18-C , 40-H ) :   0.9651

Dispersion correction           -0.022277531
FINAL SINGLE POINT ENERGY     -2932.467181106373

DIPOLE MOMENT
-------------

Method             : SCF
Type of density    : Electron Density
Multiplicity       :   1
Irrep              :   0
Energy             : -2932.4915793618661155 Eh
Relativity type    :
Basis              : AO
                                X                 Y                 Z
Electronic contribution:      2.023322347      -2.028260628     -11.469809311
Nuclear contribution   :     -2.392215320      -0.000545528      14.113839919
                        -----------------------------------------
Total Dipole Moment    :     -0.368892973      -2.028806157       2.644030608
                        -----------------------------------------
Magnitude (a.u.)       :      3.353063421
Magnitude (Debye)      :      8.522809897

Rotational constants in cm-1:             0.012649             0.005435             0.004936
Rotational constants in MHz :           379.193644           162.935712           147.964793

                             ****ORCA TERMINATED NORMALLY****
TOTAL RUN TIME: 0 days 0 hours 1 minutes 59 seconds 238 msec
