                         Program Version 6.0.1  -  RELEASE   -
|  1> ! pbe def2-sv(p) def2/J RI DEFGRID1 loosescf d4 GCP(DFT/SV(P)) printgap
|  2> %output
|  3>     printlevel normal
|  4> end
|  5> * xyz 0 1
|  6> C 5.3098578154 -1.9012724826 -1.278663078
|  7> C 4.5403826204 -0.6113607284 -1.042559021
|  8> O 3.1228172958 -0.824619897 -1.179388782
|  9> C 2.4417831822 -1.2102582699 -0.1175557058
| 10> O 2.9207178617 -1.4031417263 0.9761834629
| 11> C 0.9679610182 -1.3885194148 -0.4411354729
| 12> C 0.3886679408 -0.0957738452 -1.0193313386
| 13> H 0.9237712378 0.169697251 -1.9351472769
| 14> C 0.4977151348 1.0467879477 -0.028291892
| 15> O -0.474520218 1.6191700902 0.4241439779
| 16> O 1.7396230896 1.3186779754 0.2590988255
| 17> C 2.0384315811 2.3524238361 1.2258682344
| 18> C 3.1945143945 3.1850494621 0.7047935159
| 19> S -1.3536388192 -0.2771590348 -1.5058798809
| 20> P -2.4058858472 -0.0499967419 0.3339529526
| 21> S -1.6027969518 -0.6533419 2.0193288061
| 22> O -3.1134784293 1.3615956838 0.3998747405
| 23> C -3.904949661 1.8808898709 -0.6862296457
| 24> O -3.6976340077 -0.9380747931 -0.0413639863
| 25> C -3.6309904736 -2.3628969192 -0.1255098613
| 26> H 5.0604377189 -2.3131380549 -2.2525037686
| 27> H 6.3746489435 -1.6969959352 -1.2381482001
| 28> H 5.0613049974 -2.630184404 -0.5106468361
| 29> H 4.7784241044 0.1373941929 -1.798175721
| 30> H 4.7373480412 -0.2217245076 -0.0399707244
| 31> H 0.4467190095 -1.6738014848 0.4754701443
| 32> H 0.8638836426 -2.1812048484 -1.1832077206
| 33> H 1.1368171967 2.9501214085 1.3844708031
| 34> H 2.3000007275 1.8391087022 2.1552284721
| 35> H 4.0626599356 2.5539486436 0.5398604615
| 36> H 2.9239482268 3.6670927033 -0.2302392855
| 37> H 3.4403594649 3.9446427312 1.439332068
| 38> H -4.1821762382 2.8849469749 -0.3757814121
| 39> H -4.786898514 1.2596452965 -0.831765878
| 40> H -3.3118352313 1.9103655609 -1.6003793658
| 41> H -4.66236557 -2.7061408824 -0.1286367655
| 42> H -3.0996877873 -2.7644129398 0.7393730552
| 43> H -3.1252119354 -2.65616798 -1.0452406884
| 44> *
| 45>
| 46>                          ****END OF INPUT****

CARTESIAN COORDINATES (ANGSTROEM)
---------------------------------
  C      5.309858   -1.901272   -1.278663
  C      4.540383   -0.611361   -1.042559
  O      3.122817   -0.824620   -1.179389
  C      2.441783   -1.210258   -0.117556
  O      2.920718   -1.403142    0.976183
  C      0.967961   -1.388519   -0.441135
  C      0.388668   -0.095774   -1.019331
  H      0.923771    0.169697   -1.935147
  C      0.497715    1.046788   -0.028292
  O     -0.474520    1.619170    0.424144
  O      1.739623    1.318678    0.259099
  C      2.038432    2.352424    1.225868
  C      3.194514    3.185049    0.704794
  S     -1.353639   -0.277159   -1.505880
  P     -2.405886   -0.049997    0.333953
  S     -1.602797   -0.653342    2.019329
  O     -3.113478    1.361596    0.399875
  C     -3.904950    1.880890   -0.686230
  O     -3.697634   -0.938075   -0.041364
  C     -3.630990   -2.362897   -0.125510
  H      5.060438   -2.313138   -2.252504
  H      6.374649   -1.696996   -1.238148
  H      5.061305   -2.630184   -0.510647
  H      4.778424    0.137394   -1.798176
  H      4.737348   -0.221725   -0.039971
  H      0.446719   -1.673801    0.475470
  H      0.863884   -2.181205   -1.183208
  H      1.136817    2.950121    1.384471
  H      2.300001    1.839109    2.155228
  H      4.062660    2.553949    0.539860
  H      2.923948    3.667093   -0.230239
  H      3.440359    3.944643    1.439332
  H     -4.182176    2.884947   -0.375781
  H     -4.786899    1.259645   -0.831766
  H     -3.311835    1.910366   -1.600379
  H     -4.662366   -2.706141   -0.128637
  H     -3.099688   -2.764413    0.739373
  H     -3.125212   -2.656168   -1.045241

 Total Charge           Charge          ....    0
 Multiplicity           Mult            ....    1
 Number of Electrons    NEL             ....  174
 Basis Dimension        Dim             ....  316

ORBITAL ENERGIES
----------------

  NO   OCC          E(Eh)            E(eV)
   0   2.0000     -88.037270     -2395.6159
   1   2.0000     -87.969988     -2393.7851
   2   2.0000     -76.418628     -2079.4566
   3   2.0000     -18.822599      -512.1890
   4   2.0000     -18.803874      -511.6794
   5   2.0000     -18.779631      -511.0197
   6   2.0000     -18.778016      -510.9758
   7   2.0000     -18.752661      -510.2859
   8   2.0000     -18.737989      -509.8866
   9   2.0000     -10.026427      -272.8330
  10   2.0000     -10.010134      -272.3896
  11   2.0000      -9.956035      -270.9175
  12   2.0000      -9.953341      -270.8442
  13   2.0000      -9.952344      -270.8171
  14   2.0000      -9.940807      -270.5031
  15   2.0000      -9.933650      -270.3083
  16   2.0000      -9.906768      -269.5769
  17   2.0000      -9.897715      -269.3305
  18   2.0000      -9.890725      -269.1403
  19   2.0000      -7.682141      -209.0417
  20   2.0000      -7.615165      -207.2192
  21   2.0000      -6.414422      -174.5453
  22   2.0000      -5.710072      -155.3790
  23   2.0000      -5.706506      -155.2819
  24   2.0000      -5.699190      -155.0828
  25   2.0000      -5.644479      -153.5941
  26   2.0000      -5.635877      -153.3600
  27   2.0000      -5.634792      -153.3305
  28   2.0000      -4.637313      -126.1877
  29   2.0000      -4.636504      -126.1657
  30   2.0000      -4.634691      -126.1164
  31   2.0000      -1.030957       -28.0538
  32   2.0000      -1.011389       -27.5213
  33   2.0000      -0.974505       -26.5176
  34   2.0000      -0.934389       -25.4260
  35   2.0000      -0.927646       -25.2425
  36   2.0000      -0.915176       -24.9032
  37   2.0000      -0.768575       -20.9140
  38   2.0000      -0.717506       -19.5243
  39   2.0000      -0.711906       -19.3719
  40   2.0000      -0.686621       -18.6839
  41   2.0000      -0.657080       -17.8801
  42   2.0000      -0.626779       -17.0555
  43   2.0000      -0.624117       -16.9831
  44   2.0000      -0.610203       -16.6045
  45   2.0000      -0.596425       -16.2295
  46   2.0000      -0.567302       -15.4371
  47   2.0000      -0.519198       -14.1281
  48   2.0000      -0.507723       -13.8158
  49   2.0000      -0.501249       -13.6397
  50   2.0000      -0.486258       -13.2318
  51   2.0000      -0.465256       -12.6603
  52   2.0000      -0.463932       -12.6242
  53   2.0000      -0.452222       -12.3056
  54   2.0000      -0.439353       -11.9554
  55   2.0000      -0.431478       -11.7411
  56   2.0000      -0.421528       -11.4704
  57   2.0000      -0.420021       -11.4294
  58   2.0000      -0.412364       -11.2210
  59   2.0000      -0.406747       -11.0682
  60   2.0000      -0.404751       -11.0138
  61   2.0000      -0.394245       -10.7279
  62   2.0000      -0.390167       -10.6170
  63   2.0000      -0.382308       -10.4031
  64   2.0000      -0.377075       -10.2607
  65   2.0000      -0.370260       -10.0753
  66   2.0000      -0.366104        -9.9622
  67   2.0000      -0.360931        -9.8214
  68   2.0000      -0.349353        -9.5064
  69   2.0000      -0.340062        -9.2536
  70   2.0000      -0.338005        -9.1976
  71   2.0000      -0.331028        -9.0077
  72   2.0000      -0.325583        -8.8596
  73   2.0000      -0.315661        -8.5896
  74   2.0000      -0.307111        -8.3569
  75   2.0000      -0.298804        -8.1309
  76   2.0000      -0.291168        -7.9231
  77   2.0000      -0.286857        -7.8058
  78   2.0000      -0.274379        -7.4662
  79   2.0000      -0.263158        -7.1609
  80   2.0000      -0.260928        -7.1002
  81   2.0000      -0.249798        -6.7973
  82   2.0000      -0.239667        -6.5217
  83   2.0000      -0.229595        -6.2476
  84   2.0000      -0.215019        -5.8510
  85   2.0000      -0.189578        -5.1587
  86   2.0000      -0.182832        -4.9751
  87   0.0000      -0.042017        -1.1433
  88   0.0000      -0.035130        -0.9559
  89   0.0000      -0.018788        -0.5113
  90   0.0000       0.007910         0.2152
  91   0.0000       0.026506         0.7213

MULLIKEN ATOMIC CHARGES
-----------------------
   0 C :   -0.299587
   1 C :   -0.021591
   2 O :   -0.243362
   3 C :    0.103357
   4 O :   -0.192915
   5 C :   -0.042840
   6 C :   -0.322570
   7 H :    0.155235
   8 C :    0.212983
   9 O :   -0.176697
  10 O :   -0.226826
  11 C :   -0.020085
  12 C :   -0.295363
  13 S :   -0.097788
  14 P :    0.620950
  15 S :   -0.317119
  16 O :   -0.357183
  17 C :   -0.101557
  18 O :   -0.399317
  19 C :   -0.098871
  20 H :    0.113526
  21 H :    0.112924
  22 H :    0.128587
  23 H :    0.100796
  24 H :    0.112580
  25 H :    0.121379
  26 H :    0.116613
  27 H :    0.126971
  28 H :    0.126129
  29 H :    0.121484
  30 H :    0.114865
  31 H :    0.119099
  32 H :    0.128335
  33 H :    0.122349
  34 H :    0.113412
  35 H :    0.119842
  36 H :    0.114358
  37 H :    0.107897
Sum of atomic charges:   -0.0000000

LOEWDIN ATOMIC CHARGES
----------------------
   0 C :   -0.355372
   1 C :   -0.111797
   2 O :   -0.065373
   3 C :    0.021922
   4 O :   -0.160436
   5 C :   -0.249672
   6 C :   -0.267966
   7 H :    0.149264
   8 C :    0.023105
   9 O :   -0.147550
  10 O :   -0.033316
  11 C :   -0.103517
  12 C :   -0.351122
  13 S :    0.093943
  14 P :    0.587394
  15 S :   -0.316789
  16 O :   -0.233870
  17 C :   -0.209022
  18 O :   -0.269404
  19 C :   -0.221047
  20 H :    0.124817
  21 H :    0.130753
  22 H :    0.131776
  23 H :    0.116227
  24 H :    0.118663
  25 H :    0.134787
  26 H :    0.141648
  27 H :    0.126477
  28 H :    0.128882
  29 H :    0.126168
  30 H :    0.126877
  31 H :    0.134532
  32 H :    0.124760
  33 H :    0.114677
  34 H :    0.107553
  35 H :    0.119721
  36 H :    0.108203
  37 H :    0.104104

  Mayer bond orders larger than 0.100000
B(  0-C ,  1-C ) :   1.1740 B(  0-C , 20-H ) :   0.9484 B(  0-C , 21-H ) :   0.9443
B(  0-C , 22-H ) :   0.9458 B(  1-C ,  2-O ) :   0.9175 B(  1-C , 23-H ) :   0.9368
B(  1-C , 24-H ) :   0.9081 B(  2-O ,  3-C ) :   1.1908 B(  3-C ,  4-O ) :   2.0671
B(  3-C ,  5-C ) :   1.0186 B(  5-C ,  6-C ) :   1.0302 B(  5-C , 25-H ) :   0.8739
B(  5-C , 26-H ) :   0.8873 B(  6-C ,  7-H ) :   0.8658 B(  6-C ,  8-C ) :   0.8942
B(  6-C , 13-S ) :   1.0274 B(  8-C ,  9-O ) :   1.9972 B(  8-C , 10-O ) :   1.2565
B(  9-O , 14-P ) :   0.1084 B( 10-O , 11-C ) :   0.8781 B( 11-C , 12-C ) :   1.1678
B( 11-C , 27-H ) :   0.9115 B( 11-C , 28-H ) :   0.9313 B( 12-C , 29-H ) :   0.9470
B( 12-C , 30-H ) :   0.9504 B( 12-C , 31-H ) :   0.9428 B( 13-S , 14-P ) :   0.9340
B( 13-S , 15-S ) :   0.1123 B( 14-P , 15-S ) :   1.6096 B( 14-P , 16-O ) :   1.1254
B( 14-P , 18-O ) :   1.0365 B( 16-O , 17-C ) :   0.9251 B( 17-C , 32-H ) :   0.9596
B( 17-C , 33-H ) :   0.9466 B( 17-C , 34-H ) :   0.9396 B( 18-O , 19-C ) :   0.9414
B( 19-C , 35-H ) :   0.9589 B( 19-C , 36-H ) :   0.9312 B( 19-C , 37-H ) :   0.9466

Dispersion correction           -0.051525464
FINAL SINGLE POINT ENERGY     -1979.011415351641

DIPOLE MOMENT
-------------

Method             : SCF
Type of density    : Electron Density
Multiplicity       :   1
Irrep              :   0
Energy             : -1979.1423622200013597 Eh
Relativity type    :
Basis              : AO
                                X                 Y                 Z
Electronic contribution:    -19.048229913      -1.763715347       4.639123632
Nuclear contribution   :     20.013608023       2.408676364      -6.339006523
                        -----------------------------------------
Total Dipole Moment    :      0.965378110       0.644961017      -1.699882891
                        -----------------------------------------
Magnitude (a.u.)       :      2.058526525
Magnitude (Debye)      :      5.232358603

Rotational constants in cm-1:             0.016456             0.005949             0.005230
Rotational constants in MHz :           493.326565           178.345453           156.791494

                             ****ORCA TERMINATED NORMALLY****
TOTAL RUN TIME: 0 days 0 hours 0 minutes 43 seconds 346 msec
