                         Program Version 6.0.0  -   RELEASE  -
|  1> ! r2scan-3c def2/J RI DEFGRID2 scfconv6 printgap
|  2> %output
|  3>     printlevel normal
|  4> end
|  5> * xyz 0 1
|  6> C 2.3880317849 -2.9485484587 -2.1856779857
|  7> C 1.4791923141 -2.5656797814 -1.0365669905
|  8> O 1.1860077183 -1.1436907401 -1.0695245101
|  9> P 1.9263080898 -0.088084194 -0.1595865515
| 10> S 1.3491892411 1.744807459 -0.5324387938
| 11> O 3.4572140144 -0.3995312178 -0.4515233979
| 12> C 4.5130424172 0.524383912 -0.1344874067
| 13> C 4.663769259 0.7393004788 1.3573029804
| 14> S 1.6545347314 -0.7937822024 1.8298859584
| 15> C -0.0352897713 -0.2063829158 2.0734563418
| 16> S -1.2462905364 -1.0435006441 1.0009991528
| 17> P -2.0966283109 0.6328810857 -0.0025644717
| 18> S -1.8968330437 2.3662856024 0.877191195
| 19> O -3.6038520759 0.1669955057 -0.2312884174
| 20> C -4.6516504462 0.416254098 0.7234318185
| 21> C -4.4425878166 -0.3281128362 2.0260469169
| 22> O -1.5508559936 0.588497638 -1.4819095319
| 23> C -1.8086014676 -0.535771613 -2.3617413638
| 24> C -0.9224914174 -0.3811010427 -3.578926811
| 25> H 3.3457650428 -2.4438410248 -2.0913549071
| 26> H 2.5454049266 -4.0223561164 -2.1671879338
| 27> H 1.9352710415 -2.6690394167 -3.1330161501
| 28> H 1.9330399192 -2.8117452355 -0.0728989098
| 29> H 0.5046199499 -3.0516002288 -1.1156604531
| 30> H 5.4013856483 0.0607451768 -0.5659187098
| 31> H 4.3035929079 1.4719960746 -0.6401483266
| 32> H 3.7985241791 1.2747292279 1.7456079415
| 33> H 4.7472799305 -0.2146071091 1.8720425286
| 34> H 5.5539784476 1.331016053 1.5451784879
| 35> H -0.0908866959 0.8691661101 1.881728511
| 36> H -0.2840252117 -0.4333498161 3.1069650499
| 37> H -4.7023518387 1.4945886007 0.9020928416
| 38> H -5.5526918493 0.0813038967 0.2075353022
| 39> H -4.2702366283 -1.3846396493 1.8372704686
| 40> H -3.5838474765 0.0835571933 2.5540432614
| 41> H -5.3245331842 -0.2104225579 2.6473548731
| 42> H -1.5863456027 -1.456848487 -1.8146217403
| 43> H -2.8677663187 -0.5190270547 -2.6259235375
| 44> H 0.1211383246 -0.3670514239 -3.2754365363
| 45> H -1.0957802226 -1.2122451356 -4.2548060473
| 46> H -1.1465588719 0.5533884347 -4.085538554
| 47> *
| 48>
| 49>                          ****END OF INPUT****

CARTESIAN COORDINATES (ANGSTROEM)
---------------------------------
  C      2.388032   -2.948548   -2.185678
  C      1.479192   -2.565680   -1.036567
  O      1.186008   -1.143691   -1.069525
  P      1.926308   -0.088084   -0.159587
  S      1.349189    1.744807   -0.532439
  O      3.457214   -0.399531   -0.451523
  C      4.513042    0.524384   -0.134487
  C      4.663769    0.739300    1.357303
  S      1.654535   -0.793782    1.829886
  C     -0.035290   -0.206383    2.073456
  S     -1.246291   -1.043501    1.000999
  P     -2.096628    0.632881   -0.002564
  S     -1.896833    2.366286    0.877191
  O     -3.603852    0.166996   -0.231288
  C     -4.651650    0.416254    0.723432
  C     -4.442588   -0.328113    2.026047
  O     -1.550856    0.588498   -1.481910
  C     -1.808601   -0.535772   -2.361741
  C     -0.922491   -0.381101   -3.578927
  H      3.345765   -2.443841   -2.091355
  H      2.545405   -4.022356   -2.167188
  H      1.935271   -2.669039   -3.133016
  H      1.933040   -2.811745   -0.072899
  H      0.504620   -3.051600   -1.115660
  H      5.401386    0.060745   -0.565919
  H      4.303593    1.471996   -0.640148
  H      3.798524    1.274729    1.745608
  H      4.747280   -0.214607    1.872043
  H      5.553978    1.331016    1.545178
  H     -0.090887    0.869166    1.881729
  H     -0.284025   -0.433350    3.106965
  H     -4.702352    1.494589    0.902093
  H     -5.552692    0.081304    0.207535
  H     -4.270237   -1.384640    1.837270
  H     -3.583847    0.083557    2.554043
  H     -5.324533   -0.210423    2.647355
  H     -1.586346   -1.456848   -1.814622
  H     -2.867766   -0.519027   -2.625924
  H      0.121138   -0.367051   -3.275437
  H     -1.095780   -1.212245   -4.254806
  H     -1.146559    0.553388   -4.085539

 Total Charge           Charge          ....    0
 Multiplicity           Mult            ....    1
 Number of Electrons    NEL             ....  202
 Basis Dimension        Dim             ....  539

ORBITAL ENERGIES
----------------

  NO   OCC          E(Eh)            E(eV)
   0   2.0000     -88.573970     -2410.2202
   1   2.0000     -88.569526     -2410.0993
   2   2.0000     -88.513338     -2408.5704
   3   2.0000     -88.512724     -2408.5537
   4   2.0000     -76.910927     -2092.8527
   5   2.0000     -76.907448     -2092.7580
   6   2.0000     -18.993365      -516.8357
   7   2.0000     -18.990864      -516.7677
   8   2.0000     -18.986093      -516.6379
   9   2.0000     -18.980568      -516.4875
  10   2.0000     -10.103486      -274.9298
  11   2.0000     -10.103106      -274.9195
  12   2.0000     -10.099525      -274.8220
  13   2.0000     -10.094992      -274.6987
  14   2.0000     -10.094778      -274.6929
  15   2.0000     -10.033919      -273.0368
  16   2.0000     -10.028727      -272.8955
  17   2.0000     -10.025061      -272.7958
  18   2.0000     -10.023457      -272.7521
  19   2.0000      -7.868565      -214.1145
  20   2.0000      -7.864166      -213.9948
  21   2.0000      -7.808118      -212.4697
  22   2.0000      -7.807179      -212.4441
  23   2.0000      -6.589292      -179.3038
  24   2.0000      -6.585813      -179.2091
  25   2.0000      -5.815454      -158.2465
  26   2.0000      -5.812213      -158.1584
  27   2.0000      -5.810978      -158.1247
  28   2.0000      -5.808026      -158.0444
  29   2.0000      -5.805818      -157.9843
  30   2.0000      -5.801267      -157.8605
  31   2.0000      -5.755893      -156.6258
  32   2.0000      -5.755002      -156.6016
  33   2.0000      -5.748374      -156.4212
  34   2.0000      -5.748011      -156.4113
  35   2.0000      -5.747355      -156.3935
  36   2.0000      -5.747180      -156.3887
  37   2.0000      -4.735206      -128.8515
  38   2.0000      -4.734281      -128.8263
  39   2.0000      -4.732569      -128.7798
  40   2.0000      -4.731614      -128.7538
  41   2.0000      -4.730604      -128.7263
  42   2.0000      -4.729432      -128.6944
  43   2.0000      -1.051347       -28.6086
  44   2.0000      -1.043899       -28.4059
  45   2.0000      -1.010862       -27.5069
  46   2.0000      -1.000885       -27.2355
  47   2.0000      -0.796927       -21.6855
  48   2.0000      -0.755969       -20.5709
  49   2.0000      -0.748468       -20.3668
  50   2.0000      -0.735495       -20.0138
  51   2.0000      -0.728398       -19.8207
  52   2.0000      -0.710179       -19.3250
  53   2.0000      -0.683064       -18.5871
  54   2.0000      -0.661690       -18.0055
  55   2.0000      -0.626661       -17.0523
  56   2.0000      -0.617737       -16.8095
  57   2.0000      -0.609529       -16.5861
  58   2.0000      -0.597857       -16.2685
  59   2.0000      -0.590068       -16.0566
  60   2.0000      -0.528109       -14.3706
  61   2.0000      -0.521715       -14.1966
  62   2.0000      -0.494416       -13.4537
  63   2.0000      -0.487584       -13.2678
  64   2.0000      -0.470530       -12.8038
  65   2.0000      -0.465324       -12.6621
  66   2.0000      -0.459578       -12.5058
  67   2.0000      -0.450538       -12.2598
  68   2.0000      -0.446297       -12.1444
  69   2.0000      -0.437765       -11.9122
  70   2.0000      -0.428823       -11.6689
  71   2.0000      -0.411961       -11.2100
  72   2.0000      -0.402795       -10.9606
  73   2.0000      -0.400248       -10.8913
  74   2.0000      -0.393672       -10.7124
  75   2.0000      -0.381538       -10.3822
  76   2.0000      -0.377025       -10.2594
  77   2.0000      -0.374450       -10.1893
  78   2.0000      -0.369306       -10.0493
  79   2.0000      -0.364582        -9.9208
  80   2.0000      -0.363483        -9.8909
  81   2.0000      -0.359171        -9.7735
  82   2.0000      -0.354987        -9.6597
  83   2.0000      -0.348312        -9.4780
  84   2.0000      -0.344295        -9.3687
  85   2.0000      -0.328678        -8.9438
  86   2.0000      -0.321795        -8.7565
  87   2.0000      -0.313730        -8.5370
  88   2.0000      -0.310749        -8.4559
  89   2.0000      -0.306743        -8.3469
  90   2.0000      -0.305586        -8.3154
  91   2.0000      -0.286859        -7.8058
  92   2.0000      -0.277018        -7.5380
  93   2.0000      -0.275975        -7.5097
  94   2.0000      -0.268914        -7.3175
  95   2.0000      -0.245115        -6.6699
  96   2.0000      -0.230526        -6.2729
  97   2.0000      -0.225014        -6.1229
  98   2.0000      -0.213319        -5.8047
  99   2.0000      -0.202666        -5.5148
 100   2.0000      -0.195892        -5.3305
 101   0.0000      -0.040127        -1.0919
 102   0.0000      -0.030773        -0.8374
 103   0.0000      -0.008564        -0.2331
 104   0.0000       0.013715         0.3732
 105   0.0000       0.017833         0.4853

MULLIKEN ATOMIC CHARGES
-----------------------
   0 C :   -0.467133
   1 C :   -0.100703
   2 O :   -0.245870
   3 P :    0.597677
   4 S :   -0.382248
   5 O :   -0.296908
   6 C :   -0.159737
   7 C :   -0.458160
   8 S :   -0.148800
   9 C :   -0.234587
  10 S :   -0.188162
  11 P :    0.659546
  12 S :   -0.430967
  13 O :   -0.290759
  14 C :   -0.170945
  15 C :   -0.433960
  16 O :   -0.258838
  17 C :   -0.098205
  18 C :   -0.486202
  19 H :    0.168410
  20 H :    0.147977
  21 H :    0.153705
  22 H :    0.162841
  23 H :    0.158189
  24 H :    0.146263
  25 H :    0.176427
  26 H :    0.185720
  27 H :    0.152870
  28 H :    0.149000
  29 H :    0.223592
  30 H :    0.193623
  31 H :    0.175057
  32 H :    0.145692
  33 H :    0.153302
  34 H :    0.172987
  35 H :    0.145933
  36 H :    0.146806
  37 H :    0.158685
  38 H :    0.181944
  39 H :    0.140673
  40 H :    0.155266
Sum of atomic charges:    0.0000000

LOEWDIN ATOMIC CHARGES
----------------------
   0 C :   -0.392713
   1 C :    0.013170
   2 O :   -0.676049
   3 P :    0.374254
   4 S :   -0.052230
   5 O :   -0.674236
   6 C :    0.021191
   7 C :   -0.409135
   8 S :    0.123320
   9 C :   -0.418298
  10 S :    0.138858
  11 P :    0.380366
  12 S :   -0.097199
  13 O :   -0.677429
  14 C :    0.020423
  15 C :   -0.410043
  16 O :   -0.651716
  17 C :    0.023512
  18 C :   -0.389405
  19 H :    0.166502
  20 H :    0.158852
  21 H :    0.159373
  22 H :    0.178621
  23 H :    0.178884
  24 H :    0.178581
  25 H :    0.181602
  26 H :    0.168153
  27 H :    0.159062
  28 H :    0.159876
  29 H :    0.202251
  30 H :    0.179719
  31 H :    0.180372
  32 H :    0.178363
  33 H :    0.160012
  34 H :    0.164125
  35 H :    0.157797
  36 H :    0.172638
  37 H :    0.175583
  38 H :    0.173416
  39 H :    0.156977
  40 H :    0.162601

  Mayer bond orders larger than 0.100000
B(  0-C ,  1-C ) :   0.9301 B(  0-C , 19-H ) :   0.9698 B(  0-C , 20-H ) :   0.9675
B(  0-C , 21-H ) :   0.9723 B(  1-C ,  2-O ) :   0.7167 B(  1-C , 22-H ) :   0.9588
B(  1-C , 23-H ) :   0.9624 B(  2-O ,  3-P ) :   1.0927 B(  3-P ,  4-S ) :   1.9028
B(  3-P ,  5-O ) :   1.0405 B(  3-P ,  8-S ) :   1.0226 B(  5-O ,  6-C ) :   0.8229
B(  6-C ,  7-C ) :   0.9130 B(  6-C , 24-H ) :   0.9612 B(  6-C , 25-H ) :   0.9673
B(  7-C , 26-H ) :   0.9623 B(  7-C , 27-H ) :   0.9676 B(  7-C , 28-H ) :   0.9567
B(  8-S ,  9-C ) :   0.9199 B(  9-C , 10-S ) :   0.8919 B(  9-C , 29-H ) :   0.9055
B(  9-C , 30-H ) :   0.9148 B( 10-S , 11-P ) :   1.0084 B( 11-P , 12-S ) :   1.8282
B( 11-P , 13-O ) :   1.0341 B( 11-P , 16-O ) :   1.1744 B( 13-O , 14-C ) :   0.8282
B( 14-C , 15-C ) :   0.9166 B( 14-C , 31-H ) :   0.9698 B( 14-C , 32-H ) :   0.9615
B( 15-C , 33-H ) :   0.9662 B( 15-C , 34-H ) :   0.9671 B( 15-C , 35-H ) :   0.9579
B( 16-O , 17-C ) :   0.7322 B( 17-C , 18-C ) :   0.9295 B( 17-C , 36-H ) :   0.9586
B( 17-C , 37-H ) :   0.9398 B( 18-C , 38-H ) :   0.9694 B( 18-C , 39-H ) :   0.9676
B( 18-C , 40-H ) :   0.9679

Dispersion correction           -0.022501532
FINAL SINGLE POINT ENERGY     -2932.455497631330

DIPOLE MOMENT
-------------

Method             : SCF
Type of density    : Electron Density
Multiplicity       :   1
Irrep              :   0
Energy             : -2932.4796706623696991 Eh
Relativity type    :
Basis              : AO
                                X                 Y                 Z
Electronic contribution:     -3.326297111      11.340415084       6.954213658
Nuclear contribution   :      3.605783013     -13.301151239      -7.071284377
                        -----------------------------------------
Total Dipole Moment    :      0.279485902      -1.960736155      -0.117070719
                        -----------------------------------------
Magnitude (a.u.)       :      1.984012145
Magnitude (Debye)      :      5.042958102

Rotational constants in cm-1:             0.012339             0.005590             0.005090
Rotational constants in MHz :           369.906126           167.591487           152.599876

                             ****ORCA TERMINATED NORMALLY****
TOTAL RUN TIME: 0 days 0 hours 1 minutes 21 seconds 708 msec
