                         Program Version 6.0.0  -   RELEASE  -
|  1> ! r2scan-3c def2/J RI DEFGRID2 scfconv6 printgap
|  2> %output
|  3>     printlevel normal
|  4> end
|  5> %cpcm
|  6>     smd true
|  7>     smdsolvent "water"
|  8> end
|  9> * xyz 0 1
| 10> C 2.3880317849 -2.9485484587 -2.1856779857
| 11> C 1.4791923141 -2.5656797814 -1.0365669905
| 12> O 1.1860077183 -1.1436907401 -1.0695245101
| 13> P 1.9263080898 -0.088084194 -0.1595865515
| 14> S 1.3491892411 1.744807459 -0.5324387938
| 15> O 3.4572140144 -0.3995312178 -0.4515233979
| 16> C 4.5130424172 0.524383912 -0.1344874067
| 17> C 4.663769259 0.7393004788 1.3573029804
| 18> S 1.6545347314 -0.7937822024 1.8298859584
| 19> C -0.0352897713 -0.2063829158 2.0734563418
| 20> S -1.2462905364 -1.0435006441 1.0009991528
| 21> P -2.0966283109 0.6328810857 -0.0025644717
| 22> S -1.8968330437 2.3662856024 0.877191195
| 23> O -3.6038520759 0.1669955057 -0.2312884174
| 24> C -4.6516504462 0.416254098 0.7234318185
| 25> C -4.4425878166 -0.3281128362 2.0260469169
| 26> O -1.5508559936 0.588497638 -1.4819095319
| 27> C -1.8086014676 -0.535771613 -2.3617413638
| 28> C -0.9224914174 -0.3811010427 -3.578926811
| 29> H 3.3457650428 -2.4438410248 -2.0913549071
| 30> H 2.5454049266 -4.0223561164 -2.1671879338
| 31> H 1.9352710415 -2.6690394167 -3.1330161501
| 32> H 1.9330399192 -2.8117452355 -0.0728989098
| 33> H 0.5046199499 -3.0516002288 -1.1156604531
| 34> H 5.4013856483 0.0607451768 -0.5659187098
| 35> H 4.3035929079 1.4719960746 -0.6401483266
| 36> H 3.7985241791 1.2747292279 1.7456079415
| 37> H 4.7472799305 -0.2146071091 1.8720425286
| 38> H 5.5539784476 1.331016053 1.5451784879
| 39> H -0.0908866959 0.8691661101 1.881728511
| 40> H -0.2840252117 -0.4333498161 3.1069650499
| 41> H -4.7023518387 1.4945886007 0.9020928416
| 42> H -5.5526918493 0.0813038967 0.2075353022
| 43> H -4.2702366283 -1.3846396493 1.8372704686
| 44> H -3.5838474765 0.0835571933 2.5540432614
| 45> H -5.3245331842 -0.2104225579 2.6473548731
| 46> H -1.5863456027 -1.456848487 -1.8146217403
| 47> H -2.8677663187 -0.5190270547 -2.6259235375
| 48> H 0.1211383246 -0.3670514239 -3.2754365363
| 49> H -1.0957802226 -1.2122451356 -4.2548060473
| 50> H -1.1465588719 0.5533884347 -4.085538554
| 51> *
| 52>
| 53>                          ****END OF INPUT****

CARTESIAN COORDINATES (ANGSTROEM)
---------------------------------
  C      2.388032   -2.948548   -2.185678
  C      1.479192   -2.565680   -1.036567
  O      1.186008   -1.143691   -1.069525
  P      1.926308   -0.088084   -0.159587
  S      1.349189    1.744807   -0.532439
  O      3.457214   -0.399531   -0.451523
  C      4.513042    0.524384   -0.134487
  C      4.663769    0.739300    1.357303
  S      1.654535   -0.793782    1.829886
  C     -0.035290   -0.206383    2.073456
  S     -1.246291   -1.043501    1.000999
  P     -2.096628    0.632881   -0.002564
  S     -1.896833    2.366286    0.877191
  O     -3.603852    0.166996   -0.231288
  C     -4.651650    0.416254    0.723432
  C     -4.442588   -0.328113    2.026047
  O     -1.550856    0.588498   -1.481910
  C     -1.808601   -0.535772   -2.361741
  C     -0.922491   -0.381101   -3.578927
  H      3.345765   -2.443841   -2.091355
  H      2.545405   -4.022356   -2.167188
  H      1.935271   -2.669039   -3.133016
  H      1.933040   -2.811745   -0.072899
  H      0.504620   -3.051600   -1.115660
  H      5.401386    0.060745   -0.565919
  H      4.303593    1.471996   -0.640148
  H      3.798524    1.274729    1.745608
  H      4.747280   -0.214607    1.872043
  H      5.553978    1.331016    1.545178
  H     -0.090887    0.869166    1.881729
  H     -0.284025   -0.433350    3.106965
  H     -4.702352    1.494589    0.902093
  H     -5.552692    0.081304    0.207535
  H     -4.270237   -1.384640    1.837270
  H     -3.583847    0.083557    2.554043
  H     -5.324533   -0.210423    2.647355
  H     -1.586346   -1.456848   -1.814622
  H     -2.867766   -0.519027   -2.625924
  H      0.121138   -0.367051   -3.275437
  H     -1.095780   -1.212245   -4.254806
  H     -1.146559    0.553388   -4.085539

 Total Charge           Charge          ....    0
 Multiplicity           Mult            ....    1
 Number of Electrons    NEL             ....  202
 Basis Dimension        Dim             ....  539

ORBITAL ENERGIES
----------------

  NO   OCC          E(Eh)            E(eV)
   0   2.0000     -88.576325     -2410.2843
   1   2.0000     -88.573120     -2410.1971
   2   2.0000     -88.526596     -2408.9311
   3   2.0000     -88.523739     -2408.8534
   4   2.0000     -76.916927     -2093.0160
   5   2.0000     -76.916552     -2093.0058
   6   2.0000     -18.994074      -516.8550
   7   2.0000     -18.991259      -516.7784
   8   2.0000     -18.991152      -516.7755
   9   2.0000     -18.989237      -516.7234
  10   2.0000     -10.102320      -274.8981
  11   2.0000     -10.090607      -274.5794
  12   2.0000     -10.090550      -274.5778
  13   2.0000     -10.089838      -274.5584
  14   2.0000     -10.088437      -274.5203
  15   2.0000     -10.018558      -272.6188
  16   2.0000     -10.018395      -272.6144
  17   2.0000     -10.018273      -272.6111
  18   2.0000     -10.016854      -272.5725
  19   2.0000      -7.870853      -214.1768
  20   2.0000      -7.867661      -214.0899
  21   2.0000      -7.821775      -212.8413
  22   2.0000      -7.818690      -212.7574
  23   2.0000      -6.595332      -179.4681
  24   2.0000      -6.594943      -179.4575
  25   2.0000      -5.817765      -158.3094
  26   2.0000      -5.814524      -158.2213
  27   2.0000      -5.814518      -158.2211
  28   2.0000      -5.811567      -158.1408
  29   2.0000      -5.808073      -158.0457
  30   2.0000      -5.804687      -157.9536
  31   2.0000      -5.769425      -156.9940
  32   2.0000      -5.766372      -156.9110
  33   2.0000      -5.762097      -156.7946
  34   2.0000      -5.761650      -156.7825
  35   2.0000      -5.758895      -156.7075
  36   2.0000      -5.758710      -156.7025
  37   2.0000      -4.741097      -129.0118
  38   2.0000      -4.740793      -129.0035
  39   2.0000      -4.740054      -128.9834
  40   2.0000      -4.739905      -128.9794
  41   2.0000      -4.739091      -128.9572
  42   2.0000      -4.738378      -128.9378
  43   2.0000      -1.051801       -28.6209
  44   2.0000      -1.050419       -28.5833
  45   2.0000      -1.010431       -27.4952
  46   2.0000      -1.007070       -27.4038
  47   2.0000      -0.798300       -21.7229
  48   2.0000      -0.753323       -20.4989
  49   2.0000      -0.744967       -20.2716
  50   2.0000      -0.725512       -19.7422
  51   2.0000      -0.723557       -19.6890
  52   2.0000      -0.710429       -19.3318
  53   2.0000      -0.688325       -18.7303
  54   2.0000      -0.669353       -18.2140
  55   2.0000      -0.626740       -17.0545
  56   2.0000      -0.615405       -16.7460
  57   2.0000      -0.601014       -16.3544
  58   2.0000      -0.597147       -16.2492
  59   2.0000      -0.588169       -16.0049
  60   2.0000      -0.526150       -14.3173
  61   2.0000      -0.518705       -14.1147
  62   2.0000      -0.489581       -13.3222
  63   2.0000      -0.487510       -13.2658
  64   2.0000      -0.470393       -12.8000
  65   2.0000      -0.463872       -12.6226
  66   2.0000      -0.457720       -12.4552
  67   2.0000      -0.448447       -12.2029
  68   2.0000      -0.438848       -11.9417
  69   2.0000      -0.433948       -11.8083
  70   2.0000      -0.424484       -11.5508
  71   2.0000      -0.405452       -11.0329
  72   2.0000      -0.405159       -11.0249
  73   2.0000      -0.397971       -10.8293
  74   2.0000      -0.390547       -10.6273
  75   2.0000      -0.381388       -10.3781
  76   2.0000      -0.376631       -10.2486
  77   2.0000      -0.368033       -10.0147
  78   2.0000      -0.362773        -9.8715
  79   2.0000      -0.361067        -9.8251
  80   2.0000      -0.356318        -9.6959
  81   2.0000      -0.351323        -9.5600
  82   2.0000      -0.350315        -9.5326
  83   2.0000      -0.344457        -9.3732
  84   2.0000      -0.342167        -9.3108
  85   2.0000      -0.326319        -8.8796
  86   2.0000      -0.321736        -8.7549
  87   2.0000      -0.313766        -8.5380
  88   2.0000      -0.306537        -8.3413
  89   2.0000      -0.304775        -8.2934
  90   2.0000      -0.301480        -8.2037
  91   2.0000      -0.284944        -7.7537
  92   2.0000      -0.278412        -7.5760
  93   2.0000      -0.277048        -7.5388
  94   2.0000      -0.272558        -7.4167
  95   2.0000      -0.247953        -6.7471
  96   2.0000      -0.242521        -6.5993
  97   2.0000      -0.235310        -6.4031
  98   2.0000      -0.224550        -6.1103
  99   2.0000      -0.212515        -5.7828
 100   2.0000      -0.208796        -5.6816
 101   0.0000      -0.044217        -1.2032
 102   0.0000      -0.037517        -1.0209
 103   0.0000      -0.012596        -0.3428
 104   0.0000       0.006852         0.1865
 105   0.0000       0.014196         0.3863

MULLIKEN ATOMIC CHARGES
-----------------------
   0 C :   -0.511003
   1 C :   -0.088837
   2 O :   -0.269706
   3 P :    0.632004
   4 S :   -0.461166
   5 O :   -0.315411
   6 C :   -0.155549
   7 C :   -0.492937
   8 S :   -0.147089
   9 C :   -0.234668
  10 S :   -0.176565
  11 P :    0.671481
  12 S :   -0.492630
  13 O :   -0.313697
  14 C :   -0.165590
  15 C :   -0.468788
  16 O :   -0.295489
  17 C :   -0.095954
  18 C :   -0.524750
  19 H :    0.170158
  20 H :    0.171688
  21 H :    0.167312
  22 H :    0.172992
  23 H :    0.181991
  24 H :    0.174982
  25 H :    0.178745
  26 H :    0.176261
  27 H :    0.169404
  28 H :    0.173370
  29 H :    0.215010
  30 H :    0.234621
  31 H :    0.177699
  32 H :    0.173129
  33 H :    0.165432
  34 H :    0.171759
  35 H :    0.170430
  36 H :    0.172966
  37 H :    0.176063
  38 H :    0.173278
  39 H :    0.171784
  40 H :    0.167270
Sum of atomic charges:    0.0000000

LOEWDIN ATOMIC CHARGES
----------------------
   0 C :   -0.395514
   1 C :    0.021268
   2 O :   -0.687065
   3 P :    0.380908
   4 S :   -0.108887
   5 O :   -0.678149
   6 C :    0.026174
   7 C :   -0.411887
   8 S :    0.132305
   9 C :   -0.413172
  10 S :    0.151928
  11 P :    0.381982
  12 S :   -0.143633
  13 O :   -0.685136
  14 C :    0.025256
  15 C :   -0.412017
  16 O :   -0.679045
  17 C :    0.028452
  18 C :   -0.392784
  19 H :    0.165030
  20 H :    0.168561
  21 H :    0.162837
  22 H :    0.182853
  23 H :    0.188939
  24 H :    0.190798
  25 H :    0.181446
  26 H :    0.162092
  27 H :    0.163622
  28 H :    0.168593
  29 H :    0.198766
  30 H :    0.195730
  31 H :    0.180820
  32 H :    0.190012
  33 H :    0.163310
  34 H :    0.161177
  35 H :    0.166772
  36 H :    0.182136
  37 H :    0.183731
  38 H :    0.167865
  39 H :    0.170366
  40 H :    0.163559

  Mayer bond orders larger than 0.100000
B(  0-C ,  1-C ) :   0.9220 B(  0-C , 19-H ) :   0.9699 B(  0-C , 20-H ) :   0.9606
B(  0-C , 21-H ) :   0.9703 B(  1-C ,  2-O ) :   0.7055 B(  1-C , 22-H ) :   0.9519
B(  1-C , 23-H ) :   0.9515 B(  2-O ,  3-P ) :   1.1080 B(  3-P ,  4-S ) :   1.8455
B(  3-P ,  5-O ) :   1.0536 B(  3-P ,  8-S ) :   1.0410 B(  5-O ,  6-C ) :   0.8117
B(  6-C ,  7-C ) :   0.9006 B(  6-C , 24-H ) :   0.9508 B(  6-C , 25-H ) :   0.9670
B(  7-C , 26-H ) :   0.9651 B(  7-C , 27-H ) :   0.9644 B(  7-C , 28-H ) :   0.9516
B(  8-S ,  9-C ) :   0.9129 B(  9-C , 10-S ) :   0.8831 B(  9-C , 29-H ) :   0.9102
B(  9-C , 30-H ) :   0.8991 B( 10-S , 11-P ) :   1.0359 B( 11-P , 12-S ) :   1.7946
B( 11-P , 13-O ) :   1.0440 B( 11-P , 16-O ) :   1.1766 B( 13-O , 14-C ) :   0.8159
B( 14-C , 15-C ) :   0.9074 B( 14-C , 31-H ) :   0.9676 B( 14-C , 32-H ) :   0.9509
B( 15-C , 33-H ) :   0.9639 B( 15-C , 34-H ) :   0.9673 B( 15-C , 35-H ) :   0.9529
B( 16-O , 17-C ) :   0.7234 B( 17-C , 18-C ) :   0.9193 B( 17-C , 36-H ) :   0.9465
B( 17-C , 37-H ) :   0.9312 B( 18-C , 38-H ) :   0.9695 B( 18-C , 39-H ) :   0.9592
B( 18-C , 40-H ) :   0.9689

Dispersion correction           -0.022501532
FINAL SINGLE POINT ENERGY     -2932.466278364825

DIPOLE MOMENT
-------------

Method             : SCF
Type of density    : Electron Density
Multiplicity       :   1
Irrep              :   0
Energy             : -2932.4904513958640564 Eh
Relativity type    :
Basis              : AO
                                X                 Y                 Z
Electronic contribution:     -3.309643205      10.211315587       7.161900386
Nuclear contribution   :      3.605783013     -13.301151239      -7.071284377
                        -----------------------------------------
Total Dipole Moment    :      0.296139808      -3.089835651       0.090616008
                        -----------------------------------------
Magnitude (a.u.)       :      3.105317117
Magnitude (Debye)      :      7.893088838

Rotational constants in cm-1:             0.012339             0.005590             0.005090
Rotational constants in MHz :           369.906126           167.591487           152.599876

                             ****ORCA TERMINATED NORMALLY****
TOTAL RUN TIME: 0 days 0 hours 1 minutes 54 seconds 377 msec
