                         Program Version 6.0.0  -   RELEASE  -
|  1> ! r2scan-3c def2/J RI DEFGRID2 scfconv6 printgap
|  2> %output
|  3>     printlevel normal
|  4> end
|  5> * xyz 0 1
|  6> C 5.3564379424 1.418109316 -1.7683451959
|  7> C 4.0486035231 0.6536072402 -1.8195273793
|  8> O 3.7758774299 0.1432163151 -0.5000383029
|  9> P 2.3020723848 -0.0635833561 0.0275196357
| 10> S 1.0766492347 1.4152219803 -0.4025094277
| 11> O 2.7184382914 -0.2959053521 1.5326496008
| 12> C 1.8923252619 -0.8949682023 2.5476233611
| 13> C 0.9438060038 0.1126975351 3.1665849914
| 14> S 1.7336143901 -1.9703162224 -0.7339367143
| 15> C -0.0157235603 -1.6877185474 -1.083953551
| 16> S -1.027803806 -1.5607069409 0.43804186
| 17> P -2.2221276633 0.0977693905 -0.0583757827
| 18> S -2.2009975196 0.74867936 -1.9124096049
| 19> O -1.7774986292 1.0992870814 1.0832239504
| 20> C -2.2665841096 2.4583862846 1.114800681
| 21> C -1.3637036936 3.2569075407 2.0312846984
| 22> O -3.6857246291 -0.2745685987 0.4563723944
| 23> C -4.6596748726 -0.91942315 -0.3804198276
| 24> C -4.2442054087 -2.3262360585 -0.7600258441
| 25> H 6.1504987301 0.7664704584 -1.4160449929
| 26> H 5.5981625872 1.7789940638 -2.7627004876
| 27> H 5.268318913 2.2629393057 -1.0908653812
| 28> H 4.1128338325 -0.1989201566 -2.5005773857
| 29> H 3.2215037193 1.3027836231 -2.1300602937
| 30> H 1.3413163598 -1.7389208807 2.1190050874
| 31> H 2.6108599517 -1.2639441622 3.2819907979
| 32> H 0.2265176399 0.4665292952 2.4285326049
| 33> H 0.402714676 -0.3596697052 3.9801658699
| 34> H 1.4995028825 0.9655725752 3.5473243574
| 35> H -0.342243364 -2.5567870192 -1.6491468533
| 36> H -0.1443834899 -0.7676090389 -1.6598514954
| 37> H -2.2485121788 2.8565330998 0.0941336208
| 38> H -3.297731278 2.438693936 1.4767954978
| 39> H -0.3466953118 3.2421317046 1.6468198595
| 40> H -1.7151019898 4.2825750209 2.0726340357
| 41> H -1.3719669839 2.8281094095 3.0290671087
| 42> H -5.5678024419 -0.9145258762 0.2237264739
| 43> H -4.8025564984 -0.3068262662 -1.2763815744
| 44> H -3.9912161739 -2.89952613 0.128310041
| 45> H -5.0602394332 -2.812395568 -1.2848220219
| 46> H -3.3760133148 -2.2883112443 -1.4172435801
| 47> *
| 48>
| 49>                          ****END OF INPUT****

CARTESIAN COORDINATES (ANGSTROEM)
---------------------------------
  C      5.356438    1.418109   -1.768345
  C      4.048604    0.653607   -1.819527
  O      3.775877    0.143216   -0.500038
  P      2.302072   -0.063583    0.027520
  S      1.076649    1.415222   -0.402509
  O      2.718438   -0.295905    1.532650
  C      1.892325   -0.894968    2.547623
  C      0.943806    0.112698    3.166585
  S      1.733614   -1.970316   -0.733937
  C     -0.015724   -1.687719   -1.083954
  S     -1.027804   -1.560707    0.438042
  P     -2.222128    0.097769   -0.058376
  S     -2.200998    0.748679   -1.912410
  O     -1.777499    1.099287    1.083224
  C     -2.266584    2.458386    1.114801
  C     -1.363704    3.256908    2.031285
  O     -3.685725   -0.274569    0.456372
  C     -4.659675   -0.919423   -0.380420
  C     -4.244205   -2.326236   -0.760026
  H      6.150499    0.766470   -1.416045
  H      5.598163    1.778994   -2.762700
  H      5.268319    2.262939   -1.090865
  H      4.112834   -0.198920   -2.500577
  H      3.221504    1.302784   -2.130060
  H      1.341316   -1.738921    2.119005
  H      2.610860   -1.263944    3.281991
  H      0.226518    0.466529    2.428533
  H      0.402715   -0.359670    3.980166
  H      1.499503    0.965573    3.547324
  H     -0.342243   -2.556787   -1.649147
  H     -0.144383   -0.767609   -1.659851
  H     -2.248512    2.856533    0.094134
  H     -3.297731    2.438694    1.476795
  H     -0.346695    3.242132    1.646820
  H     -1.715102    4.282575    2.072634
  H     -1.371967    2.828109    3.029067
  H     -5.567802   -0.914526    0.223726
  H     -4.802556   -0.306826   -1.276382
  H     -3.991216   -2.899526    0.128310
  H     -5.060239   -2.812396   -1.284822
  H     -3.376013   -2.288311   -1.417244

 Total Charge           Charge          ....    0
 Multiplicity           Mult            ....    1
 Number of Electrons    NEL             ....  202
 Basis Dimension        Dim             ....  539

ORBITAL ENERGIES
----------------

  NO   OCC          E(Eh)            E(eV)
   0   2.0000     -88.579839     -2410.3800
   1   2.0000     -88.577354     -2410.3123
   2   2.0000     -88.519162     -2408.7289
   3   2.0000     -88.515256     -2408.6226
   4   2.0000     -76.912026     -2092.8826
   5   2.0000     -76.911766     -2092.8755
   6   2.0000     -18.988254      -516.6967
   7   2.0000     -18.987703      -516.6817
   8   2.0000     -18.987317      -516.6712
   9   2.0000     -18.985425      -516.6197
  10   2.0000     -10.107092      -275.0279
  11   2.0000     -10.096081      -274.7283
  12   2.0000     -10.095903      -274.7235
  13   2.0000     -10.093734      -274.6645
  14   2.0000     -10.093521      -274.6587
  15   2.0000     -10.028451      -272.8880
  16   2.0000     -10.028022      -272.8764
  17   2.0000     -10.024967      -272.7932
  18   2.0000     -10.018667      -272.6218
  19   2.0000      -7.873927      -214.2605
  20   2.0000      -7.871850      -214.2039
  21   2.0000      -7.813872      -212.6263
  22   2.0000      -7.809998      -212.5208
  23   2.0000      -6.590580      -179.3388
  24   2.0000      -6.590073      -179.3250
  25   2.0000      -5.820931      -158.3956
  26   2.0000      -5.818634      -158.3331
  27   2.0000      -5.817438      -158.3005
  28   2.0000      -5.815828      -158.2567
  29   2.0000      -5.811304      -158.1336
  30   2.0000      -5.808887      -158.0679
  31   2.0000      -5.761518      -156.7789
  32   2.0000      -5.757692      -156.6748
  33   2.0000      -5.754383      -156.5847
  34   2.0000      -5.753652      -156.5648
  35   2.0000      -5.750228      -156.4717
  36   2.0000      -5.750020      -156.4660
  37   2.0000      -4.735907      -128.8706
  38   2.0000      -4.735549      -128.8608
  39   2.0000      -4.735427      -128.8575
  40   2.0000      -4.735329      -128.8549
  41   2.0000      -4.734539      -128.8334
  42   2.0000      -4.733522      -128.8057
  43   2.0000      -1.049932       -28.5701
  44   2.0000      -1.046655       -28.4809
  45   2.0000      -1.006851       -27.3978
  46   2.0000      -1.005606       -27.3639
  47   2.0000      -0.799823       -21.7643
  48   2.0000      -0.758008       -20.6264
  49   2.0000      -0.749420       -20.3928
  50   2.0000      -0.728918       -19.8349
  51   2.0000      -0.724838       -19.7238
  52   2.0000      -0.711040       -19.3484
  53   2.0000      -0.682818       -18.5804
  54   2.0000      -0.665317       -18.1042
  55   2.0000      -0.628430       -17.1005
  56   2.0000      -0.621559       -16.9135
  57   2.0000      -0.602859       -16.4046
  58   2.0000      -0.594422       -16.1751
  59   2.0000      -0.590102       -16.0575
  60   2.0000      -0.528591       -14.3837
  61   2.0000      -0.523810       -14.2536
  62   2.0000      -0.491372       -13.3709
  63   2.0000      -0.489060       -13.3080
  64   2.0000      -0.466890       -12.7047
  65   2.0000      -0.461336       -12.5536
  66   2.0000      -0.454061       -12.3556
  67   2.0000      -0.453747       -12.3471
  68   2.0000      -0.442917       -12.0524
  69   2.0000      -0.439186       -11.9509
  70   2.0000      -0.421657       -11.4739
  71   2.0000      -0.417744       -11.3674
  72   2.0000      -0.409383       -11.1399
  73   2.0000      -0.404250       -11.0002
  74   2.0000      -0.392750       -10.6873
  75   2.0000      -0.386371       -10.5137
  76   2.0000      -0.377399       -10.2696
  77   2.0000      -0.367990       -10.0135
  78   2.0000      -0.367022        -9.9872
  79   2.0000      -0.364360        -9.9147
  80   2.0000      -0.358376        -9.7519
  81   2.0000      -0.355730        -9.6799
  82   2.0000      -0.350297        -9.5321
  83   2.0000      -0.345895        -9.4123
  84   2.0000      -0.345267        -9.3952
  85   2.0000      -0.327014        -8.8985
  86   2.0000      -0.325047        -8.8450
  87   2.0000      -0.310959        -8.4616
  88   2.0000      -0.309372        -8.4184
  89   2.0000      -0.306209        -8.3324
  90   2.0000      -0.299301        -8.1444
  91   2.0000      -0.285384        -7.7657
  92   2.0000      -0.280385        -7.6297
  93   2.0000      -0.278146        -7.5687
  94   2.0000      -0.271121        -7.3776
  95   2.0000      -0.252755        -6.8778
  96   2.0000      -0.232773        -6.3341
  97   2.0000      -0.227347        -6.1864
  98   2.0000      -0.216437        -5.8896
  99   2.0000      -0.210610        -5.7310
 100   2.0000      -0.201919        -5.4945
 101   0.0000      -0.049251        -1.3402
 102   0.0000      -0.037503        -1.0205
 103   0.0000      -0.011202        -0.3048
 104   0.0000       0.007583         0.2063
 105   0.0000       0.016264         0.4426

MULLIKEN ATOMIC CHARGES
-----------------------
   0 C :   -0.443234
   1 C :   -0.139593
   2 O :   -0.301743
   3 P :    0.692281
   4 S :   -0.431001
   5 O :   -0.281769
   6 C :   -0.139491
   7 C :   -0.440393
   8 S :   -0.155497
   9 C :   -0.213132
  10 S :   -0.140011
  11 P :    0.700746
  12 S :   -0.471938
  13 O :   -0.283716
  14 C :   -0.148682
  15 C :   -0.458596
  16 O :   -0.298869
  17 C :   -0.155828
  18 C :   -0.441172
  19 H :    0.152987
  20 H :    0.144993
  21 H :    0.159207
  22 H :    0.148196
  23 H :    0.170348
  24 H :    0.153681
  25 H :    0.149285
  26 H :    0.186615
  27 H :    0.143958
  28 H :    0.149388
  29 H :    0.190074
  30 H :    0.219255
  31 H :    0.169286
  32 H :    0.150356
  33 H :    0.178726
  34 H :    0.144024
  35 H :    0.150772
  36 H :    0.146586
  37 H :    0.173347
  38 H :    0.157864
  39 H :    0.147561
  40 H :    0.165127
Sum of atomic charges:   -0.0000000

LOEWDIN ATOMIC CHARGES
----------------------
   0 C :   -0.386033
   1 C :    0.020667
   2 O :   -0.655043
   3 P :    0.384359
   4 S :   -0.085413
   5 O :   -0.642171
   6 C :    0.022659
   7 C :   -0.408007
   8 S :    0.136651
   9 C :   -0.417825
  10 S :    0.158493
  11 P :    0.373160
  12 S :   -0.126691
  13 O :   -0.691558
  14 C :    0.021580
  15 C :   -0.390960
  16 O :   -0.668230
  17 C :    0.017661
  18 C :   -0.406748
  19 H :    0.159362
  20 H :    0.159077
  21 H :    0.161664
  22 H :    0.170850
  23 H :    0.181578
  24 H :    0.174766
  25 H :    0.179037
  26 H :    0.179208
  27 H :    0.159073
  28 H :    0.159442
  29 H :    0.178193
  30 H :    0.201886
  31 H :    0.181928
  32 H :    0.171874
  33 H :    0.168692
  34 H :    0.158829
  35 H :    0.158483
  36 H :    0.178870
  37 H :    0.179519
  38 H :    0.161223
  39 H :    0.158416
  40 H :    0.161480

  Mayer bond orders larger than 0.100000
B(  0-C ,  1-C ) :   0.9618 B(  0-C , 19-H ) :   0.9721 B(  0-C , 20-H ) :   0.9652
B(  0-C , 21-H ) :   0.9718 B(  1-C ,  2-O ) :   0.7754 B(  1-C , 22-H ) :   0.9482
B(  1-C , 23-H ) :   0.9518 B(  2-O ,  3-P ) :   1.1282 B(  3-P ,  4-S ) :   1.7464
B(  3-P ,  5-O ) :   1.1620 B(  3-P ,  8-S ) :   1.0284 B(  5-O ,  6-C ) :   0.7930
B(  6-C ,  7-C ) :   0.9440 B(  6-C , 24-H ) :   0.9591 B(  6-C , 25-H ) :   0.9645
B(  7-C , 26-H ) :   0.9466 B(  7-C , 27-H ) :   0.9659 B(  7-C , 28-H ) :   0.9690
B(  8-S ,  9-C ) :   0.9254 B(  9-C , 10-S ) :   0.8799 B(  9-C , 29-H ) :   0.9129
B(  9-C , 30-H ) :   0.9018 B( 10-S , 11-P ) :   1.1123 B( 11-P , 12-S ) :   1.7289
B( 11-P , 13-O ) :   1.1848 B( 11-P , 16-O ) :   1.0466 B( 13-O , 14-C ) :   0.7777
B( 14-C , 15-C ) :   0.9556 B( 14-C , 31-H ) :   0.9548 B( 14-C , 32-H ) :   0.9441
B( 15-C , 33-H ) :   0.9641 B( 15-C , 34-H ) :   0.9631 B( 15-C , 35-H ) :   0.9702
B( 16-O , 17-C ) :   0.8266 B( 17-C , 18-C ) :   0.9182 B( 17-C , 36-H ) :   0.9580
B( 17-C , 37-H ) :   0.9686 B( 18-C , 38-H ) :   0.9665 B( 18-C , 39-H ) :   0.9602
B( 18-C , 40-H ) :   0.9674

Dispersion correction           -0.021767650
FINAL SINGLE POINT ENERGY     -2932.460892864119

DIPOLE MOMENT
-------------

Method             : SCF
Type of density    : Electron Density
Multiplicity       :   1
Irrep              :   0
Energy             : -2932.4857747575360918 Eh
Relativity type    :
Basis              : AO
                                X                 Y                 Z
Electronic contribution:      1.441870584      -7.140842756      -6.114442135
Nuclear contribution   :     -1.762994388       6.664893690       6.559097102
                        -----------------------------------------
Total Dipole Moment    :     -0.321123804      -0.475949065       0.444654968
                        -----------------------------------------
Magnitude (a.u.)       :      0.726199732
Magnitude (Debye)      :      1.845853026

Rotational constants in cm-1:             0.011881             0.005113             0.004829
Rotational constants in MHz :           356.187583           153.287845           144.766623

                             ****ORCA TERMINATED NORMALLY****
TOTAL RUN TIME: 0 days 0 hours 1 minutes 23 seconds 359 msec
