                         Program Version 6.0.0  -   RELEASE  -
|  1> ! r2scan-3c def2/J RI DEFGRID2 scfconv6 printgap
|  2> %output
|  3>     printlevel normal
|  4> end
|  5> %cpcm
|  6>     smd true
|  7>     smdsolvent "water"
|  8> end
|  9> * xyz 0 1
| 10> C 5.3564379424 1.418109316 -1.7683451959
| 11> C 4.0486035231 0.6536072402 -1.8195273793
| 12> O 3.7758774299 0.1432163151 -0.5000383029
| 13> P 2.3020723848 -0.0635833561 0.0275196357
| 14> S 1.0766492347 1.4152219803 -0.4025094277
| 15> O 2.7184382914 -0.2959053521 1.5326496008
| 16> C 1.8923252619 -0.8949682023 2.5476233611
| 17> C 0.9438060038 0.1126975351 3.1665849914
| 18> S 1.7336143901 -1.9703162224 -0.7339367143
| 19> C -0.0157235603 -1.6877185474 -1.083953551
| 20> S -1.027803806 -1.5607069409 0.43804186
| 21> P -2.2221276633 0.0977693905 -0.0583757827
| 22> S -2.2009975196 0.74867936 -1.9124096049
| 23> O -1.7774986292 1.0992870814 1.0832239504
| 24> C -2.2665841096 2.4583862846 1.114800681
| 25> C -1.3637036936 3.2569075407 2.0312846984
| 26> O -3.6857246291 -0.2745685987 0.4563723944
| 27> C -4.6596748726 -0.91942315 -0.3804198276
| 28> C -4.2442054087 -2.3262360585 -0.7600258441
| 29> H 6.1504987301 0.7664704584 -1.4160449929
| 30> H 5.5981625872 1.7789940638 -2.7627004876
| 31> H 5.268318913 2.2629393057 -1.0908653812
| 32> H 4.1128338325 -0.1989201566 -2.5005773857
| 33> H 3.2215037193 1.3027836231 -2.1300602937
| 34> H 1.3413163598 -1.7389208807 2.1190050874
| 35> H 2.6108599517 -1.2639441622 3.2819907979
| 36> H 0.2265176399 0.4665292952 2.4285326049
| 37> H 0.402714676 -0.3596697052 3.9801658699
| 38> H 1.4995028825 0.9655725752 3.5473243574
| 39> H -0.342243364 -2.5567870192 -1.6491468533
| 40> H -0.1443834899 -0.7676090389 -1.6598514954
| 41> H -2.2485121788 2.8565330998 0.0941336208
| 42> H -3.297731278 2.438693936 1.4767954978
| 43> H -0.3466953118 3.2421317046 1.6468198595
| 44> H -1.7151019898 4.2825750209 2.0726340357
| 45> H -1.3719669839 2.8281094095 3.0290671087
| 46> H -5.5678024419 -0.9145258762 0.2237264739
| 47> H -4.8025564984 -0.3068262662 -1.2763815744
| 48> H -3.9912161739 -2.89952613 0.128310041
| 49> H -5.0602394332 -2.812395568 -1.2848220219
| 50> H -3.3760133148 -2.2883112443 -1.4172435801
| 51> *
| 52>
| 53>                          ****END OF INPUT****

CARTESIAN COORDINATES (ANGSTROEM)
---------------------------------
  C      5.356438    1.418109   -1.768345
  C      4.048604    0.653607   -1.819527
  O      3.775877    0.143216   -0.500038
  P      2.302072   -0.063583    0.027520
  S      1.076649    1.415222   -0.402509
  O      2.718438   -0.295905    1.532650
  C      1.892325   -0.894968    2.547623
  C      0.943806    0.112698    3.166585
  S      1.733614   -1.970316   -0.733937
  C     -0.015724   -1.687719   -1.083954
  S     -1.027804   -1.560707    0.438042
  P     -2.222128    0.097769   -0.058376
  S     -2.200998    0.748679   -1.912410
  O     -1.777499    1.099287    1.083224
  C     -2.266584    2.458386    1.114801
  C     -1.363704    3.256908    2.031285
  O     -3.685725   -0.274569    0.456372
  C     -4.659675   -0.919423   -0.380420
  C     -4.244205   -2.326236   -0.760026
  H      6.150499    0.766470   -1.416045
  H      5.598163    1.778994   -2.762700
  H      5.268319    2.262939   -1.090865
  H      4.112834   -0.198920   -2.500577
  H      3.221504    1.302784   -2.130060
  H      1.341316   -1.738921    2.119005
  H      2.610860   -1.263944    3.281991
  H      0.226518    0.466529    2.428533
  H      0.402715   -0.359670    3.980166
  H      1.499503    0.965573    3.547324
  H     -0.342243   -2.556787   -1.649147
  H     -0.144383   -0.767609   -1.659851
  H     -2.248512    2.856533    0.094134
  H     -3.297731    2.438694    1.476795
  H     -0.346695    3.242132    1.646820
  H     -1.715102    4.282575    2.072634
  H     -1.371967    2.828109    3.029067
  H     -5.567802   -0.914526    0.223726
  H     -4.802556   -0.306826   -1.276382
  H     -3.991216   -2.899526    0.128310
  H     -5.060239   -2.812396   -1.284822
  H     -3.376013   -2.288311   -1.417244

 Total Charge           Charge          ....    0
 Multiplicity           Mult            ....    1
 Number of Electrons    NEL             ....  202
 Basis Dimension        Dim             ....  539

ORBITAL ENERGIES
----------------

  NO   OCC          E(Eh)            E(eV)
   0   2.0000     -88.583703     -2410.4851
   1   2.0000     -88.579406     -2410.3682
   2   2.0000     -88.526628     -2408.9320
   3   2.0000     -88.524457     -2408.8729
   4   2.0000     -76.918863     -2093.0687
   5   2.0000     -76.917026     -2093.0187
   6   2.0000     -18.995529      -516.8946
   7   2.0000     -18.993893      -516.8501
   8   2.0000     -18.990664      -516.7622
   9   2.0000     -18.988700      -516.7088
  10   2.0000     -10.105534      -274.9856
  11   2.0000     -10.091505      -274.6038
  12   2.0000     -10.088851      -274.5316
  13   2.0000     -10.088161      -274.5128
  14   2.0000     -10.087282      -274.4889
  15   2.0000     -10.018948      -272.6294
  16   2.0000     -10.018002      -272.6037
  17   2.0000     -10.017604      -272.5929
  18   2.0000     -10.014935      -272.5202
  19   2.0000      -7.877735      -214.3641
  20   2.0000      -7.873876      -214.2591
  21   2.0000      -7.821652      -212.8380
  22   2.0000      -7.819394      -212.7765
  23   2.0000      -6.597316      -179.5221
  24   2.0000      -6.595620      -179.4759
  25   2.0000      -5.824749      -158.4995
  26   2.0000      -5.821267      -158.4047
  27   2.0000      -5.820695      -158.3892
  28   2.0000      -5.817866      -158.3122
  29   2.0000      -5.815100      -158.2369
  30   2.0000      -5.810875      -158.1219
  31   2.0000      -5.769220      -156.9885
  32   2.0000      -5.767023      -156.9287
  33   2.0000      -5.762142      -156.7958
  34   2.0000      -5.761472      -156.7776
  35   2.0000      -5.759631      -156.7275
  36   2.0000      -5.759436      -156.7222
  37   2.0000      -4.742750      -129.0568
  38   2.0000      -4.742597      -129.0526
  39   2.0000      -4.740926      -129.0071
  40   2.0000      -4.740782      -129.0032
  41   2.0000      -4.740435      -128.9938
  42   2.0000      -4.739663      -128.9728
  43   2.0000      -1.056859       -28.7586
  44   2.0000      -1.049549       -28.5597
  45   2.0000      -1.012867       -27.5615
  46   2.0000      -1.007879       -27.4258
  47   2.0000      -0.801001       -21.7963
  48   2.0000      -0.757442       -20.6111
  49   2.0000      -0.746579       -20.3154
  50   2.0000      -0.721658       -19.6373
  51   2.0000      -0.720479       -19.6052
  52   2.0000      -0.711143       -19.3512
  53   2.0000      -0.688049       -18.7228
  54   2.0000      -0.671517       -18.2729
  55   2.0000      -0.628461       -17.1013
  56   2.0000      -0.620720       -16.8906
  57   2.0000      -0.598727       -16.2922
  58   2.0000      -0.591944       -16.1076
  59   2.0000      -0.587326       -15.9820
  60   2.0000      -0.527451       -14.3527
  61   2.0000      -0.522434       -14.2161
  62   2.0000      -0.492993       -13.4150
  63   2.0000      -0.486802       -13.2466
  64   2.0000      -0.468767       -12.7558
  65   2.0000      -0.461192       -12.5497
  66   2.0000      -0.453466       -12.3394
  67   2.0000      -0.452591       -12.3156
  68   2.0000      -0.438792       -11.9401
  69   2.0000      -0.435747       -11.8573
  70   2.0000      -0.422086       -11.4855
  71   2.0000      -0.417507       -11.3609
  72   2.0000      -0.409397       -11.1403
  73   2.0000      -0.401348       -10.9212
  74   2.0000      -0.391857       -10.6630
  75   2.0000      -0.385937       -10.5019
  76   2.0000      -0.376897       -10.2559
  77   2.0000      -0.363892        -9.9020
  78   2.0000      -0.360875        -9.8199
  79   2.0000      -0.357368        -9.7245
  80   2.0000      -0.354778        -9.6540
  81   2.0000      -0.351549        -9.5661
  82   2.0000      -0.346724        -9.4348
  83   2.0000      -0.344403        -9.3717
  84   2.0000      -0.341960        -9.3052
  85   2.0000      -0.327117        -8.9013
  86   2.0000      -0.323454        -8.8016
  87   2.0000      -0.311737        -8.4828
  88   2.0000      -0.308661        -8.3991
  89   2.0000      -0.304506        -8.2860
  90   2.0000      -0.299423        -8.1477
  91   2.0000      -0.285993        -7.7823
  92   2.0000      -0.281747        -7.6667
  93   2.0000      -0.279762        -7.6127
  94   2.0000      -0.274953        -7.4818
  95   2.0000      -0.255532        -6.9534
  96   2.0000      -0.238953        -6.5023
  97   2.0000      -0.235377        -6.4049
  98   2.0000      -0.222098        -6.0436
  99   2.0000      -0.219243        -5.9659
 100   2.0000      -0.211434        -5.7534
 101   0.0000      -0.053538        -1.4569
 102   0.0000      -0.042278        -1.1504
 103   0.0000      -0.014385        -0.3914
 104   0.0000       0.001956         0.0532
 105   0.0000       0.012377         0.3368

MULLIKEN ATOMIC CHARGES
-----------------------
   0 C :   -0.483982
   1 C :   -0.134697
   2 O :   -0.331227
   3 P :    0.706143
   4 S :   -0.469716
   5 O :   -0.314217
   6 C :   -0.127593
   7 C :   -0.488803
   8 S :   -0.159130
   9 C :   -0.210038
  10 S :   -0.139260
  11 P :    0.737374
  12 S :   -0.528701
  13 O :   -0.305417
  14 C :   -0.140531
  15 C :   -0.499075
  16 O :   -0.328202
  17 C :   -0.156294
  18 C :   -0.474804
  19 H :    0.165567
  20 H :    0.169065
  21 H :    0.166084
  22 H :    0.171200
  23 H :    0.170855
  24 H :    0.162090
  25 H :    0.176125
  26 H :    0.174932
  27 H :    0.171556
  28 H :    0.165578
  29 H :    0.233066
  30 H :    0.213347
  31 H :    0.171577
  32 H :    0.172438
  33 H :    0.170719
  34 H :    0.168913
  35 H :    0.167723
  36 H :    0.172728
  37 H :    0.176508
  38 H :    0.167195
  39 H :    0.171579
  40 H :    0.169324
Sum of atomic charges:   -0.0000000

LOEWDIN ATOMIC CHARGES
----------------------
   0 C :   -0.390410
   1 C :    0.024363
   2 O :   -0.674576
   3 P :    0.383634
   4 S :   -0.110852
   5 O :   -0.661553
   6 C :    0.027829
   7 C :   -0.412580
   8 S :    0.140858
   9 C :   -0.409886
  10 S :    0.162822
  11 P :    0.378871
  12 S :   -0.161841
  13 O :   -0.702976
  14 C :    0.025151
  15 C :   -0.394451
  16 O :   -0.680808
  17 C :    0.022173
  18 C :   -0.409221
  19 H :    0.162754
  20 H :    0.168559
  21 H :    0.162199
  22 H :    0.180252
  23 H :    0.181937
  24 H :    0.178590
  25 H :    0.190545
  26 H :    0.172581
  27 H :    0.169086
  28 H :    0.162674
  29 H :    0.195157
  30 H :    0.199698
  31 H :    0.182483
  32 H :    0.180789
  33 H :    0.163430
  34 H :    0.168162
  35 H :    0.162849
  36 H :    0.189739
  37 H :    0.180508
  38 H :    0.163513
  39 H :    0.167193
  40 H :    0.160756

  Mayer bond orders larger than 0.100000
B(  0-C ,  1-C ) :   0.9559 B(  0-C , 19-H ) :   0.9694 B(  0-C , 20-H ) :   0.9591
B(  0-C , 21-H ) :   0.9701 B(  1-C ,  2-O ) :   0.7686 B(  1-C , 22-H ) :   0.9388
B(  1-C , 23-H ) :   0.9491 B(  2-O ,  3-P ) :   1.1246 B(  3-P ,  4-S ) :   1.7307
B(  3-P ,  5-O ) :   1.1570 B(  3-P ,  8-S ) :   1.0471 B(  5-O ,  6-C ) :   0.7837
B(  6-C ,  7-C ) :   0.9243 B(  6-C , 24-H ) :   0.9542 B(  6-C , 25-H ) :   0.9545
B(  7-C , 26-H ) :   0.9530 B(  7-C , 27-H ) :   0.9604 B(  7-C , 28-H ) :   0.9683
B(  8-S ,  9-C ) :   0.9200 B(  9-C , 10-S ) :   0.8765 B(  9-C , 29-H ) :   0.8972
B(  9-C , 30-H ) :   0.9056 B( 10-S , 11-P ) :   1.1297 B( 11-P , 12-S ) :   1.6762
B( 11-P , 13-O ) :   1.1914 B( 11-P , 16-O ) :   1.0539 B( 13-O , 14-C ) :   0.7691
B( 14-C , 15-C ) :   0.9447 B( 14-C , 31-H ) :   0.9527 B( 14-C , 32-H ) :   0.9350
B( 15-C , 33-H ) :   0.9677 B( 15-C , 34-H ) :   0.9578 B( 15-C , 35-H ) :   0.9673
B( 16-O , 17-C ) :   0.8147 B( 17-C , 18-C ) :   0.9080 B( 17-C , 36-H ) :   0.9485
B( 17-C , 37-H ) :   0.9663 B( 18-C , 38-H ) :   0.9648 B( 18-C , 39-H ) :   0.9550
B( 18-C , 40-H ) :   0.9654

Dispersion correction           -0.021767650
FINAL SINGLE POINT ENERGY     -2932.467687430709

DIPOLE MOMENT
-------------

Method             : SCF
Type of density    : Electron Density
Multiplicity       :   1
Irrep              :   0
Energy             : -2932.4925693241257250 Eh
Relativity type    :
Basis              : AO
                                X                 Y                 Z
Electronic contribution:      1.173572749      -7.593141865      -6.045952451
Nuclear contribution   :     -1.762994388       6.664893690       6.559097102
                        -----------------------------------------
Total Dipole Moment    :     -0.589421638      -0.928248174       0.513144651
                        -----------------------------------------
Magnitude (a.u.)       :      1.213416653
Magnitude (Debye)      :      3.084260022

Rotational constants in cm-1:             0.011881             0.005113             0.004829
Rotational constants in MHz :           356.187583           153.287845           144.766623

                             ****ORCA TERMINATED NORMALLY****
TOTAL RUN TIME: 0 days 0 hours 1 minutes 54 seconds 424 msec
