                         Program Version 6.0.1  -  RELEASE   -
|  1> ! r2scan-3c def2/J RI DEFGRID2 scfconv6 printgap
|  2> %output
|  3>     printlevel normal
|  4> end
|  5> * xyz 0 1
|  6> C 2.0625836403 -3.2453375615 -2.8246564719
|  7> C 3.0576763899 -3.0545672939 -1.6908733119
|  8> O 2.8734972775 -1.7646497896 -1.0762406835
|  9> C 2.0443202926 -1.6651241409 -0.0584282411
| 10> O 1.472149947 -2.5955379145 0.4642300006
| 11> C 1.8605241145 -0.2179104451 0.3610394853
| 12> C 0.9905415611 0.4794776118 -0.6860528389
| 13> H 1.55184929 0.5975269306 -1.6180555043
| 14> C 0.4944673963 1.8461600617 -0.2441532288
| 15> O -0.6285587657 2.2428545069 -0.4869079052
| 16> O 1.4148512335 2.526027314 0.378067426
| 17> C 1.0596101791 3.8323044656 0.880734647
| 18> C 2.3151211637 4.4754389529 1.4330214461
| 19> S -0.4678214168 -0.508388094 -1.1657650437
| 20> P -1.7830513898 -0.0633973019 0.4422483612
| 21> S -1.0802561229 0.6291905538 2.1330823454
| 22> O -2.9898183712 0.788620114 -0.1110696643
| 23> C -3.6789157678 0.468973677 -1.3352933918
| 24> O -2.5095381888 -1.4861193237 0.612442439
| 25> C -1.8538254587 -2.5775959925 1.2653354121
| 26> H 2.1871064101 -2.4644631196 -3.5692500822
| 27> H 2.2260644187 -4.21238952 -3.2881866328
| 28> H 1.0454922722 -3.2009451641 -2.4410721667
| 29> H 4.0841418866 -3.0444737078 -2.0576770557
| 30> H 2.9324479659 -3.8266567023 -0.9267859709
| 31> H 2.8254613683 0.2847879424 0.4100449059
| 32> H 1.3771333611 -0.1936385095 1.3392053996
| 33> H 0.6246968092 4.410860133 0.0602603401
| 34> H 0.2949627779 3.6949496393 1.6520682519
| 35> H 2.0701051862 5.4588274819 1.8197173581
| 36> H 2.7208234227 3.866989875 2.2352896806
| 37> H 3.0608453996 4.5728013446 0.6499143532
| 38> H -4.452004052 1.2272173426 -1.4272861228
| 39> H -4.1134550369 -0.5269842897 -1.268733097
| 40> H -2.9848554087 0.5243399762 -2.1739037754
| 41> H -0.9156840757 -2.8241659216 0.765693702
| 42> H -2.5487587261 -3.4107839304 1.2096375213
| 43> H -1.6475441169 -2.3170301561 2.304132026
| 44> *
| 45>
| 46>                          ****END OF INPUT****

CARTESIAN COORDINATES (ANGSTROEM)
---------------------------------
  C      2.062584   -3.245338   -2.824656
  C      3.057676   -3.054567   -1.690873
  O      2.873497   -1.764650   -1.076241
  C      2.044320   -1.665124   -0.058428
  O      1.472150   -2.595538    0.464230
  C      1.860524   -0.217910    0.361039
  C      0.990542    0.479478   -0.686053
  H      1.551849    0.597527   -1.618056
  C      0.494467    1.846160   -0.244153
  O     -0.628559    2.242855   -0.486908
  O      1.414851    2.526027    0.378067
  C      1.059610    3.832304    0.880735
  C      2.315121    4.475439    1.433021
  S     -0.467821   -0.508388   -1.165765
  P     -1.783051   -0.063397    0.442248
  S     -1.080256    0.629191    2.133082
  O     -2.989818    0.788620   -0.111070
  C     -3.678916    0.468974   -1.335293
  O     -2.509538   -1.486119    0.612442
  C     -1.853825   -2.577596    1.265335
  H      2.187106   -2.464463   -3.569250
  H      2.226064   -4.212390   -3.288187
  H      1.045492   -3.200945   -2.441072
  H      4.084142   -3.044474   -2.057677
  H      2.932448   -3.826657   -0.926786
  H      2.825461    0.284788    0.410045
  H      1.377133   -0.193639    1.339205
  H      0.624697    4.410860    0.060260
  H      0.294963    3.694950    1.652068
  H      2.070105    5.458827    1.819717
  H      2.720823    3.866990    2.235290
  H      3.060845    4.572801    0.649914
  H     -4.452004    1.227217   -1.427286
  H     -4.113455   -0.526984   -1.268733
  H     -2.984855    0.524340   -2.173904
  H     -0.915684   -2.824166    0.765694
  H     -2.548759   -3.410784    1.209638
  H     -1.647544   -2.317030    2.304132

 Total Charge           Charge          ....    0
 Multiplicity           Mult            ....    1
 Number of Electrons    NEL             ....  174
 Basis Dimension        Dim             ....  510

ORBITAL ENERGIES
----------------

  NO   OCC          E(Eh)            E(eV)
   0   2.0000     -88.570747     -2410.1326
   1   2.0000     -88.510604     -2408.4960
   2   2.0000     -76.907424     -2092.7574
   3   2.0000     -19.011997      -517.3427
   4   2.0000     -19.006641      -517.1970
   5   2.0000     -18.982403      -516.5374
   6   2.0000     -18.977713      -516.4098
   7   2.0000     -18.935706      -515.2667
   8   2.0000     -18.934580      -515.2361
   9   2.0000     -10.167373      -276.6683
  10   2.0000     -10.160616      -276.4844
  11   2.0000     -10.102753      -274.9099
  12   2.0000     -10.097605      -274.7698
  13   2.0000     -10.097204      -274.7589
  14   2.0000     -10.088350      -274.5180
  15   2.0000     -10.072406      -274.0841
  16   2.0000     -10.052341      -273.5381
  17   2.0000     -10.035719      -273.0858
  18   2.0000     -10.034129      -273.0425
  19   2.0000      -7.865371      -214.0276
  20   2.0000      -7.805718      -212.4044
  21   2.0000      -6.585366      -179.1969
  22   2.0000      -5.812445      -158.1647
  23   2.0000      -5.809248      -158.0777
  24   2.0000      -5.802184      -157.8855
  25   2.0000      -5.753661      -156.5651
  26   2.0000      -5.746096      -156.3592
  27   2.0000      -5.745269      -156.3367
  28   2.0000      -4.730967      -128.7362
  29   2.0000      -4.730528      -128.7242
  30   2.0000      -4.728939      -128.6810
  31   2.0000      -1.090163       -29.6649
  32   2.0000      -1.082563       -29.4580
  33   2.0000      -1.038718       -28.2649
  34   2.0000      -0.996057       -27.1041
  35   2.0000      -0.988615       -26.9016
  36   2.0000      -0.984642       -26.7935
  37   2.0000      -0.812335       -22.1048
  38   2.0000      -0.757119       -20.6022
  39   2.0000      -0.750958       -20.4346
  40   2.0000      -0.724317       -19.7097
  41   2.0000      -0.693582       -18.8733
  42   2.0000      -0.663680       -18.0596
  43   2.0000      -0.656837       -17.8735
  44   2.0000      -0.649139       -17.6640
  45   2.0000      -0.627220       -17.0675
  46   2.0000      -0.598144       -16.2763
  47   2.0000      -0.544531       -14.8174
  48   2.0000      -0.533126       -14.5071
  49   2.0000      -0.525547       -14.3009
  50   2.0000      -0.502110       -13.6631
  51   2.0000      -0.482420       -13.1273
  52   2.0000      -0.477442       -12.9919
  53   2.0000      -0.472200       -12.8492
  54   2.0000      -0.464244       -12.6327
  55   2.0000      -0.450687       -12.2638
  56   2.0000      -0.440330       -11.9820
  57   2.0000      -0.440097       -11.9756
  58   2.0000      -0.434433       -11.8215
  59   2.0000      -0.425468       -11.5776
  60   2.0000      -0.417458       -11.3596
  61   2.0000      -0.411143       -11.1878
  62   2.0000      -0.407401       -11.0859
  63   2.0000      -0.397319       -10.8116
  64   2.0000      -0.391444       -10.6517
  65   2.0000      -0.383625       -10.4390
  66   2.0000      -0.378556       -10.3010
  67   2.0000      -0.376506       -10.2452
  68   2.0000      -0.360906        -9.8208
  69   2.0000      -0.351530        -9.5656
  70   2.0000      -0.350014        -9.5244
  71   2.0000      -0.345326        -9.3968
  72   2.0000      -0.336730        -9.1629
  73   2.0000      -0.325505        -8.8574
  74   2.0000      -0.325128        -8.8472
  75   2.0000      -0.314458        -8.5568
  76   2.0000      -0.309190        -8.4135
  77   2.0000      -0.303496        -8.2585
  78   2.0000      -0.284734        -7.7480
  79   2.0000      -0.280537        -7.6338
  80   2.0000      -0.277635        -7.5548
  81   2.0000      -0.265084        -7.2133
  82   2.0000      -0.255448        -6.9511
  83   2.0000      -0.237555        -6.4642
  84   2.0000      -0.229416        -6.2427
  85   2.0000      -0.210411        -5.7256
  86   2.0000      -0.205648        -5.5960
  87   0.0000      -0.044773        -1.2183
  88   0.0000      -0.031572        -0.8591
  89   0.0000      -0.014241        -0.3875
  90   0.0000       0.005684         0.1547
  91   0.0000       0.022807         0.6206

MULLIKEN ATOMIC CHARGES
-----------------------
   0 C :   -0.476965
   1 C :   -0.128961
   2 O :   -0.165940
   3 C :    0.394550
   4 O :   -0.394648
   5 C :   -0.478288
   6 C :    0.065281
   7 H :    0.196645
   8 C :    0.227764
   9 O :   -0.380744
  10 O :   -0.121883
  11 C :   -0.155036
  12 C :   -0.446200
  13 S :   -0.186229
  14 P :    0.793517
  15 S :   -0.460993
  16 O :   -0.298868
  17 C :   -0.302525
  18 O :   -0.359064
  19 C :   -0.301516
  20 H :    0.153165
  21 H :    0.149267
  22 H :    0.175847
  23 H :    0.149287
  24 H :    0.174141
  25 H :    0.175034
  26 H :    0.219875
  27 H :    0.160907
  28 H :    0.175890
  29 H :    0.150951
  30 H :    0.156610
  31 H :    0.151356
  32 H :    0.155564
  33 H :    0.167386
  34 H :    0.168689
  35 H :    0.184250
  36 H :    0.142721
  37 H :    0.169162
Sum of atomic charges:   -0.0000000

LOEWDIN ATOMIC CHARGES
----------------------
   0 C :   -0.390410
   1 C :    0.030337
   2 O :   -0.590663
   3 C :    0.339040
   4 O :   -0.442035
   5 C :   -0.209592
   6 C :   -0.189386
   7 H :    0.204290
   8 C :    0.333891
   9 O :   -0.450635
  10 O :   -0.575798
  11 C :    0.039564
  12 C :   -0.384551
  13 S :    0.223352
  14 P :    0.417157
  15 S :   -0.070574
  16 O :   -0.639669
  17 C :   -0.051500
  18 O :   -0.689198
  19 C :   -0.061924
  20 H :    0.156878
  21 H :    0.159935
  22 H :    0.166447
  23 H :    0.178231
  24 H :    0.190896
  25 H :    0.189528
  26 H :    0.200566
  27 H :    0.182303
  28 H :    0.188740
  29 H :    0.161730
  30 H :    0.161320
  31 H :    0.158765
  32 H :    0.180790
  33 H :    0.171762
  34 H :    0.173889
  35 H :    0.188546
  36 H :    0.172470
  37 H :    0.175510

  Mayer bond orders larger than 0.100000
B(  0-C ,  1-C ) :   0.9293 B(  0-C , 20-H ) :   0.9730 B(  0-C , 21-H ) :   0.9649
B(  0-C , 22-H ) :   0.9685 B(  1-C ,  2-O ) :   0.8024 B(  1-C , 23-H ) :   0.9627
B(  1-C , 24-H ) :   0.9680 B(  2-O ,  3-C ) :   1.0316 B(  3-C ,  4-O ) :   1.8212
B(  3-C ,  5-C ) :   0.9181 B(  5-C ,  6-C ) :   0.9086 B(  5-C , 25-H ) :   0.9386
B(  5-C , 26-H ) :   0.9739 B(  6-C ,  7-H ) :   0.8782 B(  6-C ,  8-C ) :   0.9331
B(  6-C , 13-S ) :   0.8266 B(  8-C ,  9-O ) :   1.7806 B(  8-C , 10-O ) :   1.1669
B( 10-O , 11-C ) :   0.7773 B( 11-C , 12-C ) :   0.9432 B( 11-C , 27-H ) :   0.9550
B( 11-C , 28-H ) :   0.9442 B( 12-C , 29-H ) :   0.9667 B( 12-C , 30-H ) :   0.9702
B( 12-C , 31-H ) :   0.9748 B( 13-S , 14-P ) :   0.9888 B( 14-P , 15-S ) :   1.7425
B( 14-P , 16-O ) :   1.1928 B( 14-P , 18-O ) :   1.0297 B( 16-O , 17-C ) :   0.7989
B( 17-C , 32-H ) :   0.9648 B( 17-C , 33-H ) :   0.9634 B( 17-C , 34-H ) :   0.9572
B( 18-O , 19-C ) :   0.8349 B( 19-C , 35-H ) :   0.9423 B( 19-C , 36-H ) :   0.9690
B( 19-C , 37-H ) :   0.9581

Dispersion correction           -0.017688277
FINAL SINGLE POINT ENERGY     -1981.447733428721

DIPOLE MOMENT
-------------

Method             : SCF
Type of density    : Electron Density
Multiplicity       :   1
Irrep              :   0
Energy             : -1981.4675431635350833 Eh
Relativity type    :
Basis              : AO
                                X                 Y                 Z
Electronic contribution:    -10.260775591       1.280603400       5.036225842
Nuclear contribution   :     11.332134353      -1.248835413      -6.360326244
                        -----------------------------------------
Total Dipole Moment    :      1.071358763       0.031767987      -1.324100402
                        -----------------------------------------
Magnitude (a.u.)       :      1.703543565
Magnitude (Debye)      :      4.330063626

Rotational constants in cm-1:             0.010603             0.008564             0.005986
Rotational constants in MHz :           317.873373           256.728143           179.452191

                             ****ORCA TERMINATED NORMALLY****
TOTAL RUN TIME: 0 days 0 hours 1 minutes 18 seconds 878 msec
