                         Program Version 6.0.1  -  RELEASE   -
|  1> ! r2scan-3c def2/J RI DEFGRID2 scfconv6 printgap
|  2> %output
|  3>     printlevel normal
|  4> end
|  5> %cpcm
|  6>     smd true
|  7>     smdsolvent "water"
|  8> end
|  9> * xyz 0 1
| 10> C 2.0625836403 -3.2453375615 -2.8246564719
| 11> C 3.0576763899 -3.0545672939 -1.6908733119
| 12> O 2.8734972775 -1.7646497896 -1.0762406835
| 13> C 2.0443202926 -1.6651241409 -0.0584282411
| 14> O 1.472149947 -2.5955379145 0.4642300006
| 15> C 1.8605241145 -0.2179104451 0.3610394853
| 16> C 0.9905415611 0.4794776118 -0.6860528389
| 17> H 1.55184929 0.5975269306 -1.6180555043
| 18> C 0.4944673963 1.8461600617 -0.2441532288
| 19> O -0.6285587657 2.2428545069 -0.4869079052
| 20> O 1.4148512335 2.526027314 0.378067426
| 21> C 1.0596101791 3.8323044656 0.880734647
| 22> C 2.3151211637 4.4754389529 1.4330214461
| 23> S -0.4678214168 -0.508388094 -1.1657650437
| 24> P -1.7830513898 -0.0633973019 0.4422483612
| 25> S -1.0802561229 0.6291905538 2.1330823454
| 26> O -2.9898183712 0.788620114 -0.1110696643
| 27> C -3.6789157678 0.468973677 -1.3352933918
| 28> O -2.5095381888 -1.4861193237 0.612442439
| 29> C -1.8538254587 -2.5775959925 1.2653354121
| 30> H 2.1871064101 -2.4644631196 -3.5692500822
| 31> H 2.2260644187 -4.21238952 -3.2881866328
| 32> H 1.0454922722 -3.2009451641 -2.4410721667
| 33> H 4.0841418866 -3.0444737078 -2.0576770557
| 34> H 2.9324479659 -3.8266567023 -0.9267859709
| 35> H 2.8254613683 0.2847879424 0.4100449059
| 36> H 1.3771333611 -0.1936385095 1.3392053996
| 37> H 0.6246968092 4.410860133 0.0602603401
| 38> H 0.2949627779 3.6949496393 1.6520682519
| 39> H 2.0701051862 5.4588274819 1.8197173581
| 40> H 2.7208234227 3.866989875 2.2352896806
| 41> H 3.0608453996 4.5728013446 0.6499143532
| 42> H -4.452004052 1.2272173426 -1.4272861228
| 43> H -4.1134550369 -0.5269842897 -1.268733097
| 44> H -2.9848554087 0.5243399762 -2.1739037754
| 45> H -0.9156840757 -2.8241659216 0.765693702
| 46> H -2.5487587261 -3.4107839304 1.2096375213
| 47> H -1.6475441169 -2.3170301561 2.304132026
| 48> *
| 49>
| 50>                          ****END OF INPUT****

CARTESIAN COORDINATES (ANGSTROEM)
---------------------------------
  C      2.062584   -3.245338   -2.824656
  C      3.057676   -3.054567   -1.690873
  O      2.873497   -1.764650   -1.076241
  C      2.044320   -1.665124   -0.058428
  O      1.472150   -2.595538    0.464230
  C      1.860524   -0.217910    0.361039
  C      0.990542    0.479478   -0.686053
  H      1.551849    0.597527   -1.618056
  C      0.494467    1.846160   -0.244153
  O     -0.628559    2.242855   -0.486908
  O      1.414851    2.526027    0.378067
  C      1.059610    3.832304    0.880735
  C      2.315121    4.475439    1.433021
  S     -0.467821   -0.508388   -1.165765
  P     -1.783051   -0.063397    0.442248
  S     -1.080256    0.629191    2.133082
  O     -2.989818    0.788620   -0.111070
  C     -3.678916    0.468974   -1.335293
  O     -2.509538   -1.486119    0.612442
  C     -1.853825   -2.577596    1.265335
  H      2.187106   -2.464463   -3.569250
  H      2.226064   -4.212390   -3.288187
  H      1.045492   -3.200945   -2.441072
  H      4.084142   -3.044474   -2.057677
  H      2.932448   -3.826657   -0.926786
  H      2.825461    0.284788    0.410045
  H      1.377133   -0.193639    1.339205
  H      0.624697    4.410860    0.060260
  H      0.294963    3.694950    1.652068
  H      2.070105    5.458827    1.819717
  H      2.720823    3.866990    2.235290
  H      3.060845    4.572801    0.649914
  H     -4.452004    1.227217   -1.427286
  H     -4.113455   -0.526984   -1.268733
  H     -2.984855    0.524340   -2.173904
  H     -0.915684   -2.824166    0.765694
  H     -2.548759   -3.410784    1.209638
  H     -1.647544   -2.317030    2.304132

 Total Charge           Charge          ....    0
 Multiplicity           Mult            ....    1
 Number of Electrons    NEL             ....  174
 Basis Dimension        Dim             ....  510

ORBITAL ENERGIES
----------------

  NO   OCC          E(Eh)            E(eV)
   0   2.0000     -88.579020     -2410.3577
   1   2.0000     -88.528040     -2408.9704
   2   2.0000     -76.921505     -2093.1406
   3   2.0000     -19.016371      -517.4618
   4   2.0000     -19.008393      -517.2447
   5   2.0000     -18.996541      -516.9221
   6   2.0000     -18.990780      -516.7654
   7   2.0000     -18.950355      -515.6654
   8   2.0000     -18.947247      -515.5808
   9   2.0000     -10.178359      -276.9672
  10   2.0000     -10.169519      -276.7267
  11   2.0000     -10.103189      -274.9217
  12   2.0000     -10.089737      -274.5557
  13   2.0000     -10.085700      -274.4459
  14   2.0000     -10.084724      -274.4193
  15   2.0000     -10.077809      -274.2311
  16   2.0000     -10.052720      -273.5484
  17   2.0000     -10.020640      -272.6755
  18   2.0000     -10.019729      -272.6507
  19   2.0000      -7.873545      -214.2501
  20   2.0000      -7.823423      -212.8862
  21   2.0000      -6.599623      -179.5849
  22   2.0000      -5.820612      -158.3869
  23   2.0000      -5.817413      -158.2999
  24   2.0000      -5.810389      -158.1087
  25   2.0000      -5.771254      -157.0438
  26   2.0000      -5.763807      -156.8412
  27   2.0000      -5.763023      -156.8198
  28   2.0000      -4.745236      -129.1244
  29   2.0000      -4.744709      -129.1101
  30   2.0000      -4.743255      -129.0705
  31   2.0000      -1.096363       -29.8336
  32   2.0000      -1.086303       -29.5598
  33   2.0000      -1.052287       -28.6342
  34   2.0000      -1.009088       -27.4587
  35   2.0000      -1.001340       -27.2479
  36   2.0000      -0.995092       -27.0778
  37   2.0000      -0.814974       -22.1766
  38   2.0000      -0.749897       -20.4057
  39   2.0000      -0.748100       -20.3568
  40   2.0000      -0.728950       -19.8357
  41   2.0000      -0.695588       -18.9279
  42   2.0000      -0.667992       -18.1770
  43   2.0000      -0.662050       -18.0153
  44   2.0000      -0.654474       -17.8091
  45   2.0000      -0.620073       -16.8730
  46   2.0000      -0.595958       -16.2168
  47   2.0000      -0.544260       -14.8101
  48   2.0000      -0.533771       -14.5247
  49   2.0000      -0.525501       -14.2996
  50   2.0000      -0.505633       -13.7590
  51   2.0000      -0.491090       -13.3632
  52   2.0000      -0.480900       -13.0859
  53   2.0000      -0.476523       -12.9668
  54   2.0000      -0.464178       -12.6309
  55   2.0000      -0.458931       -12.4881
  56   2.0000      -0.449067       -12.2197
  57   2.0000      -0.446996       -12.1634
  58   2.0000      -0.437957       -11.9174
  59   2.0000      -0.425331       -11.5738
  60   2.0000      -0.423580       -11.5262
  61   2.0000      -0.411975       -11.2104
  62   2.0000      -0.410919       -11.1817
  63   2.0000      -0.400287       -10.8924
  64   2.0000      -0.389944       -10.6109
  65   2.0000      -0.383753       -10.4424
  66   2.0000      -0.371150       -10.0995
  67   2.0000      -0.365532        -9.9466
  68   2.0000      -0.359827        -9.7914
  69   2.0000      -0.353547        -9.6205
  70   2.0000      -0.348938        -9.4951
  71   2.0000      -0.340871        -9.2756
  72   2.0000      -0.336264        -9.1502
  73   2.0000      -0.329692        -8.9714
  74   2.0000      -0.323692        -8.8081
  75   2.0000      -0.317053        -8.6275
  76   2.0000      -0.313515        -8.5312
  77   2.0000      -0.307330        -8.3629
  78   2.0000      -0.291925        -7.9437
  79   2.0000      -0.286414        -7.7937
  80   2.0000      -0.283525        -7.7151
  81   2.0000      -0.276377        -7.5206
  82   2.0000      -0.268588        -7.3086
  83   2.0000      -0.251382        -6.8404
  84   2.0000      -0.241741        -6.5781
  85   2.0000      -0.226812        -6.1719
  86   2.0000      -0.224019        -6.0959
  87   0.0000      -0.053874        -1.4660
  88   0.0000      -0.041086        -1.1180
  89   0.0000      -0.021835        -0.5942
  90   0.0000      -0.001444        -0.0393
  91   0.0000       0.011353         0.3089

MULLIKEN ATOMIC CHARGES
-----------------------
   0 C :   -0.505174
   1 C :   -0.128373
   2 O :   -0.175637
   3 C :    0.416229
   4 O :   -0.461535
   5 C :   -0.492283
   6 C :    0.086388
   7 H :    0.246071
   8 C :    0.253810
   9 O :   -0.444613
  10 O :   -0.131935
  11 C :   -0.151100
  12 C :   -0.491979
  13 S :   -0.188341
  14 P :    0.792755
  15 S :   -0.499126
  16 O :   -0.350526
  17 C :   -0.306010
  18 O :   -0.381830
  19 C :   -0.318832
  20 H :    0.170797
  21 H :    0.172465
  22 H :    0.169322
  23 H :    0.176056
  24 H :    0.176567
  25 H :    0.205631
  26 H :    0.213870
  27 H :    0.177901
  28 H :    0.178714
  29 H :    0.172327
  30 H :    0.166693
  31 H :    0.167884
  32 H :    0.182465
  33 H :    0.186535
  34 H :    0.179821
  35 H :    0.180105
  36 H :    0.176102
  37 H :    0.178787
Sum of atomic charges:   -0.0000000

LOEWDIN ATOMIC CHARGES
----------------------
   0 C :   -0.392432
   1 C :    0.036991
   2 O :   -0.585800
   3 C :    0.346457
   4 O :   -0.490715
   5 C :   -0.205154
   6 C :   -0.180465
   7 H :    0.224796
   8 C :    0.343677
   9 O :   -0.499398
  10 O :   -0.571347
  11 C :    0.042974
  12 C :   -0.386365
  13 S :    0.232384
  14 P :    0.410588
  15 S :   -0.102230
  16 O :   -0.672033
  17 C :   -0.044127
  18 O :   -0.700773
  19 C :   -0.060676
  20 H :    0.162674
  21 H :    0.168621
  22 H :    0.162409
  23 H :    0.190186
  24 H :    0.191792
  25 H :    0.203665
  26 H :    0.196739
  27 H :    0.188685
  28 H :    0.188596
  29 H :    0.170114
  30 H :    0.163948
  31 H :    0.164114
  32 H :    0.191998
  33 H :    0.181242
  34 H :    0.179692
  35 H :    0.185725
  36 H :    0.186533
  37 H :    0.176916

  Mayer bond orders larger than 0.100000
B(  0-C ,  1-C ) :   0.9235 B(  0-C , 20-H ) :   0.9692 B(  0-C , 21-H ) :   0.9596
B(  0-C , 22-H ) :   0.9678 B(  1-C ,  2-O ) :   0.7863 B(  1-C , 23-H ) :   0.9527
B(  1-C , 24-H ) :   0.9645 B(  2-O ,  3-C ) :   1.0644 B(  3-C ,  4-O ) :   1.7646
B(  3-C ,  5-C ) :   0.9248 B(  5-C ,  6-C ) :   0.8959 B(  5-C , 25-H ) :   0.9211
B(  5-C , 26-H ) :   0.9821 B(  6-C ,  7-H ) :   0.8518 B(  6-C ,  8-C ) :   0.9517
B(  6-C , 13-S ) :   0.8007 B(  8-C ,  9-O ) :   1.7365 B(  8-C , 10-O ) :   1.1873
B( 10-O , 11-C ) :   0.7657 B( 11-C , 12-C ) :   0.9463 B( 11-C , 27-H ) :   0.9482
B( 11-C , 28-H ) :   0.9371 B( 12-C , 29-H ) :   0.9606 B( 12-C , 30-H ) :   0.9675
B( 12-C , 31-H ) :   0.9721 B( 13-S , 14-P ) :   1.0124 B( 14-P , 15-S ) :   1.7443
B( 14-P , 16-O ) :   1.1784 B( 14-P , 18-O ) :   1.0212 B( 16-O , 17-C ) :   0.7924
B( 17-C , 32-H ) :   0.9541 B( 17-C , 33-H ) :   0.9533 B( 17-C , 34-H ) :   0.9475
B( 18-O , 19-C ) :   0.8262 B( 19-C , 35-H ) :   0.9421 B( 19-C , 36-H ) :   0.9581
B( 19-C , 37-H ) :   0.9550

Dispersion correction           -0.017688277
FINAL SINGLE POINT ENERGY     -1981.462169402855

DIPOLE MOMENT
-------------

Method             : SCF
Type of density    : Electron Density
Multiplicity       :   1
Irrep              :   0
Energy             : -1981.4819791376692137 Eh
Relativity type    :
Basis              : AO
                                X                 Y                 Z
Electronic contribution:     -9.581059357       1.212941366       4.372419466
Nuclear contribution   :     11.332134353      -1.248835413      -6.360326244
                        -----------------------------------------
Total Dipole Moment    :      1.751074996      -0.035894047      -1.987906777
                        -----------------------------------------
Magnitude (a.u.)       :      2.649400947
Magnitude (Debye)      :      6.734242029

Rotational constants in cm-1:             0.010603             0.008564             0.005986
Rotational constants in MHz :           317.873373           256.728143           179.452191

                             ****ORCA TERMINATED NORMALLY****
TOTAL RUN TIME: 0 days 0 hours 1 minutes 43 seconds 806 msec
