                         Program Version 6.0.1  -  RELEASE   -
|  1> ! pbe def2-sv(p) def2/J RI DEFGRID1 loosescf d4 GCP(DFT/SV(P)) printgap
|  2> %output
|  3>     printlevel normal
|  4> end
|  5> * xyz 0 1
|  6> C 1.4113509873 -3.8367978061 0.2996634787
|  7> C 2.3983360591 -2.6846252236 0.3018499788
|  8> O 2.0913453467 -1.8197806742 -0.8070888842
|  9> C 2.2231085887 -0.5173198827 -0.6806283035
| 10> O 2.5963203722 0.0582497361 0.3200713697
| 11> C 1.8245043017 0.2031738056 -1.9572968919
| 12> C 0.4685206487 0.8874911542 -1.7608780215
| 13> H 0.2409439968 1.506933213 -2.6328751492
| 14> C 0.4574844825 1.7557856453 -0.5200378365
| 15> O -0.3876682842 1.6292892079 0.3495590192
| 16> O 1.420896756 2.626031652 -0.5131806957
| 17> C 1.5682547201 3.4854318222 0.6382494654
| 18> C 0.6561800897 4.6962537568 0.5357245593
| 19> S -0.8977371853 -0.3133609532 -1.6549611556
| 20> P -1.3773769259 -0.5723199309 0.4167208617
| 21> S -0.157431398 -0.7535471888 1.943141234
| 22> O -2.7246610544 0.2630960997 0.6619106741
| 23> C -2.8720038589 1.4064010856 1.4994600157
| 24> O -2.0177569935 -2.0322991159 0.2541011555
| 25> C -3.0963070559 -2.3570267849 -0.6380536971
| 26> H 0.4058535263 -3.4663133519 0.4903661719
| 27> H 1.4278488862 -4.3389018681 -0.6629028738
| 28> H 1.6788612944 -4.5378547158 1.0828479626
| 29> H 3.4233912094 -3.0369575225 0.1582712455
| 30> H 2.337827155 -2.1042644284 1.2278466357
| 31> H 1.7556091503 -0.5147736007 -2.7725551831
| 32> H 2.573053912 0.9673976049 -2.1696108426
| 33> H 1.3556334371 2.8980709823 1.5358235232
| 34> H 2.6197640975 3.770569723 0.6189487582
| 35> H 0.8505300781 5.233936668 -0.3880273205
| 36> H -0.3863598552 4.3876807824 0.5581169578
| 37> H 0.8441508888 5.3527690321 1.3785798065
| 38> H -3.8652276963 1.3296647081 1.9371806822
| 39> H -2.7828046913 2.310429385 0.8993532855
| 40> H -2.1105870523 1.405079631 2.2803021491
| 41> H -3.9130385659 -1.6483922767 -0.5146258622
| 42> H -3.4091776469 -3.3578521109 -0.3506266893
| 43> H -2.7410487496 -2.3469409105 -1.6681781267
| 44> *
| 45>
| 46>                          ****END OF INPUT****

CARTESIAN COORDINATES (ANGSTROEM)
---------------------------------
  C      1.411351   -3.836798    0.299663
  C      2.398336   -2.684625    0.301850
  O      2.091345   -1.819781   -0.807089
  C      2.223109   -0.517320   -0.680628
  O      2.596320    0.058250    0.320071
  C      1.824504    0.203174   -1.957297
  C      0.468521    0.887491   -1.760878
  H      0.240944    1.506933   -2.632875
  C      0.457484    1.755786   -0.520038
  O     -0.387668    1.629289    0.349559
  O      1.420897    2.626032   -0.513181
  C      1.568255    3.485432    0.638249
  C      0.656180    4.696254    0.535725
  S     -0.897737   -0.313361   -1.654961
  P     -1.377377   -0.572320    0.416721
  S     -0.157431   -0.753547    1.943141
  O     -2.724661    0.263096    0.661911
  C     -2.872004    1.406401    1.499460
  O     -2.017757   -2.032299    0.254101
  C     -3.096307   -2.357027   -0.638054
  H      0.405854   -3.466313    0.490366
  H      1.427849   -4.338902   -0.662903
  H      1.678861   -4.537855    1.082848
  H      3.423391   -3.036958    0.158271
  H      2.337827   -2.104264    1.227847
  H      1.755609   -0.514774   -2.772555
  H      2.573054    0.967398   -2.169611
  H      1.355633    2.898071    1.535824
  H      2.619764    3.770570    0.618949
  H      0.850530    5.233937   -0.388027
  H     -0.386360    4.387681    0.558117
  H      0.844151    5.352769    1.378580
  H     -3.865228    1.329665    1.937181
  H     -2.782805    2.310429    0.899353
  H     -2.110587    1.405080    2.280302
  H     -3.913039   -1.648392   -0.514626
  H     -3.409178   -3.357852   -0.350627
  H     -2.741049   -2.346941   -1.668178

 Total Charge           Charge          ....    0
 Multiplicity           Mult            ....    1
 Number of Electrons    NEL             ....  174
 Basis Dimension        Dim             ....  316

ORBITAL ENERGIES
----------------

  NO   OCC          E(Eh)            E(eV)
   0   2.0000     -88.032839     -2395.4953
   1   2.0000     -87.962666     -2393.5858
   2   2.0000     -76.417976     -2079.4388
   3   2.0000     -18.822503      -512.1863
   4   2.0000     -18.794665      -511.4288
   5   2.0000     -18.775347      -510.9032
   6   2.0000     -18.770320      -510.7664
   7   2.0000     -18.768646      -510.7208
   8   2.0000     -18.730889      -509.6934
   9   2.0000     -10.033901      -273.0363
  10   2.0000     -10.004921      -272.2477
  11   2.0000      -9.958862      -270.9944
  12   2.0000      -9.957095      -270.9463
  13   2.0000      -9.935253      -270.3520
  14   2.0000      -9.932086      -270.2658
  15   2.0000      -9.930371      -270.2191
  16   2.0000      -9.913099      -269.7491
  17   2.0000      -9.896526      -269.2982
  18   2.0000      -9.867124      -268.4981
  19   2.0000      -7.677962      -208.9280
  20   2.0000      -7.607860      -207.0204
  21   2.0000      -6.412544      -174.4942
  22   2.0000      -5.706221      -155.2742
  23   2.0000      -5.702277      -155.1668
  24   2.0000      -5.694694      -154.9605
  25   2.0000      -5.637389      -153.4011
  26   2.0000      -5.628600      -153.1620
  27   2.0000      -5.627214      -153.1243
  28   2.0000      -4.635633      -126.1420
  29   2.0000      -4.634467      -126.1103
  30   2.0000      -4.633033      -126.0712
  31   2.0000      -1.035911       -28.1886
  32   2.0000      -1.001070       -27.2405
  33   2.0000      -0.966767       -26.3071
  34   2.0000      -0.943612       -25.6770
  35   2.0000      -0.921822       -25.0841
  36   2.0000      -0.908338       -24.7171
  37   2.0000      -0.769448       -20.9377
  38   2.0000      -0.715297       -19.4642
  39   2.0000      -0.700175       -19.0527
  40   2.0000      -0.684334       -18.6217
  41   2.0000      -0.651778       -17.7358
  42   2.0000      -0.628294       -17.0967
  43   2.0000      -0.625467       -17.0198
  44   2.0000      -0.602064       -16.3830
  45   2.0000      -0.586954       -15.9718
  46   2.0000      -0.561149       -15.2696
  47   2.0000      -0.514711       -14.0060
  48   2.0000      -0.503780       -13.7086
  49   2.0000      -0.496265       -13.5041
  50   2.0000      -0.488001       -13.2792
  51   2.0000      -0.469464       -12.7748
  52   2.0000      -0.456949       -12.4342
  53   2.0000      -0.450000       -12.2451
  54   2.0000      -0.432566       -11.7707
  55   2.0000      -0.430912       -11.7257
  56   2.0000      -0.424135       -11.5413
  57   2.0000      -0.414152       -11.2696
  58   2.0000      -0.410879       -11.1806
  59   2.0000      -0.404951       -11.0193
  60   2.0000      -0.398260       -10.8372
  61   2.0000      -0.397225       -10.8091
  62   2.0000      -0.388036       -10.5590
  63   2.0000      -0.380292       -10.3483
  64   2.0000      -0.372829       -10.1452
  65   2.0000      -0.367460        -9.9991
  66   2.0000      -0.357669        -9.7327
  67   2.0000      -0.350356        -9.5337
  68   2.0000      -0.341756        -9.2997
  69   2.0000      -0.339264        -9.2318
  70   2.0000      -0.330746        -9.0001
  71   2.0000      -0.329648        -8.9702
  72   2.0000      -0.310622        -8.4524
  73   2.0000      -0.306700        -8.3457
  74   2.0000      -0.301163        -8.1951
  75   2.0000      -0.289849        -7.8872
  76   2.0000      -0.285879        -7.7792
  77   2.0000      -0.282838        -7.6964
  78   2.0000      -0.280410        -7.6303
  79   2.0000      -0.260488        -7.0882
  80   2.0000      -0.251215        -6.8359
  81   2.0000      -0.249019        -6.7761
  82   2.0000      -0.244525        -6.6539
  83   2.0000      -0.216692        -5.8965
  84   2.0000      -0.211863        -5.7651
  85   2.0000      -0.182961        -4.9786
  86   2.0000      -0.171853        -4.6764
  87   0.0000      -0.046543        -1.2665
  88   0.0000      -0.038838        -1.0568
  89   0.0000      -0.024876        -0.6769
  90   0.0000      -0.003307        -0.0900
  91   0.0000       0.034220         0.9312

MULLIKEN ATOMIC CHARGES
-----------------------
   0 C :   -0.293616
   1 C :   -0.029413
   2 O :   -0.220840
   3 C :    0.091902
   4 O :   -0.199032
   5 C :   -0.026838
   6 C :   -0.302022
   7 H :    0.154217
   8 C :    0.230432
   9 O :   -0.204987
  10 O :   -0.210768
  11 C :   -0.006448
  12 C :   -0.315221
  13 S :   -0.128885
  14 P :    0.645372
  15 S :   -0.314710
  16 O :   -0.400953
  17 C :   -0.083885
  18 O :   -0.378350
  19 C :   -0.117285
  20 H :    0.134653
  21 H :    0.100552
  22 H :    0.102711
  23 H :    0.093943
  24 H :    0.131224
  25 H :    0.113554
  26 H :    0.120642
  27 H :    0.131242
  28 H :    0.112277
  29 H :    0.115074
  30 H :    0.128879
  31 H :    0.120547
  32 H :    0.114408
  33 H :    0.106639
  34 H :    0.117673
  35 H :    0.119083
  36 H :    0.125831
  37 H :    0.122397
Sum of atomic charges:    0.0000000

LOEWDIN ATOMIC CHARGES
----------------------
   0 C :   -0.356755
   1 C :   -0.112859
   2 O :   -0.047620
   3 C :    0.020016
   4 O :   -0.162506
   5 C :   -0.246291
   6 C :   -0.256786
   7 H :    0.149426
   8 C :    0.031959
   9 O :   -0.147040
  10 O :   -0.026011
  11 C :   -0.101500
  12 C :   -0.356918
  13 S :    0.085317
  14 P :    0.581202
  15 S :   -0.307343
  16 O :   -0.261232
  17 C :   -0.209621
  18 O :   -0.259706
  19 C :   -0.217897
  20 H :    0.127262
  21 H :    0.119449
  22 H :    0.127334
  23 H :    0.111223
  24 H :    0.120444
  25 H :    0.135541
  26 H :    0.143627
  27 H :    0.131576
  28 H :    0.124034
  29 H :    0.125539
  30 H :    0.128687
  31 H :    0.134809
  32 H :    0.115096
  33 H :    0.106834
  34 H :    0.110497
  35 H :    0.111797
  36 H :    0.122866
  37 H :    0.105553

  Mayer bond orders larger than 0.100000
B(  0-C ,  1-C ) :   1.1693 B(  0-C , 20-H ) :   0.9321 B(  0-C , 21-H ) :   0.9479
B(  0-C , 22-H ) :   0.9434 B(  1-C ,  2-O ) :   0.8968 B(  1-C , 23-H ) :   0.9340
B(  1-C , 24-H ) :   0.9038 B(  2-O ,  3-C ) :   1.2561 B(  2-O ,  4-O ) :   0.1066
B(  3-C ,  4-O ) :   2.0216 B(  3-C ,  5-C ) :   0.9886 B(  5-C ,  6-C ) :   1.0372
B(  5-C , 25-H ) :   0.9014 B(  5-C , 26-H ) :   0.8804 B(  6-C ,  7-H ) :   0.8739
B(  6-C ,  8-C ) :   0.9155 B(  6-C , 13-S ) :   1.0538 B(  8-C ,  9-O ) :   1.8728
B(  8-C , 10-O ) :   1.2878 B(  9-O , 14-P ) :   0.1516 B( 10-O , 11-C ) :   0.8927
B( 11-C , 12-C ) :   1.1694 B( 11-C , 27-H ) :   0.9170 B( 11-C , 28-H ) :   0.9370
B( 12-C , 29-H ) :   0.9470 B( 12-C , 30-H ) :   0.9448 B( 12-C , 31-H ) :   0.9436
B( 13-S , 14-P ) :   0.9155 B( 13-S , 15-S ) :   0.1137 B( 14-P , 15-S ) :   1.5784
B( 14-P , 16-O ) :   1.0675 B( 14-P , 18-O ) :   1.0606 B( 16-O , 17-C ) :   0.9360
B( 17-C , 32-H ) :   0.9543 B( 17-C , 33-H ) :   0.9539 B( 17-C , 34-H ) :   0.9355
B( 18-O , 19-C ) :   0.9357 B( 19-C , 35-H ) :   0.9433 B( 19-C , 36-H ) :   0.9603
B( 19-C , 37-H ) :   0.9404

Dispersion correction           -0.055203208
FINAL SINGLE POINT ENERGY     -1979.004048167742

DIPOLE MOMENT
-------------

Method             : SCF
Type of density    : Electron Density
Multiplicity       :   1
Irrep              :   0
Energy             : -1979.1333102780859008 Eh
Relativity type    :
Basis              : AO
                                X                 Y                 Z
Electronic contribution:     -1.721437317      -2.969428425      -1.682602899
Nuclear contribution   :      1.562084026       4.127684771       0.569142104
                        -----------------------------------------
Total Dipole Moment    :     -0.159353291       1.158256347      -1.113460795
                        -----------------------------------------
Magnitude (a.u.)       :      1.614542096
Magnitude (Debye)      :      4.103839870

Rotational constants in cm-1:             0.011846             0.009740             0.007095
Rotational constants in MHz :           355.138607           291.985870           212.688236

                             ****ORCA TERMINATED NORMALLY****
TOTAL RUN TIME: 0 days 0 hours 0 minutes 41 seconds 355 msec
