                         Program Version 6.0.0  -   RELEASE  -
|  1> ! pbe def2-sv(p) def2/J RI DEFGRID1 loosescf d4 GCP(DFT/SV(P)) printgap
|  2> %output
|  3>     printlevel normal
|  4> end
|  5> * xyz 0 1
|  6> C 5.4288012006 -0.2129512569 -0.8869089129
|  7> C 4.4469803644 -0.9387636193 0.0124853877
|  8> O 3.4438428144 -0.0334077496 0.5138530829
|  9> P 2.020273059 0.1244543723 -0.1799231886
| 10> S 2.0356546782 0.4649945388 -2.1139408231
| 11> O 1.363501141 1.214109326 0.7590725133
| 12> C 1.4528057002 2.6245080449 0.4804694759
| 13> C 2.8749683323 3.1297366541 0.586232094
| 14> S 1.070838894 -1.6460157009 0.4436027063
| 15> C -0.1569089117 -1.8909416912 -0.8891237142
| 16> S -1.8512047416 -1.9422760119 -0.2716162929
| 17> P -2.0569543169 0.1214811588 0.1953381188
| 18> S -1.3390992603 1.3733276501 -1.1292322919
| 19> O -1.3959258819 0.3381956358 1.6097487622
| 20> C -1.4519597519 -0.5595252454 2.747326922
| 21> C -2.8648827212 -0.9235999453 3.145981102
| 22> O -3.6059251252 0.3049217103 0.4919412636
| 23> C -4.5648783073 0.6027933366 -0.5372474464
| 24> C -4.7445684959 -0.5459970069 -1.5085512545
| 25> H 5.883964869 0.615946277 -0.3520817219
| 26> H 6.2023902511 -0.9050420989 -1.2031902749
| 27> H 4.9175288154 0.1724712741 -1.7665210694
| 28> H 4.9377402214 -1.3286298059 0.9060850338
| 29> H 3.9596206332 -1.7586946071 -0.5230134609
| 30> H 1.0434805044 2.8068758522 -0.5191807698
| 31> H 0.796406565 3.0767605983 1.2256755719
| 32> H 3.2948295693 2.8672190603 1.5537793192
| 33> H 3.4830858748 2.6796032442 -0.1977207016
| 34> H 2.8823010196 4.2083635225 0.4644107456
| 35> H 0.030870401 -2.859987319 -1.3437920247
| 36> H -0.043895166 -1.0832138222 -1.6181371699
| 37> H -0.8698744584 -1.4538164736 2.505880632
| 38> H -0.9421112505 0.0060096533 3.5288097989
| 39> H -3.3356240007 -1.5198568594 2.3672306271
| 40> H -2.8312009616 -1.5031196147 4.0634803882
| 41> H -3.4551516149 -0.0255342899 3.3078946713
| 42> H -5.4817176046 0.8092364648 0.0166197697
| 43> H -4.2377291448 1.5044395793 -1.0647254188
| 44> H -5.5735554861 -0.3250776113 -2.1732443953
| 45> H -3.8425435818 -0.6759681565 -2.1043452741
| 46> H -4.9473975252 -1.4690948413 -0.9717801571
| 47> *
| 48>
| 49>                          ****END OF INPUT****

CARTESIAN COORDINATES (ANGSTROEM)
---------------------------------
  C      5.428801   -0.212951   -0.886909
  C      4.446980   -0.938764    0.012485
  O      3.443843   -0.033408    0.513853
  P      2.020273    0.124454   -0.179923
  S      2.035655    0.464995   -2.113941
  O      1.363501    1.214109    0.759073
  C      1.452806    2.624508    0.480469
  C      2.874968    3.129737    0.586232
  S      1.070839   -1.646016    0.443603
  C     -0.156909   -1.890942   -0.889124
  S     -1.851205   -1.942276   -0.271616
  P     -2.056954    0.121481    0.195338
  S     -1.339099    1.373328   -1.129232
  O     -1.395926    0.338196    1.609749
  C     -1.451960   -0.559525    2.747327
  C     -2.864883   -0.923600    3.145981
  O     -3.605925    0.304922    0.491941
  C     -4.564878    0.602793   -0.537247
  C     -4.744568   -0.545997   -1.508551
  H      5.883965    0.615946   -0.352082
  H      6.202390   -0.905042   -1.203190
  H      4.917529    0.172471   -1.766521
  H      4.937740   -1.328630    0.906085
  H      3.959621   -1.758695   -0.523013
  H      1.043481    2.806876   -0.519181
  H      0.796407    3.076761    1.225676
  H      3.294830    2.867219    1.553779
  H      3.483086    2.679603   -0.197721
  H      2.882301    4.208364    0.464411
  H      0.030870   -2.859987   -1.343792
  H     -0.043895   -1.083214   -1.618137
  H     -0.869874   -1.453816    2.505881
  H     -0.942111    0.006010    3.528810
  H     -3.335624   -1.519857    2.367231
  H     -2.831201   -1.503120    4.063480
  H     -3.455152   -0.025534    3.307895
  H     -5.481718    0.809236    0.016620
  H     -4.237729    1.504440   -1.064725
  H     -5.573555   -0.325078   -2.173244
  H     -3.842544   -0.675968   -2.104345
  H     -4.947398   -1.469095   -0.971780

 Total Charge           Charge          ....    0
 Multiplicity           Mult            ....    1
 Number of Electrons    NEL             ....  202
 Basis Dimension        Dim             ....  334

ORBITAL ENERGIES
----------------

  NO   OCC          E(Eh)            E(eV)
   0   2.0000     -88.045937     -2395.8518
   1   2.0000     -88.042019     -2395.7451
   2   2.0000     -87.981932     -2394.1101
   3   2.0000     -87.979685     -2394.0490
   4   2.0000     -76.424432     -2079.6145
   5   2.0000     -76.421316     -2079.5297
   6   2.0000     -18.793469      -511.3963
   7   2.0000     -18.788424      -511.2590
   8   2.0000     -18.787856      -511.2435
   9   2.0000     -18.779728      -511.0224
  10   2.0000      -9.955360      -270.8991
  11   2.0000      -9.952367      -270.8177
  12   2.0000      -9.951186      -270.7855
  13   2.0000      -9.951144      -270.7844
  14   2.0000      -9.938515      -270.4407
  15   2.0000      -9.885512      -268.9985
  16   2.0000      -9.884071      -268.9592
  17   2.0000      -9.878747      -268.8144
  18   2.0000      -9.875444      -268.7245
  19   2.0000      -7.690844      -209.2785
  20   2.0000      -7.687099      -209.1766
  21   2.0000      -7.626849      -207.5371
  22   2.0000      -7.624596      -207.4758
  23   2.0000      -6.421731      -174.7442
  24   2.0000      -6.418849      -174.6658
  25   2.0000      -5.718657      -155.6126
  26   2.0000      -5.715199      -155.5185
  27   2.0000      -5.714922      -155.5109
  28   2.0000      -5.711503      -155.4179
  29   2.0000      -5.708059      -155.3242
  30   2.0000      -5.704170      -155.2184
  31   2.0000      -5.655696      -153.8993
  32   2.0000      -5.653592      -153.8421
  33   2.0000      -5.647635      -153.6800
  34   2.0000      -5.646923      -153.6606
  35   2.0000      -5.645116      -153.6114
  36   2.0000      -5.644746      -153.6013
  37   2.0000      -4.644503      -126.3834
  38   2.0000      -4.643611      -126.3591
  39   2.0000      -4.641927      -126.3133
  40   2.0000      -4.641168      -126.2926
  41   2.0000      -4.640529      -126.2752
  42   2.0000      -4.639640      -126.2510
  43   2.0000      -0.985328       -26.8122
  44   2.0000      -0.980656       -26.6850
  45   2.0000      -0.943555       -25.6754
  46   2.0000      -0.937809       -25.5191
  47   2.0000      -0.762472       -20.7479
  48   2.0000      -0.718356       -19.5475
  49   2.0000      -0.706789       -19.2327
  50   2.0000      -0.689537       -18.7633
  51   2.0000      -0.681254       -18.5379
  52   2.0000      -0.673283       -18.3210
  53   2.0000      -0.649142       -17.6641
  54   2.0000      -0.632410       -17.2088
  55   2.0000      -0.598345       -16.2818
  56   2.0000      -0.589912       -16.0523
  57   2.0000      -0.575545       -15.6614
  58   2.0000      -0.565797       -15.3961
  59   2.0000      -0.558771       -15.2049
  60   2.0000      -0.497824       -13.5465
  61   2.0000      -0.489434       -13.3182
  62   2.0000      -0.469788       -12.7836
  63   2.0000      -0.466547       -12.6954
  64   2.0000      -0.449033       -12.2188
  65   2.0000      -0.444642       -12.0993
  66   2.0000      -0.439677       -11.9642
  67   2.0000      -0.434352       -11.8193
  68   2.0000      -0.429156       -11.6779
  69   2.0000      -0.414235       -11.2719
  70   2.0000      -0.408367       -11.1122
  71   2.0000      -0.396525       -10.7900
  72   2.0000      -0.393667       -10.7122
  73   2.0000      -0.382405       -10.4058
  74   2.0000      -0.379552       -10.3281
  75   2.0000      -0.369343       -10.0503
  76   2.0000      -0.365104        -9.9350
  77   2.0000      -0.359657        -9.7868
  78   2.0000      -0.351218        -9.5571
  79   2.0000      -0.349703        -9.5159
  80   2.0000      -0.345785        -9.4093
  81   2.0000      -0.341822        -9.3014
  82   2.0000      -0.335528        -9.1302
  83   2.0000      -0.333701        -9.0805
  84   2.0000      -0.328959        -8.9514
  85   2.0000      -0.313929        -8.5424
  86   2.0000      -0.309355        -8.4180
  87   2.0000      -0.294137        -8.0039
  88   2.0000      -0.291476        -7.9315
  89   2.0000      -0.290724        -7.9110
  90   2.0000      -0.276741        -7.5305
  91   2.0000      -0.270799        -7.3688
  92   2.0000      -0.263261        -7.1637
  93   2.0000      -0.260869        -7.0986
  94   2.0000      -0.258313        -7.0290
  95   2.0000      -0.237963        -6.4753
  96   2.0000      -0.221982        -6.0404
  97   2.0000      -0.212195        -5.7741
  98   2.0000      -0.201804        -5.4914
  99   2.0000      -0.193249        -5.2586
 100   2.0000      -0.184032        -5.0078
 101   0.0000      -0.039910        -1.0860
 102   0.0000      -0.029608        -0.8057
 103   0.0000      -0.009335        -0.2540
 104   0.0000       0.013330         0.3627
 105   0.0000       0.022615         0.6154

MULLIKEN ATOMIC CHARGES
-----------------------
   0 C :   -0.292682
   1 C :   -0.006827
   2 O :   -0.374402
   3 P :    0.609199
   4 S :   -0.317405
   5 O :   -0.352373
   6 C :   -0.002404
   7 C :   -0.305882
   8 S :   -0.102677
   9 C :   -0.348846
  10 S :   -0.112055
  11 P :    0.597437
  12 S :   -0.303503
  13 O :   -0.349643
  14 C :   -0.001752
  15 C :   -0.304315
  16 O :   -0.374313
  17 C :   -0.001125
  18 C :   -0.318845
  19 H :    0.113946
  20 H :    0.106235
  21 H :    0.128538
  22 H :    0.104876
  23 H :    0.097049
  24 H :    0.123318
  25 H :    0.102478
  26 H :    0.112398
  27 H :    0.123578
  28 H :    0.108915
  29 H :    0.182562
  30 H :    0.210787
  31 H :    0.113939
  32 H :    0.108016
  33 H :    0.116252
  34 H :    0.111844
  35 H :    0.120083
  36 H :    0.104009
  37 H :    0.113540
  38 H :    0.114324
  39 H :    0.130547
  40 H :    0.115176
Sum of atomic charges:   -0.0000000

LOEWDIN ATOMIC CHARGES
----------------------
   0 C :   -0.363682
   1 C :   -0.117397
   2 O :   -0.247108
   3 P :    0.568610
   4 S :   -0.310195
   5 O :   -0.229627
   6 C :   -0.118109
   7 C :   -0.366820
   8 S :    0.081572
   9 C :   -0.478351
  10 S :    0.075016
  11 P :    0.568068
  12 S :   -0.293185
  13 O :   -0.229475
  14 C :   -0.115352
  15 C :   -0.366529
  16 O :   -0.242386
  17 C :   -0.118207
  18 C :   -0.371121
  19 H :    0.124794
  20 H :    0.128052
  21 H :    0.124388
  22 H :    0.117454
  23 H :    0.105363
  24 H :    0.109239
  25 H :    0.118796
  26 H :    0.123982
  27 H :    0.121298
  28 H :    0.129164
  29 H :    0.137436
  30 H :    0.126994
  31 H :    0.101859
  32 H :    0.122394
  33 H :    0.117195
  34 H :    0.130583
  35 H :    0.127598
  36 H :    0.118256
  37 H :    0.112663
  38 H :    0.131805
  39 H :    0.122613
  40 H :    0.122352

  Mayer bond orders larger than 0.100000
B(  0-C ,  1-C ) :   1.1680 B(  0-C , 19-H ) :   0.9458 B(  0-C , 20-H ) :   0.9399
B(  0-C , 21-H ) :   0.9308 B(  1-C ,  2-O ) :   0.9078 B(  1-C , 22-H ) :   0.9361
B(  1-C , 23-H ) :   0.9128 B(  2-O ,  3-P ) :   1.0957 B(  3-P ,  4-S ) :   1.6021
B(  3-P ,  5-O ) :   1.1541 B(  3-P ,  8-S ) :   0.9595 B(  4-S ,  8-S ) :   0.1158
B(  5-O ,  6-C ) :   0.9003 B(  6-C ,  7-C ) :   1.1581 B(  6-C , 24-H ) :   0.9128
B(  6-C , 25-H ) :   0.9359 B(  7-C , 26-H ) :   0.9448 B(  7-C , 27-H ) :   0.9344
B(  7-C , 28-H ) :   0.9387 B(  8-S ,  9-C ) :   0.9912 B(  9-C , 10-S ) :   1.0057
B(  9-C , 29-H ) :   0.9111 B(  9-C , 30-H ) :   0.8466 B( 10-S , 11-P ) :   0.9335
B( 10-S , 12-S ) :   0.1043 B( 11-P , 12-S ) :   1.6318 B( 11-P , 13-O ) :   1.1529
B( 11-P , 16-O ) :   1.0903 B( 13-O , 14-C ) :   0.8982 B( 14-C , 15-C ) :   1.1692
B( 14-C , 31-H ) :   0.9090 B( 14-C , 32-H ) :   0.9351 B( 15-C , 33-H ) :   0.9385
B( 15-C , 34-H ) :   0.9361 B( 15-C , 35-H ) :   0.9434 B( 16-O , 17-C ) :   0.9058
B( 17-C , 18-C ) :   1.1657 B( 17-C , 36-H ) :   0.9339 B( 17-C , 37-H ) :   0.9146
B( 18-C , 38-H ) :   0.9376 B( 18-C , 39-H ) :   0.9344 B( 18-C , 40-H ) :   0.9448

Dispersion correction           -0.068218873
FINAL SINGLE POINT ENERGY     -2929.520054379508

DIPOLE MOMENT
-------------

Method             : SCF
Type of density    : Electron Density
Multiplicity       :   1
Irrep              :   0
Energy             : -2929.6378956734329222 Eh
Relativity type    :
Basis              : AO
                                X                 Y                 Z
Electronic contribution:     -2.090167324      -4.067921591      -4.838373390
Nuclear contribution   :      1.788031750       3.459461544       5.849957944
                        -----------------------------------------
Total Dipole Moment    :     -0.302135574      -0.608460046       1.011584554
                        -----------------------------------------
Magnitude (a.u.)       :      1.218528967
Magnitude (Debye)      :      3.097254491

Rotational constants in cm-1:             0.013798             0.005044             0.004921
Rotational constants in MHz :           413.638844           151.212043           147.539647

                             ****ORCA TERMINATED NORMALLY****
TOTAL RUN TIME: 0 days 0 hours 0 minutes 21 seconds 862 msec
