                         Program Version 6.0.0  -   RELEASE  -
|  1> ! pbe def2-sv(p) def2/J RI DEFGRID1 loosescf d4 GCP(DFT/SV(P)) printgap
|  2> %output
|  3>     printlevel normal
|  4> end
|  5> * xyz 0 1
|  6> C 4.1103506269 -1.870067265 -1.3093271697
|  7> C 4.6126481355 -0.4587528854 -1.0781760366
|  8> O 3.8132919317 0.2613459186 -0.1278656265
|  9> P 2.2830363965 0.6372148112 -0.3804382631
| 10> S 1.9135932027 1.1548036702 -2.2332122225
| 11> O 2.0990330746 1.8228632605 0.6382508868
| 12> C 1.8486982477 1.7057248577 2.0579234214
| 13> C 2.9013576317 0.8871755959 2.7725513153
| 14> S 1.2062163386 -1.0247943492 0.3915720388
| 15> C 0.1047967077 -1.390364492 -1.017204411
| 16> S -1.5797180872 -1.7887637503 -0.5163040732
| 17> P -2.3447295624 0.140021828 -0.0207290891
| 18> S -1.0465939437 1.6120387937 -0.0850668792
| 19> O -3.0972936774 -0.0330999925 1.3692273491
| 20> C -2.4340685427 0.0835389265 2.6403884322
| 21> C -1.6381139244 -1.1589106727 2.9873519164
| 22> O -3.5435268101 0.3962765713 -1.0123314542
| 23> C -4.8671907358 -0.1815918355 -0.8877416055
| 24> C -4.8517378941 -1.6938881648 -0.9470145539
| 25> H 3.9854340752 -2.389555592 -0.3627127604
| 26> H 3.1541280501 -1.8385285817 -1.8302501901
| 27> H 4.8248918359 -2.4070152271 -1.9248371751
| 28> H 4.6204900498 0.1026879801 -2.0179642184
| 29> H 5.6092363277 -0.4532651044 -0.6344471589
| 30> H 1.839997803 2.7440409574 2.3926544949
| 31> H 0.8524347635 1.2738961894 2.1880206802
| 32> H 3.8890754319 1.2965221602 2.5780905026
| 33> H 2.7028829692 0.9098652164 3.8394566039
| 34> H 2.8730756184 -0.1452097924 2.4274536765
| 35> H 0.4714562752 -2.2819987924 -1.5201474486
| 36> H 0.1134835786 -0.5268612284 -1.6870111257
| 37> H -1.7926160764 0.9708029701 2.6150966533
| 38> H -3.2512462996 0.2428623383 3.345936804
| 39> H -0.7847443724 -1.2706456853 2.3208261711
| 40> H -1.2756463958 -1.0740464874 4.0066920855
| 41> H -2.2652184274 -2.0420431354 2.9021001435
| 42> H -5.3022262518 0.1689528696 0.0499037866
| 43> H -5.4058484367 0.2503124944 -1.7325734118
| 44> H -5.873974252 -2.0581810075 -0.9178236405
| 45> H -4.3756553098 -2.0355373252 -1.8622918752
| 46> H -4.3055191438 -2.0994838558 -0.0971982669
| 47> *
| 48>
| 49>                          ****END OF INPUT****

CARTESIAN COORDINATES (ANGSTROEM)
---------------------------------
  C      4.110351   -1.870067   -1.309327
  C      4.612648   -0.458753   -1.078176
  O      3.813292    0.261346   -0.127866
  P      2.283036    0.637215   -0.380438
  S      1.913593    1.154804   -2.233212
  O      2.099033    1.822863    0.638251
  C      1.848698    1.705725    2.057923
  C      2.901358    0.887176    2.772551
  S      1.206216   -1.024794    0.391572
  C      0.104797   -1.390364   -1.017204
  S     -1.579718   -1.788764   -0.516304
  P     -2.344730    0.140022   -0.020729
  S     -1.046594    1.612039   -0.085067
  O     -3.097294   -0.033100    1.369227
  C     -2.434069    0.083539    2.640388
  C     -1.638114   -1.158911    2.987352
  O     -3.543527    0.396277   -1.012331
  C     -4.867191   -0.181592   -0.887742
  C     -4.851738   -1.693888   -0.947015
  H      3.985434   -2.389556   -0.362713
  H      3.154128   -1.838529   -1.830250
  H      4.824892   -2.407015   -1.924837
  H      4.620490    0.102688   -2.017964
  H      5.609236   -0.453265   -0.634447
  H      1.839998    2.744041    2.392654
  H      0.852435    1.273896    2.188021
  H      3.889075    1.296522    2.578091
  H      2.702883    0.909865    3.839457
  H      2.873076   -0.145210    2.427454
  H      0.471456   -2.281999   -1.520147
  H      0.113484   -0.526861   -1.687011
  H     -1.792616    0.970803    2.615097
  H     -3.251246    0.242862    3.345937
  H     -0.784744   -1.270646    2.320826
  H     -1.275646   -1.074046    4.006692
  H     -2.265218   -2.042043    2.902100
  H     -5.302226    0.168953    0.049904
  H     -5.405848    0.250312   -1.732573
  H     -5.873974   -2.058181   -0.917824
  H     -4.375655   -2.035537   -1.862292
  H     -4.305519   -2.099484   -0.097198

 Total Charge           Charge          ....    0
 Multiplicity           Mult            ....    1
 Number of Electrons    NEL             ....  202
 Basis Dimension        Dim             ....  334

ORBITAL ENERGIES
----------------

  NO   OCC          E(Eh)            E(eV)
   0   2.0000     -88.045455     -2395.8386
   1   2.0000     -88.040611     -2395.7068
   2   2.0000     -87.982642     -2394.1294
   3   2.0000     -87.978040     -2394.0042
   4   2.0000     -76.425514     -2079.6440
   5   2.0000     -76.421007     -2079.5213
   6   2.0000     -18.795106      -511.4408
   7   2.0000     -18.789934      -511.3001
   8   2.0000     -18.784682      -511.1572
   9   2.0000     -18.781301      -511.0652
  10   2.0000      -9.958639      -270.9883
  11   2.0000      -9.956547      -270.9314
  12   2.0000      -9.953617      -270.8517
  13   2.0000      -9.951327      -270.7894
  14   2.0000      -9.946634      -270.6617
  15   2.0000      -9.892820      -269.1973
  16   2.0000      -9.886777      -269.0329
  17   2.0000      -9.885826      -269.0070
  18   2.0000      -9.881439      -268.8876
  19   2.0000      -7.690192      -209.2608
  20   2.0000      -7.684693      -209.1111
  21   2.0000      -7.627251      -207.5481
  22   2.0000      -7.623173      -207.4371
  23   2.0000      -6.423084      -174.7810
  24   2.0000      -6.417929      -174.6407
  25   2.0000      -5.718159      -155.5990
  26   2.0000      -5.714507      -155.4997
  27   2.0000      -5.712589      -155.4475
  28   2.0000      -5.709274      -155.3573
  29   2.0000      -5.707326      -155.3042
  30   2.0000      -5.701709      -155.1514
  31   2.0000      -5.656375      -153.9178
  32   2.0000      -5.652203      -153.8043
  33   2.0000      -5.647746      -153.6830
  34   2.0000      -5.647390      -153.6733
  35   2.0000      -5.643867      -153.5774
  36   2.0000      -5.643109      -153.5568
  37   2.0000      -4.646054      -126.4256
  38   2.0000      -4.644601      -126.3860
  39   2.0000      -4.643377      -126.3527
  40   2.0000      -4.640574      -126.2764
  41   2.0000      -4.639722      -126.2533
  42   2.0000      -4.638401      -126.2173
  43   2.0000      -0.989415       -26.9233
  44   2.0000      -0.979304       -26.6482
  45   2.0000      -0.945088       -25.7171
  46   2.0000      -0.936946       -25.4956
  47   2.0000      -0.760184       -20.6857
  48   2.0000      -0.719123       -19.5683
  49   2.0000      -0.710189       -19.3252
  50   2.0000      -0.694135       -18.8884
  51   2.0000      -0.686012       -18.6673
  52   2.0000      -0.678456       -18.4617
  53   2.0000      -0.650049       -17.6887
  54   2.0000      -0.631635       -17.1877
  55   2.0000      -0.599863       -16.3231
  56   2.0000      -0.591275       -16.0894
  57   2.0000      -0.581675       -15.8282
  58   2.0000      -0.571109       -15.5407
  59   2.0000      -0.560032       -15.2392
  60   2.0000      -0.498990       -13.5782
  61   2.0000      -0.488438       -13.2911
  62   2.0000      -0.473799       -12.8927
  63   2.0000      -0.465126       -12.6567
  64   2.0000      -0.453382       -12.3372
  65   2.0000      -0.450634       -12.2624
  66   2.0000      -0.445806       -12.1310
  67   2.0000      -0.434873       -11.8335
  68   2.0000      -0.429127       -11.6771
  69   2.0000      -0.423357       -11.5201
  70   2.0000      -0.414457       -11.2780
  71   2.0000      -0.401240       -10.9183
  72   2.0000      -0.395051       -10.7499
  73   2.0000      -0.386543       -10.5184
  74   2.0000      -0.381230       -10.3738
  75   2.0000      -0.369715       -10.0605
  76   2.0000      -0.362755        -9.8711
  77   2.0000      -0.360254        -9.8030
  78   2.0000      -0.354734        -9.6528
  79   2.0000      -0.352706        -9.5976
  80   2.0000      -0.350778        -9.5451
  81   2.0000      -0.345830        -9.4105
  82   2.0000      -0.342653        -9.3241
  83   2.0000      -0.341701        -9.2981
  84   2.0000      -0.334000        -9.0886
  85   2.0000      -0.314092        -8.5469
  86   2.0000      -0.305741        -8.3196
  87   2.0000      -0.299105        -8.1391
  88   2.0000      -0.297468        -8.0945
  89   2.0000      -0.288375        -7.8471
  90   2.0000      -0.284883        -7.7521
  91   2.0000      -0.276089        -7.5128
  92   2.0000      -0.269764        -7.3407
  93   2.0000      -0.259301        -7.0559
  94   2.0000      -0.255646        -6.9565
  95   2.0000      -0.234733        -6.3874
  96   2.0000      -0.215353        -5.8600
  97   2.0000      -0.210513        -5.7283
  98   2.0000      -0.198461        -5.4004
  99   2.0000      -0.192142        -5.2284
 100   2.0000      -0.184732        -5.0268
 101   0.0000      -0.042952        -1.1688
 102   0.0000      -0.032461        -0.8833
 103   0.0000      -0.016482        -0.4485
 104   0.0000      -0.000164        -0.0045
 105   0.0000       0.013833         0.3764

MULLIKEN ATOMIC CHARGES
-----------------------
   0 C :   -0.317787
   1 C :    0.004518
   2 O :   -0.375375
   3 P :    0.609911
   4 S :   -0.297915
   5 O :   -0.354577
   6 C :   -0.017727
   7 C :   -0.311854
   8 S :   -0.134196
   9 C :   -0.319336
  10 S :   -0.129770
  11 P :    0.607644
  12 S :   -0.289187
  13 O :   -0.385113
  14 C :   -0.010400
  15 C :   -0.328149
  16 O :   -0.359785
  17 C :    0.008020
  18 C :   -0.333983
  19 H :    0.116911
  20 H :    0.118141
  21 H :    0.110693
  22 H :    0.110958
  23 H :    0.101384
  24 H :    0.110811
  25 H :    0.124159
  26 H :    0.124288
  27 H :    0.111057
  28 H :    0.124646
  29 H :    0.182376
  30 H :    0.205722
  31 H :    0.117383
  32 H :    0.103586
  33 H :    0.150276
  34 H :    0.108260
  35 H :    0.113439
  36 H :    0.110360
  37 H :    0.113474
  38 H :    0.117768
  39 H :    0.130740
  40 H :    0.128632
Sum of atomic charges:   -0.0000000

LOEWDIN ATOMIC CHARGES
----------------------
   0 C :   -0.371400
   1 C :   -0.118021
   2 O :   -0.249627
   3 P :    0.575194
   4 S :   -0.297407
   5 O :   -0.227683
   6 C :   -0.117113
   7 C :   -0.366775
   8 S :    0.070084
   9 C :   -0.478713
  10 S :    0.077907
  11 P :    0.565126
  12 S :   -0.281693
  13 O :   -0.248534
  14 C :   -0.116976
  15 C :   -0.372648
  16 O :   -0.238353
  17 C :   -0.108179
  18 C :   -0.371517
  19 H :    0.122478
  20 H :    0.117946
  21 H :    0.129376
  22 H :    0.111283
  23 H :    0.117132
  24 H :    0.123779
  25 H :    0.104803
  26 H :    0.130163
  27 H :    0.130466
  28 H :    0.115633
  29 H :    0.134064
  30 H :    0.126547
  31 H :    0.108535
  32 H :    0.118273
  33 H :    0.113022
  34 H :    0.129392
  35 H :    0.124835
  36 H :    0.114973
  37 H :    0.124206
  38 H :    0.133620
  39 H :    0.129114
  40 H :    0.116687

  Mayer bond orders larger than 0.100000
B(  0-C ,  1-C ) :   1.1634 B(  0-C , 19-H ) :   0.9424 B(  0-C , 20-H ) :   0.9356
B(  0-C , 21-H ) :   0.9373 B(  1-C ,  2-O ) :   0.9197 B(  1-C , 22-H ) :   0.9166
B(  1-C , 23-H ) :   0.9345 B(  2-O ,  3-P ) :   1.0798 B(  3-P ,  4-S ) :   1.6187
B(  3-P ,  5-O ) :   1.1453 B(  3-P ,  8-S ) :   0.9373 B(  4-S ,  8-S ) :   0.1120
B(  4-S , 30-H ) :   0.1022 B(  5-O ,  6-C ) :   0.9016 B(  6-C ,  7-C ) :   1.1651
B(  6-C , 24-H ) :   0.9341 B(  6-C , 25-H ) :   0.9076 B(  7-C , 26-H ) :   0.9417
B(  7-C , 27-H ) :   0.9360 B(  7-C , 28-H ) :   0.9365 B(  8-S ,  9-C ) :   0.9884
B(  9-C , 10-S ) :   1.0109 B(  9-C , 29-H ) :   0.9035 B(  9-C , 30-H ) :   0.8495
B( 10-S , 11-P ) :   0.9366 B( 10-S , 12-S ) :   0.1131 B( 11-P , 12-S ) :   1.6594
B( 11-P , 13-O ) :   1.0674 B( 11-P , 16-O ) :   1.1377 B( 13-O , 14-C ) :   0.9095
B( 14-C , 15-C ) :   1.1684 B( 14-C , 31-H ) :   0.9086 B( 14-C , 32-H ) :   0.9332
B( 15-C , 33-H ) :   0.9217 B( 15-C , 34-H ) :   0.9380 B( 15-C , 35-H ) :   0.9441
B( 16-O , 17-C ) :   0.9022 B( 17-C , 18-C ) :   1.1691 B( 17-C , 36-H ) :   0.9275
B( 17-C , 37-H ) :   0.9336 B( 18-C , 38-H ) :   0.9353 B( 18-C , 39-H ) :   0.9415
B( 18-C , 40-H ) :   0.9334

Dispersion correction           -0.067570615
FINAL SINGLE POINT ENERGY     -2929.511212059799

DIPOLE MOMENT
-------------

Method             : SCF
Type of density    : Electron Density
Multiplicity       :   1
Irrep              :   0
Energy             : -2929.6296526664032172 Eh
Relativity type    :
Basis              : AO
                                X                 Y                 Z
Electronic contribution:     -0.882323135      11.143538535     -12.262361444
Nuclear contribution   :      0.315151262     -12.536399937      13.650504937
                        -----------------------------------------
Total Dipole Moment    :     -0.567171873      -1.392861402       1.388143492
                        -----------------------------------------
Magnitude (a.u.)       :      2.046628734
Magnitude (Debye)      :      5.202116822

Rotational constants in cm-1:             0.013406             0.005016             0.004649
Rotational constants in MHz :           401.903951           150.385834           139.369610

                             ****ORCA TERMINATED NORMALLY****
TOTAL RUN TIME: 0 days 0 hours 0 minutes 21 seconds 736 msec
