                         Program Version 6.0.0  -   RELEASE  -
|  1> ! r2scan-3c def2/J RI DEFGRID2 scfconv6 printgap
|  2> %output
|  3>     printlevel normal
|  4> end
|  5> * xyz 0 1
|  6> C 5.4346813563 0.947870792 -1.7183273328
|  7> C 4.3166146733 1.2699396154 -0.7474920248
|  8> O 3.2214861192 0.3688277369 -1.0130900746
|  9> P 2.151238662 -0.0211842288 0.0945575624
| 10> S 2.9216358845 -0.4631895301 1.8460303489
| 11> O 1.3398173628 -1.1647275624 -0.6272663098
| 12> C 1.7558879142 -2.5501221404 -0.6096306614
| 13> C 0.5782848483 -3.4078873548 -0.1951760926
| 14> S 0.7726446862 1.5617892491 0.0443281564
| 15> C -0.0415923964 1.1970981549 1.6234570501
| 16> S -1.0301329012 -0.325440441 1.5985982226
| 17> P -2.2578799507 0.0706540179 -0.0869452361
| 18> S -1.672393102 -0.4637257993 -1.8840784189
| 19> O -2.5396587965 1.6069697454 0.1482986622
| 20> C -2.8534048334 2.5365107294 -0.9138175679
| 21> C -2.0915459937 3.8236715248 -0.6716628861
| 22> O -3.6637042577 -0.564649334 0.3104170232
| 23> C -4.0097158841 -1.9267243663 0.018402334
| 24> C -3.3366766872 -2.8851244169 0.9799005401
| 25> H 5.0755460914 1.0402637096 -2.7393035647
| 26> H 6.2538399919 1.6414399487 -1.5597191189
| 27> H 5.7880344798 -0.0672593863 -1.5601488253
| 28> H 3.951764825 2.2911330251 -0.8826013504
| 29> H 4.6357363552 1.134431846 0.2915354892
| 30> H 2.086746113 -2.7847956237 -1.6228687423
| 31> H 2.5924777245 -2.6617800336 0.0880723291
| 32> H 0.2907368202 -3.1770336927 0.8286196453
| 33> H -0.2635040924 -3.2123975752 -0.8554702683
| 34> H 0.8543556345 -4.4548941793 -0.2634291427
| 35> H -0.6805355579 2.0451859763 1.8540313581
| 36> H 0.7165223521 1.0454737401 2.3932117973
| 37> H -2.5777276205 2.0836478538 -1.8724373192
| 38> H -3.9329964996 2.6972810151 -0.8867600806
| 39> H -1.0202335456 3.6337296784 -0.6886992309
| 40> H -2.3409814879 4.5344202183 -1.4525829302
| 41> H -2.3619031319 4.2418199118 0.29362667
| 42> H -5.0959959726 -1.9546611101 0.1139718331
| 43> H -3.7224959679 -2.1432262677 -1.0165889873
| 44> H -3.5978559549 -2.6361090468 2.0048417132
| 45> H -3.6511358549 -3.9004132013 0.7613682734
| 46> H -2.2545624413 -2.8163701529 0.8720336515
| 47> *
| 48>
| 49>                          ****END OF INPUT****

CARTESIAN COORDINATES (ANGSTROEM)
---------------------------------
  C      5.434681    0.947871   -1.718327
  C      4.316615    1.269940   -0.747492
  O      3.221486    0.368828   -1.013090
  P      2.151239   -0.021184    0.094558
  S      2.921636   -0.463190    1.846030
  O      1.339817   -1.164728   -0.627266
  C      1.755888   -2.550122   -0.609631
  C      0.578285   -3.407887   -0.195176
  S      0.772645    1.561789    0.044328
  C     -0.041592    1.197098    1.623457
  S     -1.030133   -0.325440    1.598598
  P     -2.257880    0.070654   -0.086945
  S     -1.672393   -0.463726   -1.884078
  O     -2.539659    1.606970    0.148299
  C     -2.853405    2.536511   -0.913818
  C     -2.091546    3.823672   -0.671663
  O     -3.663704   -0.564649    0.310417
  C     -4.009716   -1.926724    0.018402
  C     -3.336677   -2.885124    0.979901
  H      5.075546    1.040264   -2.739304
  H      6.253840    1.641440   -1.559719
  H      5.788034   -0.067259   -1.560149
  H      3.951765    2.291133   -0.882601
  H      4.635736    1.134432    0.291535
  H      2.086746   -2.784796   -1.622869
  H      2.592478   -2.661780    0.088072
  H      0.290737   -3.177034    0.828620
  H     -0.263504   -3.212398   -0.855470
  H      0.854356   -4.454894   -0.263429
  H     -0.680536    2.045186    1.854031
  H      0.716522    1.045474    2.393212
  H     -2.577728    2.083648   -1.872437
  H     -3.932996    2.697281   -0.886760
  H     -1.020234    3.633730   -0.688699
  H     -2.340981    4.534420   -1.452583
  H     -2.361903    4.241820    0.293627
  H     -5.095996   -1.954661    0.113972
  H     -3.722496   -2.143226   -1.016589
  H     -3.597856   -2.636109    2.004842
  H     -3.651136   -3.900413    0.761368
  H     -2.254562   -2.816370    0.872034

 Total Charge           Charge          ....    0
 Multiplicity           Mult            ....    1
 Number of Electrons    NEL             ....  202
 Basis Dimension        Dim             ....  539

ORBITAL ENERGIES
----------------

  NO   OCC          E(Eh)            E(eV)
   0   2.0000     -88.576822     -2410.2979
   1   2.0000     -88.572342     -2410.1760
   2   2.0000     -88.517440     -2408.6820
   3   2.0000     -88.513655     -2408.5790
   4   2.0000     -76.911952     -2092.8806
   5   2.0000     -76.911182     -2092.8596
   6   2.0000     -18.992972      -516.8250
   7   2.0000     -18.990577      -516.7599
   8   2.0000     -18.986834      -516.6580
   9   2.0000     -18.982567      -516.5419
  10   2.0000     -10.107871      -275.0492
  11   2.0000     -10.098847      -274.8036
  12   2.0000     -10.096925      -274.7513
  13   2.0000     -10.095326      -274.7078
  14   2.0000     -10.091866      -274.6136
  15   2.0000     -10.033845      -273.0348
  16   2.0000     -10.031668      -272.9756
  17   2.0000     -10.030504      -272.9439
  18   2.0000     -10.021236      -272.6917
  19   2.0000      -7.871386      -214.1913
  20   2.0000      -7.866695      -214.0637
  21   2.0000      -7.812332      -212.5844
  22   2.0000      -7.808380      -212.4768
  23   2.0000      -6.590238      -179.3295
  24   2.0000      -6.589776      -179.3169
  25   2.0000      -5.818254      -158.3228
  26   2.0000      -5.815195      -158.2395
  27   2.0000      -5.813975      -158.2063
  28   2.0000      -5.810428      -158.1098
  29   2.0000      -5.808496      -158.0572
  30   2.0000      -5.803500      -157.9213
  31   2.0000      -5.759848      -156.7334
  32   2.0000      -5.756021      -156.6293
  33   2.0000      -5.752707      -156.5391
  34   2.0000      -5.752338      -156.5291
  35   2.0000      -5.748927      -156.4362
  36   2.0000      -5.748132      -156.4146
  37   2.0000      -4.735909      -128.8706
  38   2.0000      -4.735237      -128.8524
  39   2.0000      -4.735228      -128.8521
  40   2.0000      -4.734681      -128.8372
  41   2.0000      -4.733714      -128.8109
  42   2.0000      -4.733557      -128.8066
  43   2.0000      -1.048653       -28.5353
  44   2.0000      -1.045442       -28.4479
  45   2.0000      -1.010052       -27.4849
  46   2.0000      -1.005669       -27.3656
  47   2.0000      -0.801951       -21.8222
  48   2.0000      -0.759948       -20.6792
  49   2.0000      -0.749894       -20.4056
  50   2.0000      -0.731746       -19.9118
  51   2.0000      -0.728669       -19.8281
  52   2.0000      -0.706923       -19.2364
  53   2.0000      -0.682293       -18.5661
  54   2.0000      -0.666760       -18.1435
  55   2.0000      -0.629317       -17.1246
  56   2.0000      -0.618987       -16.8435
  57   2.0000      -0.605391       -16.4735
  58   2.0000      -0.600568       -16.3423
  59   2.0000      -0.588024       -16.0009
  60   2.0000      -0.530729       -14.4419
  61   2.0000      -0.526275       -14.3207
  62   2.0000      -0.494867       -13.4660
  63   2.0000      -0.493502       -13.4289
  64   2.0000      -0.476737       -12.9727
  65   2.0000      -0.458920       -12.4878
  66   2.0000      -0.456594       -12.4245
  67   2.0000      -0.449108       -12.2209
  68   2.0000      -0.446961       -12.1624
  69   2.0000      -0.432816       -11.7775
  70   2.0000      -0.424043       -11.5388
  71   2.0000      -0.408909       -11.1270
  72   2.0000      -0.405967       -11.0469
  73   2.0000      -0.400192       -10.8898
  74   2.0000      -0.394199       -10.7267
  75   2.0000      -0.391539       -10.6543
  76   2.0000      -0.383892       -10.4462
  77   2.0000      -0.374913       -10.2019
  78   2.0000      -0.370345       -10.0776
  79   2.0000      -0.368213       -10.0196
  80   2.0000      -0.362045        -9.8517
  81   2.0000      -0.357748        -9.7348
  82   2.0000      -0.356108        -9.6902
  83   2.0000      -0.351324        -9.5600
  84   2.0000      -0.345228        -9.3941
  85   2.0000      -0.332947        -9.0599
  86   2.0000      -0.316606        -8.6153
  87   2.0000      -0.313641        -8.5346
  88   2.0000      -0.309702        -8.4274
  89   2.0000      -0.301011        -8.1909
  90   2.0000      -0.300638        -8.1808
  91   2.0000      -0.289663        -7.8821
  92   2.0000      -0.283974        -7.7273
  93   2.0000      -0.275190        -7.4883
  94   2.0000      -0.274680        -7.4744
  95   2.0000      -0.249658        -6.7935
  96   2.0000      -0.231031        -6.2867
  97   2.0000      -0.219806        -5.9812
  98   2.0000      -0.216425        -5.8892
  99   2.0000      -0.208757        -5.6806
 100   2.0000      -0.202649        -5.5144
 101   0.0000      -0.049152        -1.3375
 102   0.0000      -0.022753        -0.6191
 103   0.0000      -0.017942        -0.4882
 104   0.0000       0.006901         0.1878
 105   0.0000       0.016120         0.4386

MULLIKEN ATOMIC CHARGES
-----------------------
   0 C :   -0.444285
   1 C :   -0.147358
   2 O :   -0.288317
   3 P :    0.709967
   4 S :   -0.497413
   5 O :   -0.247346
   6 C :   -0.113492
   7 C :   -0.494526
   8 S :   -0.153201
   9 C :   -0.192178
  10 S :   -0.142652
  11 P :    0.753089
  12 S :   -0.470250
  13 O :   -0.340180
  14 C :   -0.131010
  15 C :   -0.468612
  16 O :   -0.290006
  17 C :   -0.161441
  18 C :   -0.445872
  19 H :    0.154764
  20 H :    0.146063
  21 H :    0.156636
  22 H :    0.148486
  23 H :    0.171320
  24 H :    0.150523
  25 H :    0.161424
  26 H :    0.167785
  27 H :    0.175660
  28 H :    0.141908
  29 H :    0.185793
  30 H :    0.216505
  31 H :    0.176857
  32 H :    0.149346
  33 H :    0.164527
  34 H :    0.149370
  35 H :    0.155766
  36 H :    0.147422
  37 H :    0.178979
  38 H :    0.162129
  39 H :    0.150575
  40 H :    0.153245
Sum of atomic charges:    0.0000000

LOEWDIN ATOMIC CHARGES
----------------------
   0 C :   -0.386390
   1 C :    0.020623
   2 O :   -0.659376
   3 P :    0.369765
   4 S :   -0.144929
   5 O :   -0.665471
   6 C :    0.027557
   7 C :   -0.401929
   8 S :    0.172568
   9 C :   -0.410173
  10 S :    0.163693
  11 P :    0.385869
  12 S :   -0.111306
  13 O :   -0.680737
  14 C :    0.025250
  15 C :   -0.393101
  16 O :   -0.662787
  17 C :    0.016687
  18 C :   -0.401592
  19 H :    0.160180
  20 H :    0.159645
  21 H :    0.160620
  22 H :    0.170722
  23 H :    0.181225
  24 H :    0.174621
  25 H :    0.179480
  26 H :    0.162338
  27 H :    0.166198
  28 H :    0.156605
  29 H :    0.184334
  30 H :    0.193876
  31 H :    0.185261
  32 H :    0.173969
  33 H :    0.162874
  34 H :    0.161425
  35 H :    0.158239
  36 H :    0.179317
  37 H :    0.180648
  38 H :    0.161352
  39 H :    0.160432
  40 H :    0.162420

  Mayer bond orders larger than 0.100000
B(  0-C ,  1-C ) :   0.9589 B(  0-C , 19-H ) :   0.9714 B(  0-C , 20-H ) :   0.9649
B(  0-C , 21-H ) :   0.9718 B(  1-C ,  2-O ) :   0.7740 B(  1-C , 22-H ) :   0.9468
B(  1-C , 23-H ) :   0.9525 B(  2-O ,  3-P ) :   1.0855 B(  3-P ,  4-S ) :   1.7343
B(  3-P ,  5-O ) :   1.1990 B(  3-P ,  8-S ) :   1.0625 B(  5-O ,  6-C ) :   0.7516
B(  6-C ,  7-C ) :   0.9542 B(  6-C , 24-H ) :   0.9524 B(  6-C , 25-H ) :   0.9584
B(  7-C , 26-H ) :   0.9698 B(  7-C , 27-H ) :   0.9657 B(  7-C , 28-H ) :   0.9629
B(  8-S ,  9-C ) :   0.9137 B(  9-C , 10-S ) :   0.9016 B(  9-C , 29-H ) :   0.9155
B(  9-C , 30-H ) :   0.9059 B( 10-S , 11-P ) :   1.0423 B( 11-P , 12-S ) :   1.7517
B( 11-P , 13-O ) :   1.1828 B( 11-P , 16-O ) :   1.0776 B( 13-O , 14-C ) :   0.7605
B( 14-C , 15-C ) :   0.9454 B( 14-C , 31-H ) :   0.9541 B( 14-C , 32-H ) :   0.9484
B( 15-C , 33-H ) :   0.9675 B( 15-C , 34-H ) :   0.9627 B( 15-C , 35-H ) :   0.9728
B( 16-O , 17-C ) :   0.8119 B( 17-C , 18-C ) :   0.9225 B( 17-C , 36-H ) :   0.9574
B( 17-C , 37-H ) :   0.9668 B( 18-C , 38-H ) :   0.9690 B( 18-C , 39-H ) :   0.9623
B( 18-C , 40-H ) :   0.9608

Dispersion correction           -0.021634423
FINAL SINGLE POINT ENERGY     -2932.458329935556

DIPOLE MOMENT
-------------

Method             : SCF
Type of density    : Electron Density
Multiplicity       :   1
Irrep              :   0
Energy             : -2932.4832738493855686 Eh
Relativity type    :
Basis              : AO
                                X                 Y                 Z
Electronic contribution:     -1.035157506       3.629972810       5.281662835
Nuclear contribution   :      0.741975593      -3.258163160      -5.605312736
                        -----------------------------------------
Total Dipole Moment    :     -0.293181913       0.371809650      -0.323649900
                        -----------------------------------------
Magnitude (a.u.)       :      0.573539282
Magnitude (Debye)      :      1.457821000

Rotational constants in cm-1:             0.011446             0.005534             0.004677
Rotational constants in MHz :           343.137264           165.914985           140.227016

                             ****ORCA TERMINATED NORMALLY****
TOTAL RUN TIME: 0 days 0 hours 1 minutes 23 seconds 674 msec
