                         Program Version 6.0.0  -   RELEASE  -
|  1> ! r2scan-3c def2/J RI DEFGRID2 scfconv6 printgap
|  2> %output
|  3>     printlevel normal
|  4> end
|  5> %cpcm
|  6>     smd true
|  7>     smdsolvent "water"
|  8> end
|  9> * xyz 0 1
| 10> C 5.4346813563 0.947870792 -1.7183273328
| 11> C 4.3166146733 1.2699396154 -0.7474920248
| 12> O 3.2214861192 0.3688277369 -1.0130900746
| 13> P 2.151238662 -0.0211842288 0.0945575624
| 14> S 2.9216358845 -0.4631895301 1.8460303489
| 15> O 1.3398173628 -1.1647275624 -0.6272663098
| 16> C 1.7558879142 -2.5501221404 -0.6096306614
| 17> C 0.5782848483 -3.4078873548 -0.1951760926
| 18> S 0.7726446862 1.5617892491 0.0443281564
| 19> C -0.0415923964 1.1970981549 1.6234570501
| 20> S -1.0301329012 -0.325440441 1.5985982226
| 21> P -2.2578799507 0.0706540179 -0.0869452361
| 22> S -1.672393102 -0.4637257993 -1.8840784189
| 23> O -2.5396587965 1.6069697454 0.1482986622
| 24> C -2.8534048334 2.5365107294 -0.9138175679
| 25> C -2.0915459937 3.8236715248 -0.6716628861
| 26> O -3.6637042577 -0.564649334 0.3104170232
| 27> C -4.0097158841 -1.9267243663 0.018402334
| 28> C -3.3366766872 -2.8851244169 0.9799005401
| 29> H 5.0755460914 1.0402637096 -2.7393035647
| 30> H 6.2538399919 1.6414399487 -1.5597191189
| 31> H 5.7880344798 -0.0672593863 -1.5601488253
| 32> H 3.951764825 2.2911330251 -0.8826013504
| 33> H 4.6357363552 1.134431846 0.2915354892
| 34> H 2.086746113 -2.7847956237 -1.6228687423
| 35> H 2.5924777245 -2.6617800336 0.0880723291
| 36> H 0.2907368202 -3.1770336927 0.8286196453
| 37> H -0.2635040924 -3.2123975752 -0.8554702683
| 38> H 0.8543556345 -4.4548941793 -0.2634291427
| 39> H -0.6805355579 2.0451859763 1.8540313581
| 40> H 0.7165223521 1.0454737401 2.3932117973
| 41> H -2.5777276205 2.0836478538 -1.8724373192
| 42> H -3.9329964996 2.6972810151 -0.8867600806
| 43> H -1.0202335456 3.6337296784 -0.6886992309
| 44> H -2.3409814879 4.5344202183 -1.4525829302
| 45> H -2.3619031319 4.2418199118 0.29362667
| 46> H -5.0959959726 -1.9546611101 0.1139718331
| 47> H -3.7224959679 -2.1432262677 -1.0165889873
| 48> H -3.5978559549 -2.6361090468 2.0048417132
| 49> H -3.6511358549 -3.9004132013 0.7613682734
| 50> H -2.2545624413 -2.8163701529 0.8720336515
| 51> *
| 52>
| 53>                          ****END OF INPUT****

CARTESIAN COORDINATES (ANGSTROEM)
---------------------------------
  C      5.434681    0.947871   -1.718327
  C      4.316615    1.269940   -0.747492
  O      3.221486    0.368828   -1.013090
  P      2.151239   -0.021184    0.094558
  S      2.921636   -0.463190    1.846030
  O      1.339817   -1.164728   -0.627266
  C      1.755888   -2.550122   -0.609631
  C      0.578285   -3.407887   -0.195176
  S      0.772645    1.561789    0.044328
  C     -0.041592    1.197098    1.623457
  S     -1.030133   -0.325440    1.598598
  P     -2.257880    0.070654   -0.086945
  S     -1.672393   -0.463726   -1.884078
  O     -2.539659    1.606970    0.148299
  C     -2.853405    2.536511   -0.913818
  C     -2.091546    3.823672   -0.671663
  O     -3.663704   -0.564649    0.310417
  C     -4.009716   -1.926724    0.018402
  C     -3.336677   -2.885124    0.979901
  H      5.075546    1.040264   -2.739304
  H      6.253840    1.641440   -1.559719
  H      5.788034   -0.067259   -1.560149
  H      3.951765    2.291133   -0.882601
  H      4.635736    1.134432    0.291535
  H      2.086746   -2.784796   -1.622869
  H      2.592478   -2.661780    0.088072
  H      0.290737   -3.177034    0.828620
  H     -0.263504   -3.212398   -0.855470
  H      0.854356   -4.454894   -0.263429
  H     -0.680536    2.045186    1.854031
  H      0.716522    1.045474    2.393212
  H     -2.577728    2.083648   -1.872437
  H     -3.932996    2.697281   -0.886760
  H     -1.020234    3.633730   -0.688699
  H     -2.340981    4.534420   -1.452583
  H     -2.361903    4.241820    0.293627
  H     -5.095996   -1.954661    0.113972
  H     -3.722496   -2.143226   -1.016589
  H     -3.597856   -2.636109    2.004842
  H     -3.651136   -3.900413    0.761368
  H     -2.254562   -2.816370    0.872034

 Total Charge           Charge          ....    0
 Multiplicity           Mult            ....    1
 Number of Electrons    NEL             ....  202
 Basis Dimension        Dim             ....  539

ORBITAL ENERGIES
----------------

  NO   OCC          E(Eh)            E(eV)
   0   2.0000     -88.581011     -2410.4118
   1   2.0000     -88.576745     -2410.2958
   2   2.0000     -88.526330     -2408.9239
   3   2.0000     -88.521951     -2408.8047
   4   2.0000     -76.917858     -2093.0413
   5   2.0000     -76.917588     -2093.0340
   6   2.0000     -18.994973      -516.8795
   7   2.0000     -18.994792      -516.8746
   8   2.0000     -18.991777      -516.7925
   9   2.0000     -18.988207      -516.6954
  10   2.0000     -10.106145      -275.0022
  11   2.0000     -10.089631      -274.5528
  12   2.0000     -10.089399      -274.5465
  13   2.0000     -10.088056      -274.5100
  14   2.0000     -10.087952      -274.5071
  15   2.0000     -10.020021      -272.6586
  16   2.0000     -10.019833      -272.6535
  17   2.0000     -10.019348      -272.6403
  18   2.0000     -10.015750      -272.5424
  19   2.0000      -7.875513      -214.3036
  20   2.0000      -7.871099      -214.1835
  21   2.0000      -7.821505      -212.8340
  22   2.0000      -7.816972      -212.7106
  23   2.0000      -6.596271      -179.4937
  24   2.0000      -6.596192      -179.4915
  25   2.0000      -5.822371      -158.4348
  26   2.0000      -5.819299      -158.3512
  27   2.0000      -5.818349      -158.3253
  28   2.0000      -5.814781      -158.2282
  29   2.0000      -5.812672      -158.1709
  30   2.0000      -5.807995      -158.0436
  31   2.0000      -5.768955      -156.9812
  32   2.0000      -5.764550      -156.8614
  33   2.0000      -5.761849      -156.7879
  34   2.0000      -5.761557      -156.7799
  35   2.0000      -5.757446      -156.6681
  36   2.0000      -5.756808      -156.6507
  37   2.0000      -4.741804      -129.0310
  38   2.0000      -4.741702      -129.0283
  39   2.0000      -4.741193      -129.0144
  40   2.0000      -4.741165      -129.0137
  41   2.0000      -4.740105      -128.9848
  42   2.0000      -4.739760      -128.9754
  43   2.0000      -1.051656       -28.6170
  44   2.0000      -1.050268       -28.5792
  45   2.0000      -1.012562       -27.5532
  46   2.0000      -1.009994       -27.4833
  47   2.0000      -0.803843       -21.8737
  48   2.0000      -0.757451       -20.6113
  49   2.0000      -0.745105       -20.2753
  50   2.0000      -0.723404       -19.6848
  51   2.0000      -0.722442       -19.6586
  52   2.0000      -0.707119       -19.2417
  53   2.0000      -0.686810       -18.6890
  54   2.0000      -0.673882       -18.3373
  55   2.0000      -0.628570       -17.1043
  56   2.0000      -0.616089       -16.7646
  57   2.0000      -0.598177       -16.2772
  58   2.0000      -0.595931       -16.2161
  59   2.0000      -0.586326       -15.9547
  60   2.0000      -0.529333       -14.4039
  61   2.0000      -0.522636       -14.2216
  62   2.0000      -0.495048       -13.4709
  63   2.0000      -0.491523       -13.3750
  64   2.0000      -0.477389       -12.9904
  65   2.0000      -0.455137       -12.3849
  66   2.0000      -0.453970       -12.3532
  67   2.0000      -0.445685       -12.1277
  68   2.0000      -0.443492       -12.0680
  69   2.0000      -0.430896       -11.7253
  70   2.0000      -0.422643       -11.5007
  71   2.0000      -0.409324       -11.1383
  72   2.0000      -0.402347       -10.9484
  73   2.0000      -0.400833       -10.9072
  74   2.0000      -0.392543       -10.6816
  75   2.0000      -0.387696       -10.5497
  76   2.0000      -0.381876       -10.3914
  77   2.0000      -0.366827        -9.9819
  78   2.0000      -0.361298        -9.8314
  79   2.0000      -0.359838        -9.7917
  80   2.0000      -0.355535        -9.6746
  81   2.0000      -0.353573        -9.6212
  82   2.0000      -0.349015        -9.4972
  83   2.0000      -0.345448        -9.4001
  84   2.0000      -0.341702        -9.2982
  85   2.0000      -0.330705        -8.9989
  86   2.0000      -0.315390        -8.5822
  87   2.0000      -0.311874        -8.4865
  88   2.0000      -0.306373        -8.3368
  89   2.0000      -0.303028        -8.2458
  90   2.0000      -0.300142        -8.1673
  91   2.0000      -0.289143        -7.8680
  92   2.0000      -0.283675        -7.7192
  93   2.0000      -0.278039        -7.5658
  94   2.0000      -0.276403        -7.5213
  95   2.0000      -0.254342        -6.9210
  96   2.0000      -0.237012        -6.4494
  97   2.0000      -0.228897        -6.2286
  98   2.0000      -0.226347        -6.1592
  99   2.0000      -0.216092        -5.8802
 100   2.0000      -0.211751        -5.7620
 101   0.0000      -0.053530        -1.4566
 102   0.0000      -0.028313        -0.7704
 103   0.0000      -0.022195        -0.6040
 104   0.0000       0.001815         0.0494
 105   0.0000       0.012897         0.3509

MULLIKEN ATOMIC CHARGES
-----------------------
   0 C :   -0.485047
   1 C :   -0.140789
   2 O :   -0.314315
   3 P :    0.726546
   4 S :   -0.545976
   5 O :   -0.268153
   6 C :   -0.124671
   7 C :   -0.508407
   8 S :   -0.156301
   9 C :   -0.201032
  10 S :   -0.163194
  11 P :    0.785200
  12 S :   -0.522738
  13 O :   -0.357001
  14 C :   -0.135087
  15 C :   -0.487398
  16 O :   -0.323266
  17 C :   -0.154335
  18 C :   -0.481675
  19 H :    0.165848
  20 H :    0.169552
  21 H :    0.166292
  22 H :    0.171987
  23 H :    0.171151
  24 H :    0.173811
  25 H :    0.167414
  26 H :    0.169381
  27 H :    0.171485
  28 H :    0.166973
  29 H :    0.222748
  30 H :    0.232586
  31 H :    0.174637
  32 H :    0.173694
  33 H :    0.160561
  34 H :    0.171765
  35 H :    0.170003
  36 H :    0.173520
  37 H :    0.178363
  38 H :    0.173988
  39 H :    0.175492
  40 H :    0.156385
Sum of atomic charges:    0.0000000

LOEWDIN ATOMIC CHARGES
----------------------
   0 C :   -0.390303
   1 C :    0.025242
   2 O :   -0.674393
   3 P :    0.371551
   4 S :   -0.176791
   5 O :   -0.679805
   6 C :    0.029826
   7 C :   -0.402882
   8 S :    0.172828
   9 C :   -0.401925
  10 S :    0.155318
  11 P :    0.390166
  12 S :   -0.145626
  13 O :   -0.687962
  14 C :    0.029919
  15 C :   -0.393420
  16 O :   -0.679430
  17 C :    0.021549
  18 C :   -0.403484
  19 H :    0.163154
  20 H :    0.168894
  21 H :    0.162398
  22 H :    0.180105
  23 H :    0.181701
  24 H :    0.183357
  25 H :    0.181797
  26 H :    0.162086
  27 H :    0.164399
  28 H :    0.165726
  29 H :    0.197514
  30 H :    0.199018
  31 H :    0.184256
  32 H :    0.183873
  33 H :    0.161029
  34 H :    0.169686
  35 H :    0.163721
  36 H :    0.190110
  37 H :    0.181134
  38 H :    0.164012
  39 H :    0.169899
  40 H :    0.161752

  Mayer bond orders larger than 0.100000
B(  0-C ,  1-C ) :   0.9539 B(  0-C , 19-H ) :   0.9688 B(  0-C , 20-H ) :   0.9588
B(  0-C , 21-H ) :   0.9694 B(  1-C ,  2-O ) :   0.7659 B(  1-C , 22-H ) :   0.9375
B(  1-C , 23-H ) :   0.9496 B(  2-O ,  3-P ) :   1.0902 B(  3-P ,  4-S ) :   1.6951
B(  3-P ,  5-O ) :   1.2021 B(  3-P ,  8-S ) :   1.0852 B(  5-O ,  6-C ) :   0.7403
B(  6-C ,  7-C ) :   0.9524 B(  6-C , 24-H ) :   0.9434 B(  6-C , 25-H ) :   0.9552
B(  7-C , 26-H ) :   0.9672 B(  7-C , 27-H ) :   0.9653 B(  7-C , 28-H ) :   0.9591
B(  8-S ,  9-C ) :   0.9118 B(  9-C , 10-S ) :   0.8880 B(  9-C , 29-H ) :   0.9053
B(  9-C , 30-H ) :   0.9023 B( 10-S , 11-P ) :   1.0593 B( 11-P , 12-S ) :   1.7073
B( 11-P , 13-O ) :   1.1940 B( 11-P , 16-O ) :   1.0815 B( 13-O , 14-C ) :   0.7493
B( 14-C , 15-C ) :   0.9499 B( 14-C , 31-H ) :   0.9528 B( 14-C , 32-H ) :   0.9388
B( 15-C , 33-H ) :   0.9652 B( 15-C , 34-H ) :   0.9580 B( 15-C , 35-H ) :   0.9679
B( 16-O , 17-C ) :   0.8026 B( 17-C , 18-C ) :   0.9139 B( 17-C , 36-H ) :   0.9484
B( 17-C , 37-H ) :   0.9631 B( 18-C , 38-H ) :   0.9678 B( 18-C , 39-H ) :   0.9559
B( 18-C , 40-H ) :   0.9581

Dispersion correction           -0.021634423
FINAL SINGLE POINT ENERGY     -2932.466696962088

DIPOLE MOMENT
-------------

Method             : SCF
Type of density    : Electron Density
Multiplicity       :   1
Irrep              :   0
Energy             : -2932.4916408759181650 Eh
Relativity type    :
Basis              : AO
                                X                 Y                 Z
Electronic contribution:     -1.166448132       3.832040003       5.325915236
Nuclear contribution   :      0.741975593      -3.258163160      -5.605312736
                        -----------------------------------------
Total Dipole Moment    :     -0.424472538       0.573876844      -0.279397500
                        -----------------------------------------
Magnitude (a.u.)       :      0.766534103
Magnitude (Debye)      :      1.948374849

Rotational constants in cm-1:             0.011446             0.005534             0.004677
Rotational constants in MHz :           343.137264           165.914985           140.227016

                             ****ORCA TERMINATED NORMALLY****
TOTAL RUN TIME: 0 days 0 hours 1 minutes 49 seconds 819 msec
