                         Program Version 6.0.1  -  RELEASE   -
|  1> ! pbe def2-sv(p) def2/J RI DEFGRID1 loosescf d4 GCP(DFT/SV(P)) printgap
|  2> %output
|  3>     printlevel normal
|  4> end
|  5> * xyz 0 1
|  6> C 2.0625836403 -3.2453375615 -2.8246564719
|  7> C 3.0576763899 -3.0545672939 -1.6908733119
|  8> O 2.8734972775 -1.7646497896 -1.0762406835
|  9> C 2.0443202926 -1.6651241409 -0.0584282411
| 10> O 1.472149947 -2.5955379145 0.4642300006
| 11> C 1.8605241145 -0.2179104451 0.3610394853
| 12> C 0.9905415611 0.4794776118 -0.6860528389
| 13> H 1.55184929 0.5975269306 -1.6180555043
| 14> C 0.4944673963 1.8461600617 -0.2441532288
| 15> O -0.6285587657 2.2428545069 -0.4869079052
| 16> O 1.4148512335 2.526027314 0.378067426
| 17> C 1.0596101791 3.8323044656 0.880734647
| 18> C 2.3151211637 4.4754389529 1.4330214461
| 19> S -0.4678214168 -0.508388094 -1.1657650437
| 20> P -1.7830513898 -0.0633973019 0.4422483612
| 21> S -1.0802561229 0.6291905538 2.1330823454
| 22> O -2.9898183712 0.788620114 -0.1110696643
| 23> C -3.6789157678 0.468973677 -1.3352933918
| 24> O -2.5095381888 -1.4861193237 0.612442439
| 25> C -1.8538254587 -2.5775959925 1.2653354121
| 26> H 2.1871064101 -2.4644631196 -3.5692500822
| 27> H 2.2260644187 -4.21238952 -3.2881866328
| 28> H 1.0454922722 -3.2009451641 -2.4410721667
| 29> H 4.0841418866 -3.0444737078 -2.0576770557
| 30> H 2.9324479659 -3.8266567023 -0.9267859709
| 31> H 2.8254613683 0.2847879424 0.4100449059
| 32> H 1.3771333611 -0.1936385095 1.3392053996
| 33> H 0.6246968092 4.410860133 0.0602603401
| 34> H 0.2949627779 3.6949496393 1.6520682519
| 35> H 2.0701051862 5.4588274819 1.8197173581
| 36> H 2.7208234227 3.866989875 2.2352896806
| 37> H 3.0608453996 4.5728013446 0.6499143532
| 38> H -4.452004052 1.2272173426 -1.4272861228
| 39> H -4.1134550369 -0.5269842897 -1.268733097
| 40> H -2.9848554087 0.5243399762 -2.1739037754
| 41> H -0.9156840757 -2.8241659216 0.765693702
| 42> H -2.5487587261 -3.4107839304 1.2096375213
| 43> H -1.6475441169 -2.3170301561 2.304132026
| 44> *
| 45>
| 46>                          ****END OF INPUT****

CARTESIAN COORDINATES (ANGSTROEM)
---------------------------------
  C      2.062584   -3.245338   -2.824656
  C      3.057676   -3.054567   -1.690873
  O      2.873497   -1.764650   -1.076241
  C      2.044320   -1.665124   -0.058428
  O      1.472150   -2.595538    0.464230
  C      1.860524   -0.217910    0.361039
  C      0.990542    0.479478   -0.686053
  H      1.551849    0.597527   -1.618056
  C      0.494467    1.846160   -0.244153
  O     -0.628559    2.242855   -0.486908
  O      1.414851    2.526027    0.378067
  C      1.059610    3.832304    0.880735
  C      2.315121    4.475439    1.433021
  S     -0.467821   -0.508388   -1.165765
  P     -1.783051   -0.063397    0.442248
  S     -1.080256    0.629191    2.133082
  O     -2.989818    0.788620   -0.111070
  C     -3.678916    0.468974   -1.335293
  O     -2.509538   -1.486119    0.612442
  C     -1.853825   -2.577596    1.265335
  H      2.187106   -2.464463   -3.569250
  H      2.226064   -4.212390   -3.288187
  H      1.045492   -3.200945   -2.441072
  H      4.084142   -3.044474   -2.057677
  H      2.932448   -3.826657   -0.926786
  H      2.825461    0.284788    0.410045
  H      1.377133   -0.193639    1.339205
  H      0.624697    4.410860    0.060260
  H      0.294963    3.694950    1.652068
  H      2.070105    5.458827    1.819717
  H      2.720823    3.866990    2.235290
  H      3.060845    4.572801    0.649914
  H     -4.452004    1.227217   -1.427286
  H     -4.113455   -0.526984   -1.268733
  H     -2.984855    0.524340   -2.173904
  H     -0.915684   -2.824166    0.765694
  H     -2.548759   -3.410784    1.209638
  H     -1.647544   -2.317030    2.304132

 Total Charge           Charge          ....    0
 Multiplicity           Mult            ....    1
 Number of Electrons    NEL             ....  174
 Basis Dimension        Dim             ....  316

ORBITAL ENERGIES
----------------

  NO   OCC          E(Eh)            E(eV)
   0   2.0000     -88.038090     -2395.6382
   1   2.0000     -87.977842     -2393.9988
   2   2.0000     -76.420603     -2079.5103
   3   2.0000     -18.813948      -511.9536
   4   2.0000     -18.806317      -511.7459
   5   2.0000     -18.783574      -511.1270
   6   2.0000     -18.779916      -511.0275
   7   2.0000     -18.740533      -509.9558
   8   2.0000     -18.739685      -509.9328
   9   2.0000     -10.019207      -272.6365
  10   2.0000     -10.011228      -272.4194
  11   2.0000      -9.953278      -270.8425
  12   2.0000      -9.950792      -270.7748
  13   2.0000      -9.950640      -270.7707
  14   2.0000      -9.942128      -270.5391
  15   2.0000      -9.926397      -270.1110
  16   2.0000      -9.903618      -269.4911
  17   2.0000      -9.891307      -269.1561
  18   2.0000      -9.889938      -269.1189
  19   2.0000      -7.682747      -209.0582
  20   2.0000      -7.623045      -207.4336
  21   2.0000      -6.417210      -174.6212
  22   2.0000      -5.710750      -155.3974
  23   2.0000      -5.707319      -155.3040
  24   2.0000      -5.699521      -155.0918
  25   2.0000      -5.652213      -153.8045
  26   2.0000      -5.643697      -153.5728
  27   2.0000      -5.642816      -153.5488
  28   2.0000      -4.639859      -126.2570
  29   2.0000      -4.639201      -126.2391
  30   2.0000      -4.637647      -126.1968
  31   2.0000      -1.022361       -27.8199
  32   2.0000      -1.013919       -27.5901
  33   2.0000      -0.976396       -26.5691
  34   2.0000      -0.931248       -25.3406
  35   2.0000      -0.921918       -25.0867
  36   2.0000      -0.917386       -24.9633
  37   2.0000      -0.766887       -20.8681
  38   2.0000      -0.714032       -19.4298
  39   2.0000      -0.710507       -19.3339
  40   2.0000      -0.688070       -18.7233
  41   2.0000      -0.655471       -17.8363
  42   2.0000      -0.625853       -17.0303
  43   2.0000      -0.620264       -16.8782
  44   2.0000      -0.615397       -16.7458
  45   2.0000      -0.592622       -16.1261
  46   2.0000      -0.564755       -15.3678
  47   2.0000      -0.515810       -14.0359
  48   2.0000      -0.504699       -13.7335
  49   2.0000      -0.501456       -13.6453
  50   2.0000      -0.481388       -13.0992
  51   2.0000      -0.464457       -12.6385
  52   2.0000      -0.456520       -12.4225
  53   2.0000      -0.450184       -12.2501
  54   2.0000      -0.441008       -12.0004
  55   2.0000      -0.430616       -11.7176
  56   2.0000      -0.421880       -11.4799
  57   2.0000      -0.416775       -11.3410
  58   2.0000      -0.410748       -11.1770
  59   2.0000      -0.405287       -11.0284
  60   2.0000      -0.398644       -10.8477
  61   2.0000      -0.392081       -10.6691
  62   2.0000      -0.391208       -10.6453
  63   2.0000      -0.380718       -10.3599
  64   2.0000      -0.375043       -10.2054
  65   2.0000      -0.366418        -9.9707
  66   2.0000      -0.361757        -9.8439
  67   2.0000      -0.360076        -9.7982
  68   2.0000      -0.346186        -9.4202
  69   2.0000      -0.336897        -9.1674
  70   2.0000      -0.335248        -9.1226
  71   2.0000      -0.330223        -8.9858
  72   2.0000      -0.322712        -8.7815
  73   2.0000      -0.310827        -8.4580
  74   2.0000      -0.308073        -8.3831
  75   2.0000      -0.297721        -8.1014
  76   2.0000      -0.292436        -7.9576
  77   2.0000      -0.287268        -7.8170
  78   2.0000      -0.269467        -7.3326
  79   2.0000      -0.264536        -7.1984
  80   2.0000      -0.261786        -7.1236
  81   2.0000      -0.249795        -6.7973
  82   2.0000      -0.238046        -6.4776
  83   2.0000      -0.220100        -5.9892
  84   2.0000      -0.215281        -5.8581
  85   2.0000      -0.197011        -5.3609
  86   2.0000      -0.192258        -5.2316
  87   0.0000      -0.044078        -1.1994
  88   0.0000      -0.031697        -0.8625
  89   0.0000      -0.018196        -0.4951
  90   0.0000       0.005830         0.1586
  91   0.0000       0.024675         0.6714

MULLIKEN ATOMIC CHARGES
-----------------------
   0 C :   -0.305443
   1 C :   -0.016944
   2 O :   -0.235047
   3 C :    0.116363
   4 O :   -0.189221
   5 C :   -0.028184
   6 C :   -0.331100
   7 H :    0.154399
   8 C :    0.191569
   9 O :   -0.187467
  10 O :   -0.220145
  11 C :   -0.029602
  12 C :   -0.274041
  13 S :   -0.098253
  14 P :    0.622633
  15 S :   -0.319940
  16 O :   -0.352331
  17 C :   -0.104876
  18 O :   -0.392282
  19 C :   -0.124598
  20 H :    0.112156
  21 H :    0.113729
  22 H :    0.129115
  23 H :    0.104355
  24 H :    0.112547
  25 H :    0.109806
  26 H :    0.116483
  27 H :    0.108928
  28 H :    0.122424
  29 H :    0.114520
  30 H :    0.120189
  31 H :    0.113063
  32 H :    0.131029
  33 H :    0.121070
  34 H :    0.123169
  35 H :    0.141351
  36 H :    0.113785
  37 H :    0.116791
Sum of atomic charges:   -0.0000000

LOEWDIN ATOMIC CHARGES
----------------------
   0 C :   -0.356885
   1 C :   -0.112068
   2 O :   -0.061655
   3 C :    0.023246
   4 O :   -0.160173
   5 C :   -0.255220
   6 C :   -0.258487
   7 H :    0.150329
   8 C :   -0.001204
   9 O :   -0.164660
  10 O :   -0.040865
  11 C :   -0.103772
  12 C :   -0.350781
  13 S :    0.109068
  14 P :    0.590333
  15 S :   -0.302546
  16 O :   -0.229864
  17 C :   -0.208608
  18 O :   -0.264983
  19 C :   -0.224857
  20 H :    0.123629
  21 H :    0.130943
  22 H :    0.128860
  23 H :    0.118025
  24 H :    0.121291
  25 H :    0.140997
  26 H :    0.133437
  27 H :    0.118644
  28 H :    0.124514
  29 H :    0.132822
  30 H :    0.129176
  31 H :    0.125596
  32 H :    0.126591
  33 H :    0.114126
  34 H :    0.111638
  35 H :    0.113994
  36 H :    0.117304
  37 H :    0.112064

  Mayer bond orders larger than 0.100000
B(  0-C ,  1-C ) :   1.1750 B(  0-C , 20-H ) :   0.9498 B(  0-C , 21-H ) :   0.9432
B(  0-C , 22-H ) :   0.9422 B(  1-C ,  2-O ) :   0.9119 B(  1-C , 23-H ) :   0.9370
B(  1-C , 24-H ) :   0.9107 B(  2-O ,  3-C ) :   1.2161 B(  3-C ,  4-O ) :   2.0117
B(  3-C ,  5-C ) :   1.0233 B(  5-C ,  6-C ) :   1.0513 B(  5-C , 25-H ) :   0.8714
B(  5-C , 26-H ) :   0.8748 B(  6-C ,  7-H ) :   0.8563 B(  6-C ,  8-C ) :   0.9100
B(  6-C , 13-S ) :   1.0306 B(  8-C ,  9-O ) :   2.0281 B(  8-C , 10-O ) :   1.2707
B( 10-O , 11-C ) :   0.8911 B( 11-C , 12-C ) :   1.1534 B( 11-C , 27-H ) :   0.9289
B( 11-C , 28-H ) :   0.9270 B( 12-C , 29-H ) :   0.9429 B( 12-C , 30-H ) :   0.9485
B( 12-C , 31-H ) :   0.9506 B( 13-S , 14-P ) :   0.9401 B( 13-S , 15-S ) :   0.1127
B( 14-P , 15-S ) :   1.5953 B( 14-P , 16-O ) :   1.1449 B( 14-P , 18-O ) :   1.0750
B( 16-O , 17-C ) :   0.9208 B( 17-C , 32-H ) :   0.9599 B( 17-C , 33-H ) :   0.9461
B( 17-C , 34-H ) :   0.9395 B( 18-O , 19-C ) :   0.9241 B( 19-C , 35-H ) :   0.9245
B( 19-C , 36-H ) :   0.9564 B( 19-C , 37-H ) :   0.9434

Dispersion correction           -0.052881244
FINAL SINGLE POINT ENERGY     -1979.017431707684

DIPOLE MOMENT
-------------

Method             : SCF
Type of density    : Electron Density
Multiplicity       :   1
Irrep              :   0
Energy             : -1979.1465197888701368 Eh
Relativity type    :
Basis              : AO
                                X                 Y                 Z
Electronic contribution:    -10.382383383       1.260919840       5.086326828
Nuclear contribution   :     11.332134353      -1.248835413      -6.360326244
                        -----------------------------------------
Total Dipole Moment    :      0.949750971       0.012084427      -1.273999416
                        -----------------------------------------
Magnitude (a.u.)       :      1.589102719
Magnitude (Debye)      :      4.039178112

Rotational constants in cm-1:             0.010603             0.008564             0.005986
Rotational constants in MHz :           317.873373           256.728143           179.452191

                             ****ORCA TERMINATED NORMALLY****
TOTAL RUN TIME: 0 days 0 hours 0 minutes 53 seconds 938 msec
