                         Program Version 6.0.0  -   RELEASE  -
|  1> ! r2scan-3c def2/J RI DEFGRID2 scfconv6 printgap
|  2> %output
|  3>     printlevel normal
|  4> end
|  5> * xyz 0 1
|  6> C 0.6381462218 -1.9223616499 2.7393511997
|  7> C 1.5847886594 -0.7393937093 2.6877962981
|  8> O 1.3142476062 0.0691758007 1.5213571347
|  9> P 2.2038457113 -0.0003907913 0.2129682954
| 10> S 2.931639124 -1.7545368075 -0.2873551657
| 11> O 3.3173666294 1.0837002734 0.5621807782
| 12> C 4.5502274098 1.1878237891 -0.1712574423
| 13> C 4.3319675856 1.6947593231 -1.5821975223
| 14> S 0.9245267386 0.9672041258 -1.1506665463
| 15> C 0.1314941158 -0.5237646862 -1.8130339486
| 16> S -0.7943095259 -1.4616215712 -0.5668512021
| 17> P -2.2112442101 0.0288843983 -0.116372385
| 18> S -2.8088269349 1.2045042085 -1.5716636738
| 19> O -1.5061329957 0.7138301518 1.1253123824
| 20> C -1.9018154495 2.010683221 1.6245062076
| 21> C -0.9324149375 3.0755019699 1.150613474
| 22> O -3.394990534 -0.7465506926 0.6146531033
| 23> C -4.521582811 -1.2860152323 -0.0984252826
| 24> C -4.1325597642 -2.4604558588 -0.9729138287
| 25> H 0.8305484913 -2.5949919641 1.9058007363
| 26> H 0.7828701628 -2.458730563 3.6716029799
| 27> H -0.3910126443 -1.5770524205 2.6747548467
| 28> H 2.6264733746 -1.0724184695 2.6641927496
| 29> H 1.4333739545 -0.0684580354 3.5349401685
| 30> H 5.1488195656 1.8822908443 0.4196740662
| 31> H 5.0268935431 0.2023277801 -0.1858654271
| 32> H 3.7849084281 0.9539041759 -2.1637250055
| 33> H 3.759912399 2.6190829432 -1.5676576773
| 34> H 5.2935912531 1.8717558962 -2.0530908514
| 35> H 0.8884962165 -1.2033084416 -2.2026339873
| 36> H -0.543694744 -0.1844225058 -2.597710186
| 37> H -2.9199312356 2.2319566528 1.2913111992
| 38> H -1.8853260062 1.909486713 2.7108776462
| 39> H -0.9911686111 3.1837054651 0.0693681935
| 40> H -1.1814903512 4.0226378751 1.6181892429
| 41> H 0.084515552 2.7957830121 1.4155002025
| 42> H -5.2139074092 -1.581733028 0.6909120778
| 43> H -4.9625665431 -0.4861943986 -0.7020735907
| 44> H -3.5943075109 -3.2038187805 -0.390214098
| 45> H -5.0278294217 -2.9082979597 -1.3921063181
| 46> H -3.4920987334 -2.1230004807 -1.7867017005
| 47> *
| 48>
| 49>                          ****END OF INPUT****

CARTESIAN COORDINATES (ANGSTROEM)
---------------------------------
  C      0.638146   -1.922362    2.739351
  C      1.584789   -0.739394    2.687796
  O      1.314248    0.069176    1.521357
  P      2.203846   -0.000391    0.212968
  S      2.931639   -1.754537   -0.287355
  O      3.317367    1.083700    0.562181
  C      4.550227    1.187824   -0.171257
  C      4.331968    1.694759   -1.582198
  S      0.924527    0.967204   -1.150667
  C      0.131494   -0.523765   -1.813034
  S     -0.794310   -1.461622   -0.566851
  P     -2.211244    0.028884   -0.116372
  S     -2.808827    1.204504   -1.571664
  O     -1.506133    0.713830    1.125312
  C     -1.901815    2.010683    1.624506
  C     -0.932415    3.075502    1.150613
  O     -3.394991   -0.746551    0.614653
  C     -4.521583   -1.286015   -0.098425
  C     -4.132560   -2.460456   -0.972914
  H      0.830548   -2.594992    1.905801
  H      0.782870   -2.458731    3.671603
  H     -0.391013   -1.577052    2.674755
  H      2.626473   -1.072418    2.664193
  H      1.433374   -0.068458    3.534940
  H      5.148820    1.882291    0.419674
  H      5.026894    0.202328   -0.185865
  H      3.784908    0.953904   -2.163725
  H      3.759912    2.619083   -1.567658
  H      5.293591    1.871756   -2.053091
  H      0.888496   -1.203308   -2.202634
  H     -0.543695   -0.184423   -2.597710
  H     -2.919931    2.231957    1.291311
  H     -1.885326    1.909487    2.710878
  H     -0.991169    3.183705    0.069368
  H     -1.181490    4.022638    1.618189
  H      0.084516    2.795783    1.415500
  H     -5.213907   -1.581733    0.690912
  H     -4.962567   -0.486194   -0.702074
  H     -3.594308   -3.203819   -0.390214
  H     -5.027829   -2.908298   -1.392106
  H     -3.492099   -2.123000   -1.786702

 Total Charge           Charge          ....    0
 Multiplicity           Mult            ....    1
 Number of Electrons    NEL             ....  202
 Basis Dimension        Dim             ....  539

ORBITAL ENERGIES
----------------

  NO   OCC          E(Eh)            E(eV)
   0   2.0000     -88.575297     -2410.2564
   1   2.0000     -88.575269     -2410.2556
   2   2.0000     -88.520912     -2408.7765
   3   2.0000     -88.520892     -2408.7759
   4   2.0000     -76.912761     -2092.9026
   5   2.0000     -76.912746     -2092.9022
   6   2.0000     -18.991138      -516.7751
   7   2.0000     -18.991110      -516.7744
   8   2.0000     -18.984059      -516.5825
   9   2.0000     -18.984053      -516.5823
  10   2.0000     -10.107165      -275.0299
  11   2.0000     -10.097023      -274.7540
  12   2.0000     -10.096953      -274.7521
  13   2.0000     -10.095744      -274.7192
  14   2.0000     -10.095725      -274.7186
  15   2.0000     -10.027932      -272.8739
  16   2.0000     -10.027901      -272.8730
  17   2.0000     -10.020651      -272.6758
  18   2.0000     -10.020623      -272.6750
  19   2.0000      -7.869786      -214.1478
  20   2.0000      -7.869762      -214.1471
  21   2.0000      -7.815704      -212.6761
  22   2.0000      -7.815684      -212.6756
  23   2.0000      -6.591272      -179.3576
  24   2.0000      -6.591256      -179.3572
  25   2.0000      -5.816704      -158.2806
  26   2.0000      -5.816679      -158.2799
  27   2.0000      -5.813704      -158.1989
  28   2.0000      -5.813689      -158.1985
  29   2.0000      -5.806747      -158.0096
  30   2.0000      -5.806715      -158.0087
  31   2.0000      -5.763303      -156.8275
  32   2.0000      -5.763286      -156.8270
  33   2.0000      -5.756106      -156.6316
  34   2.0000      -5.756084      -156.6310
  35   2.0000      -5.755636      -156.6188
  36   2.0000      -5.755615      -156.6183
  37   2.0000      -4.736708      -128.8924
  38   2.0000      -4.736690      -128.8919
  39   2.0000      -4.736109      -128.8761
  40   2.0000      -4.736096      -128.8757
  41   2.0000      -4.735162      -128.8503
  42   2.0000      -4.735144      -128.8498
  43   2.0000      -1.047356       -28.5000
  44   2.0000      -1.046299       -28.4712
  45   2.0000      -1.007419       -27.4133
  46   2.0000      -1.006003       -27.3747
  47   2.0000      -0.803572       -21.8663
  48   2.0000      -0.756861       -20.5952
  49   2.0000      -0.746239       -20.3062
  50   2.0000      -0.728248       -19.8166
  51   2.0000      -0.726778       -19.7766
  52   2.0000      -0.709552       -19.3079
  53   2.0000      -0.685475       -18.6527
  54   2.0000      -0.669865       -18.2279
  55   2.0000      -0.632920       -17.2226
  56   2.0000      -0.621355       -16.9079
  57   2.0000      -0.605676       -16.4813
  58   2.0000      -0.602501       -16.3949
  59   2.0000      -0.586068       -15.9477
  60   2.0000      -0.524385       -14.2692
  61   2.0000      -0.522573       -14.2199
  62   2.0000      -0.488017       -13.2796
  63   2.0000      -0.487124       -13.2553
  64   2.0000      -0.476979       -12.9792
  65   2.0000      -0.457452       -12.4479
  66   2.0000      -0.455350       -12.3907
  67   2.0000      -0.454006       -12.3541
  68   2.0000      -0.443962       -12.0808
  69   2.0000      -0.432841       -11.7782
  70   2.0000      -0.425076       -11.5669
  71   2.0000      -0.413401       -11.2492
  72   2.0000      -0.408072       -11.1042
  73   2.0000      -0.396715       -10.7952
  74   2.0000      -0.394735       -10.7413
  75   2.0000      -0.391240       -10.6462
  76   2.0000      -0.381742       -10.3877
  77   2.0000      -0.370526       -10.0825
  78   2.0000      -0.365264        -9.9393
  79   2.0000      -0.364985        -9.9318
  80   2.0000      -0.363267        -9.8850
  81   2.0000      -0.355727        -9.6798
  82   2.0000      -0.354682        -9.6514
  83   2.0000      -0.351638        -9.5686
  84   2.0000      -0.347791        -9.4639
  85   2.0000      -0.329164        -8.9570
  86   2.0000      -0.313613        -8.5338
  87   2.0000      -0.310160        -8.4399
  88   2.0000      -0.309177        -8.4131
  89   2.0000      -0.304785        -8.2936
  90   2.0000      -0.294372        -8.0103
  91   2.0000      -0.292413        -7.9570
  92   2.0000      -0.279186        -7.5970
  93   2.0000      -0.278315        -7.5733
  94   2.0000      -0.277721        -7.5572
  95   2.0000      -0.243290        -6.6203
  96   2.0000      -0.228952        -6.2301
  97   2.0000      -0.228065        -6.2060
  98   2.0000      -0.219791        -5.9808
  99   2.0000      -0.214533        -5.8378
 100   2.0000      -0.213114        -5.7991
 101   0.0000      -0.048147        -1.3101
 102   0.0000      -0.026620        -0.7244
 103   0.0000      -0.000925        -0.0252
 104   0.0000       0.000079         0.0022
 105   0.0000       0.009783         0.2662

MULLIKEN ATOMIC CHARGES
-----------------------
   0 C :   -0.470306
   1 C :   -0.123955
   2 O :   -0.257005
   3 P :    0.674974
   4 S :   -0.481354
   5 O :   -0.298523
   6 C :   -0.155124
   7 C :   -0.447038
   8 S :   -0.104332
   9 C :   -0.258197
  10 S :   -0.104009
  11 P :    0.674085
  12 S :   -0.481434
  13 O :   -0.256506
  14 C :   -0.123965
  15 C :   -0.469761
  16 O :   -0.298424
  17 C :   -0.155162
  18 C :   -0.447388
  19 H :    0.177975
  20 H :    0.141185
  21 H :    0.163709
  22 H :    0.154688
  23 H :    0.147002
  24 H :    0.147517
  25 H :    0.172895
  26 H :    0.173896
  27 H :    0.155523
  28 H :    0.147790
  29 H :    0.209545
  30 H :    0.209460
  31 H :    0.154649
  32 H :    0.146962
  33 H :    0.178007
  34 H :    0.141186
  35 H :    0.163480
  36 H :    0.147517
  37 H :    0.172881
  38 H :    0.155543
  39 H :    0.147852
  40 H :    0.174161
Sum of atomic charges:   -0.0000000

LOEWDIN ATOMIC CHARGES
----------------------
   0 C :   -0.403273
   1 C :    0.026997
   2 O :   -0.669571
   3 P :    0.377916
   4 S :   -0.131398
   5 O :   -0.661329
   6 C :    0.018266
   7 C :   -0.406905
   8 S :    0.186696
   9 C :   -0.417831
  10 S :    0.186904
  11 P :    0.377804
  12 S :   -0.131736
  13 O :   -0.669649
  14 C :    0.026966
  15 C :   -0.403335
  16 O :   -0.661320
  17 C :    0.018374
  18 C :   -0.406985
  19 H :    0.166814
  20 H :    0.155642
  21 H :    0.163467
  22 H :    0.176236
  23 H :    0.176874
  24 H :    0.179070
  25 H :    0.179712
  26 H :    0.164573
  27 H :    0.160330
  28 H :    0.159066
  29 H :    0.189833
  30 H :    0.190003
  31 H :    0.176237
  32 H :    0.176868
  33 H :    0.166815
  34 H :    0.155644
  35 H :    0.163371
  36 H :    0.179097
  37 H :    0.179691
  38 H :    0.160346
  39 H :    0.159086
  40 H :    0.164636

  Mayer bond orders larger than 0.100000
B(  0-C ,  1-C ) :   0.9436 B(  0-C , 19-H ) :   0.9628 B(  0-C , 20-H ) :   0.9637
B(  0-C , 21-H ) :   0.9694 B(  1-C ,  2-O ) :   0.7589 B(  1-C , 22-H ) :   0.9640
B(  1-C , 23-H ) :   0.9618 B(  2-O ,  3-P ) :   1.1552 B(  3-P ,  4-S ) :   1.7456
B(  3-P ,  5-O ) :   1.0627 B(  3-P ,  8-S ) :   1.0991 B(  5-O ,  6-C ) :   0.8192
B(  6-C ,  7-C ) :   0.9222 B(  6-C , 24-H ) :   0.9586 B(  6-C , 25-H ) :   0.9673
B(  7-C , 26-H ) :   0.9632 B(  7-C , 27-H ) :   0.9683 B(  7-C , 28-H ) :   0.9593
B(  8-S ,  9-C ) :   0.8986 B(  9-C , 10-S ) :   0.8987 B(  9-C , 29-H ) :   0.9109
B(  9-C , 30-H ) :   0.9106 B( 10-S , 11-P ) :   1.0988 B( 11-P , 12-S ) :   1.7468
B( 11-P , 13-O ) :   1.1542 B( 11-P , 16-O ) :   1.0625 B( 13-O , 14-C ) :   0.7590
B( 14-C , 15-C ) :   0.9437 B( 14-C , 31-H ) :   0.9640 B( 14-C , 32-H ) :   0.9618
B( 15-C , 33-H ) :   0.9627 B( 15-C , 34-H ) :   0.9637 B( 15-C , 35-H ) :   0.9695
B( 16-O , 17-C ) :   0.8195 B( 17-C , 18-C ) :   0.9222 B( 17-C , 36-H ) :   0.9586
B( 17-C , 37-H ) :   0.9674 B( 18-C , 38-H ) :   0.9683 B( 18-C , 39-H ) :   0.9592
B( 18-C , 40-H ) :   0.9631

Dispersion correction           -0.022389708
FINAL SINGLE POINT ENERGY     -2932.463694979481

DIPOLE MOMENT
-------------

Method             : SCF
Type of density    : Electron Density
Multiplicity       :   1
Irrep              :   0
Energy             : -2932.4876875709164779 Eh
Relativity type    :
Basis              : AO
                                X                 Y                 Z
Electronic contribution:      0.459140686      -1.860745680      -6.418262650
Nuclear contribution   :     -0.514067259       2.095197287       7.227732635
                        -----------------------------------------
Total Dipole Moment    :     -0.054926573       0.234451607       0.809469984
                        -----------------------------------------
Magnitude (a.u.)       :      0.844527170
Magnitude (Debye)      :      2.146617471

Rotational constants in cm-1:             0.012750             0.005344             0.005086
Rotational constants in MHz :           382.228245           160.222172           152.487887

                             ****ORCA TERMINATED NORMALLY****
TOTAL RUN TIME: 0 days 0 hours 1 minutes 27 seconds 488 msec
