                         Program Version 6.0.0  -   RELEASE  -
|  1> ! r2scan-3c def2/J RI DEFGRID2 scfconv6 printgap
|  2> %output
|  3>     printlevel normal
|  4> end
|  5> %cpcm
|  6>     smd true
|  7>     smdsolvent "water"
|  8> end
|  9> * xyz 0 1
| 10> C 0.6381462218 -1.9223616499 2.7393511997
| 11> C 1.5847886594 -0.7393937093 2.6877962981
| 12> O 1.3142476062 0.0691758007 1.5213571347
| 13> P 2.2038457113 -0.0003907913 0.2129682954
| 14> S 2.931639124 -1.7545368075 -0.2873551657
| 15> O 3.3173666294 1.0837002734 0.5621807782
| 16> C 4.5502274098 1.1878237891 -0.1712574423
| 17> C 4.3319675856 1.6947593231 -1.5821975223
| 18> S 0.9245267386 0.9672041258 -1.1506665463
| 19> C 0.1314941158 -0.5237646862 -1.8130339486
| 20> S -0.7943095259 -1.4616215712 -0.5668512021
| 21> P -2.2112442101 0.0288843983 -0.116372385
| 22> S -2.8088269349 1.2045042085 -1.5716636738
| 23> O -1.5061329957 0.7138301518 1.1253123824
| 24> C -1.9018154495 2.010683221 1.6245062076
| 25> C -0.9324149375 3.0755019699 1.150613474
| 26> O -3.394990534 -0.7465506926 0.6146531033
| 27> C -4.521582811 -1.2860152323 -0.0984252826
| 28> C -4.1325597642 -2.4604558588 -0.9729138287
| 29> H 0.8305484913 -2.5949919641 1.9058007363
| 30> H 0.7828701628 -2.458730563 3.6716029799
| 31> H -0.3910126443 -1.5770524205 2.6747548467
| 32> H 2.6264733746 -1.0724184695 2.6641927496
| 33> H 1.4333739545 -0.0684580354 3.5349401685
| 34> H 5.1488195656 1.8822908443 0.4196740662
| 35> H 5.0268935431 0.2023277801 -0.1858654271
| 36> H 3.7849084281 0.9539041759 -2.1637250055
| 37> H 3.759912399 2.6190829432 -1.5676576773
| 38> H 5.2935912531 1.8717558962 -2.0530908514
| 39> H 0.8884962165 -1.2033084416 -2.2026339873
| 40> H -0.543694744 -0.1844225058 -2.597710186
| 41> H -2.9199312356 2.2319566528 1.2913111992
| 42> H -1.8853260062 1.909486713 2.7108776462
| 43> H -0.9911686111 3.1837054651 0.0693681935
| 44> H -1.1814903512 4.0226378751 1.6181892429
| 45> H 0.084515552 2.7957830121 1.4155002025
| 46> H -5.2139074092 -1.581733028 0.6909120778
| 47> H -4.9625665431 -0.4861943986 -0.7020735907
| 48> H -3.5943075109 -3.2038187805 -0.390214098
| 49> H -5.0278294217 -2.9082979597 -1.3921063181
| 50> H -3.4920987334 -2.1230004807 -1.7867017005
| 51> *
| 52>
| 53>                          ****END OF INPUT****

CARTESIAN COORDINATES (ANGSTROEM)
---------------------------------
  C      0.638146   -1.922362    2.739351
  C      1.584789   -0.739394    2.687796
  O      1.314248    0.069176    1.521357
  P      2.203846   -0.000391    0.212968
  S      2.931639   -1.754537   -0.287355
  O      3.317367    1.083700    0.562181
  C      4.550227    1.187824   -0.171257
  C      4.331968    1.694759   -1.582198
  S      0.924527    0.967204   -1.150667
  C      0.131494   -0.523765   -1.813034
  S     -0.794310   -1.461622   -0.566851
  P     -2.211244    0.028884   -0.116372
  S     -2.808827    1.204504   -1.571664
  O     -1.506133    0.713830    1.125312
  C     -1.901815    2.010683    1.624506
  C     -0.932415    3.075502    1.150613
  O     -3.394991   -0.746551    0.614653
  C     -4.521583   -1.286015   -0.098425
  C     -4.132560   -2.460456   -0.972914
  H      0.830548   -2.594992    1.905801
  H      0.782870   -2.458731    3.671603
  H     -0.391013   -1.577052    2.674755
  H      2.626473   -1.072418    2.664193
  H      1.433374   -0.068458    3.534940
  H      5.148820    1.882291    0.419674
  H      5.026894    0.202328   -0.185865
  H      3.784908    0.953904   -2.163725
  H      3.759912    2.619083   -1.567658
  H      5.293591    1.871756   -2.053091
  H      0.888496   -1.203308   -2.202634
  H     -0.543695   -0.184423   -2.597710
  H     -2.919931    2.231957    1.291311
  H     -1.885326    1.909487    2.710878
  H     -0.991169    3.183705    0.069368
  H     -1.181490    4.022638    1.618189
  H      0.084516    2.795783    1.415500
  H     -5.213907   -1.581733    0.690912
  H     -4.962567   -0.486194   -0.702074
  H     -3.594308   -3.203819   -0.390214
  H     -5.027829   -2.908298   -1.392106
  H     -3.492099   -2.123000   -1.786702

 Total Charge           Charge          ....    0
 Multiplicity           Mult            ....    1
 Number of Electrons    NEL             ....  202
 Basis Dimension        Dim             ....  539

ORBITAL ENERGIES
----------------

  NO   OCC          E(Eh)            E(eV)
   0   2.0000     -88.578135     -2410.3336
   1   2.0000     -88.578077     -2410.3320
   2   2.0000     -88.527252     -2408.9490
   3   2.0000     -88.527215     -2408.9480
   4   2.0000     -76.917629     -2093.0351
   5   2.0000     -76.917593     -2093.0341
   6   2.0000     -18.993822      -516.8482
   7   2.0000     -18.993699      -516.8448
   8   2.0000     -18.988149      -516.6938
   9   2.0000     -18.988115      -516.6929
  10   2.0000     -10.105525      -274.9853
  11   2.0000     -10.088875      -274.5322
  12   2.0000     -10.088828      -274.5310
  13   2.0000     -10.088423      -274.5200
  14   2.0000     -10.088330      -274.5174
  15   2.0000     -10.018083      -272.6059
  16   2.0000     -10.018032      -272.6045
  17   2.0000     -10.015232      -272.5283
  18   2.0000     -10.015220      -272.5280
  19   2.0000      -7.872646      -214.2256
  20   2.0000      -7.872593      -214.2241
  21   2.0000      -7.822319      -212.8561
  22   2.0000      -7.822283      -212.8551
  23   2.0000      -6.596171      -179.4910
  24   2.0000      -6.596136      -179.4900
  25   2.0000      -5.819564      -158.3584
  26   2.0000      -5.819511      -158.3569
  27   2.0000      -5.816552      -158.2764
  28   2.0000      -5.816509      -158.2753
  29   2.0000      -5.809625      -158.0879
  30   2.0000      -5.809562      -158.0862
  31   2.0000      -5.769873      -157.0062
  32   2.0000      -5.769835      -157.0052
  33   2.0000      -5.762708      -156.8113
  34   2.0000      -5.762672      -156.8103
  35   2.0000      -5.762257      -156.7990
  36   2.0000      -5.762223      -156.7980
  37   2.0000      -4.741570      -129.0247
  38   2.0000      -4.741536      -129.0238
  39   2.0000      -4.741025      -129.0098
  40   2.0000      -4.740986      -129.0088
  41   2.0000      -4.740102      -128.9847
  42   2.0000      -4.740069      -128.9838
  43   2.0000      -1.050376       -28.5822
  44   2.0000      -1.049226       -28.5509
  45   2.0000      -1.009957       -27.4823
  46   2.0000      -1.008522       -27.4433
  47   2.0000      -0.804845       -21.9009
  48   2.0000      -0.755244       -20.5512
  49   2.0000      -0.741781       -20.1849
  50   2.0000      -0.721526       -19.6337
  51   2.0000      -0.720415       -19.6035
  52   2.0000      -0.709179       -19.2978
  53   2.0000      -0.688835       -18.7441
  54   2.0000      -0.674932       -18.3658
  55   2.0000      -0.632713       -17.2170
  56   2.0000      -0.618460       -16.8292
  57   2.0000      -0.601002       -16.3541
  58   2.0000      -0.598144       -16.2763
  59   2.0000      -0.583989       -15.8912
  60   2.0000      -0.521108       -14.1801
  61   2.0000      -0.520030       -14.1507
  62   2.0000      -0.485876       -13.2213
  63   2.0000      -0.484603       -13.1867
  64   2.0000      -0.477720       -12.9994
  65   2.0000      -0.454843       -12.3769
  66   2.0000      -0.452828       -12.3221
  67   2.0000      -0.451765       -12.2931
  68   2.0000      -0.439940       -11.9714
  69   2.0000      -0.429296       -11.6817
  70   2.0000      -0.421761       -11.4767
  71   2.0000      -0.412948       -11.2369
  72   2.0000      -0.406596       -11.0640
  73   2.0000      -0.396160       -10.7801
  74   2.0000      -0.392987       -10.6937
  75   2.0000      -0.388607       -10.5745
  76   2.0000      -0.379731       -10.3330
  77   2.0000      -0.367809       -10.0086
  78   2.0000      -0.362013        -9.8509
  79   2.0000      -0.361535        -9.8379
  80   2.0000      -0.356121        -9.6906
  81   2.0000      -0.350914        -9.5489
  82   2.0000      -0.347900        -9.4669
  83   2.0000      -0.347687        -9.4610
  84   2.0000      -0.344764        -9.3815
  85   2.0000      -0.328647        -8.9429
  86   2.0000      -0.312376        -8.5002
  87   2.0000      -0.306364        -8.3366
  88   2.0000      -0.304941        -8.2979
  89   2.0000      -0.303612        -8.2617
  90   2.0000      -0.294006        -8.0003
  91   2.0000      -0.292245        -7.9524
  92   2.0000      -0.280287        -7.6270
  93   2.0000      -0.279040        -7.5931
  94   2.0000      -0.278842        -7.5877
  95   2.0000      -0.245960        -6.6929
  96   2.0000      -0.234886        -6.3916
  97   2.0000      -0.233754        -6.3608
  98   2.0000      -0.226084        -6.1521
  99   2.0000      -0.221282        -6.0214
 100   2.0000      -0.218666        -5.9502
 101   0.0000      -0.052081        -1.4172
 102   0.0000      -0.031906        -0.8682
 103   0.0000      -0.004074        -0.1109
 104   0.0000      -0.004032        -0.1097
 105   0.0000       0.009283         0.2526

MULLIKEN ATOMIC CHARGES
-----------------------
   0 C :   -0.494851
   1 C :   -0.131623
   2 O :   -0.285716
   3 P :    0.711358
   4 S :   -0.525123
   5 O :   -0.327457
   6 C :   -0.154442
   7 C :   -0.483743
   8 S :   -0.114454
   9 C :   -0.270972
  10 S :   -0.114129
  11 P :    0.709839
  12 S :   -0.524931
  13 O :   -0.284719
  14 C :   -0.132326
  15 C :   -0.493705
  16 O :   -0.327712
  17 C :   -0.154562
  18 C :   -0.484162
  19 H :    0.170869
  20 H :    0.166816
  21 H :    0.164690
  22 H :    0.169082
  23 H :    0.174700
  24 H :    0.173984
  25 H :    0.177078
  26 H :    0.171391
  27 H :    0.168670
  28 H :    0.172143
  29 H :    0.232246
  30 H :    0.231933
  31 H :    0.168825
  32 H :    0.174858
  33 H :    0.170796
  34 H :    0.166821
  35 H :    0.164503
  36 H :    0.174078
  37 H :    0.177270
  38 H :    0.168609
  39 H :    0.172281
  40 H :    0.171786
Sum of atomic charges:   -0.0000000

LOEWDIN ATOMIC CHARGES
----------------------
   0 C :   -0.405988
   1 C :    0.030705
   2 O :   -0.685903
   3 P :    0.383451
   4 S :   -0.157994
   5 O :   -0.673850
   6 C :    0.023396
   7 C :   -0.410193
   8 S :    0.182044
   9 C :   -0.410615
  10 S :    0.182279
  11 P :    0.383194
  12 S :   -0.158274
  13 O :   -0.685866
  14 C :    0.030614
  15 C :   -0.406032
  16 O :   -0.674038
  17 C :    0.023466
  18 C :   -0.410297
  19 H :    0.162231
  20 H :    0.164873
  21 H :    0.162581
  22 H :    0.181075
  23 H :    0.188164
  24 H :    0.190205
  25 H :    0.181061
  26 H :    0.161186
  27 H :    0.163455
  28 H :    0.167937
  29 H :    0.197075
  30 H :    0.197146
  31 H :    0.180947
  32 H :    0.188218
  33 H :    0.162216
  34 H :    0.164870
  35 H :    0.162558
  36 H :    0.190260
  37 H :    0.181114
  38 H :    0.163463
  39 H :    0.167973
  40 H :    0.161292

  Mayer bond orders larger than 0.100000
B(  0-C ,  1-C ) :   0.9332 B(  0-C , 19-H ) :   0.9654 B(  0-C , 20-H ) :   0.9595
B(  0-C , 21-H ) :   0.9677 B(  1-C ,  2-O ) :   0.7458 B(  1-C , 22-H ) :   0.9604
B(  1-C , 23-H ) :   0.9516 B(  2-O ,  3-P ) :   1.1589 B(  3-P ,  4-S ) :   1.7080
B(  3-P ,  5-O ) :   1.0692 B(  3-P ,  8-S ) :   1.1101 B(  5-O ,  6-C ) :   0.8076
B(  6-C ,  7-C ) :   0.9107 B(  6-C , 24-H ) :   0.9491 B(  6-C , 25-H ) :   0.9654
B(  7-C , 26-H ) :   0.9639 B(  7-C , 27-H ) :   0.9658 B(  7-C , 28-H ) :   0.9539
B(  8-S ,  9-C ) :   0.8903 B(  9-C , 10-S ) :   0.8905 B(  9-C , 29-H ) :   0.9048
B(  9-C , 30-H ) :   0.9047 B( 10-S , 11-P ) :   1.1100 B( 11-P , 12-S ) :   1.7095
B( 11-P , 13-O ) :   1.1580 B( 11-P , 16-O ) :   1.0688 B( 13-O , 14-C ) :   0.7457
B( 14-C , 15-C ) :   0.9337 B( 14-C , 31-H ) :   0.9604 B( 14-C , 32-H ) :   0.9516
B( 15-C , 33-H ) :   0.9653 B( 15-C , 34-H ) :   0.9596 B( 15-C , 35-H ) :   0.9677
B( 16-O , 17-C ) :   0.8078 B( 17-C , 18-C ) :   0.9106 B( 17-C , 36-H ) :   0.9491
B( 17-C , 37-H ) :   0.9655 B( 18-C , 38-H ) :   0.9656 B( 18-C , 39-H ) :   0.9538
B( 18-C , 40-H ) :   0.9637

Dispersion correction           -0.022389708
FINAL SINGLE POINT ENERGY     -2932.470565318096

DIPOLE MOMENT
-------------

Method             : SCF
Type of density    : Electron Density
Multiplicity       :   1
Irrep              :   0
Energy             : -2932.4945579095319772 Eh
Relativity type    :
Basis              : AO
                                X                 Y                 Z
Electronic contribution:      0.447922238      -1.801492200      -6.212422444
Nuclear contribution   :     -0.514067259       2.095197287       7.227732635
                        -----------------------------------------
Total Dipole Moment    :     -0.066145022       0.293705088       1.015310191
                        -----------------------------------------
Magnitude (a.u.)       :      1.059005490
Magnitude (Debye)      :      2.691778035

Rotational constants in cm-1:             0.012750             0.005344             0.005086
Rotational constants in MHz :           382.228245           160.222172           152.487887

                             ****ORCA TERMINATED NORMALLY****
TOTAL RUN TIME: 0 days 0 hours 1 minutes 52 seconds 328 msec
