                         Program Version 6.0.0  -   RELEASE  -
|  1> ! pbe def2-sv(p) def2/J RI DEFGRID1 loosescf d4 GCP(DFT/SV(P)) printgap
|  2> %output
|  3>     printlevel normal
|  4> end
|  5> * xyz 0 1
|  6> C 2.5947393278 -2.9647472199 -1.4172375642
|  7> C 3.4282178328 -1.7782179323 -1.8540541722
|  8> O 3.5870850563 -0.7931843479 -0.8073853002
|  9> P 2.4249881433 0.0160074035 -0.0894380636
| 10> S 3.1727388742 1.5976658524 0.7788985537
| 11> O 1.6776278887 -1.0108286674 0.8820966292
| 12> C 1.9629452924 -1.1200171027 2.2909943705
| 13> C 0.9471396816 -0.3533402112 3.1141910411
| 14> S 0.9766066526 0.2810626269 -1.6042225134
| 15> C 0.2524448419 1.8133693312 -0.9665729547
| 16> S -0.5905189957 1.6099102614 0.6237142547
| 17> P -2.0312304313 0.2105643932 -0.0327442621
| 18> S -2.7463075721 0.4422448372 -1.8474549134
| 19> O -3.1167863551 0.1993751352 1.1279382006
| 20> C -4.2649448803 1.0645207693 1.122470971
| 21> C -3.8875664891 2.5165662402 1.3345208445
| 22> O -1.255736126 -1.1389981116 0.2595485576
| 23> C -1.5597502077 -2.3669149745 -0.430152392
| 24> C -2.9286954196 -2.8971762607 -0.0590520796
| 25> H 3.0276094961 -3.4260151622 -0.5332023463
| 26> H 1.5802174338 -2.6428597396 -1.1900508419
| 27> H 2.5631576023 -3.6915840022 -2.2228604256
| 28> H 2.9794837131 -1.2863433291 -2.7211336063
| 29> H 4.455159058 -2.067434925 -2.0833392467
| 30> H 1.9144178754 -2.1905381332 2.4986296395
| 31> H 2.9751411796 -0.7517900548 2.4836064471
| 32> H 1.05840315 0.7162472572 2.9487739496
| 33> H -0.0608547127 -0.6469839672 2.8308034557
| 34> H 1.1045849442 -0.5683921715 4.1662089698
| 35> H -0.4589569956 2.145623174 -1.7220671265
| 36> H 1.0389206966 2.5499349377 -0.8048566497
| 37> H -4.787584917 0.9392463669 0.1686321501
| 38> H -4.8826566816 0.6857754741 1.9378860091
| 39> H -3.3264744497 2.8858270993 0.4770713544
| 40> H -4.7894297122 3.1099008785 1.4463349058
| 41> H -3.2725068854 2.6214488408 2.2248273289
| 42> H -1.4925478173 -2.1847700175 -1.5079124826
| 43> H -0.7647242027 -3.0458237454 -0.1176100862
| 44> H -3.079489929 -3.8647892664 -0.5273098705
| 45> H -3.0142026336 -2.9976330184 1.0197512608
| 46> H -3.6976953751 -2.2102136925 -0.4108546161
| 47> *
| 48>
| 49>                          ****END OF INPUT****

CARTESIAN COORDINATES (ANGSTROEM)
---------------------------------
  C      2.594739   -2.964747   -1.417238
  C      3.428218   -1.778218   -1.854054
  O      3.587085   -0.793184   -0.807385
  P      2.424988    0.016007   -0.089438
  S      3.172739    1.597666    0.778899
  O      1.677628   -1.010829    0.882097
  C      1.962945   -1.120017    2.290994
  C      0.947140   -0.353340    3.114191
  S      0.976607    0.281063   -1.604223
  C      0.252445    1.813369   -0.966573
  S     -0.590519    1.609910    0.623714
  P     -2.031230    0.210564   -0.032744
  S     -2.746308    0.442245   -1.847455
  O     -3.116786    0.199375    1.127938
  C     -4.264945    1.064521    1.122471
  C     -3.887566    2.516566    1.334521
  O     -1.255736   -1.138998    0.259549
  C     -1.559750   -2.366915   -0.430152
  C     -2.928695   -2.897176   -0.059052
  H      3.027609   -3.426015   -0.533202
  H      1.580217   -2.642860   -1.190051
  H      2.563158   -3.691584   -2.222860
  H      2.979484   -1.286343   -2.721134
  H      4.455159   -2.067435   -2.083339
  H      1.914418   -2.190538    2.498630
  H      2.975141   -0.751790    2.483606
  H      1.058403    0.716247    2.948774
  H     -0.060855   -0.646984    2.830803
  H      1.104585   -0.568392    4.166209
  H     -0.458957    2.145623   -1.722067
  H      1.038921    2.549935   -0.804857
  H     -4.787585    0.939246    0.168632
  H     -4.882657    0.685775    1.937886
  H     -3.326474    2.885827    0.477071
  H     -4.789430    3.109901    1.446335
  H     -3.272507    2.621449    2.224827
  H     -1.492548   -2.184770   -1.507912
  H     -0.764724   -3.045824   -0.117610
  H     -3.079490   -3.864789   -0.527310
  H     -3.014203   -2.997633    1.019751
  H     -3.697695   -2.210214   -0.410855

 Total Charge           Charge          ....    0
 Multiplicity           Mult            ....    1
 Number of Electrons    NEL             ....  202
 Basis Dimension        Dim             ....  334

ORBITAL ENERGIES
----------------

  NO   OCC          E(Eh)            E(eV)
   0   2.0000     -88.044493     -2395.8124
   1   2.0000     -88.043737     -2395.7919
   2   2.0000     -87.992454     -2394.3964
   3   2.0000     -87.982491     -2394.1253
   4   2.0000     -76.428896     -2079.7360
   5   2.0000     -76.423558     -2079.5907
   6   2.0000     -18.797114      -511.4955
   7   2.0000     -18.790843      -511.3248
   8   2.0000     -18.789860      -511.2981
   9   2.0000     -18.783645      -511.1290
  10   2.0000      -9.959686      -271.0168
  11   2.0000      -9.956930      -270.9418
  12   2.0000      -9.955275      -270.8968
  13   2.0000      -9.952636      -270.8250
  14   2.0000      -9.947173      -270.6763
  15   2.0000      -9.892574      -269.1906
  16   2.0000      -9.885974      -269.0110
  17   2.0000      -9.885499      -268.9981
  18   2.0000      -9.872390      -268.6414
  19   2.0000      -7.689448      -209.2405
  20   2.0000      -7.688534      -209.2156
  21   2.0000      -7.637310      -207.8218
  22   2.0000      -7.627808      -207.5632
  23   2.0000      -6.426331      -174.8694
  24   2.0000      -6.421279      -174.7319
  25   2.0000      -5.717286      -155.5753
  26   2.0000      -5.716434      -155.5521
  27   2.0000      -5.714054      -155.4873
  28   2.0000      -5.713167      -155.4632
  29   2.0000      -5.706341      -155.2774
  30   2.0000      -5.705321      -155.2497
  31   2.0000      -5.666068      -154.1816
  32   2.0000      -5.657967      -153.9611
  33   2.0000      -5.657638      -153.9522
  34   2.0000      -5.656897      -153.9320
  35   2.0000      -5.648728      -153.7097
  36   2.0000      -5.647434      -153.6745
  37   2.0000      -4.648712      -126.4979
  38   2.0000      -4.648086      -126.4808
  39   2.0000      -4.646979      -126.4507
  40   2.0000      -4.644067      -126.3715
  41   2.0000      -4.642831      -126.3379
  42   2.0000      -4.641777      -126.3092
  43   2.0000      -0.989346       -26.9215
  44   2.0000      -0.979236       -26.6464
  45   2.0000      -0.948031       -25.7972
  46   2.0000      -0.939820       -25.5738
  47   2.0000      -0.767323       -20.8799
  48   2.0000      -0.722123       -19.6500
  49   2.0000      -0.710284       -19.3278
  50   2.0000      -0.690480       -18.7889
  51   2.0000      -0.687909       -18.7190
  52   2.0000      -0.673469       -18.3260
  53   2.0000      -0.651795       -17.7362
  54   2.0000      -0.640486       -17.4285
  55   2.0000      -0.604361       -16.4455
  56   2.0000      -0.590747       -16.0751
  57   2.0000      -0.577793       -15.7225
  58   2.0000      -0.573983       -15.6189
  59   2.0000      -0.558298       -15.1921
  60   2.0000      -0.499424       -13.5900
  61   2.0000      -0.493180       -13.4201
  62   2.0000      -0.475716       -12.9449
  63   2.0000      -0.474222       -12.9042
  64   2.0000      -0.458494       -12.4763
  65   2.0000      -0.447048       -12.1648
  66   2.0000      -0.442414       -12.0387
  67   2.0000      -0.436280       -11.8718
  68   2.0000      -0.428790       -11.6680
  69   2.0000      -0.414606       -11.2820
  70   2.0000      -0.406139       -11.0516
  71   2.0000      -0.397430       -10.8146
  72   2.0000      -0.395649       -10.7662
  73   2.0000      -0.389464       -10.5979
  74   2.0000      -0.382828       -10.4173
  75   2.0000      -0.374136       -10.1808
  76   2.0000      -0.366639        -9.9768
  77   2.0000      -0.358459        -9.7542
  78   2.0000      -0.355277        -9.6676
  79   2.0000      -0.353133        -9.6092
  80   2.0000      -0.349093        -9.4993
  81   2.0000      -0.345956        -9.4139
  82   2.0000      -0.344970        -9.3871
  83   2.0000      -0.339029        -9.2254
  84   2.0000      -0.335097        -9.1185
  85   2.0000      -0.320467        -8.7204
  86   2.0000      -0.308459        -8.3936
  87   2.0000      -0.301325        -8.1995
  88   2.0000      -0.298011        -8.1093
  89   2.0000      -0.285709        -7.7745
  90   2.0000      -0.277886        -7.5617
  91   2.0000      -0.277824        -7.5600
  92   2.0000      -0.272540        -7.4162
  93   2.0000      -0.266908        -7.2629
  94   2.0000      -0.257781        -7.0146
  95   2.0000      -0.230577        -6.2743
  96   2.0000      -0.218173        -5.9368
  97   2.0000      -0.215499        -5.8640
  98   2.0000      -0.208679        -5.6784
  99   2.0000      -0.200959        -5.4684
 100   2.0000      -0.195116        -5.3094
 101   0.0000      -0.047065        -1.2807
 102   0.0000      -0.026229        -0.7137
 103   0.0000      -0.002284        -0.0621
 104   0.0000       0.002818         0.0767
 105   0.0000       0.008135         0.2214

MULLIKEN ATOMIC CHARGES
-----------------------
   0 C :   -0.333792
   1 C :   -0.016636
   2 O :   -0.370071
   3 P :    0.619684
   4 S :   -0.319513
   5 O :   -0.376395
   6 C :   -0.008119
   7 C :   -0.294436
   8 S :   -0.104228
   9 C :   -0.345833
  10 S :   -0.065524
  11 P :    0.618331
  12 S :   -0.336914
  13 O :   -0.374210
  14 C :   -0.005193
  15 C :   -0.315788
  16 O :   -0.355637
  17 C :   -0.024087
  18 C :   -0.293856
  19 H :    0.118590
  20 H :    0.147927
  21 H :    0.114454
  22 H :    0.119029
  23 H :    0.114831
  24 H :    0.095751
  25 H :    0.105264
  26 H :    0.129513
  27 H :    0.116528
  28 H :    0.101421
  29 H :    0.189821
  30 H :    0.194323
  31 H :    0.111160
  32 H :    0.106391
  33 H :    0.126840
  34 H :    0.114330
  35 H :    0.120021
  36 H :    0.112387
  37 H :    0.116247
  38 H :    0.110649
  39 H :    0.115167
  40 H :    0.121572
Sum of atomic charges:    0.0000000

LOEWDIN ATOMIC CHARGES
----------------------
   0 C :   -0.369008
   1 C :   -0.116161
   2 O :   -0.247634
   3 P :    0.570814
   4 S :   -0.314922
   5 O :   -0.250089
   6 C :   -0.114671
   7 C :   -0.365920
   8 S :    0.088141
   9 C :   -0.477540
  10 S :    0.114649
  11 P :    0.572860
  12 S :   -0.327001
  13 O :   -0.243528
  14 C :   -0.119199
  15 C :   -0.369274
  16 O :   -0.230649
  17 C :   -0.119422
  18 C :   -0.365014
  19 H :    0.127761
  20 H :    0.123096
  21 H :    0.131735
  22 H :    0.109799
  23 H :    0.124300
  24 H :    0.113134
  25 H :    0.108504
  26 H :    0.121142
  27 H :    0.120835
  28 H :    0.124982
  29 H :    0.131161
  30 H :    0.133230
  31 H :    0.110524
  32 H :    0.119277
  33 H :    0.121286
  34 H :    0.131698
  35 H :    0.125447
  36 H :    0.110023
  37 H :    0.117650
  38 H :    0.130018
  39 H :    0.126012
  40 H :    0.121953

  Mayer bond orders larger than 0.100000
B(  0-C ,  1-C ) :   1.1623 B(  0-C , 19-H ) :   0.9453 B(  0-C , 20-H ) :   0.9301
B(  0-C , 21-H ) :   0.9357 B(  1-C ,  2-O ) :   0.9140 B(  1-C , 22-H ) :   0.9186
B(  1-C , 23-H ) :   0.9347 B(  2-O ,  3-P ) :   1.1199 B(  3-P ,  4-S ) :   1.6234
B(  3-P ,  5-O ) :   1.0901 B(  3-P ,  8-S ) :   0.9518 B(  4-S ,  8-S ) :   0.1003
B(  5-O ,  6-C ) :   0.9029 B(  6-C ,  7-C ) :   1.1734 B(  6-C , 24-H ) :   0.9335
B(  6-C , 25-H ) :   0.9137 B(  7-C , 26-H ) :   0.9354 B(  7-C , 27-H ) :   0.9415
B(  7-C , 28-H ) :   0.9382 B(  8-S ,  9-C ) :   1.0121 B(  9-C , 10-S ) :   1.0064
B(  9-C , 29-H ) :   0.8862 B(  9-C , 30-H ) :   0.8830 B( 10-S , 11-P ) :   0.9616
B( 10-S , 12-S ) :   0.1077 B( 11-P , 12-S ) :   1.5806 B( 11-P , 13-O ) :   1.1060
B( 11-P , 16-O ) :   1.1188 B( 13-O , 14-C ) :   0.9083 B( 14-C , 15-C ) :   1.1663
B( 14-C , 31-H ) :   0.9163 B( 14-C , 32-H ) :   0.9338 B( 15-C , 33-H ) :   0.9359
B( 15-C , 34-H ) :   0.9377 B( 15-C , 35-H ) :   0.9446 B( 16-O , 17-C ) :   0.9071
B( 17-C , 18-C ) :   1.1606 B( 17-C , 36-H ) :   0.9175 B( 17-C , 37-H ) :   0.9249
B( 18-C , 38-H ) :   0.9393 B( 18-C , 39-H ) :   0.9454 B( 18-C , 40-H ) :   0.9338

Dispersion correction           -0.068281219
FINAL SINGLE POINT ENERGY     -2929.522279280586

DIPOLE MOMENT
-------------

Method             : SCF
Type of density    : Electron Density
Multiplicity       :   1
Irrep              :   0
Energy             : -2929.6399846884169165 Eh
Relativity type    :
Basis              : AO
                                X                 Y                 Z
Electronic contribution:      9.905297135      13.943929104      -7.772062948
Nuclear contribution   :    -10.616376378     -15.293655203       8.034503003
                        -----------------------------------------
Total Dipole Moment    :     -0.711079243      -1.349726099       0.262440055
                        -----------------------------------------
Magnitude (a.u.)       :      1.547988700
Magnitude (Debye)      :      3.934674580

Rotational constants in cm-1:             0.011932             0.005706             0.005199
Rotational constants in MHz :           357.716231           171.075438           155.855003

                             ****ORCA TERMINATED NORMALLY****
TOTAL RUN TIME: 0 days 0 hours 0 minutes 22 seconds 139 msec
