                         Program Version 6.0.0  -   RELEASE  -
|  1> ! r2scan-3c def2/J RI DEFGRID2 scfconv6 printgap
|  2> %output
|  3>     printlevel normal
|  4> end
|  5> * xyz 0 1
|  6> C 0.7017807797 -0.0002549987 -1.1794690341
|  7> C -0.368817785 -1.99372e-05 -0.1091813816
|  8> Cl -1.9660440311 0.0014725025 -0.893568135
|  9> Cl -0.249823003 -1.444837403 0.9238313419
| 10> Cl -0.2479988907 1.4434861863 0.9255117925
| 11> Cl 2.3157312011 6.9397e-06 -0.4173109419
| 12> H 0.6211751517 0.8972171697 -1.7924911151
| 13> H 0.6216365094 -0.8984511568 -1.791541789
| 14> *
| 15>
| 16>                          ****END OF INPUT****

CARTESIAN COORDINATES (ANGSTROEM)
---------------------------------
  C      0.701781   -0.000255   -1.179469
  C     -0.368818   -0.000020   -0.109181
  Cl    -1.966044    0.001473   -0.893568
  Cl    -0.249823   -1.444837    0.923831
  Cl    -0.247999    1.443486    0.925512
  Cl     2.315731    0.000007   -0.417311
  H      0.621175    0.897217   -1.792491
  H      0.621637   -0.898451   -1.791542

 Total Charge           Charge          ....    0
 Multiplicity           Mult            ....    1
 Number of Electrons    NEL             ....   82
 Basis Dimension        Dim             ....  156

ORBITAL ENERGIES
----------------

  NO   OCC          E(Eh)            E(eV)
   0   2.0000    -101.248314     -2755.1067
   1   2.0000    -101.241464     -2754.9203
   2   2.0000    -101.241455     -2754.9200
   3   2.0000    -101.227797     -2754.5484
   4   2.0000     -10.241845      -278.6948
   5   2.0000     -10.137297      -275.8499
   6   2.0000      -9.404328      -255.9048
   7   2.0000      -9.397507      -255.7192
   8   2.0000      -9.397497      -255.7189
   9   2.0000      -9.383570      -255.3399
  10   2.0000      -7.151274      -194.5961
  11   2.0000      -7.144595      -194.4143
  12   2.0000      -7.144586      -194.4141
  13   2.0000      -7.140041      -194.2904
  14   2.0000      -7.139958      -194.2881
  15   2.0000      -7.133190      -194.1040
  16   2.0000      -7.133180      -194.1037
  17   2.0000      -7.133010      -194.0991
  18   2.0000      -7.132999      -194.0988
  19   2.0000      -7.130391      -194.0278
  20   2.0000      -7.119483      -193.7310
  21   2.0000      -7.119141      -193.7217
  22   2.0000      -0.934504       -25.4291
  23   2.0000      -0.839666       -22.8485
  24   2.0000      -0.811907       -22.0931
  25   2.0000      -0.809077       -22.0161
  26   2.0000      -0.702893       -19.1267
  27   2.0000      -0.583651       -15.8820
  28   2.0000      -0.494657       -13.4603
  29   2.0000      -0.484562       -13.1856
  30   2.0000      -0.468135       -12.7386
  31   2.0000      -0.423756       -11.5310
  32   2.0000      -0.408629       -11.1194
  33   2.0000      -0.337412        -9.1815
  34   2.0000      -0.336065        -9.1448
  35   2.0000      -0.320049        -8.7090
  36   2.0000      -0.307582        -8.3697
  37   2.0000      -0.300401        -8.1743
  38   2.0000      -0.291305        -7.9268
  39   2.0000      -0.288480        -7.8500
  40   2.0000      -0.282428        -7.6853
  41   0.0000      -0.067373        -1.8333
  42   0.0000      -0.049980        -1.3600
  43   0.0000      -0.026208        -0.7132
  44   0.0000       0.008922         0.2428
  45   0.0000       0.084660         2.3037

MULLIKEN ATOMIC CHARGES
-----------------------
   0 C :   -0.224508
   1 C :    0.191566
   2 Cl:   -0.073667
   3 Cl:   -0.069659
   4 Cl:   -0.069659
   5 Cl:   -0.132767
   6 H :    0.189348
   7 H :    0.189346
Sum of atomic charges:   -0.0000000

LOEWDIN ATOMIC CHARGES
----------------------
   0 C :   -0.367272
   1 C :   -0.414898
   2 Cl:    0.122807
   3 Cl:    0.120888
   4 Cl:    0.120890
   5 Cl:    0.057703
   6 H :    0.179924
   7 H :    0.179958

  Mayer bond orders larger than 0.100000
B(  0-C ,  1-C ) :   0.9378 B(  0-C ,  5-Cl) :   1.0171 B(  0-C ,  6-H ) :   0.9378
B(  0-C ,  7-H ) :   0.9379 B(  1-C ,  2-Cl) :   1.0046 B(  1-C ,  3-Cl) :   1.0325
B(  1-C ,  4-Cl) :   1.0325

Dispersion correction           -0.003336574
FINAL SINGLE POINT ENERGY     -1918.092600821906

DIPOLE MOMENT
-------------

Method             : SCF
Type of density    : Electron Density
Multiplicity       :   1
Irrep              :   0
Energy             : -1918.0991165325185648 Eh
Relativity type    :
Basis              : AO
                                X                 Y                 Z
Electronic contribution:     -1.462104365       0.001154816       3.457040982
Nuclear contribution   :      1.364807289      -0.001329806      -4.085196415
                        -----------------------------------------
Total Dipole Moment    :     -0.097297075      -0.000174989      -0.628155433
                        -----------------------------------------
Magnitude (a.u.)       :      0.635646128
Magnitude (Debye)      :      1.615684056

Rotational constants in cm-1:             0.062915             0.036782             0.034447
Rotational constants in MHz :          1886.157928          1102.694575          1032.680740

                             ****ORCA TERMINATED NORMALLY****
TOTAL RUN TIME: 0 days 0 hours 0 minutes 11 seconds 466 msec
