                         Program Version 6.0.0  -   RELEASE  -
|  1> ! r2scan-3c def2/J RI DEFGRID2 scfconv6 printgap
|  2> %output
|  3>     printlevel normal
|  4> end
|  5> %cpcm
|  6>     smd true
|  7>     smdsolvent "water"
|  8> end
|  9> * xyz 0 1
| 10> C 0.7017807797 -0.0002549987 -1.1794690341
| 11> C -0.368817785 -1.99372e-05 -0.1091813816
| 12> Cl -1.9660440311 0.0014725025 -0.893568135
| 13> Cl -0.249823003 -1.444837403 0.9238313419
| 14> Cl -0.2479988907 1.4434861863 0.9255117925
| 15> Cl 2.3157312011 6.9397e-06 -0.4173109419
| 16> H 0.6211751517 0.8972171697 -1.7924911151
| 17> H 0.6216365094 -0.8984511568 -1.791541789
| 18> *
| 19>
| 20>                          ****END OF INPUT****

CARTESIAN COORDINATES (ANGSTROEM)
---------------------------------
  C      0.701781   -0.000255   -1.179469
  C     -0.368818   -0.000020   -0.109181
  Cl    -1.966044    0.001473   -0.893568
  Cl    -0.249823   -1.444837    0.923831
  Cl    -0.247999    1.443486    0.925512
  Cl     2.315731    0.000007   -0.417311
  H      0.621175    0.897217   -1.792491
  H      0.621637   -0.898451   -1.791542

 Total Charge           Charge          ....    0
 Multiplicity           Mult            ....    1
 Number of Electrons    NEL             ....   82
 Basis Dimension        Dim             ....  156

ORBITAL ENERGIES
----------------

  NO   OCC          E(Eh)            E(eV)
   0   2.0000    -101.244929     -2755.0146
   1   2.0000    -101.240348     -2754.8899
   2   2.0000    -101.240343     -2754.8898
   3   2.0000    -101.223257     -2754.4249
   4   2.0000     -10.237527      -278.5773
   5   2.0000     -10.121677      -275.4248
   6   2.0000      -9.400929      -255.8123
   7   2.0000      -9.396534      -255.6927
   8   2.0000      -9.396527      -255.6925
   9   2.0000      -9.379217      -255.2215
  10   2.0000      -7.147881      -194.5037
  11   2.0000      -7.143494      -194.3844
  12   2.0000      -7.143489      -194.3842
  13   2.0000      -7.136609      -194.1970
  14   2.0000      -7.136589      -194.1965
  15   2.0000      -7.132255      -194.0785
  16   2.0000      -7.132249      -194.0784
  17   2.0000      -7.132098      -194.0742
  18   2.0000      -7.132092      -194.0741
  19   2.0000      -7.125763      -193.9019
  20   2.0000      -7.115254      -193.6159
  21   2.0000      -7.114914      -193.6066
  22   2.0000      -0.930610       -25.3232
  23   2.0000      -0.833447       -22.6793
  24   2.0000      -0.809116       -22.0172
  25   2.0000      -0.808071       -21.9887
  26   2.0000      -0.694384       -18.8952
  27   2.0000      -0.576421       -15.6852
  28   2.0000      -0.485757       -13.2181
  29   2.0000      -0.478366       -13.0170
  30   2.0000      -0.462086       -12.5740
  31   2.0000      -0.413812       -11.2604
  32   2.0000      -0.401019       -10.9123
  33   2.0000      -0.335315        -9.1244
  34   2.0000      -0.335185        -9.1209
  35   2.0000      -0.316926        -8.6240
  36   2.0000      -0.305436        -8.3113
  37   2.0000      -0.298587        -8.1250
  38   2.0000      -0.288909        -7.8616
  39   2.0000      -0.285777        -7.7764
  40   2.0000      -0.280223        -7.6252
  41   0.0000      -0.065130        -1.7723
  42   0.0000      -0.045002        -1.2246
  43   0.0000      -0.022038        -0.5997
  44   0.0000       0.016888         0.4596
  45   0.0000       0.093656         2.5485

MULLIKEN ATOMIC CHARGES
-----------------------
   0 C :   -0.231419
   1 C :    0.191318
   2 Cl:   -0.078807
   3 Cl:   -0.086669
   4 Cl:   -0.086689
   5 Cl:   -0.169536
   6 H :    0.230909
   7 H :    0.230892
Sum of atomic charges:   -0.0000000

LOEWDIN ATOMIC CHARGES
----------------------
   0 C :   -0.357739
   1 C :   -0.412966
   2 Cl:    0.122469
   3 Cl:    0.109586
   4 Cl:    0.109573
   5 Cl:    0.036371
   6 H :    0.196341
   7 H :    0.196366

  Mayer bond orders larger than 0.100000
B(  0-C ,  1-C ) :   0.9401 B(  0-C ,  5-Cl) :   0.9780 B(  0-C ,  6-H ) :   0.9232
B(  0-C ,  7-H ) :   0.9233 B(  1-C ,  2-Cl) :   1.0135 B(  1-C ,  3-Cl) :   1.0216
B(  1-C ,  4-Cl) :   1.0215

Dispersion correction           -0.003336574
FINAL SINGLE POINT ENERGY     -1918.096214526254

DIPOLE MOMENT
-------------

Method             : SCF
Type of density    : Electron Density
Multiplicity       :   1
Irrep              :   0
Energy             : -1918.1027302368663641 Eh
Relativity type    :
Basis              : AO
                                X                 Y                 Z
Electronic contribution:     -1.508611896       0.001092920       3.127126642
Nuclear contribution   :      1.364807289      -0.001329806      -4.085196415
                        -----------------------------------------
Total Dipole Moment    :     -0.143804607      -0.000236886      -0.958069772
                        -----------------------------------------
Magnitude (a.u.)       :      0.968802101
Magnitude (Debye)      :      2.462499241

Rotational constants in cm-1:             0.062915             0.036782             0.034447
Rotational constants in MHz :          1886.157928          1102.694575          1032.680740

                             ****ORCA TERMINATED NORMALLY****
TOTAL RUN TIME: 0 days 0 hours 0 minutes 15 seconds 277 msec
