                         Program Version 6.0.0  -   RELEASE  -
|  1> ! r2scan-3c def2/J RI DEFGRID2 scfconv6 printgap
|  2> %output
|  3>     printlevel normal
|  4> end
|  5> * xyz 0 1
|  6> C 1.5848756811 2.6861956536 -1.3047202377
|  7> C 2.0405448915 2.4459292317 0.1227905024
|  8> O 3.0162719282 1.3847314434 0.1529851587
|  9> P 2.7032288385 -0.025523342 0.8003510968
| 10> S 2.3647135422 -0.0338506721 2.7364173486
| 11> O 4.0503391611 -0.7045109771 0.3319362927
| 12> C 4.5688321608 -1.8829360232 0.9731591208
| 13> C 3.7066920484 -3.1019836435 0.7110741853
| 14> S 1.1641458126 -0.883612697 -0.4106803074
| 15> C -0.092186693 -1.1906689627 0.8617478665
| 16> S -1.2978477984 0.1484813446 1.0000797448
| 17> P -2.2257278429 -0.0976118664 -0.9141564766
| 18> S -1.9743058448 -1.8703945414 -1.7096236525
| 19> O -1.7059345355 1.0627233986 -1.8428511607
| 20> C -2.2053622549 2.4258717542 -1.8465247709
| 21> C -2.111161053 3.0956657515 -0.4920891167
| 22> O -3.7385287276 0.3160520314 -0.6614387413
| 23> C -4.637357539 -0.560216483 0.0482252878
| 24> C -6.0530599246 -0.0991881213 -0.2329987016
| 25> H 0.9882892969 3.592090727 -1.3448003156
| 26> H 2.4540955171 2.8035714361 -1.9457392233
| 27> H 0.9958900073 1.8468137701 -1.6698345147
| 28> H 1.2017648486 2.1930056179 0.7818837055
| 29> H 2.5541629646 3.3222183692 0.5242035348
| 30> H 5.5655600351 -1.9959019675 0.5445173539
| 31> H 4.6464879227 -1.6899792779 2.0481463971
| 32> H 2.7443797845 -2.9928149633 1.2102028753
| 33> H 3.5369115877 -3.222678649 -0.3561368784
| 34> H 4.2044492114 -3.9851075135 1.0986606863
| 35> H 0.3887493242 -1.271472353 1.8384385075
| 36> H -0.6048465346 -2.1088724579 0.5802479354
| 37> H -1.5721793989 2.9179297517 -2.586385723
| 38> H -3.2384959937 2.402990906 -2.1970128573
| 39> H -2.4375703685 4.1266599222 -0.5872155344
| 40> H -2.7500055009 2.5878310415 0.2275255862
| 41> H -1.0900394052 3.0771672812 -0.1217832431
| 42> H -4.4722232783 -1.5852715355 -0.2997700108
| 43> H -4.4009440777 -0.5004430701 1.1140733328
| 44> H -6.2598059824 -0.1570150415 -1.2979387297
| 45> H -6.7476224162 -0.7394916403 0.3006566653
| 46> H -6.18424346 0.9269777063 0.0974763762
| 47> *
| 48>
| 49>                          ****END OF INPUT****

CARTESIAN COORDINATES (ANGSTROEM)
---------------------------------
  C      1.584876    2.686196   -1.304720
  C      2.040545    2.445929    0.122791
  O      3.016272    1.384731    0.152985
  P      2.703229   -0.025523    0.800351
  S      2.364714   -0.033851    2.736417
  O      4.050339   -0.704511    0.331936
  C      4.568832   -1.882936    0.973159
  C      3.706692   -3.101984    0.711074
  S      1.164146   -0.883613   -0.410680
  C     -0.092187   -1.190669    0.861748
  S     -1.297848    0.148481    1.000080
  P     -2.225728   -0.097612   -0.914156
  S     -1.974306   -1.870395   -1.709624
  O     -1.705935    1.062723   -1.842851
  C     -2.205362    2.425872   -1.846525
  C     -2.111161    3.095666   -0.492089
  O     -3.738529    0.316052   -0.661439
  C     -4.637358   -0.560216    0.048225
  C     -6.053060   -0.099188   -0.232999
  H      0.988289    3.592091   -1.344800
  H      2.454096    2.803571   -1.945739
  H      0.995890    1.846814   -1.669835
  H      1.201765    2.193006    0.781884
  H      2.554163    3.322218    0.524204
  H      5.565560   -1.995902    0.544517
  H      4.646488   -1.689979    2.048146
  H      2.744380   -2.992815    1.210203
  H      3.536912   -3.222679   -0.356137
  H      4.204449   -3.985108    1.098661
  H      0.388749   -1.271472    1.838439
  H     -0.604847   -2.108872    0.580248
  H     -1.572179    2.917930   -2.586386
  H     -3.238496    2.402991   -2.197013
  H     -2.437570    4.126660   -0.587216
  H     -2.750006    2.587831    0.227526
  H     -1.090039    3.077167   -0.121783
  H     -4.472223   -1.585272   -0.299770
  H     -4.400944   -0.500443    1.114073
  H     -6.259806   -0.157015   -1.297939
  H     -6.747622   -0.739492    0.300657
  H     -6.184243    0.926978    0.097476

 Total Charge           Charge          ....    0
 Multiplicity           Mult            ....    1
 Number of Electrons    NEL             ....  202
 Basis Dimension        Dim             ....  539

ORBITAL ENERGIES
----------------

  NO   OCC          E(Eh)            E(eV)
   0   2.0000     -88.576161     -2410.2799
   1   2.0000     -88.573387     -2410.2044
   2   2.0000     -88.522510     -2408.8200
   3   2.0000     -88.520960     -2408.7778
   4   2.0000     -76.918475     -2093.0581
   5   2.0000     -76.910980     -2092.8542
   6   2.0000     -19.000343      -517.0256
   7   2.0000     -18.997088      -516.9371
   8   2.0000     -18.989006      -516.7171
   9   2.0000     -18.987036      -516.6635
  10   2.0000     -10.111374      -275.1445
  11   2.0000     -10.104465      -274.9565
  12   2.0000     -10.100115      -274.8381
  13   2.0000     -10.099229      -274.8140
  14   2.0000     -10.096537      -274.7407
  15   2.0000     -10.041280      -273.2371
  16   2.0000     -10.038899      -273.1723
  17   2.0000     -10.028731      -272.8957
  18   2.0000     -10.026653      -272.8391
  19   2.0000      -7.870253      -214.1605
  20   2.0000      -7.867156      -214.0762
  21   2.0000      -7.817267      -212.7186
  22   2.0000      -7.815763      -212.6777
  23   2.0000      -6.596905      -179.5109
  24   2.0000      -6.589756      -179.3164
  25   2.0000      -5.817103      -158.2914
  26   2.0000      -5.814120      -158.2102
  27   2.0000      -5.814036      -158.2080
  28   2.0000      -5.810920      -158.1232
  29   2.0000      -5.807540      -158.0312
  30   2.0000      -5.804383      -157.9453
  31   2.0000      -5.765028      -156.8744
  32   2.0000      -5.763293      -156.8272
  33   2.0000      -5.757543      -156.6707
  34   2.0000      -5.757165      -156.6604
  35   2.0000      -5.756128      -156.6322
  36   2.0000      -5.755795      -156.6231
  37   2.0000      -4.742872      -129.0601
  38   2.0000      -4.741671      -129.0274
  39   2.0000      -4.740367      -128.9919
  40   2.0000      -4.735030      -128.8467
  41   2.0000      -4.734826      -128.8412
  42   2.0000      -4.733506      -128.8052
  43   2.0000      -1.058359       -28.7994
  44   2.0000      -1.050598       -28.5882
  45   2.0000      -1.016504       -27.6605
  46   2.0000      -1.007966       -27.4282
  47   2.0000      -0.798201       -21.7202
  48   2.0000      -0.762476       -20.7480
  49   2.0000      -0.753454       -20.5025
  50   2.0000      -0.744672       -20.2635
  51   2.0000      -0.727082       -19.7849
  52   2.0000      -0.712900       -19.3990
  53   2.0000      -0.685845       -18.6628
  54   2.0000      -0.667478       -18.1630
  55   2.0000      -0.633659       -17.2427
  56   2.0000      -0.628763       -17.1095
  57   2.0000      -0.613299       -16.6887
  58   2.0000      -0.598400       -16.2833
  59   2.0000      -0.592032       -16.1100
  60   2.0000      -0.536501       -14.5989
  61   2.0000      -0.523624       -14.2485
  62   2.0000      -0.500700       -13.6247
  63   2.0000      -0.489057       -13.3079
  64   2.0000      -0.479448       -13.0464
  65   2.0000      -0.471342       -12.8259
  66   2.0000      -0.463651       -12.6166
  67   2.0000      -0.453359       -12.3365
  68   2.0000      -0.444697       -12.1008
  69   2.0000      -0.439631       -11.9630
  70   2.0000      -0.431287       -11.7359
  71   2.0000      -0.419785       -11.4229
  72   2.0000      -0.409900       -11.1539
  73   2.0000      -0.400075       -10.8866
  74   2.0000      -0.396039       -10.7768
  75   2.0000      -0.392078       -10.6690
  76   2.0000      -0.386175       -10.5084
  77   2.0000      -0.376871       -10.2552
  78   2.0000      -0.376130       -10.2350
  79   2.0000      -0.369497       -10.0545
  80   2.0000      -0.368997       -10.0409
  81   2.0000      -0.362837        -9.8733
  82   2.0000      -0.357724        -9.7342
  83   2.0000      -0.352109        -9.5814
  84   2.0000      -0.351050        -9.5526
  85   2.0000      -0.340398        -9.2627
  86   2.0000      -0.323935        -8.8147
  87   2.0000      -0.320822        -8.7300
  88   2.0000      -0.316983        -8.6255
  89   2.0000      -0.310904        -8.4601
  90   2.0000      -0.305418        -8.3108
  91   2.0000      -0.295964        -8.0536
  92   2.0000      -0.284701        -7.7471
  93   2.0000      -0.278171        -7.5694
  94   2.0000      -0.271679        -7.3928
  95   2.0000      -0.247475        -6.7341
  96   2.0000      -0.229533        -6.2459
  97   2.0000      -0.227640        -6.1944
  98   2.0000      -0.218101        -5.9348
  99   2.0000      -0.215694        -5.8693
 100   2.0000      -0.213646        -5.8136
 101   0.0000      -0.048411        -1.3173
 102   0.0000      -0.029567        -0.8046
 103   0.0000      -0.007186        -0.1955
 104   0.0000      -0.004657        -0.1267
 105   0.0000       0.015317         0.4168

MULLIKEN ATOMIC CHARGES
-----------------------
   0 C :   -0.469857
   1 C :   -0.123675
   2 O :   -0.290349
   3 P :    0.674672
   4 S :   -0.472874
   5 O :   -0.305469
   6 C :   -0.146830
   7 C :   -0.433587
   8 S :   -0.112734
   9 C :   -0.255632
  10 S :   -0.146444
  11 P :    0.660035
  12 S :   -0.446493
  13 O :   -0.274902
  14 C :   -0.068383
  15 C :   -0.521682
  16 O :   -0.292411
  17 C :   -0.153473
  18 C :   -0.442754
  19 H :    0.140186
  20 H :    0.156025
  21 H :    0.186010
  22 H :    0.160664
  23 H :    0.154267
  24 H :    0.149722
  25 H :    0.172018
  26 H :    0.163318
  27 H :    0.160462
  28 H :    0.146948
  29 H :    0.214329
  30 H :    0.219506
  31 H :    0.156759
  32 H :    0.160723
  33 H :    0.155898
  34 H :    0.170828
  35 H :    0.170095
  36 H :    0.170814
  37 H :    0.155594
  38 H :    0.159214
  39 H :    0.148924
  40 H :    0.150539
Sum of atomic charges:   -0.0000000

LOEWDIN ATOMIC CHARGES
----------------------
   0 C :   -0.404684
   1 C :    0.020421
   2 O :   -0.651404
   3 P :    0.384433
   4 S :   -0.136450
   5 O :   -0.649329
   6 C :    0.023401
   7 C :   -0.404137
   8 S :    0.153616
   9 C :   -0.437155
  10 S :    0.122175
  11 P :    0.386314
  12 S :   -0.096094
  13 O :   -0.649092
  14 C :    0.030594
  15 C :   -0.405717
  16 O :   -0.683730
  17 C :    0.019271
  18 C :   -0.385406
  19 H :    0.155375
  20 H :    0.162469
  21 H :    0.170482
  22 H :    0.177461
  23 H :    0.179098
  24 H :    0.180662
  25 H :    0.179358
  26 H :    0.161175
  27 H :    0.163152
  28 H :    0.158706
  29 H :    0.195733
  30 H :    0.189254
  31 H :    0.184072
  32 H :    0.178899
  33 H :    0.161926
  34 H :    0.164791
  35 H :    0.163614
  36 H :    0.181872
  37 H :    0.173468
  38 H :    0.161722
  39 H :    0.161368
  40 H :    0.158317

  Mayer bond orders larger than 0.100000
B(  0-C ,  1-C ) :   0.9292 B(  0-C , 19-H ) :   0.9658 B(  0-C , 20-H ) :   0.9667
B(  0-C , 21-H ) :   0.9526 B(  1-C ,  2-O ) :   0.7652 B(  1-C , 22-H ) :   0.9708
B(  1-C , 23-H ) :   0.9662 B(  2-O ,  3-P ) :   1.1239 B(  3-P ,  4-S ) :   1.7587
B(  3-P ,  5-O ) :   1.1407 B(  3-P ,  8-S ) :   1.0428 B(  5-O ,  6-C ) :   0.8146
B(  6-C ,  7-C ) :   0.9205 B(  6-C , 24-H ) :   0.9588 B(  6-C , 25-H ) :   0.9695
B(  7-C , 26-H ) :   0.9659 B(  7-C , 27-H ) :   0.9660 B(  7-C , 28-H ) :   0.9601
B(  8-S ,  9-C ) :   0.9058 B(  9-C , 10-S ) :   0.9103 B(  9-C , 29-H ) :   0.8910
B(  9-C , 30-H ) :   0.9137 B( 10-S , 11-P ) :   0.9839 B( 11-P , 12-S ) :   1.7962
B( 11-P , 13-O ) :   1.1515 B( 11-P , 16-O ) :   1.0647 B( 13-O , 14-C ) :   0.7783
B( 14-C , 15-C ) :   0.8872 B( 14-C , 31-H ) :   0.9554 B( 14-C , 32-H ) :   0.9669
B( 15-C , 33-H ) :   0.9615 B( 15-C , 34-H ) :   0.9661 B( 15-C , 35-H ) :   0.9651
B( 16-O , 17-C ) :   0.7828 B( 17-C , 18-C ) :   0.9553 B( 17-C , 36-H ) :   0.9483
B( 17-C , 37-H ) :   0.9405 B( 18-C , 38-H ) :   0.9718 B( 18-C , 39-H ) :   0.9635
B( 18-C , 40-H ) :   0.9715

Dispersion correction           -0.021397162
FINAL SINGLE POINT ENERGY     -2932.462159923911

DIPOLE MOMENT
-------------

Method             : SCF
Type of density    : Electron Density
Multiplicity       :   1
Irrep              :   0
Energy             : -2932.4872658206627420 Eh
Relativity type    :
Basis              : AO
                                X                 Y                 Z
Electronic contribution:      9.221885303      -8.293359316       1.806270211
Nuclear contribution   :    -10.239503522       9.174778314      -1.889424268
                        -----------------------------------------
Total Dipole Moment    :     -1.017618219       0.881418998      -0.083154058
                        -----------------------------------------
Magnitude (a.u.)       :      1.348836865
Magnitude (Debye)      :      3.428470845

Rotational constants in cm-1:             0.013294             0.004569             0.004102
Rotational constants in MHz :           398.556577           136.967955           122.982218

                             ****ORCA TERMINATED NORMALLY****
TOTAL RUN TIME: 0 days 0 hours 1 minutes 21 seconds 782 msec
