                         Program Version 6.0.0  -   RELEASE  -
|  1> ! r2scan-3c def2/J RI DEFGRID2 scfconv6 printgap
|  2> %output
|  3>     printlevel normal
|  4> end
|  5> %cpcm
|  6>     smd true
|  7>     smdsolvent "water"
|  8> end
|  9> * xyz 0 1
| 10> C 1.5848756811 2.6861956536 -1.3047202377
| 11> C 2.0405448915 2.4459292317 0.1227905024
| 12> O 3.0162719282 1.3847314434 0.1529851587
| 13> P 2.7032288385 -0.025523342 0.8003510968
| 14> S 2.3647135422 -0.0338506721 2.7364173486
| 15> O 4.0503391611 -0.7045109771 0.3319362927
| 16> C 4.5688321608 -1.8829360232 0.9731591208
| 17> C 3.7066920484 -3.1019836435 0.7110741853
| 18> S 1.1641458126 -0.883612697 -0.4106803074
| 19> C -0.092186693 -1.1906689627 0.8617478665
| 20> S -1.2978477984 0.1484813446 1.0000797448
| 21> P -2.2257278429 -0.0976118664 -0.9141564766
| 22> S -1.9743058448 -1.8703945414 -1.7096236525
| 23> O -1.7059345355 1.0627233986 -1.8428511607
| 24> C -2.2053622549 2.4258717542 -1.8465247709
| 25> C -2.111161053 3.0956657515 -0.4920891167
| 26> O -3.7385287276 0.3160520314 -0.6614387413
| 27> C -4.637357539 -0.560216483 0.0482252878
| 28> C -6.0530599246 -0.0991881213 -0.2329987016
| 29> H 0.9882892969 3.592090727 -1.3448003156
| 30> H 2.4540955171 2.8035714361 -1.9457392233
| 31> H 0.9958900073 1.8468137701 -1.6698345147
| 32> H 1.2017648486 2.1930056179 0.7818837055
| 33> H 2.5541629646 3.3222183692 0.5242035348
| 34> H 5.5655600351 -1.9959019675 0.5445173539
| 35> H 4.6464879227 -1.6899792779 2.0481463971
| 36> H 2.7443797845 -2.9928149633 1.2102028753
| 37> H 3.5369115877 -3.222678649 -0.3561368784
| 38> H 4.2044492114 -3.9851075135 1.0986606863
| 39> H 0.3887493242 -1.271472353 1.8384385075
| 40> H -0.6048465346 -2.1088724579 0.5802479354
| 41> H -1.5721793989 2.9179297517 -2.586385723
| 42> H -3.2384959937 2.402990906 -2.1970128573
| 43> H -2.4375703685 4.1266599222 -0.5872155344
| 44> H -2.7500055009 2.5878310415 0.2275255862
| 45> H -1.0900394052 3.0771672812 -0.1217832431
| 46> H -4.4722232783 -1.5852715355 -0.2997700108
| 47> H -4.4009440777 -0.5004430701 1.1140733328
| 48> H -6.2598059824 -0.1570150415 -1.2979387297
| 49> H -6.7476224162 -0.7394916403 0.3006566653
| 50> H -6.18424346 0.9269777063 0.0974763762
| 51> *
| 52>
| 53>                          ****END OF INPUT****

CARTESIAN COORDINATES (ANGSTROEM)
---------------------------------
  C      1.584876    2.686196   -1.304720
  C      2.040545    2.445929    0.122791
  O      3.016272    1.384731    0.152985
  P      2.703229   -0.025523    0.800351
  S      2.364714   -0.033851    2.736417
  O      4.050339   -0.704511    0.331936
  C      4.568832   -1.882936    0.973159
  C      3.706692   -3.101984    0.711074
  S      1.164146   -0.883613   -0.410680
  C     -0.092187   -1.190669    0.861748
  S     -1.297848    0.148481    1.000080
  P     -2.225728   -0.097612   -0.914156
  S     -1.974306   -1.870395   -1.709624
  O     -1.705935    1.062723   -1.842851
  C     -2.205362    2.425872   -1.846525
  C     -2.111161    3.095666   -0.492089
  O     -3.738529    0.316052   -0.661439
  C     -4.637358   -0.560216    0.048225
  C     -6.053060   -0.099188   -0.232999
  H      0.988289    3.592091   -1.344800
  H      2.454096    2.803571   -1.945739
  H      0.995890    1.846814   -1.669835
  H      1.201765    2.193006    0.781884
  H      2.554163    3.322218    0.524204
  H      5.565560   -1.995902    0.544517
  H      4.646488   -1.689979    2.048146
  H      2.744380   -2.992815    1.210203
  H      3.536912   -3.222679   -0.356137
  H      4.204449   -3.985108    1.098661
  H      0.388749   -1.271472    1.838439
  H     -0.604847   -2.108872    0.580248
  H     -1.572179    2.917930   -2.586386
  H     -3.238496    2.402991   -2.197013
  H     -2.437570    4.126660   -0.587216
  H     -2.750006    2.587831    0.227526
  H     -1.090039    3.077167   -0.121783
  H     -4.472223   -1.585272   -0.299770
  H     -4.400944   -0.500443    1.114073
  H     -6.259806   -0.157015   -1.297939
  H     -6.747622   -0.739492    0.300657
  H     -6.184243    0.926978    0.097476

 Total Charge           Charge          ....    0
 Multiplicity           Mult            ....    1
 Number of Electrons    NEL             ....  202
 Basis Dimension        Dim             ....  539

ORBITAL ENERGIES
----------------

  NO   OCC          E(Eh)            E(eV)
   0   2.0000     -88.579683     -2410.3757
   1   2.0000     -88.578098     -2410.3326
   2   2.0000     -88.531274     -2409.0585
   3   2.0000     -88.530918     -2409.0488
   4   2.0000     -76.921878     -2093.1507
   5   2.0000     -76.919424     -2093.0839
   6   2.0000     -18.997439      -516.9466
   7   2.0000     -18.996532      -516.9219
   8   2.0000     -18.996225      -516.9136
   9   2.0000     -18.993925      -516.8510
  10   2.0000     -10.101393      -274.8729
  11   2.0000     -10.094188      -274.6768
  12   2.0000     -10.092211      -274.6230
  13   2.0000     -10.091136      -274.5938
  14   2.0000     -10.090854      -274.5861
  15   2.0000     -10.021065      -272.6871
  16   2.0000     -10.020053      -272.6595
  17   2.0000     -10.018911      -272.6284
  18   2.0000     -10.017851      -272.5996
  19   2.0000      -7.873514      -214.2492
  20   2.0000      -7.872202      -214.2135
  21   2.0000      -7.826336      -212.9654
  22   2.0000      -7.826034      -212.9572
  23   2.0000      -6.600327      -179.6040
  24   2.0000      -6.598282      -179.5484
  25   2.0000      -5.820498      -158.3838
  26   2.0000      -5.819069      -158.3449
  27   2.0000      -5.817279      -158.2962
  28   2.0000      -5.816032      -158.2623
  29   2.0000      -5.810733      -158.1181
  30   2.0000      -5.809425      -158.0825
  31   2.0000      -5.773816      -157.1135
  32   2.0000      -5.773671      -157.1096
  33   2.0000      -5.766648      -156.9185
  34   2.0000      -5.766421      -156.9123
  35   2.0000      -5.766310      -156.9093
  36   2.0000      -5.765990      -156.9006
  37   2.0000      -4.746208      -129.1509
  38   2.0000      -4.745070      -129.1199
  39   2.0000      -4.743949      -129.0894
  40   2.0000      -4.743565      -129.0790
  41   2.0000      -4.743337      -129.0728
  42   2.0000      -4.742057      -129.0379
  43   2.0000      -1.057572       -28.7780
  44   2.0000      -1.056186       -28.7403
  45   2.0000      -1.013868       -27.5888
  46   2.0000      -1.013711       -27.5845
  47   2.0000      -0.800967       -21.7954
  48   2.0000      -0.756219       -20.5778
  49   2.0000      -0.748013       -20.3545
  50   2.0000      -0.729326       -19.8460
  51   2.0000      -0.720546       -19.6070
  52   2.0000      -0.712403       -19.3855
  53   2.0000      -0.688700       -18.7405
  54   2.0000      -0.674378       -18.3508
  55   2.0000      -0.632622       -17.2145
  56   2.0000      -0.622596       -16.9417
  57   2.0000      -0.599860       -16.3230
  58   2.0000      -0.593418       -16.1477
  59   2.0000      -0.591234       -16.0883
  60   2.0000      -0.529814       -14.4170
  61   2.0000      -0.522052       -14.2058
  62   2.0000      -0.490669       -13.3518
  63   2.0000      -0.489369       -13.3164
  64   2.0000      -0.481098       -13.0913
  65   2.0000      -0.460963       -12.5434
  66   2.0000      -0.459993       -12.5170
  67   2.0000      -0.448821       -12.2131
  68   2.0000      -0.440630       -11.9902
  69   2.0000      -0.435005       -11.8371
  70   2.0000      -0.425926       -11.5900
  71   2.0000      -0.413392       -11.2490
  72   2.0000      -0.411715       -11.2033
  73   2.0000      -0.397185       -10.8079
  74   2.0000      -0.389880       -10.6092
  75   2.0000      -0.386751       -10.5240
  76   2.0000      -0.382773       -10.4158
  77   2.0000      -0.372265       -10.1299
  78   2.0000      -0.363924        -9.9029
  79   2.0000      -0.359183        -9.7739
  80   2.0000      -0.357380        -9.7248
  81   2.0000      -0.350884        -9.5480
  82   2.0000      -0.350250        -9.5308
  83   2.0000      -0.348431        -9.4813
  84   2.0000      -0.345027        -9.3887
  85   2.0000      -0.334421        -9.1001
  86   2.0000      -0.322135        -8.7657
  87   2.0000      -0.315779        -8.5928
  88   2.0000      -0.307959        -8.3800
  89   2.0000      -0.305955        -8.3254
  90   2.0000      -0.305765        -8.3203
  91   2.0000      -0.289347        -7.8735
  92   2.0000      -0.286523        -7.7967
  93   2.0000      -0.280394        -7.6299
  94   2.0000      -0.273992        -7.4557
  95   2.0000      -0.251073        -6.8320
  96   2.0000      -0.238476        -6.4893
  97   2.0000      -0.236964        -6.4481
  98   2.0000      -0.227561        -6.1922
  99   2.0000      -0.224240        -6.1019
 100   2.0000      -0.221548        -6.0286
 101   0.0000      -0.053500        -1.4558
 102   0.0000      -0.037312        -1.0153
 103   0.0000      -0.012343        -0.3359
 104   0.0000      -0.008431        -0.2294
 105   0.0000       0.011810         0.3214

MULLIKEN ATOMIC CHARGES
-----------------------
   0 C :   -0.486475
   1 C :   -0.126659
   2 O :   -0.324350
   3 P :    0.700842
   4 S :   -0.512176
   5 O :   -0.337825
   6 C :   -0.146906
   7 C :   -0.471503
   8 S :   -0.133664
   9 C :   -0.249777
  10 S :   -0.145646
  11 P :    0.676503
  12 S :   -0.504203
  13 O :   -0.308592
  14 C :   -0.068514
  15 C :   -0.557541
  16 O :   -0.306464
  17 C :   -0.139008
  18 C :   -0.483120
  19 H :    0.173609
  20 H :    0.165306
  21 H :    0.170614
  22 H :    0.167335
  23 H :    0.178129
  24 H :    0.175928
  25 H :    0.177893
  26 H :    0.169218
  27 H :    0.168355
  28 H :    0.172294
  29 H :    0.225263
  30 H :    0.237713
  31 H :    0.180031
  32 H :    0.178274
  33 H :    0.179983
  34 H :    0.175233
  35 H :    0.184151
  36 H :    0.171562
  37 H :    0.171470
  38 H :    0.166698
  39 H :    0.169929
  40 H :    0.166091
Sum of atomic charges:   -0.0000000

LOEWDIN ATOMIC CHARGES
----------------------
   0 C :   -0.403697
   1 C :    0.025194
   2 O :   -0.672534
   3 P :    0.387285
   4 S :   -0.162438
   5 O :   -0.667249
   6 C :    0.028028
   7 C :   -0.406949
   8 S :    0.142699
   9 C :   -0.430010
  10 S :    0.127486
  11 P :    0.389423
  12 S :   -0.140485
  13 O :   -0.668607
  14 C :    0.037669
  15 C :   -0.406317
  16 O :   -0.685920
  17 C :    0.024864
  18 C :   -0.388635
  19 H :    0.169349
  20 H :    0.164351
  21 H :    0.164510
  22 H :    0.180191
  23 H :    0.189134
  24 H :    0.191641
  25 H :    0.181583
  26 H :    0.160850
  27 H :    0.164360
  28 H :    0.168220
  29 H :    0.199955
  30 H :    0.195083
  31 H :    0.194013
  32 H :    0.186137
  33 H :    0.171948
  34 H :    0.164133
  35 H :    0.166663
  36 H :    0.181972
  37 H :    0.180321
  38 H :    0.163159
  39 H :    0.169369
  40 H :    0.163252

  Mayer bond orders larger than 0.100000
B(  0-C ,  1-C ) :   0.9298 B(  0-C , 19-H ) :   0.9583 B(  0-C , 20-H ) :   0.9673
B(  0-C , 21-H ) :   0.9555 B(  1-C ,  2-O ) :   0.7493 B(  1-C , 22-H ) :   0.9616
B(  1-C , 23-H ) :   0.9549 B(  2-O ,  3-P ) :   1.1276 B(  3-P ,  4-S ) :   1.7351
B(  3-P ,  5-O ) :   1.1434 B(  3-P ,  8-S ) :   1.0511 B(  5-O ,  6-C ) :   0.8037
B(  6-C ,  7-C ) :   0.9101 B(  6-C , 24-H ) :   0.9486 B(  6-C , 25-H ) :   0.9658
B(  7-C , 26-H ) :   0.9642 B(  7-C , 27-H ) :   0.9649 B(  7-C , 28-H ) :   0.9541
B(  8-S ,  9-C ) :   0.8938 B(  9-C , 10-S ) :   0.9055 B(  9-C , 29-H ) :   0.8902
B(  9-C , 30-H ) :   0.9077 B( 10-S , 11-P ) :   0.9918 B( 11-P , 12-S ) :   1.7686
B( 11-P , 13-O ) :   1.1632 B( 11-P , 16-O ) :   1.0804 B( 13-O , 14-C ) :   0.7659
B( 14-C , 15-C ) :   0.8739 B( 14-C , 31-H ) :   0.9461 B( 14-C , 32-H ) :   0.9596
B( 15-C , 33-H ) :   0.9544 B( 15-C , 34-H ) :   0.9634 B( 15-C , 35-H ) :   0.9611
B( 16-O , 17-C ) :   0.7745 B( 17-C , 18-C ) :   0.9534 B( 17-C , 36-H ) :   0.9466
B( 17-C , 37-H ) :   0.9321 B( 18-C , 38-H ) :   0.9697 B( 18-C , 39-H ) :   0.9581
B( 18-C , 40-H ) :   0.9679

Dispersion correction           -0.021397162
FINAL SINGLE POINT ENERGY     -2932.472732181005

DIPOLE MOMENT
-------------

Method             : SCF
Type of density    : Electron Density
Multiplicity       :   1
Irrep              :   0
Energy             : -2932.4978380777565690 Eh
Relativity type    :
Basis              : AO
                                X                 Y                 Z
Electronic contribution:      8.841433567      -7.932718009       2.031726201
Nuclear contribution   :    -10.239503522       9.174778314      -1.889424268
                        -----------------------------------------
Total Dipole Moment    :     -1.398069955       1.242060305       0.142301933
                        -----------------------------------------
Magnitude (a.u.)       :      1.875516793
Magnitude (Debye)      :      4.767184833

Rotational constants in cm-1:             0.013294             0.004569             0.004102
Rotational constants in MHz :           398.556577           136.967955           122.982218

                             ****ORCA TERMINATED NORMALLY****
TOTAL RUN TIME: 0 days 0 hours 1 minutes 53 seconds 218 msec
