                         Program Version 6.0.1  -  RELEASE   -
|  1> ! pbe def2-sv(p) def2/J RI DEFGRID1 loosescf d4 GCP(DFT/SV(P)) printgap
|  2> %output
|  3>     printlevel normal
|  4> end
|  5> * xyz 0 1
|  6> C 4.0669853018 -3.5605079734 0.6655973695
|  7> C 2.921216666 -2.5923773438 0.8805293621
|  8> O 2.8800237491 -1.6969716102 -0.2502624572
|  9> C 1.8385107172 -0.9214599538 -0.3910659294
| 10> O 0.9032371098 -0.9021930205 0.3959946589
| 11> C 1.9000947993 -0.0601682099 -1.6237480979
| 12> C 0.7511439987 0.9330252872 -1.6354213041
| 13> H 0.7645813578 1.5394710552 -2.544509364
| 14> C 0.7553550065 1.8621754896 -0.4319921035
| 15> O 1.607917588 1.8324909826 0.4281033186
| 16> O -0.253271321 2.7023120356 -0.4777814265
| 17> C -0.3842287564 3.6814690819 0.5698236042
| 18> C 0.4158263589 4.9313754941 0.2403567454
| 19> S -0.8829836755 0.1052602529 -1.7568930313
| 20> P -1.4857030668 -0.5331453287 0.1865767651
| 21> S -1.4697236258 -2.4384443157 0.6837212197
| 22> O -1.1000303698 0.5698335694 1.2676273097
| 23> C -0.4433446826 0.2775240591 2.5015108973
| 24> O -3.0226206341 -0.0508920763 0.0749988347
| 25> C -3.9409759981 -0.6987711795 -0.8038341941
| 26> H 3.9026243189 -4.1390701821 -0.2382683387
| 27> H 5.0005205052 -3.0144793217 0.5706145513
| 28> H 4.1283372551 -4.2335930307 1.5140358535
| 29> H 3.0622150661 -1.9905665374 1.7835329241
| 30> H 1.9559840101 -3.1043318832 0.953853017
| 31> H 1.8490214749 -0.7030245696 -2.5042892881
| 32> H 2.859001111 0.4610052641 -1.6288422896
| 33> H -1.4538664516 3.8869041245 0.6150362052
| 34> H -0.0467041948 3.2352301489 1.5090925223
| 35> H 1.4775525597 4.6980553944 0.2048990536
| 36> H 0.1059933758 5.3306622414 -0.721238203
| 37> H 0.2443936319 5.6764620019 1.0100591829
| 38> H 0.581446189 0.6471761727 2.4473374016
| 39> H -0.4359519266 -0.7983054249 2.6848106203
| 40> H -1.0030854561 0.7913677333 3.2803693692
| 41> H -3.6981946398 -0.4649917473 -1.841546063
| 42> H -4.9218452669 -0.3097717464 -0.5426610685
| 43> H -3.9062722017 -1.7796561693 -0.6507896873
| 44> *
| 45>
| 46>                          ****END OF INPUT****

CARTESIAN COORDINATES (ANGSTROEM)
---------------------------------
  C      4.066985   -3.560508    0.665597
  C      2.921217   -2.592377    0.880529
  O      2.880024   -1.696972   -0.250262
  C      1.838511   -0.921460   -0.391066
  O      0.903237   -0.902193    0.395995
  C      1.900095   -0.060168   -1.623748
  C      0.751144    0.933025   -1.635421
  H      0.764581    1.539471   -2.544509
  C      0.755355    1.862175   -0.431992
  O      1.607918    1.832491    0.428103
  O     -0.253271    2.702312   -0.477781
  C     -0.384229    3.681469    0.569824
  C      0.415826    4.931375    0.240357
  S     -0.882984    0.105260   -1.756893
  P     -1.485703   -0.533145    0.186577
  S     -1.469724   -2.438444    0.683721
  O     -1.100030    0.569834    1.267627
  C     -0.443345    0.277524    2.501511
  O     -3.022621   -0.050892    0.074999
  C     -3.940976   -0.698771   -0.803834
  H      3.902624   -4.139070   -0.238268
  H      5.000521   -3.014479    0.570615
  H      4.128337   -4.233593    1.514036
  H      3.062215   -1.990567    1.783533
  H      1.955984   -3.104332    0.953853
  H      1.849021   -0.703025   -2.504289
  H      2.859001    0.461005   -1.628842
  H     -1.453866    3.886904    0.615036
  H     -0.046704    3.235230    1.509093
  H      1.477553    4.698055    0.204899
  H      0.105993    5.330662   -0.721238
  H      0.244394    5.676462    1.010059
  H      0.581446    0.647176    2.447337
  H     -0.435952   -0.798305    2.684811
  H     -1.003085    0.791368    3.280369
  H     -3.698195   -0.464992   -1.841546
  H     -4.921845   -0.309772   -0.542661
  H     -3.906272   -1.779656   -0.650790

 Total Charge           Charge          ....    0
 Multiplicity           Mult            ....    1
 Number of Electrons    NEL             ....  174
 Basis Dimension        Dim             ....  316

ORBITAL ENERGIES
----------------

  NO   OCC          E(Eh)            E(eV)
   0   2.0000     -88.030571     -2395.4336
   1   2.0000     -87.962140     -2393.5715
   2   2.0000     -76.414591     -2079.3467
   3   2.0000     -18.813523      -511.9420
   4   2.0000     -18.806913      -511.7621
   5   2.0000     -18.780851      -511.0529
   6   2.0000     -18.762459      -510.5525
   7   2.0000     -18.755080      -510.3517
   8   2.0000     -18.745269      -510.0847
   9   2.0000     -10.022607      -272.7290
  10   2.0000     -10.021590      -272.7013
  11   2.0000      -9.954256      -270.8691
  12   2.0000      -9.951684      -270.7991
  13   2.0000      -9.949135      -270.7297
  14   2.0000      -9.928002      -270.1547
  15   2.0000      -9.925351      -270.0825
  16   2.0000      -9.919647      -269.9273
  17   2.0000      -9.891811      -269.1699
  18   2.0000      -9.889892      -269.1177
  19   2.0000      -7.675507      -208.8612
  20   2.0000      -7.607509      -207.0109
  21   2.0000      -6.410034      -174.4259
  22   2.0000      -5.704123      -155.2171
  23   2.0000      -5.699865      -155.1012
  24   2.0000      -5.691867      -154.8836
  25   2.0000      -5.636710      -153.3827
  26   2.0000      -5.628494      -153.1591
  27   2.0000      -5.626963      -153.1174
  28   2.0000      -4.632737      -126.0632
  29   2.0000      -4.632305      -126.0514
  30   2.0000      -4.630326      -125.9976
  31   2.0000      -1.024767       -27.8853
  32   2.0000      -1.016719       -27.6663
  33   2.0000      -0.967671       -26.3317
  34   2.0000      -0.931315       -25.3424
  35   2.0000      -0.922417       -25.1002
  36   2.0000      -0.920435       -25.0463
  37   2.0000      -0.765649       -20.8344
  38   2.0000      -0.721167       -19.6240
  39   2.0000      -0.703340       -19.1388
  40   2.0000      -0.686711       -18.6863
  41   2.0000      -0.655146       -17.8274
  42   2.0000      -0.621674       -16.9166
  43   2.0000      -0.613017       -16.6810
  44   2.0000      -0.604721       -16.4553
  45   2.0000      -0.597772       -16.2662
  46   2.0000      -0.562965       -15.3191
  47   2.0000      -0.517240       -14.0748
  48   2.0000      -0.507631       -13.8133
  49   2.0000      -0.497469       -13.5368
  50   2.0000      -0.485827       -13.2200
  51   2.0000      -0.465917       -12.6782
  52   2.0000      -0.459863       -12.5135
  53   2.0000      -0.452537       -12.3142
  54   2.0000      -0.438180       -11.9235
  55   2.0000      -0.431374       -11.7383
  56   2.0000      -0.427043       -11.6204
  57   2.0000      -0.415122       -11.2960
  58   2.0000      -0.407435       -11.0869
  59   2.0000      -0.406240       -11.0543
  60   2.0000      -0.394374       -10.7315
  61   2.0000      -0.391770       -10.6606
  62   2.0000      -0.388440       -10.5700
  63   2.0000      -0.383500       -10.4356
  64   2.0000      -0.377170       -10.2633
  65   2.0000      -0.364189        -9.9101
  66   2.0000      -0.361703        -9.8424
  67   2.0000      -0.357852        -9.7376
  68   2.0000      -0.353687        -9.6243
  69   2.0000      -0.344750        -9.3811
  70   2.0000      -0.331374        -9.0172
  71   2.0000      -0.328901        -8.9498
  72   2.0000      -0.322007        -8.7623
  73   2.0000      -0.311252        -8.4696
  74   2.0000      -0.306770        -8.3476
  75   2.0000      -0.295763        -8.0481
  76   2.0000      -0.287753        -7.8302
  77   2.0000      -0.278923        -7.5899
  78   2.0000      -0.269042        -7.3210
  79   2.0000      -0.264565        -7.1992
  80   2.0000      -0.256225        -6.9722
  81   2.0000      -0.243290        -6.6202
  82   2.0000      -0.239849        -6.5266
  83   2.0000      -0.228716        -6.2237
  84   2.0000      -0.211071        -5.7435
  85   2.0000      -0.183391        -4.9903
  86   2.0000      -0.171065        -4.6549
  87   0.0000      -0.047937        -1.3044
  88   0.0000      -0.041095        -1.1183
  89   0.0000      -0.020303        -0.5525
  90   0.0000      -0.006234        -0.1696
  91   0.0000       0.036170         0.9842

MULLIKEN ATOMIC CHARGES
-----------------------
   0 C :   -0.275072
   1 C :   -0.040483
   2 O :   -0.221554
   3 C :    0.154566
   4 O :   -0.217469
   5 C :   -0.044385
   6 C :   -0.306483
   7 H :    0.148941
   8 C :    0.200559
   9 O :   -0.199517
  10 O :   -0.216153
  11 C :   -0.011556
  12 C :   -0.303203
  13 S :   -0.104539
  14 P :    0.629834
  15 S :   -0.337850
  16 O :   -0.381112
  17 C :   -0.102482
  18 O :   -0.379450
  19 C :   -0.106760
  20 H :    0.118333
  21 H :    0.115181
  22 H :    0.115411
  23 H :    0.108876
  24 H :    0.129646
  25 H :    0.127523
  26 H :    0.125294
  27 H :    0.111548
  28 H :    0.113266
  29 H :    0.121759
  30 H :    0.114662
  31 H :    0.114210
  32 H :    0.127749
  33 H :    0.120669
  34 H :    0.113657
  35 H :    0.108272
  36 H :    0.117766
  37 H :    0.110346
Sum of atomic charges:    0.0000000

LOEWDIN ATOMIC CHARGES
----------------------
   0 C :   -0.350104
   1 C :   -0.105708
   2 O :   -0.045238
   3 C :    0.053899
   4 O :   -0.157879
   5 C :   -0.250808
   6 C :   -0.260276
   7 H :    0.151554
   8 C :    0.012232
   9 O :   -0.160020
  10 O :   -0.044469
  11 C :   -0.106704
  12 C :   -0.356203
  13 S :    0.093464
  14 P :    0.591711
  15 S :   -0.338909
  16 O :   -0.236541
  17 C :   -0.219082
  18 O :   -0.267536
  19 C :   -0.224739
  20 H :    0.128309
  21 H :    0.126622
  22 H :    0.133020
  23 H :    0.118976
  24 H :    0.125271
  25 H :    0.149301
  26 H :    0.150124
  27 H :    0.122960
  28 H :    0.120489
  29 H :    0.128191
  30 H :    0.125024
  31 H :    0.131323
  32 H :    0.112352
  33 H :    0.109752
  34 H :    0.114544
  35 H :    0.101767
  36 H :    0.118628
  37 H :    0.104706

  Mayer bond orders larger than 0.100000
B(  0-C ,  1-C ) :   1.1549 B(  0-C , 20-H ) :   0.9509 B(  0-C , 21-H ) :   0.9487
B(  0-C , 22-H ) :   0.9434 B(  1-C ,  2-O ) :   0.8907 B(  1-C , 23-H ) :   0.9334
B(  1-C , 24-H ) :   0.9226 B(  2-O ,  3-C ) :   1.2738 B(  3-C ,  4-O ) :   1.8633
B(  3-C ,  5-C ) :   1.0228 B(  4-O , 14-P ) :   0.1373 B(  5-C ,  6-C ) :   1.0243
B(  5-C , 25-H ) :   0.8819 B(  5-C , 26-H ) :   0.8772 B(  6-C ,  7-H ) :   0.8756
B(  6-C ,  8-C ) :   0.8969 B(  6-C , 13-S ) :   1.0304 B(  8-C ,  9-O ) :   2.0211
B(  8-C , 10-O ) :   1.2597 B( 10-O , 11-C ) :   0.9081 B( 11-C , 12-C ) :   1.1702
B( 11-C , 27-H ) :   0.9373 B( 11-C , 28-H ) :   0.9150 B( 12-C , 29-H ) :   0.9466
B( 12-C , 30-H ) :   0.9481 B( 12-C , 31-H ) :   0.9448 B( 13-S , 14-P ) :   0.9340
B( 14-P , 15-S ) :   1.5898 B( 14-P , 16-O ) :   1.0894 B( 14-P , 18-O ) :   1.0571
B( 16-O , 17-C ) :   0.9203 B( 17-C , 32-H ) :   0.9394 B( 17-C , 33-H ) :   0.9270
B( 17-C , 34-H ) :   0.9532 B( 18-O , 19-C ) :   0.9549 B( 19-C , 35-H ) :   0.9430
B( 19-C , 36-H ) :   0.9605 B( 19-C , 37-H ) :   0.9293

Dispersion correction           -0.054269264
FINAL SINGLE POINT ENERGY     -1979.003527332846

DIPOLE MOMENT
-------------

Method             : SCF
Type of density    : Electron Density
Multiplicity       :   1
Irrep              :   0
Energy             : -1979.1352688984866290 Eh
Relativity type    :
Basis              : AO
                                X                 Y                 Z
Electronic contribution:    -10.118014669      -5.061192136      -5.709072436
Nuclear contribution   :     11.229296558       5.954619554       5.422281101
                        -----------------------------------------
Total Dipole Moment    :      1.111281889       0.893427418      -0.286791336
                        -----------------------------------------
Magnitude (a.u.)       :      1.454444656
Magnitude (Debye)      :      3.696904519

Rotational constants in cm-1:             0.011427             0.008933             0.006422
Rotational constants in MHz :           342.562944           267.789940           192.512744

                             ****ORCA TERMINATED NORMALLY****
TOTAL RUN TIME: 0 days 0 hours 0 minutes 44 seconds 527 msec
