                         Program Version 6.0.0  -   RELEASE  -
|  1> ! r2scan-3c def2/J RI DEFGRID2 scfconv6 printgap
|  2> %output
|  3>     printlevel normal
|  4> end
|  5> %cpcm
|  6>     smd true
|  7>     smdsolvent "water"
|  8> end
|  9> * xyz 0 1
| 10> C -0.6119939424 -0.4416871507 1.2923877982
| 11> C 0.6123238315 0.4407196636 1.292946243
| 12> Br 1.7891037058 0.0526754217 -0.2372813806
| 13> Br -1.789162805 -0.0524942138 -0.2372318782
| 14> H -1.2068069109 -0.262837176 2.1880041341
| 15> H -0.3540394684 -1.4973652124 1.2157091142
| 16> H 0.3544410224 1.4964887829 1.2173884793
| 17> H 1.207159393 0.2608772096 2.18834513
| 18> *
| 19>
| 20>                          ****END OF INPUT****

CARTESIAN COORDINATES (ANGSTROEM)
---------------------------------
  C     -0.611994   -0.441687    1.292388
  C      0.612324    0.440720    1.292946
  Br     1.789104    0.052675   -0.237281
  Br    -1.789163   -0.052494   -0.237232
  H     -1.206807   -0.262837    2.188004
  H     -0.354039   -1.497365    1.215709
  H      0.354441    1.496489    1.217388
  H      1.207159    0.260877    2.188345

 Total Charge           Charge          ....    0
 Multiplicity           Mult            ....    1
 Number of Electrons    NEL             ....   86
 Basis Dimension        Dim             ....  130

ORBITAL ENERGIES
----------------

  NO   OCC          E(Eh)            E(eV)
   0   2.0000    -482.217211    -13121.7974
   1   2.0000    -482.217205    -13121.7973
   2   2.0000     -62.289112     -1694.9729
   3   2.0000     -62.289106     -1694.9727
   4   2.0000     -56.069570     -1525.7306
   5   2.0000     -56.069562     -1525.7303
   6   2.0000     -56.066899     -1525.6579
   7   2.0000     -56.066894     -1525.6577
   8   2.0000     -56.066814     -1525.6556
   9   2.0000     -56.066808     -1525.6554
  10   2.0000     -10.096402      -274.7371
  11   2.0000     -10.096254      -274.7330
  12   2.0000      -8.621030      -234.5902
  13   2.0000      -8.621023      -234.5900
  14   2.0000      -6.428427      -174.9264
  15   2.0000      -6.428422      -174.9263
  16   2.0000      -6.414955      -174.5598
  17   2.0000      -6.414950      -174.5597
  18   2.0000      -6.414720      -174.5534
  19   2.0000      -6.414715      -174.5533
  20   2.0000      -2.525993       -68.7358
  21   2.0000      -2.525988       -68.7356
  22   2.0000      -2.522708       -68.6464
  23   2.0000      -2.522703       -68.6462
  24   2.0000      -2.522512       -68.6410
  25   2.0000      -2.522506       -68.6409
  26   2.0000      -2.512504       -68.3687
  27   2.0000      -2.512499       -68.3686
  28   2.0000      -2.512486       -68.3682
  29   2.0000      -2.512481       -68.3681
  30   2.0000      -0.804751       -21.8984
  31   2.0000      -0.743585       -20.2340
  32   2.0000      -0.674286       -18.3483
  33   2.0000      -0.576524       -15.6880
  34   2.0000      -0.444375       -12.0921
  35   2.0000      -0.432186       -11.7604
  36   2.0000      -0.392758       -10.6875
  37   2.0000      -0.348733        -9.4895
  38   2.0000      -0.338821        -9.2198
  39   2.0000      -0.262079        -7.1315
  40   2.0000      -0.260097        -7.0776
  41   2.0000      -0.253693        -6.9033
  42   2.0000      -0.246554        -6.7091
  43   0.0000      -0.040287        -1.0963
  44   0.0000      -0.016469        -0.4481
  45   0.0000       0.109220         2.9720
  46   0.0000       0.122497         3.3333
  47   0.0000       0.154257         4.1976

MULLIKEN ATOMIC CHARGES
-----------------------
   0 C :   -0.212492
   1 C :   -0.212480
   2 Br:   -0.192113
   3 Br:   -0.192096
   4 H :    0.206446
   5 H :    0.198119
   6 H :    0.198138
   7 H :    0.206477
Sum of atomic charges:    0.0000000

LOEWDIN ATOMIC CHARGES
----------------------
   0 C :   -0.404354
   1 C :   -0.404292
   2 Br:    0.049092
   3 Br:    0.049107
   4 H :    0.181233
   5 H :    0.173979
   6 H :    0.173985
   7 H :    0.181252

  Mayer bond orders larger than 0.100000
B(  0-C ,  1-C ) :   0.9500 B(  0-C ,  3-Br) :   0.9549 B(  0-C ,  4-H ) :   0.9287
B(  0-C ,  5-H ) :   0.9456 B(  1-C ,  2-Br) :   0.9549 B(  1-C ,  6-H ) :   0.9456
B(  1-C ,  7-H ) :   0.9286

Dispersion correction           -0.002053210
FINAL SINGLE POINT ENERGY     -5226.877321408057

DIPOLE MOMENT
-------------

Method             : SCF
Type of density    : Electron Density
Multiplicity       :   1
Irrep              :   0
Energy             : -5226.8796542901327484 Eh
Relativity type    :
Basis              : AO
                                X                 Y                 Z
Electronic contribution:     -0.001129251       0.003714739      -9.220301221
Nuclear contribution   :      0.001256182      -0.004343640      10.794537861
                        -----------------------------------------
Total Dipole Moment    :      0.000126932      -0.000628901       1.574236640
                        -----------------------------------------
Magnitude (a.u.)       :      1.574236770
Magnitude (Debye)      :      4.001391875

Rotational constants in cm-1:             0.239122             0.031599             0.028741
Rotational constants in MHz :          7168.687392           947.317127           861.641156

                             ****ORCA TERMINATED NORMALLY****
TOTAL RUN TIME: 0 days 0 hours 0 minutes 12 seconds 696 msec
