                         Program Version 6.0.0  -   RELEASE  -
|  1> ! pbe def2-sv(p) def2/J RI DEFGRID1 loosescf d4 GCP(DFT/SV(P)) printgap
|  2> %output
|  3>     printlevel normal
|  4> end
|  5> * xyz 0 1
|  6> C 3.2754518211 -2.9406973113 -0.0177085681
|  7> C 3.8074571918 -2.0869895646 -1.1474006767
|  8> O 3.9039737031 -0.6836301524 -0.7956214171
|  9> P 2.7604715911 0.2174704117 -0.2079938149
| 10> S 3.1352952196 2.1256381442 -0.442674849
| 11> O 2.7148952626 -0.2498043927 1.3122938063
| 12> C 1.957025628 0.4303515114 2.3291109501
| 13> C 0.7510289443 -0.3973968865 2.7291115611
| 14> S 0.9710337914 -0.4820750445 -1.1590722972
| 15> C 0.159465557 1.109526323 -1.4093374894
| 16> S -0.8099623215 1.6522265598 0.02044351
| 17> P -2.4174253182 0.3132385434 -0.3186472718
| 18> S -2.9958674987 0.070314919 -2.1697459799
| 19> O -3.5886355443 0.8813597435 0.5793400416
| 20> C -3.4402445068 1.4091156228 1.9196661762
| 21> C -3.3517390158 0.3064348535 2.9545471072
| 22> O -1.838537139 -1.0046833253 0.3790680637
| 23> C -2.1603870619 -2.3285398789 -0.08202085
| 24> C -3.5578243407 -2.7272058182 0.3458506516
| 25> H 2.2415163314 -2.6755498447 0.1943212497
| 26> H 3.3190507681 -3.9847356745 -0.3121723834
| 27> H 3.8710740746 -2.7922232796 0.879038522
| 28> H 3.171634221 -2.1700985198 -2.032462507
| 29> H 4.8353944186 -2.3477690436 -1.403517164
| 30> H 2.6468396966 0.5508257047 3.1669394865
| 31> H 1.662475169 1.4200789673 1.963552406
| 32> H 0.0759167805 -0.5208346256 1.8857415547
| 33> H 1.0704839366 -1.3778741899 3.0704652034
| 34> H 0.2266887077 0.1106361671 3.5321872423
| 35> H -0.5032665647 1.0014026402 -2.2686327731
| 36> H 0.9185859015 1.8750572656 -1.5804574083
| 37> H -2.5548045657 2.0501706369 1.9458690914
| 38> H -4.3367584671 2.0163590661 2.0562371354
| 39> H -3.3177858842 0.7539055648 3.9430090439
| 40> H -4.2229726168 -0.339704007 2.8861293014
| 41> H -2.4544338498 -0.2868736438 2.8011950459
| 42> H -2.0659132247 -2.3529271307 -1.1720057073
| 43> H -1.3972626127 -2.9644652302 0.3680746573
| 44> H -4.2817782181 -2.0376048497 -0.0883398211
| 45> H -3.7713560911 -3.7311637523 -0.0068138107
| 46> H -3.6465888109 -2.698224899 1.4283497453
| 47> *
| 48>
| 49>                          ****END OF INPUT****

CARTESIAN COORDINATES (ANGSTROEM)
---------------------------------
  C      3.275452   -2.940697   -0.017709
  C      3.807457   -2.086990   -1.147401
  O      3.903974   -0.683630   -0.795621
  P      2.760472    0.217470   -0.207994
  S      3.135295    2.125638   -0.442675
  O      2.714895   -0.249804    1.312294
  C      1.957026    0.430352    2.329111
  C      0.751029   -0.397397    2.729112
  S      0.971034   -0.482075   -1.159072
  C      0.159466    1.109526   -1.409337
  S     -0.809962    1.652227    0.020444
  P     -2.417425    0.313239   -0.318647
  S     -2.995867    0.070315   -2.169746
  O     -3.588636    0.881360    0.579340
  C     -3.440245    1.409116    1.919666
  C     -3.351739    0.306435    2.954547
  O     -1.838537   -1.004683    0.379068
  C     -2.160387   -2.328540   -0.082021
  C     -3.557824   -2.727206    0.345851
  H      2.241516   -2.675550    0.194321
  H      3.319051   -3.984736   -0.312172
  H      3.871074   -2.792223    0.879039
  H      3.171634   -2.170099   -2.032463
  H      4.835394   -2.347769   -1.403517
  H      2.646840    0.550826    3.166939
  H      1.662475    1.420079    1.963552
  H      0.075917   -0.520835    1.885742
  H      1.070484   -1.377874    3.070465
  H      0.226689    0.110636    3.532187
  H     -0.503267    1.001403   -2.268633
  H      0.918586    1.875057   -1.580457
  H     -2.554805    2.050171    1.945869
  H     -4.336758    2.016359    2.056237
  H     -3.317786    0.753906    3.943009
  H     -4.222973   -0.339704    2.886129
  H     -2.454434   -0.286874    2.801195
  H     -2.065913   -2.352927   -1.172006
  H     -1.397263   -2.964465    0.368075
  H     -4.281778   -2.037605   -0.088340
  H     -3.771356   -3.731164   -0.006814
  H     -3.646589   -2.698225    1.428350

 Total Charge           Charge          ....    0
 Multiplicity           Mult            ....    1
 Number of Electrons    NEL             ....  202
 Basis Dimension        Dim             ....  334

ORBITAL ENERGIES
----------------

  NO   OCC          E(Eh)            E(eV)
   0   2.0000     -88.046695     -2395.8724
   1   2.0000     -88.044841     -2395.8219
   2   2.0000     -87.990622     -2394.3466
   3   2.0000     -87.985629     -2394.2107
   4   2.0000     -76.430952     -2079.7919
   5   2.0000     -76.427967     -2079.7107
   6   2.0000     -18.801129      -511.6047
   7   2.0000     -18.796961      -511.4913
   8   2.0000     -18.795490      -511.4513
   9   2.0000     -18.789767      -511.2956
  10   2.0000      -9.968063      -271.2448
  11   2.0000      -9.962882      -271.1038
  12   2.0000      -9.954882      -270.8861
  13   2.0000      -9.953071      -270.8368
  14   2.0000      -9.950985      -270.7801
  15   2.0000      -9.897541      -269.3258
  16   2.0000      -9.894222      -269.2355
  17   2.0000      -9.889260      -269.1004
  18   2.0000      -9.882860      -268.9263
  19   2.0000      -7.691622      -209.2997
  20   2.0000      -7.689474      -209.2412
  21   2.0000      -7.635818      -207.7812
  22   2.0000      -7.630843      -207.6458
  23   2.0000      -6.428841      -174.9377
  24   2.0000      -6.425415      -174.8444
  25   2.0000      -5.719313      -155.6304
  26   2.0000      -5.717275      -155.5750
  27   2.0000      -5.716350      -155.5498
  28   2.0000      -5.713952      -155.4845
  29   2.0000      -5.708584      -155.3385
  30   2.0000      -5.706643      -155.2857
  31   2.0000      -5.664863      -154.1488
  32   2.0000      -5.659858      -154.0126
  33   2.0000      -5.656611      -153.9242
  34   2.0000      -5.655622      -153.8973
  35   2.0000      -5.651483      -153.7847
  36   2.0000      -5.650837      -153.7671
  37   2.0000      -4.651729      -126.5800
  38   2.0000      -4.650339      -126.5422
  39   2.0000      -4.649230      -126.5120
  40   2.0000      -4.648099      -126.4812
  41   2.0000      -4.647183      -126.4563
  42   2.0000      -4.645770      -126.4178
  43   2.0000      -0.991139       -26.9703
  44   2.0000      -0.988728       -26.9047
  45   2.0000      -0.953045       -25.9337
  46   2.0000      -0.946278       -25.7495
  47   2.0000      -0.766710       -20.8632
  48   2.0000      -0.727077       -19.7848
  49   2.0000      -0.717418       -19.5219
  50   2.0000      -0.698682       -19.0121
  51   2.0000      -0.692806       -18.8522
  52   2.0000      -0.678623       -18.4663
  53   2.0000      -0.653627       -17.7861
  54   2.0000      -0.640523       -17.4295
  55   2.0000      -0.602976       -16.4078
  56   2.0000      -0.599006       -16.2998
  57   2.0000      -0.583915       -15.8891
  58   2.0000      -0.574438       -15.6313
  59   2.0000      -0.564242       -15.3538
  60   2.0000      -0.507644       -13.8137
  61   2.0000      -0.497466       -13.5367
  62   2.0000      -0.485437       -13.2094
  63   2.0000      -0.479384       -13.0447
  64   2.0000      -0.463524       -12.6131
  65   2.0000      -0.453767       -12.3476
  66   2.0000      -0.446033       -12.1372
  67   2.0000      -0.441048       -12.0015
  68   2.0000      -0.433097       -11.7852
  69   2.0000      -0.417572       -11.3627
  70   2.0000      -0.414043       -11.2667
  71   2.0000      -0.406414       -11.0591
  72   2.0000      -0.395693       -10.7674
  73   2.0000      -0.389318       -10.5939
  74   2.0000      -0.386986       -10.5304
  75   2.0000      -0.379645       -10.3307
  76   2.0000      -0.370261       -10.0753
  77   2.0000      -0.361170        -9.8279
  78   2.0000      -0.359616        -9.7857
  79   2.0000      -0.358255        -9.7486
  80   2.0000      -0.355045        -9.6613
  81   2.0000      -0.353209        -9.6113
  82   2.0000      -0.348085        -9.4719
  83   2.0000      -0.347082        -9.4446
  84   2.0000      -0.334133        -9.0922
  85   2.0000      -0.324870        -8.8402
  86   2.0000      -0.318421        -8.6647
  87   2.0000      -0.313973        -8.5436
  88   2.0000      -0.295521        -8.0415
  89   2.0000      -0.292784        -7.9671
  90   2.0000      -0.286526        -7.7968
  91   2.0000      -0.281411        -7.6576
  92   2.0000      -0.278301        -7.5730
  93   2.0000      -0.272470        -7.4143
  94   2.0000      -0.257669        -7.0115
  95   2.0000      -0.234491        -6.3808
  96   2.0000      -0.220808        -6.0085
  97   2.0000      -0.214479        -5.8363
  98   2.0000      -0.204803        -5.5730
  99   2.0000      -0.204305        -5.5594
 100   2.0000      -0.200255        -5.4492
 101   0.0000      -0.047863        -1.3024
 102   0.0000      -0.029216        -0.7950
 103   0.0000      -0.013554        -0.3688
 104   0.0000       0.000730         0.0199
 105   0.0000       0.007810         0.2125

MULLIKEN ATOMIC CHARGES
-----------------------
   0 C :   -0.320558
   1 C :   -0.007013
   2 O :   -0.358444
   3 P :    0.597982
   4 S :   -0.306619
   5 O :   -0.372547
   6 C :    0.003002
   7 C :   -0.342293
   8 S :   -0.121797
   9 C :   -0.345505
  10 S :   -0.110062
  11 P :    0.623229
  12 S :   -0.309503
  13 O :   -0.365329
  14 C :   -0.028815
  15 C :   -0.323935
  16 O :   -0.376925
  17 C :   -0.005852
  18 C :   -0.311538
  19 H :    0.128396
  20 H :    0.116296
  21 H :    0.127772
  22 H :    0.118040
  23 H :    0.116010
  24 H :    0.104766
  25 H :    0.102594
  26 H :    0.162829
  27 H :    0.107441
  28 H :    0.104954
  29 H :    0.194293
  30 H :    0.198877
  31 H :    0.124334
  32 H :    0.119065
  33 H :    0.115191
  34 H :    0.125686
  35 H :    0.142413
  36 H :    0.113701
  37 H :    0.103096
  38 H :    0.128281
  39 H :    0.114132
  40 H :    0.114356
Sum of atomic charges:    0.0000000

LOEWDIN ATOMIC CHARGES
----------------------
   0 C :   -0.368336
   1 C :   -0.111604
   2 O :   -0.232624
   3 P :    0.570864
   4 S :   -0.303055
   5 O :   -0.245105
   6 C :   -0.117001
   7 C :   -0.372027
   8 S :    0.067074
   9 C :   -0.487158
  10 S :    0.084416
  11 P :    0.573168
  12 S :   -0.302641
  13 O :   -0.239976
  14 C :   -0.112475
  15 C :   -0.365447
  16 O :   -0.246296
  17 C :   -0.122984
  18 C :   -0.363838
  19 H :    0.118030
  20 H :    0.132718
  21 H :    0.131295
  22 H :    0.112602
  23 H :    0.125475
  24 H :    0.118004
  25 H :    0.102309
  26 H :    0.119979
  27 H :    0.122213
  28 H :    0.125507
  29 H :    0.129446
  30 H :    0.128881
  31 H :    0.107865
  32 H :    0.125998
  33 H :    0.132406
  34 H :    0.129148
  35 H :    0.127562
  36 H :    0.109010
  37 H :    0.116262
  38 H :    0.125890
  39 H :    0.131745
  40 H :    0.122702

  Mayer bond orders larger than 0.100000
B(  0-C ,  1-C ) :   1.1686 B(  0-C , 19-H ) :   0.9363 B(  0-C , 20-H ) :   0.9341
B(  0-C , 21-H ) :   0.9416 B(  1-C ,  2-O ) :   0.8998 B(  1-C , 22-H ) :   0.9228
B(  1-C , 23-H ) :   0.9340 B(  2-O ,  3-P ) :   1.1561 B(  3-P ,  4-S ) :   1.6400
B(  3-P ,  5-O ) :   1.0897 B(  3-P ,  8-S ) :   0.9274 B(  4-S ,  8-S ) :   0.1120
B(  4-S , 30-H ) :   0.1073 B(  5-O ,  6-C ) :   0.9056 B(  6-C ,  7-C ) :   1.1612
B(  6-C , 24-H ) :   0.9346 B(  6-C , 25-H ) :   0.9021 B(  7-C , 26-H ) :   0.9152
B(  7-C , 27-H ) :   0.9440 B(  7-C , 28-H ) :   0.9381 B(  8-S ,  9-C ) :   1.0197
B(  9-C , 10-S ) :   1.0052 B(  9-C , 29-H ) :   0.8659 B(  9-C , 30-H ) :   0.8549
B( 10-S , 11-P ) :   0.9592 B( 11-P , 12-S ) :   1.6287 B( 11-P , 13-O ) :   1.1309
B( 11-P , 16-O ) :   1.0685 B( 13-O , 14-C ) :   0.9040 B( 14-C , 15-C ) :   1.1616
B( 14-C , 31-H ) :   0.9158 B( 14-C , 32-H ) :   0.9342 B( 15-C , 33-H ) :   0.9365
B( 15-C , 34-H ) :   0.9413 B( 15-C , 35-H ) :   0.9329 B( 16-O , 17-C ) :   0.8992
B( 17-C , 18-C ) :   1.1634 B( 17-C , 36-H ) :   0.9098 B( 17-C , 37-H ) :   0.9322
B( 18-C , 38-H ) :   0.9362 B( 18-C , 39-H ) :   0.9398 B( 18-C , 40-H ) :   0.9449

Dispersion correction           -0.065985889
FINAL SINGLE POINT ENERGY     -2929.516633398873

DIPOLE MOMENT
-------------

Method             : SCF
Type of density    : Electron Density
Multiplicity       :   1
Irrep              :   0
Energy             : -2929.6375506201070493 Eh
Relativity type    :
Basis              : AO
                                X                 Y                 Z
Electronic contribution:      7.852083418      18.227534387     -18.912263250
Nuclear contribution   :     -8.284464318     -19.821316323      20.543429445
                        -----------------------------------------
Total Dipole Moment    :     -0.432380900      -1.593781936       1.631166195
                        -----------------------------------------
Magnitude (a.u.)       :      2.321162911
Magnitude (Debye)      :      5.899927244

Rotational constants in cm-1:             0.011882             0.004955             0.004836
Rotational constants in MHz :           356.223350           148.557462           144.965580

                             ****ORCA TERMINATED NORMALLY****
TOTAL RUN TIME: 0 days 0 hours 0 minutes 21 seconds 851 msec
