                         Program Version 6.0.0  -   RELEASE  -
|  1> ! pbe def2-sv(p) def2/J RI DEFGRID1 loosescf d4 GCP(DFT/SV(P)) printgap
|  2> %output
|  3>     printlevel normal
|  4> end
|  5> * xyz 0 1
|  6> C -0.6911538614 -2.0722251456 -1.23194e-05
|  7> C 0.6911728991 -2.0722199698 4.6786e-06
|  8> C 1.3856176267 -0.8716899363 7.04433e-05
|  9> C 0.6966528901 0.3391315489 7.29256e-05
| 10> C -0.6966565884 0.3391292658 6.60405e-05
| 11> C -1.3856149617 -0.8716973375 8.79615e-05
| 12> Cl -3.1080807129 -0.8664373098 -2.5087e-05
| 13> Cl -1.5536054733 1.8341801782 -2.97125e-05
| 14> Cl 1.5535929107 1.8341762211 4.249e-06
| 15> Cl 3.1080863045 -0.8664226536 -4.33058e-05
| 16> H -1.2377275496 -3.0003047484 -0.0001676889
| 17> H 1.2377582013 -3.000292009 1.65025e-05
| 18> *
| 19>
| 20>                          ****END OF INPUT****

CARTESIAN COORDINATES (ANGSTROEM)
---------------------------------
  C     -0.691154   -2.072225   -0.000012
  C      0.691173   -2.072220    0.000005
  C      1.385618   -0.871690    0.000070
  C      0.696653    0.339132    0.000073
  C     -0.696657    0.339129    0.000066
  C     -1.385615   -0.871697    0.000088
  Cl    -3.108081   -0.866437   -0.000025
  Cl    -1.553605    1.834180   -0.000030
  Cl     1.553593    1.834176    0.000004
  Cl     3.108086   -0.866423   -0.000043
  H     -1.237728   -3.000305   -0.000168
  H      1.237758   -3.000292    0.000017

 Total Charge           Charge          ....    0
 Multiplicity           Mult            ....    1
 Number of Electrons    NEL             ....  106
 Basis Dimension        Dim             ....  160

ORBITAL ENERGIES
----------------

  NO   OCC          E(Eh)            E(eV)
   0   2.0000    -100.658707     -2739.0627
   1   2.0000    -100.658624     -2739.0604
   2   2.0000    -100.656947     -2739.0148
   3   2.0000    -100.656924     -2739.0141
   4   2.0000      -9.980686      -271.5883
   5   2.0000      -9.980471      -271.5824
   6   2.0000      -9.976313      -271.4693
   7   2.0000      -9.976250      -271.4676
   8   2.0000      -9.927874      -270.1512
   9   2.0000      -9.927620      -270.1443
  10   2.0000      -9.194430      -250.1932
  11   2.0000      -9.194360      -250.1913
  12   2.0000      -9.192831      -250.1496
  13   2.0000      -9.192814      -250.1492
  14   2.0000      -7.026185      -191.1922
  15   2.0000      -7.026169      -191.1918
  16   2.0000      -7.024420      -191.1442
  17   2.0000      -7.024414      -191.1440
  18   2.0000      -7.014453      -190.8730
  19   2.0000      -7.014442      -190.8727
  20   2.0000      -7.013304      -190.8417
  21   2.0000      -7.013269      -190.8408
  22   2.0000      -7.012823      -190.8286
  23   2.0000      -7.012822      -190.8286
  24   2.0000      -7.011932      -190.8044
  25   2.0000      -7.011928      -190.8043
  26   2.0000      -0.869026       -23.6474
  27   2.0000      -0.829210       -22.5639
  28   2.0000      -0.807652       -21.9773
  29   2.0000      -0.781263       -21.2592
  30   2.0000      -0.761430       -20.7196
  31   2.0000      -0.681554       -18.5460
  32   2.0000      -0.661237       -17.9932
  33   2.0000      -0.573635       -15.6094
  34   2.0000      -0.558291       -15.1919
  35   2.0000      -0.485672       -13.2158
  36   2.0000      -0.478327       -13.0159
  37   2.0000      -0.437219       -11.8973
  38   2.0000      -0.417864       -11.3707
  39   2.0000      -0.417692       -11.3660
  40   2.0000      -0.409520       -11.1436
  41   2.0000      -0.370671       -10.0865
  42   2.0000      -0.367311        -9.9950
  43   2.0000      -0.352459        -9.5909
  44   2.0000      -0.330628        -8.9969
  45   2.0000      -0.301615        -8.2074
  46   2.0000      -0.300699        -8.1824
  47   2.0000      -0.295671        -8.0456
  48   2.0000      -0.286147        -7.7864
  49   2.0000      -0.278844        -7.5877
  50   2.0000      -0.260453        -7.0873
  51   2.0000      -0.235184        -6.3997
  52   2.0000      -0.224110        -6.0983
  53   0.0000      -0.069177        -1.8824
  54   0.0000      -0.066884        -1.8200
  55   0.0000      -0.050417        -1.3719
  56   0.0000       0.008340         0.2270
  57   0.0000       0.036162         0.9840

MULLIKEN ATOMIC CHARGES
-----------------------
   0 C :   -0.099816
   1 C :   -0.099810
   2 C :    0.073185
   3 C :    0.023983
   4 C :    0.023985
   5 C :    0.073189
   6 Cl:   -0.042983
   7 Cl:   -0.016859
   8 Cl:   -0.016858
   9 Cl:   -0.042984
  10 H :    0.062485
  11 H :    0.062484
Sum of atomic charges:    0.0000000

LOEWDIN ATOMIC CHARGES
----------------------
   0 C :   -0.132888
   1 C :   -0.132888
   2 C :   -0.158806
   3 C :   -0.174578
   4 C :   -0.174575
   5 C :   -0.158806
   6 Cl:    0.157362
   7 Cl:    0.169083
   8 Cl:    0.169089
   9 Cl:    0.157359
  10 H :    0.139824
  11 H :    0.139824

  Mayer bond orders larger than 0.100000
B(  0-C ,  1-C ) :   1.3080 B(  0-C ,  5-C ) :   1.3646 B(  0-C , 10-H ) :   0.9697
B(  1-C ,  2-C ) :   1.3646 B(  1-C , 11-H ) :   0.9697 B(  2-C ,  3-C ) :   1.4042
B(  2-C ,  9-Cl) :   1.0425 B(  3-C ,  4-C ) :   1.4159 B(  3-C ,  8-Cl) :   1.1178
B(  4-C ,  5-C ) :   1.4042 B(  4-C ,  7-Cl) :   1.1178 B(  5-C ,  6-Cl) :   1.0425

Dispersion correction           -0.021762261
FINAL SINGLE POINT ENERGY     -2068.837634382411

DIPOLE MOMENT
-------------

Method             : SCF
Type of density    : Electron Density
Multiplicity       :   1
Irrep              :   0
Energy             : -2068.8518828821697753 Eh
Relativity type    :
Basis              : AO
                                X                 Y                 Z
Electronic contribution:     -0.000035867       7.615471222      -0.000023082
Nuclear contribution   :      0.000038113      -8.227482146      -0.000015864
                        -----------------------------------------
Total Dipole Moment    :      0.000002246      -0.612010924      -0.000038946
                        -----------------------------------------
Magnitude (a.u.)       :      0.612010926
Magnitude (Debye)      :      1.555608147

Rotational constants in cm-1:             0.038835             0.018157             0.012372
Rotational constants in MHz :          1164.231843           544.324936           370.909783

                             ****ORCA TERMINATED NORMALLY****
TOTAL RUN TIME: 0 days 0 hours 0 minutes 12 seconds 353 msec
