                         Program Version 6.0.0  -   RELEASE  -
|  1> ! pbe def2-sv(p) def2/J RI DEFGRID1 loosescf d4 GCP(DFT/SV(P)) printgap
|  2> %output
|  3>     printlevel normal
|  4> end
|  5> * xyz 0 1
|  6> C 3.7256079411 -1.2645113495 -2.6567035427
|  7> C 4.0551139741 0.0186477876 -1.9216093964
|  8> O 3.6463000525 -0.0320595661 -0.54512391
|  9> P 2.1185534895 -0.0506710529 -0.1082472192
| 10> S 0.9804860579 1.1275567103 -1.19452454
| 11> O 2.1966842345 0.2698879681 1.4394039689
| 12> C 2.1755884086 1.6119557122 1.9637128145
| 13> C 3.4030434782 2.3984396674 1.5576778125
| 14> S 1.713183641 -2.1155547102 0.0157274248
| 15> C 0.059388682 -2.1108592999 0.7543463033
| 16> S -1.2998370638 -1.9279538468 -0.4560329719
| 17> P -2.1205899863 -0.0857065109 0.1416704867
| 18> S -1.2874584729 0.799335447 1.6869805837
| 19> O -3.6746704123 -0.3952393347 0.3412464767
| 20> C -4.1836417562 -1.0870262716 1.4985768898
| 21> C -4.742604969 -0.1041312209 2.5093293085
| 22> O -2.1741046372 0.6949086831 -1.2241164786
| 23> C -2.5661277973 2.0862058829 -1.2896431083
| 24> C -2.1335593183 2.6231780213 -2.6369044471
| 25> H 4.1309648261 -2.1202661615 -2.1227850325
| 26> H 2.6447793348 -1.3815014999 -2.7330497404
| 27> H 4.1468286971 -1.2269128021 -3.6561871721
| 28> H 3.5620395676 0.8722890509 -2.3986664252
| 29> H 5.1309434513 0.1906071551 -1.8700804625
| 30> H 1.2607787425 2.1052361702 1.6194464367
| 31> H 2.1201656638 1.4657224035 3.0432767178
| 32> H 3.3973770984 3.3580933399 2.0648974661
| 33> H 4.3031206068 1.8503729469 1.8236188083
| 34> H 3.3962369764 2.566313164 0.481280445
| 35> H -0.0121569127 -1.3059939 1.4912371432
| 36> H -0.0544505186 -3.0869640541 1.2176996124
| 37> H -4.9623847029 -1.7453637815 1.1094086902
| 38> H -3.3846993547 -1.6898261925 1.9401148387
| 39> H -5.1697935119 -0.6527228675 3.3424028617
| 40> H -3.9519685835 0.5450432453 2.8793036072
| 41> H -5.5124549174 0.5080577341 2.0483045037
| 42> H -3.6499650497 2.1380393412 -1.1594818606
| 43> H -2.0761856372 2.6238296826 -0.4705220031
| 44> H -1.0539463618 2.5353928143 -2.7344914089
| 45> H -2.6051718766 2.0535526132 -3.43194525
| 46> H -2.420106716 3.6666991415 -2.7146593139
| 47> *
| 48>
| 49>                          ****END OF INPUT****

CARTESIAN COORDINATES (ANGSTROEM)
---------------------------------
  C      3.725608   -1.264511   -2.656704
  C      4.055114    0.018648   -1.921609
  O      3.646300   -0.032060   -0.545124
  P      2.118553   -0.050671   -0.108247
  S      0.980486    1.127557   -1.194525
  O      2.196684    0.269888    1.439404
  C      2.175588    1.611956    1.963713
  C      3.403043    2.398440    1.557678
  S      1.713184   -2.115555    0.015727
  C      0.059389   -2.110859    0.754346
  S     -1.299837   -1.927954   -0.456033
  P     -2.120590   -0.085707    0.141670
  S     -1.287458    0.799335    1.686981
  O     -3.674670   -0.395239    0.341246
  C     -4.183642   -1.087026    1.498577
  C     -4.742605   -0.104131    2.509329
  O     -2.174105    0.694909   -1.224116
  C     -2.566128    2.086206   -1.289643
  C     -2.133559    2.623178   -2.636904
  H      4.130965   -2.120266   -2.122785
  H      2.644779   -1.381501   -2.733050
  H      4.146829   -1.226913   -3.656187
  H      3.562040    0.872289   -2.398666
  H      5.130943    0.190607   -1.870080
  H      1.260779    2.105236    1.619446
  H      2.120166    1.465722    3.043277
  H      3.397377    3.358093    2.064897
  H      4.303121    1.850373    1.823619
  H      3.396237    2.566313    0.481280
  H     -0.012157   -1.305994    1.491237
  H     -0.054451   -3.086964    1.217700
  H     -4.962385   -1.745364    1.109409
  H     -3.384699   -1.689826    1.940115
  H     -5.169794   -0.652723    3.342403
  H     -3.951969    0.545043    2.879304
  H     -5.512455    0.508058    2.048305
  H     -3.649965    2.138039   -1.159482
  H     -2.076186    2.623830   -0.470522
  H     -1.053946    2.535393   -2.734491
  H     -2.605172    2.053553   -3.431945
  H     -2.420107    3.666699   -2.714659

 Total Charge           Charge          ....    0
 Multiplicity           Mult            ....    1
 Number of Electrons    NEL             ....  202
 Basis Dimension        Dim             ....  334

ORBITAL ENERGIES
----------------

  NO   OCC          E(Eh)            E(eV)
   0   2.0000     -88.040904     -2395.7148
   1   2.0000     -88.039313     -2395.6715
   2   2.0000     -87.986812     -2394.2429
   3   2.0000     -87.980512     -2394.0714
   4   2.0000     -76.423479     -2079.5886
   5   2.0000     -76.421574     -2079.5367
   6   2.0000     -18.789062      -511.2764
   7   2.0000     -18.785837      -511.1886
   8   2.0000     -18.784685      -511.1573
   9   2.0000     -18.784386      -511.1491
  10   2.0000      -9.955028      -270.8901
  11   2.0000      -9.951291      -270.7884
  12   2.0000      -9.949476      -270.7390
  13   2.0000      -9.947928      -270.6969
  14   2.0000      -9.942391      -270.5462
  15   2.0000      -9.882055      -268.9044
  16   2.0000      -9.879610      -268.8378
  17   2.0000      -9.879507      -268.8351
  18   2.0000      -9.878090      -268.7965
  19   2.0000      -7.686487      -209.1599
  20   2.0000      -7.684941      -209.1179
  21   2.0000      -7.631552      -207.6651
  22   2.0000      -7.625149      -207.4909
  23   2.0000      -6.421153      -174.7285
  24   2.0000      -6.419157      -174.6741
  25   2.0000      -5.714361      -155.4957
  26   2.0000      -5.712879      -155.4553
  27   2.0000      -5.710947      -155.4028
  28   2.0000      -5.709405      -155.3608
  29   2.0000      -5.703427      -155.1981
  30   2.0000      -5.701791      -155.1536
  31   2.0000      -5.660248      -154.0232
  32   2.0000      -5.653972      -153.8524
  33   2.0000      -5.652700      -153.8178
  34   2.0000      -5.651352      -153.7811
  35   2.0000      -5.645782      -153.6295
  36   2.0000      -5.645448      -153.6204
  37   2.0000      -4.643503      -126.3561
  38   2.0000      -4.642765      -126.3360
  39   2.0000      -4.641938      -126.3135
  40   2.0000      -4.641636      -126.3053
  41   2.0000      -4.640986      -126.2876
  42   2.0000      -4.639643      -126.2511
  43   2.0000      -0.982457       -26.7340
  44   2.0000      -0.982198       -26.7270
  45   2.0000      -0.941929       -25.6312
  46   2.0000      -0.938212       -25.5300
  47   2.0000      -0.759357       -20.6632
  48   2.0000      -0.719546       -19.5799
  49   2.0000      -0.704872       -19.1805
  50   2.0000      -0.683805       -18.6073
  51   2.0000      -0.682971       -18.5846
  52   2.0000      -0.670891       -18.2559
  53   2.0000      -0.650009       -17.6876
  54   2.0000      -0.633556       -17.2399
  55   2.0000      -0.598167       -16.2769
  56   2.0000      -0.585801       -15.9405
  57   2.0000      -0.568881       -15.4800
  58   2.0000      -0.567932       -15.4542
  59   2.0000      -0.555100       -15.1050
  60   2.0000      -0.503616       -13.7041
  61   2.0000      -0.487972       -13.2784
  62   2.0000      -0.476242       -12.9592
  63   2.0000      -0.469160       -12.7665
  64   2.0000      -0.448521       -12.2049
  65   2.0000      -0.440074       -11.9750
  66   2.0000      -0.434844       -11.8327
  67   2.0000      -0.433123       -11.7859
  68   2.0000      -0.424847       -11.5607
  69   2.0000      -0.417573       -11.3627
  70   2.0000      -0.408712       -11.1216
  71   2.0000      -0.396260       -10.7828
  72   2.0000      -0.388005       -10.5581
  73   2.0000      -0.381152       -10.3717
  74   2.0000      -0.376974       -10.2580
  75   2.0000      -0.374394       -10.1878
  76   2.0000      -0.363772        -9.8987
  77   2.0000      -0.353057        -9.6072
  78   2.0000      -0.352025        -9.5791
  79   2.0000      -0.347660        -9.4603
  80   2.0000      -0.344635        -9.3780
  81   2.0000      -0.339676        -9.2431
  82   2.0000      -0.332263        -9.0413
  83   2.0000      -0.330789        -9.0012
  84   2.0000      -0.328917        -8.9503
  85   2.0000      -0.311801        -8.4845
  86   2.0000      -0.308049        -8.3824
  87   2.0000      -0.294862        -8.0236
  88   2.0000      -0.291907        -7.9432
  89   2.0000      -0.290481        -7.9044
  90   2.0000      -0.278056        -7.5663
  91   2.0000      -0.268594        -7.3088
  92   2.0000      -0.267882        -7.2894
  93   2.0000      -0.262195        -7.1347
  94   2.0000      -0.256334        -6.9752
  95   2.0000      -0.236233        -6.4282
  96   2.0000      -0.222148        -6.0449
  97   2.0000      -0.208722        -5.6796
  98   2.0000      -0.206200        -5.6110
  99   2.0000      -0.194286        -5.2868
 100   2.0000      -0.184794        -5.0285
 101   0.0000      -0.036919        -1.0046
 102   0.0000      -0.029225        -0.7953
 103   0.0000      -0.012427        -0.3382
 104   0.0000       0.004897         0.1333
 105   0.0000       0.018059         0.4914

MULLIKEN ATOMIC CHARGES
-----------------------
   0 C :   -0.323765
   1 C :   -0.003084
   2 O :   -0.372897
   3 P :    0.619565
   4 S :   -0.334816
   5 O :   -0.367681
   6 C :   -0.008960
   7 C :   -0.304964
   8 S :   -0.082589
   9 C :   -0.361700
  10 S :   -0.072048
  11 P :    0.624540
  12 S :   -0.334031
  13 O :   -0.380553
  14 C :    0.002014
  15 C :   -0.288786
  16 O :   -0.360697
  17 C :   -0.004131
  18 C :   -0.285930
  19 H :    0.119764
  20 H :    0.133253
  21 H :    0.113860
  22 H :    0.109147
  23 H :    0.104285
  24 H :    0.125666
  25 H :    0.102255
  26 H :    0.109839
  27 H :    0.114860
  28 H :    0.120255
  29 H :    0.203631
  30 H :    0.182652
  31 H :    0.105145
  32 H :    0.088659
  33 H :    0.105409
  34 H :    0.125065
  35 H :    0.110310
  36 H :    0.101515
  37 H :    0.107368
  38 H :    0.135331
  39 H :    0.115074
  40 H :    0.107172
Sum of atomic charges:   -0.0000000

LOEWDIN ATOMIC CHARGES
----------------------
   0 C :   -0.371285
   1 C :   -0.121144
   2 O :   -0.242903
   3 P :    0.569572
   4 S :   -0.317230
   5 O :   -0.237985
   6 C :   -0.119809
   7 C :   -0.365865
   8 S :    0.091162
   9 C :   -0.481198
  10 S :    0.087265
  11 P :    0.571425
  12 S :   -0.304249
  13 O :   -0.255460
  14 C :   -0.115877
  15 C :   -0.362481
  16 O :   -0.233117
  17 C :   -0.112610
  18 C :   -0.351607
  19 H :    0.124503
  20 H :    0.123902
  21 H :    0.131685
  22 H :    0.108970
  23 H :    0.118239
  24 H :    0.108935
  25 H :    0.118376
  26 H :    0.129466
  27 H :    0.125295
  28 H :    0.121382
  29 H :    0.124196
  30 H :    0.137469
  31 H :    0.117685
  32 H :    0.102846
  33 H :    0.127495
  34 H :    0.123677
  35 H :    0.124239
  36 H :    0.111181
  37 H :    0.110179
  38 H :    0.127767
  39 H :    0.126970
  40 H :    0.128937

  Mayer bond orders larger than 0.100000
B(  0-C ,  1-C ) :   1.1660 B(  0-C , 19-H ) :   0.9439 B(  0-C , 20-H ) :   0.9337
B(  0-C , 21-H ) :   0.9381 B(  1-C ,  2-O ) :   0.9089 B(  1-C , 22-H ) :   0.9127
B(  1-C , 23-H ) :   0.9329 B(  2-O ,  3-P ) :   1.0984 B(  3-P ,  4-S ) :   1.6138
B(  3-P ,  5-O ) :   1.1269 B(  3-P ,  8-S ) :   0.9640 B(  4-S ,  8-S ) :   0.1133
B(  5-O ,  6-C ) :   0.9000 B(  6-C ,  7-C ) :   1.1623 B(  6-C , 24-H ) :   0.9090
B(  6-C , 25-H ) :   0.9363 B(  7-C , 26-H ) :   0.9391 B(  7-C , 27-H ) :   0.9449
B(  7-C , 28-H ) :   0.9366 B(  8-S ,  9-C ) :   1.0016 B(  9-C , 10-S ) :   0.9964
B(  9-C , 29-H ) :   0.8480 B(  9-C , 30-H ) :   0.9118 B( 10-S , 11-P ) :   0.9761
B( 10-S , 12-S ) :   0.1206 B( 11-P , 12-S ) :   1.5829 B( 11-P , 13-O ) :   1.0910
B( 11-P , 16-O ) :   1.1560 B( 12-S , 29-H ) :   0.1048 B( 13-O , 14-C ) :   0.9093
B( 14-C , 15-C ) :   1.1651 B( 14-C , 31-H ) :   0.9365 B( 14-C , 32-H ) :   0.9140
B( 15-C , 33-H ) :   0.9404 B( 15-C , 34-H ) :   0.9334 B( 15-C , 35-H ) :   0.9478
B( 16-O , 17-C ) :   0.8912 B( 17-C , 18-C ) :   1.1641 B( 17-C , 36-H ) :   0.9303
B( 17-C , 37-H ) :   0.9142 B( 18-C , 38-H ) :   0.9447 B( 18-C , 39-H ) :   0.9492
B( 18-C , 40-H ) :   0.9407

Dispersion correction           -0.066091359
FINAL SINGLE POINT ENERGY     -2929.522076806077

DIPOLE MOMENT
-------------

Method             : SCF
Type of density    : Electron Density
Multiplicity       :   1
Irrep              :   0
Energy             : -2929.6400166467819872 Eh
Relativity type    :
Basis              : AO
                                X                 Y                 Z
Electronic contribution:      0.599869676     -12.588061048       0.409045343
Nuclear contribution   :     -0.714402085      12.640340740      -0.247807358
                        -----------------------------------------
Total Dipole Moment    :     -0.114532410       0.052279691       0.161237985
                        -----------------------------------------
Magnitude (a.u.)       :      0.204569125
Magnitude (Debye)      :      0.519973392

Rotational constants in cm-1:             0.011756             0.005157             0.005030
Rotational constants in MHz :           352.432171           154.600723           150.784734

                             ****ORCA TERMINATED NORMALLY****
TOTAL RUN TIME: 0 days 0 hours 0 minutes 20 seconds 877 msec
