                         Program Version 6.0.0  -   RELEASE  -
|  1> ! pbe def2-sv(p) def2/J RI DEFGRID1 loosescf d4 GCP(DFT/SV(P)) printgap
|  2> %output
|  3>     printlevel normal
|  4> end
|  5> * xyz 0 1
|  6> C 2.7552034845 1.1685046523 -3.1177479587
|  7> C 2.8751619734 1.2375796906 -1.6106229631
|  8> O 2.4316967116 -0.027709417 -1.0733515827
|  9> P 2.1220449256 -0.2152147037 0.4664353155
| 10> S 1.0800304434 1.2103713961 1.329074381
| 11> O 3.5823636722 -0.3647420503 1.0794181951
| 12> C 3.8390670782 -0.2547626615 2.4903406083
| 13> C 3.2187596218 -1.3982780315 3.2663087171
| 14> S 1.3991596514 -2.1880514454 0.4136064447
| 15> C -0.1842904902 -1.9228858094 -0.4280364619
| 16> S -1.4516275331 -1.1834880135 0.6513114085
| 17> P -2.0941452701 0.3698578792 -0.6623007679
| 18> S -0.755544079 1.0973132429 -1.8871908002
| 19> O -2.9035667309 1.3397209097 0.2972047061
| 20> C -2.3698626134 2.1459456786 1.3629337928
| 21> C -1.8121446351 3.4528898544 0.8376914369
| 22> O -3.2635682474 -0.2394127797 -1.524857057
| 23> C -4.4352595244 -0.8860507682 -0.9650896185
| 24> C -4.3673508896 -2.3821670388 -1.1991906684
| 25> H 1.7106237109 1.0534381024 -3.3973537687
| 26> H 3.1397700239 2.0874118102 -3.5473948215
| 27> H 3.3219587091 0.3231229439 -3.4964283192
| 28> H 2.2427496714 2.0313054078 -1.1988655911
| 29> H 3.9085691957 1.3951733345 -1.2921187182
| 30> H 4.9275024699 -0.259412888 2.5596790521
| 31> H 3.4456927428 0.7057768294 2.8388712429
| 32> H 3.5356025475 -2.3520969355 2.8520029551
| 33> H 3.5220532286 -1.3351391588 4.3063471518
| 34> H 2.1321154391 -1.3365270084 3.2102823482
| 35> H -0.5194724023 -2.9105158092 -0.7332418107
| 36> H -0.0343699734 -1.2656574679 -1.2884986405
| 37> H -3.226119313 2.3139098196 2.0187877715
| 38> H -1.599144967 1.58476561 1.8971360306
| 39> H -2.5642217311 3.9778859396 0.2548739178
| 40> H -1.501329641 4.0693937873 1.6746411699
| 41> H -0.9459492247 3.2628950242 0.2069060364
| 42> H -4.5024881211 -0.6504752614 0.0986509802
| 43> H -5.2777587526 -0.4383818938 -1.4942473663
| 44> H -3.5592363472 -2.8228394073 -0.6207721713
| 45> H -5.3067066795 -2.8307035463 -0.8919486546
| 46> H -4.2012527409 -2.585125342 -2.2535392408
| 47> *
| 48>
| 49>                          ****END OF INPUT****

CARTESIAN COORDINATES (ANGSTROEM)
---------------------------------
  C      2.755203    1.168505   -3.117748
  C      2.875162    1.237580   -1.610623
  O      2.431697   -0.027709   -1.073352
  P      2.122045   -0.215215    0.466435
  S      1.080030    1.210371    1.329074
  O      3.582364   -0.364742    1.079418
  C      3.839067   -0.254763    2.490341
  C      3.218760   -1.398278    3.266309
  S      1.399160   -2.188051    0.413606
  C     -0.184290   -1.922886   -0.428036
  S     -1.451628   -1.183488    0.651311
  P     -2.094145    0.369858   -0.662301
  S     -0.755544    1.097313   -1.887191
  O     -2.903567    1.339721    0.297205
  C     -2.369863    2.145946    1.362934
  C     -1.812145    3.452890    0.837691
  O     -3.263568   -0.239413   -1.524857
  C     -4.435260   -0.886051   -0.965090
  C     -4.367351   -2.382167   -1.199191
  H      1.710624    1.053438   -3.397354
  H      3.139770    2.087412   -3.547395
  H      3.321959    0.323123   -3.496428
  H      2.242750    2.031305   -1.198866
  H      3.908569    1.395173   -1.292119
  H      4.927502   -0.259413    2.559679
  H      3.445693    0.705777    2.838871
  H      3.535603   -2.352097    2.852003
  H      3.522053   -1.335139    4.306347
  H      2.132115   -1.336527    3.210282
  H     -0.519472   -2.910516   -0.733242
  H     -0.034370   -1.265657   -1.288499
  H     -3.226119    2.313910    2.018788
  H     -1.599145    1.584766    1.897136
  H     -2.564222    3.977886    0.254874
  H     -1.501330    4.069394    1.674641
  H     -0.945949    3.262895    0.206906
  H     -4.502488   -0.650475    0.098651
  H     -5.277759   -0.438382   -1.494247
  H     -3.559236   -2.822839   -0.620772
  H     -5.306707   -2.830704   -0.891949
  H     -4.201253   -2.585125   -2.253539

 Total Charge           Charge          ....    0
 Multiplicity           Mult            ....    1
 Number of Electrons    NEL             ....  202
 Basis Dimension        Dim             ....  334

ORBITAL ENERGIES
----------------

  NO   OCC          E(Eh)            E(eV)
   0   2.0000     -88.043427     -2395.7835
   1   2.0000     -88.039727     -2395.6828
   2   2.0000     -87.981548     -2394.0996
   3   2.0000     -87.981101     -2394.0875
   4   2.0000     -76.423831     -2079.5982
   5   2.0000     -76.422741     -2079.5685
   6   2.0000     -18.793197      -511.3889
   7   2.0000     -18.790054      -511.3034
   8   2.0000     -18.784822      -511.1610
   9   2.0000     -18.784336      -511.1478
  10   2.0000      -9.955748      -270.9097
  11   2.0000      -9.954005      -270.8623
  12   2.0000      -9.950288      -270.7611
  13   2.0000      -9.949190      -270.7312
  14   2.0000      -9.942959      -270.5617
  15   2.0000      -9.886078      -269.0139
  16   2.0000      -9.883655      -268.9479
  17   2.0000      -9.876613      -268.7563
  18   2.0000      -9.874153      -268.6894
  19   2.0000      -7.689057      -209.2299
  20   2.0000      -7.684531      -209.1067
  21   2.0000      -7.626373      -207.5242
  22   2.0000      -7.626207      -207.5196
  23   2.0000      -6.421157      -174.7286
  24   2.0000      -6.420483      -174.7102
  25   2.0000      -5.716957      -155.5663
  26   2.0000      -5.713587      -155.4746
  27   2.0000      -5.712367      -155.4414
  28   2.0000      -5.709140      -155.3536
  29   2.0000      -5.705867      -155.2645
  30   2.0000      -5.701490      -155.1454
  31   2.0000      -5.655230      -153.8866
  32   2.0000      -5.655087      -153.8828
  33   2.0000      -5.647034      -153.6636
  34   2.0000      -5.646992      -153.6625
  35   2.0000      -5.646671      -153.6537
  36   2.0000      -5.646001      -153.6355
  37   2.0000      -4.643947      -126.3682
  38   2.0000      -4.643052      -126.3439
  39   2.0000      -4.643014      -126.3428
  40   2.0000      -4.642232      -126.3216
  41   2.0000      -4.641390      -126.2986
  42   2.0000      -4.640938      -126.2863
  43   2.0000      -0.985573       -26.8188
  44   2.0000      -0.982983       -26.7483
  45   2.0000      -0.941189       -25.6111
  46   2.0000      -0.940827       -25.6012
  47   2.0000      -0.761531       -20.7223
  48   2.0000      -0.720302       -19.6004
  49   2.0000      -0.708008       -19.2659
  50   2.0000      -0.686241       -18.6736
  51   2.0000      -0.684023       -18.6132
  52   2.0000      -0.672148       -18.2901
  53   2.0000      -0.649116       -17.6633
  54   2.0000      -0.633592       -17.2409
  55   2.0000      -0.594086       -16.1659
  56   2.0000      -0.583531       -15.8787
  57   2.0000      -0.573047       -15.5934
  58   2.0000      -0.567153       -15.4330
  59   2.0000      -0.557502       -15.1704
  60   2.0000      -0.503526       -13.7016
  61   2.0000      -0.498387       -13.5618
  62   2.0000      -0.474197       -12.9036
  63   2.0000      -0.469911       -12.7869
  64   2.0000      -0.449661       -12.2359
  65   2.0000      -0.442969       -12.0538
  66   2.0000      -0.440724       -11.9927
  67   2.0000      -0.432540       -11.7700
  68   2.0000      -0.424158       -11.5419
  69   2.0000      -0.420734       -11.4487
  70   2.0000      -0.410092       -11.1592
  71   2.0000      -0.398222       -10.8362
  72   2.0000      -0.388620       -10.5749
  73   2.0000      -0.383349       -10.4315
  74   2.0000      -0.380111       -10.3433
  75   2.0000      -0.367803       -10.0084
  76   2.0000      -0.357843        -9.7374
  77   2.0000      -0.353965        -9.6319
  78   2.0000      -0.351841        -9.5741
  79   2.0000      -0.347371        -9.4524
  80   2.0000      -0.346670        -9.4334
  81   2.0000      -0.342582        -9.3221
  82   2.0000      -0.335190        -9.1210
  83   2.0000      -0.332078        -9.0363
  84   2.0000      -0.325399        -8.8546
  85   2.0000      -0.315699        -8.5906
  86   2.0000      -0.308854        -8.4043
  87   2.0000      -0.294826        -8.0226
  88   2.0000      -0.293678        -7.9914
  89   2.0000      -0.290414        -7.9026
  90   2.0000      -0.284060        -7.7297
  91   2.0000      -0.272361        -7.4113
  92   2.0000      -0.268701        -7.3117
  93   2.0000      -0.260866        -7.0985
  94   2.0000      -0.259134        -7.0514
  95   2.0000      -0.242089        -6.5876
  96   2.0000      -0.223125        -6.0715
  97   2.0000      -0.204700        -5.5702
  98   2.0000      -0.200300        -5.4504
  99   2.0000      -0.191646        -5.2150
 100   2.0000      -0.184094        -5.0095
 101   0.0000      -0.039865        -1.0848
 102   0.0000      -0.032298        -0.8789
 103   0.0000      -0.013027        -0.3545
 104   0.0000       0.001402         0.0382
 105   0.0000       0.022131         0.6022

MULLIKEN ATOMIC CHARGES
-----------------------
   0 C :   -0.288608
   1 C :   -0.005410
   2 O :   -0.368931
   3 P :    0.626609
   4 S :   -0.337866
   5 O :   -0.377154
   6 C :   -0.002437
   7 C :   -0.324145
   8 S :   -0.082638
   9 C :   -0.351983
  10 S :   -0.102272
  11 P :    0.611536
  12 S :   -0.309256
  13 O :   -0.379775
  14 C :   -0.018255
  15 C :   -0.304203
  16 O :   -0.358509
  17 C :   -0.005912
  18 C :   -0.290571
  19 H :    0.134438
  20 H :    0.106824
  21 H :    0.112435
  22 H :    0.113344
  23 H :    0.098483
  24 H :    0.104430
  25 H :    0.110679
  26 H :    0.119373
  27 H :    0.113975
  28 H :    0.129850
  29 H :    0.182410
  30 H :    0.198099
  31 H :    0.100348
  32 H :    0.129150
  33 H :    0.111693
  34 H :    0.107031
  35 H :    0.141411
  36 H :    0.101863
  37 H :    0.110251
  38 H :    0.116027
  39 H :    0.108557
  40 H :    0.119112
Sum of atomic charges:   -0.0000000

LOEWDIN ATOMIC CHARGES
----------------------
   0 C :   -0.352911
   1 C :   -0.117521
   2 O :   -0.240385
   3 P :    0.572531
   4 S :   -0.316862
   5 O :   -0.246133
   6 C :   -0.121072
   7 C :   -0.371419
   8 S :    0.093846
   9 C :   -0.478630
  10 S :    0.063798
  11 P :    0.568530
  12 S :   -0.292791
  13 O :   -0.240500
  14 C :   -0.116124
  15 C :   -0.364611
  16 O :   -0.241365
  17 C :   -0.113322
  18 C :   -0.360603
  19 H :    0.125836
  20 H :    0.129097
  21 H :    0.125407
  22 H :    0.110006
  23 H :    0.109773
  24 H :    0.118334
  25 H :    0.109719
  26 H :    0.124309
  27 H :    0.131683
  28 H :    0.122254
  29 H :    0.135329
  30 H :    0.124799
  31 H :    0.115945
  32 H :    0.108172
  33 H :    0.124808
  34 H :    0.129343
  35 H :    0.125615
  36 H :    0.107599
  37 H :    0.121551
  38 H :    0.118340
  39 H :    0.129155
  40 H :    0.128469

  Mayer bond orders larger than 0.100000
B(  0-C ,  1-C ) :   1.1654 B(  0-C , 19-H ) :   0.9436 B(  0-C , 20-H ) :   0.9409
B(  0-C , 21-H ) :   0.9492 B(  1-C ,  2-O ) :   0.8917 B(  1-C , 22-H ) :   0.9108
B(  1-C , 23-H ) :   0.9307 B(  2-O ,  3-P ) :   1.1314 B(  3-P ,  4-S ) :   1.6194
B(  3-P ,  5-O ) :   1.1027 B(  3-P ,  8-S ) :   0.9679 B(  4-S ,  8-S ) :   0.1176
B(  5-O ,  6-C ) :   0.9091 B(  6-C ,  7-C ) :   1.1639 B(  6-C , 24-H ) :   0.9329
B(  6-C , 25-H ) :   0.9130 B(  7-C , 26-H ) :   0.9444 B(  7-C , 27-H ) :   0.9381
B(  7-C , 28-H ) :   0.9331 B(  8-S ,  9-C ) :   1.0038 B(  9-C , 10-S ) :   0.9921
B(  9-C , 29-H ) :   0.9108 B(  9-C , 30-H ) :   0.8512 B( 10-S , 11-P ) :   0.9430
B( 10-S , 12-S ) :   0.1146 B( 11-P , 12-S ) :   1.6307 B( 11-P , 13-O ) :   1.1088
B( 11-P , 16-O ) :   1.1296 B( 12-S , 30-H ) :   0.1024 B( 13-O , 14-C ) :   0.8987
B( 14-C , 15-C ) :   1.1735 B( 14-C , 31-H ) :   0.9346 B( 14-C , 32-H ) :   0.9111
B( 15-C , 33-H ) :   0.9465 B( 15-C , 34-H ) :   0.9389 B( 15-C , 35-H ) :   0.9304
B( 16-O , 17-C ) :   0.8942 B( 17-C , 18-C ) :   1.1636 B( 17-C , 36-H ) :   0.9179
B( 17-C , 37-H ) :   0.9350 B( 18-C , 38-H ) :   0.9378 B( 18-C , 39-H ) :   0.9403
B( 18-C , 40-H ) :   0.9466

Dispersion correction           -0.066201206
FINAL SINGLE POINT ENERGY     -2929.517767515071

DIPOLE MOMENT
-------------

Method             : SCF
Type of density    : Electron Density
Multiplicity       :   1
Irrep              :   0
Energy             : -2929.6357565678690662 Eh
Relativity type    :
Basis              : AO
                                X                 Y                 Z
Electronic contribution:      1.077938676      -4.074819490      -1.081169755
Nuclear contribution   :     -1.302926498       3.672870299       1.740673148
                        -----------------------------------------
Total Dipole Moment    :     -0.224987821      -0.401949191       0.659503393
                        -----------------------------------------
Magnitude (a.u.)       :      0.804442289
Magnitude (Debye)      :      2.044729802

Rotational constants in cm-1:             0.011138             0.005341             0.005090
Rotational constants in MHz :           333.913853           160.117820           152.596337

                             ****ORCA TERMINATED NORMALLY****
TOTAL RUN TIME: 0 days 0 hours 0 minutes 21 seconds 63 msec
