                         Program Version 6.0.0  -   RELEASE  -
|  1> ! pbe def2-sv(p) def2/J RI DEFGRID1 loosescf d4 GCP(DFT/SV(P)) printgap
|  2> %output
|  3>     printlevel normal
|  4> end
|  5> * xyz 0 1
|  6> C 1.465265842 0.1338395328 -3.6253103711
|  7> C 2.3534942717 0.0622726349 -2.401383472
|  8> O 1.6073865046 -0.565927354 -1.3302784576
|  9> P 2.1398175697 -0.4602851654 0.1594817696
| 10> S 2.6532409865 1.3163078112 0.8224754266
| 11> O 3.3646293403 -1.4775960623 0.083063361
| 12> C 4.3998089903 -1.517509571 1.0799766381
| 13> C 3.8811709491 -1.9843375593 2.4246162456
| 14> S 0.6294356693 -1.5102008803 1.1860101357
| 15> C -0.0491881339 -0.1632522322 2.2173413869
| 16> S -1.8475735549 -0.0028065011 2.0806975095
| 17> P -1.9857430599 0.4077983157 0.0198035725
| 18> S -0.6473191235 1.6367864125 -0.7329598265
| 19> O -3.4864592466 0.8956838567 -0.1455692754
| 20> C -3.8983736769 2.2354099133 0.1908965433
| 21> C -5.2026853159 2.5162648905 -0.5278023125
| 22> O -2.0582974239 -1.0543695815 -0.5704091413
| 23> C -1.734763255 -1.3805356376 -1.9380866539
| 24> C -2.6657663144 -0.6946790455 -2.9144927261
| 25> H 0.5866615121 0.7362638157 -3.4080142048
| 26> H 2.019840107 0.596083485 -4.4354166066
| 27> H 1.1542632603 -0.8634384901 -3.9229763393
| 28> H 2.6509838894 1.063516631 -2.070605307
| 29> H 3.2480193363 -0.5382776356 -2.584260807
| 30> H 5.1336243646 -2.2103965906 0.6663838328
| 31> H 4.8347394601 -0.5164420541 1.1633519533
| 32> H 4.7160602214 -2.1153710149 3.1053780103
| 33> H 3.2033046034 -1.2379696941 2.8371712042
| 34> H 3.3475166402 -2.9254443559 2.3189876469
| 35> H 0.4359269543 0.7733926554 1.9275339264
| 36> H 0.1430724777 -0.3965756131 3.2614983915
| 37> H -4.0197425181 2.2910646235 1.2758654447
| 38> H -3.1106622788 2.9314488474 -0.1175802934
| 39> H -5.5494410489 3.5088805927 -0.260129696
| 40> H -5.0578214494 2.4650984479 -1.6031930623
| 41> H -5.9487241105 1.7826247201 -0.2370064391
| 42> H -0.6937863549 -1.0990922059 -2.1206854645
| 43> H -1.8340229297 -2.4663853141 -1.9712444466
| 44> H -2.5347314908 0.3853611307 -2.8500512157
| 45> H -2.4359282267 -1.0196745619 -3.924417236
| 46> H -3.69892573 -0.9367117291 -2.6794877487
| 47> *
| 48>
| 49>                          ****END OF INPUT****

CARTESIAN COORDINATES (ANGSTROEM)
---------------------------------
  C      1.465266    0.133840   -3.625310
  C      2.353494    0.062273   -2.401383
  O      1.607387   -0.565927   -1.330278
  P      2.139818   -0.460285    0.159482
  S      2.653241    1.316308    0.822475
  O      3.364629   -1.477596    0.083063
  C      4.399809   -1.517510    1.079977
  C      3.881171   -1.984338    2.424616
  S      0.629436   -1.510201    1.186010
  C     -0.049188   -0.163252    2.217341
  S     -1.847574   -0.002807    2.080698
  P     -1.985743    0.407798    0.019804
  S     -0.647319    1.636786   -0.732960
  O     -3.486459    0.895684   -0.145569
  C     -3.898374    2.235410    0.190897
  C     -5.202685    2.516265   -0.527802
  O     -2.058297   -1.054370   -0.570409
  C     -1.734763   -1.380536   -1.938087
  C     -2.665766   -0.694679   -2.914493
  H      0.586662    0.736264   -3.408014
  H      2.019840    0.596083   -4.435417
  H      1.154263   -0.863438   -3.922976
  H      2.650984    1.063517   -2.070605
  H      3.248019   -0.538278   -2.584261
  H      5.133624   -2.210397    0.666384
  H      4.834739   -0.516442    1.163352
  H      4.716060   -2.115371    3.105378
  H      3.203305   -1.237970    2.837171
  H      3.347517   -2.925444    2.318988
  H      0.435927    0.773393    1.927534
  H      0.143072   -0.396576    3.261498
  H     -4.019743    2.291065    1.275865
  H     -3.110662    2.931449   -0.117580
  H     -5.549441    3.508881   -0.260130
  H     -5.057821    2.465098   -1.603193
  H     -5.948724    1.782625   -0.237006
  H     -0.693786   -1.099092   -2.120685
  H     -1.834023   -2.466385   -1.971244
  H     -2.534731    0.385361   -2.850051
  H     -2.435928   -1.019675   -3.924417
  H     -3.698926   -0.936712   -2.679488

 Total Charge           Charge          ....    0
 Multiplicity           Mult            ....    1
 Number of Electrons    NEL             ....  202
 Basis Dimension        Dim             ....  334

ORBITAL ENERGIES
----------------

  NO   OCC          E(Eh)            E(eV)
   0   2.0000     -88.042985     -2395.7714
   1   2.0000     -88.040335     -2395.6993
   2   2.0000     -87.984339     -2394.1756
   3   2.0000     -87.981873     -2394.1085
   4   2.0000     -76.423039     -2079.5766
   5   2.0000     -76.422948     -2079.5741
   6   2.0000     -18.791249      -511.3359
   7   2.0000     -18.788299      -511.2556
   8   2.0000     -18.786644      -511.2106
   9   2.0000     -18.785366      -511.1758
  10   2.0000      -9.953596      -270.8511
  11   2.0000      -9.951067      -270.7823
  12   2.0000      -9.949090      -270.7285
  13   2.0000      -9.947713      -270.6910
  14   2.0000      -9.946026      -270.6451
  15   2.0000      -9.887420      -269.0504
  16   2.0000      -9.883170      -268.9347
  17   2.0000      -9.882418      -268.9143
  18   2.0000      -9.880488      -268.8617
  19   2.0000      -7.687854      -209.1971
  20   2.0000      -7.686119      -209.1499
  21   2.0000      -7.629328      -207.6046
  22   2.0000      -7.626550      -207.5290
  23   2.0000      -6.420635      -174.7144
  24   2.0000      -6.420490      -174.7104
  25   2.0000      -5.715748      -155.5334
  26   2.0000      -5.714055      -155.4873
  27   2.0000      -5.712463      -155.4440
  28   2.0000      -5.710547      -155.3919
  29   2.0000      -5.704689      -155.2325
  30   2.0000      -5.703019      -155.1870
  31   2.0000      -5.658157      -153.9663
  32   2.0000      -5.655340      -153.8896
  33   2.0000      -5.650181      -153.7492
  34   2.0000      -5.649325      -153.7260
  35   2.0000      -5.647248      -153.6694
  36   2.0000      -5.646775      -153.6566
  37   2.0000      -4.642994      -126.3423
  38   2.0000      -4.642847      -126.3383
  39   2.0000      -4.642330      -126.3242
  40   2.0000      -4.642230      -126.3215
  41   2.0000      -4.641403      -126.2990
  42   2.0000      -4.641087      -126.2904
  43   2.0000      -0.984172       -26.7807
  44   2.0000      -0.983340       -26.7581
  45   2.0000      -0.942701       -25.6522
  46   2.0000      -0.939592       -25.5676
  47   2.0000      -0.761442       -20.7199
  48   2.0000      -0.720406       -19.6032
  49   2.0000      -0.707437       -19.2503
  50   2.0000      -0.686253       -18.6739
  51   2.0000      -0.684571       -18.6281
  52   2.0000      -0.673013       -18.3136
  53   2.0000      -0.648494       -17.6464
  54   2.0000      -0.632592       -17.2137
  55   2.0000      -0.598742       -16.2926
  56   2.0000      -0.590570       -16.0702
  57   2.0000      -0.569679       -15.5018
  58   2.0000      -0.564223       -15.3533
  59   2.0000      -0.556443       -15.1416
  60   2.0000      -0.503964       -13.7136
  61   2.0000      -0.498231       -13.5576
  62   2.0000      -0.471738       -12.8366
  63   2.0000      -0.468672       -12.7532
  64   2.0000      -0.445729       -12.1289
  65   2.0000      -0.443488       -12.0679
  66   2.0000      -0.438594       -11.9348
  67   2.0000      -0.433035       -11.7835
  68   2.0000      -0.425703       -11.5840
  69   2.0000      -0.423881       -11.5344
  70   2.0000      -0.406087       -11.0502
  71   2.0000      -0.395905       -10.7731
  72   2.0000      -0.389668       -10.6034
  73   2.0000      -0.386977       -10.5302
  74   2.0000      -0.376940       -10.2571
  75   2.0000      -0.371436       -10.1073
  76   2.0000      -0.368425       -10.0254
  77   2.0000      -0.355695        -9.6789
  78   2.0000      -0.352715        -9.5979
  79   2.0000      -0.349334        -9.5059
  80   2.0000      -0.344634        -9.3780
  81   2.0000      -0.341093        -9.2816
  82   2.0000      -0.338262        -9.2046
  83   2.0000      -0.333412        -9.0726
  84   2.0000      -0.332268        -9.0415
  85   2.0000      -0.314358        -8.5541
  86   2.0000      -0.310338        -8.4447
  87   2.0000      -0.298479        -8.1220
  88   2.0000      -0.294046        -8.0014
  89   2.0000      -0.289164        -7.8686
  90   2.0000      -0.280653        -7.6370
  91   2.0000      -0.271636        -7.3916
  92   2.0000      -0.268734        -7.3126
  93   2.0000      -0.262292        -7.1373
  94   2.0000      -0.258884        -7.0446
  95   2.0000      -0.231845        -6.3088
  96   2.0000      -0.220622        -6.0034
  97   2.0000      -0.213234        -5.8024
  98   2.0000      -0.202855        -5.5200
  99   2.0000      -0.194571        -5.2945
 100   2.0000      -0.186983        -5.0881
 101   0.0000      -0.040554        -1.1035
 102   0.0000      -0.033419        -0.9094
 103   0.0000      -0.005638        -0.1534
 104   0.0000       0.016610         0.4520
 105   0.0000       0.020756         0.5648

MULLIKEN ATOMIC CHARGES
-----------------------
   0 C :   -0.296764
   1 C :   -0.008975
   2 O :   -0.360672
   3 P :    0.620711
   4 S :   -0.316751
   5 O :   -0.381953
   6 C :   -0.000510
   7 C :   -0.311251
   8 S :   -0.083116
   9 C :   -0.361727
  10 S :   -0.091550
  11 P :    0.605401
  12 S :   -0.319596
  13 O :   -0.375670
  14 C :   -0.010830
  15 C :   -0.281946
  16 O :   -0.358574
  17 C :   -0.030634
  18 C :   -0.314127
  19 H :    0.137464
  20 H :    0.111846
  21 H :    0.114792
  22 H :    0.108239
  23 H :    0.100626
  24 H :    0.102282
  25 H :    0.109067
  26 H :    0.111545
  27 H :    0.117966
  28 H :    0.118382
  29 H :    0.211851
  30 H :    0.181085
  31 H :    0.102566
  32 H :    0.105854
  33 H :    0.112169
  34 H :    0.118756
  35 H :    0.117064
  36 H :    0.145243
  37 H :    0.102795
  38 H :    0.124051
  39 H :    0.109160
  40 H :    0.115730
Sum of atomic charges:   -0.0000000

LOEWDIN ATOMIC CHARGES
----------------------
   0 C :   -0.356424
   1 C :   -0.116111
   2 O :   -0.240145
   3 P :    0.572926
   4 S :   -0.304848
   5 O :   -0.250762
   6 C :   -0.120267
   7 C :   -0.368903
   8 S :    0.093441
   9 C :   -0.478126
  10 S :    0.078916
  11 P :    0.562897
  12 S :   -0.309898
  13 O :   -0.247654
  14 C :   -0.120730
  15 C :   -0.350373
  16 O :   -0.234762
  17 C :   -0.117613
  18 C :   -0.367915
  19 H :    0.127779
  20 H :    0.130641
  21 H :    0.122732
  22 H :    0.110960
  23 H :    0.110485
  24 H :    0.117268
  25 H :    0.109230
  26 H :    0.129904
  27 H :    0.118427
  28 H :    0.124254
  29 H :    0.125649
  30 H :    0.134790
  31 H :    0.110546
  32 H :    0.107851
  33 H :    0.130863
  34 H :    0.127687
  35 H :    0.127068
  36 H :    0.116491
  37 H :    0.119583
  38 H :    0.119897
  39 H :    0.128730
  40 H :    0.125518

  Mayer bond orders larger than 0.100000
B(  0-C ,  1-C ) :   1.1667 B(  0-C , 19-H ) :   0.9366 B(  0-C , 20-H ) :   0.9393
B(  0-C , 21-H ) :   0.9433 B(  1-C ,  2-O ) :   0.9053 B(  1-C , 22-H ) :   0.9118
B(  1-C , 23-H ) :   0.9302 B(  2-O ,  3-P ) :   1.1225 B(  3-P ,  4-S ) :   1.6027
B(  3-P ,  5-O ) :   1.0899 B(  3-P ,  8-S ) :   0.9710 B(  4-S ,  8-S ) :   0.1212
B(  5-O ,  6-C ) :   0.9159 B(  6-C ,  7-C ) :   1.1653 B(  6-C , 24-H ) :   0.9338
B(  6-C , 25-H ) :   0.9144 B(  7-C , 26-H ) :   0.9382 B(  7-C , 27-H ) :   0.9372
B(  7-C , 28-H ) :   0.9438 B(  8-S ,  9-C ) :   0.9945 B(  9-C , 10-S ) :   1.0038
B(  9-C , 29-H ) :   0.8491 B(  9-C , 30-H ) :   0.9111 B( 10-S , 11-P ) :   0.9585
B( 10-S , 12-S ) :   0.1091 B( 11-P , 12-S ) :   1.6193 B( 11-P , 13-O ) :   1.1042
B( 11-P , 16-O ) :   1.1407 B( 13-O , 14-C ) :   0.9049 B( 14-C , 15-C ) :   1.1605
B( 14-C , 31-H ) :   0.9301 B( 14-C , 32-H ) :   0.9073 B( 15-C , 33-H ) :   0.9420
B( 15-C , 34-H ) :   0.9515 B( 15-C , 35-H ) :   0.9505 B( 16-O , 17-C ) :   0.8947
B( 17-C , 18-C ) :   1.1639 B( 17-C , 36-H ) :   0.9031 B( 17-C , 37-H ) :   0.9338
B( 18-C , 38-H ) :   0.9306 B( 18-C , 39-H ) :   0.9385 B( 18-C , 40-H ) :   0.9443

Dispersion correction           -0.066751710
FINAL SINGLE POINT ENERGY     -2929.522819288333

DIPOLE MOMENT
-------------

Method             : SCF
Type of density    : Electron Density
Multiplicity       :   1
Irrep              :   0
Energy             : -2929.6410619707503429 Eh
Relativity type    :
Basis              : AO
                                X                 Y                 Z
Electronic contribution:      3.251673752      -0.712700437      14.497125661
Nuclear contribution   :     -3.367906072       0.167693753     -14.949012829
                        -----------------------------------------
Total Dipole Moment    :     -0.116232320      -0.545006683      -0.451887168
                        -----------------------------------------
Magnitude (a.u.)       :      0.717456793
Magnitude (Debye)      :      1.823630241

Rotational constants in cm-1:             0.012718             0.005348             0.004684
Rotational constants in MHz :           381.262516           160.339820           140.421588

                             ****ORCA TERMINATED NORMALLY****
TOTAL RUN TIME: 0 days 0 hours 0 minutes 21 seconds 56 msec
