                         Program Version 6.0.0  -   RELEASE  -
|  1> ! pbe def2-sv(p) def2/J RI DEFGRID1 loosescf d4 GCP(DFT/SV(P)) printgap
|  2> %output
|  3>     printlevel normal
|  4> end
|  5> * xyz 0 1
|  6> C 2.3623015119 0.3109901553 -2.8224689629
|  7> C 1.9172340799 -0.8630843493 -1.9746104186
|  8> O 2.6809098643 -0.9547000818 -0.7605421379
|  9> P 2.3721602185 -0.1532474624 0.5792934545
| 10> S 2.4741646212 1.7980780658 0.58357652
| 11> O 3.4592282112 -0.7397766403 1.5554872305
| 12> C 3.6494254718 -2.1568909371 1.7931658751
| 13> C 4.7886602477 -2.6942040899 0.9515828335
| 14> S 0.5300267227 -1.0147591162 1.227310777
| 15> C -0.2986639428 0.4734871661 1.8765929331
| 16> S -2.0755624912 0.4036870814 1.608929506
| 17> P -2.0378745334 0.4711805996 -0.5280011484
| 18> S -0.7185225642 1.6668951382 -1.3402212816
| 19> O -3.5709434862 0.6790263351 -0.8854099887
| 20> C -4.4288465904 1.6855083945 -0.3161579672
| 21> C -3.8588118695 3.0824662971 -0.4426454133
| 22> O -1.7775581191 -0.9997002933 -1.0305012405
| 23> C -2.5926663165 -2.1366283107 -0.6485800431
| 24> C -3.564281161 -2.4843512154 -1.7573598228
| 25> H 1.8358433777 0.2868677392 -3.7711962971
| 26> H 2.1274479452 1.2485698611 -2.3213368601
| 27> H 3.4335931279 0.2640098472 -2.9977078004
| 28> H 2.1058222815 -1.8121702904 -2.4802595529
| 29> H 0.8523098853 -0.784083304 -1.734116347
| 30> H 3.8761224555 -2.2253650564 2.8585950301
| 31> H 2.7132466242 -2.6810963963 1.5803737767
| 32> H 5.6961187982 -2.1324420869 1.1550405932
| 33> H 4.9499608898 -3.7390911044 1.1975973985
| 34> H 4.5527603591 -2.6046921404 -0.1052883539
| 35> H 0.1256152324 1.3483281585 1.3734610738
| 36> H -0.1507064945 0.5273550495 2.9523682355
| 37> H -5.3567392854 1.5823747555 -0.88147877
| 38> H -4.6010229707 1.4318555924 0.7334401666
| 39> H -4.5803738111 3.8029898158 -0.0713053832
| 40> H -2.9412452093 3.1693485521 0.1382812797
| 41> H -3.6273573978 3.3063122595 -1.4815255403
| 42> H -1.8767777331 -2.9416388477 -0.4721409595
| 43> H -3.1167966125 -1.9027896023 0.2820702718
| 44> H -4.1274106618 -3.3673422897 -1.4721403089
| 45> H -4.250370991 -1.6589972611 -1.9280319906
| 46> H -3.0232482355 -2.6842938562 -2.6779710841
| 47> *
| 48>
| 49>                          ****END OF INPUT****

CARTESIAN COORDINATES (ANGSTROEM)
---------------------------------
  C      2.362302    0.310990   -2.822469
  C      1.917234   -0.863084   -1.974610
  O      2.680910   -0.954700   -0.760542
  P      2.372160   -0.153247    0.579293
  S      2.474165    1.798078    0.583577
  O      3.459228   -0.739777    1.555487
  C      3.649425   -2.156891    1.793166
  C      4.788660   -2.694204    0.951583
  S      0.530027   -1.014759    1.227311
  C     -0.298664    0.473487    1.876593
  S     -2.075562    0.403687    1.608930
  P     -2.037875    0.471181   -0.528001
  S     -0.718523    1.666895   -1.340221
  O     -3.570943    0.679026   -0.885410
  C     -4.428847    1.685508   -0.316158
  C     -3.858812    3.082466   -0.442645
  O     -1.777558   -0.999700   -1.030501
  C     -2.592666   -2.136628   -0.648580
  C     -3.564281   -2.484351   -1.757360
  H      1.835843    0.286868   -3.771196
  H      2.127448    1.248570   -2.321337
  H      3.433593    0.264010   -2.997708
  H      2.105822   -1.812170   -2.480260
  H      0.852310   -0.784083   -1.734116
  H      3.876122   -2.225365    2.858595
  H      2.713247   -2.681096    1.580374
  H      5.696119   -2.132442    1.155041
  H      4.949961   -3.739091    1.197597
  H      4.552760   -2.604692   -0.105288
  H      0.125615    1.348328    1.373461
  H     -0.150706    0.527355    2.952368
  H     -5.356739    1.582375   -0.881479
  H     -4.601023    1.431856    0.733440
  H     -4.580374    3.802990   -0.071305
  H     -2.941245    3.169349    0.138281
  H     -3.627357    3.306312   -1.481526
  H     -1.876778   -2.941639   -0.472141
  H     -3.116797   -1.902790    0.282070
  H     -4.127411   -3.367342   -1.472140
  H     -4.250371   -1.658997   -1.928032
  H     -3.023248   -2.684294   -2.677971

 Total Charge           Charge          ....    0
 Multiplicity           Mult            ....    1
 Number of Electrons    NEL             ....  202
 Basis Dimension        Dim             ....  334

ORBITAL ENERGIES
----------------

  NO   OCC          E(Eh)            E(eV)
   0   2.0000     -88.049331     -2395.9441
   1   2.0000     -88.037966     -2395.6348
   2   2.0000     -87.982531     -2394.1264
   3   2.0000     -87.978067     -2394.0049
   4   2.0000     -76.428420     -2079.7230
   5   2.0000     -76.420011     -2079.4942
   6   2.0000     -18.799160      -511.5511
   7   2.0000     -18.793156      -511.3878
   8   2.0000     -18.787645      -511.2378
   9   2.0000     -18.784756      -511.1592
  10   2.0000      -9.963271      -271.1144
  11   2.0000      -9.957331      -270.9528
  12   2.0000      -9.953646      -270.8525
  13   2.0000      -9.952795      -270.8293
  14   2.0000      -9.940763      -270.5019
  15   2.0000      -9.889429      -269.1050
  16   2.0000      -9.885577      -269.0002
  17   2.0000      -9.883638      -268.9474
  18   2.0000      -9.867140      -268.4985
  19   2.0000      -7.694136      -209.3681
  20   2.0000      -7.682674      -209.0562
  21   2.0000      -7.627424      -207.5528
  22   2.0000      -7.623318      -207.4410
  23   2.0000      -6.425440      -174.8451
  24   2.0000      -6.417464      -174.6281
  25   2.0000      -5.721886      -155.7004
  26   2.0000      -5.718438      -155.6066
  27   2.0000      -5.711530      -155.4186
  28   2.0000      -5.710515      -155.3910
  29   2.0000      -5.707231      -155.3017
  30   2.0000      -5.699694      -155.0966
  31   2.0000      -5.656519      -153.9217
  32   2.0000      -5.652362      -153.8086
  33   2.0000      -5.647854      -153.6859
  34   2.0000      -5.647583      -153.6785
  35   2.0000      -5.643876      -153.5777
  36   2.0000      -5.643340      -153.5631
  37   2.0000      -4.648313      -126.4870
  38   2.0000      -4.647534      -126.4658
  39   2.0000      -4.645365      -126.4068
  40   2.0000      -4.640182      -126.2658
  41   2.0000      -4.639326      -126.2425
  42   2.0000      -4.637735      -126.1992
  43   2.0000      -0.992542       -27.0084
  44   2.0000      -0.982320       -26.7303
  45   2.0000      -0.948980       -25.8231
  46   2.0000      -0.938345       -25.5337
  47   2.0000      -0.762548       -20.7500
  48   2.0000      -0.720928       -19.6174
  49   2.0000      -0.710760       -19.3408
  50   2.0000      -0.694565       -18.9001
  51   2.0000      -0.682204       -18.5637
  52   2.0000      -0.672925       -18.3112
  53   2.0000      -0.650074       -17.6894
  54   2.0000      -0.633560       -17.2400
  55   2.0000      -0.592037       -16.1101
  56   2.0000      -0.582131       -15.8406
  57   2.0000      -0.577820       -15.7233
  58   2.0000      -0.570670       -15.5287
  59   2.0000      -0.564489       -15.3605
  60   2.0000      -0.508057       -13.8249
  61   2.0000      -0.495829       -13.4922
  62   2.0000      -0.478189       -13.0122
  63   2.0000      -0.470949       -12.8152
  64   2.0000      -0.455354       -12.3908
  65   2.0000      -0.443478       -12.0677
  66   2.0000      -0.441348       -12.0097
  67   2.0000      -0.434823       -11.8321
  68   2.0000      -0.430113       -11.7040
  69   2.0000      -0.416923       -11.3450
  70   2.0000      -0.413850       -11.2614
  71   2.0000      -0.399759       -10.8780
  72   2.0000      -0.391932       -10.6650
  73   2.0000      -0.387077       -10.5329
  74   2.0000      -0.381081       -10.3697
  75   2.0000      -0.362930        -9.8758
  76   2.0000      -0.359720        -9.7885
  77   2.0000      -0.355755        -9.6806
  78   2.0000      -0.353222        -9.6117
  79   2.0000      -0.350722        -9.5436
  80   2.0000      -0.349152        -9.5009
  81   2.0000      -0.342636        -9.3236
  82   2.0000      -0.339996        -9.2518
  83   2.0000      -0.333988        -9.0883
  84   2.0000      -0.324756        -8.8371
  85   2.0000      -0.322923        -8.7872
  86   2.0000      -0.313474        -8.5301
  87   2.0000      -0.300459        -8.1759
  88   2.0000      -0.293683        -7.9915
  89   2.0000      -0.285631        -7.7724
  90   2.0000      -0.283364        -7.7107
  91   2.0000      -0.281946        -7.6721
  92   2.0000      -0.271113        -7.3773
  93   2.0000      -0.264655        -7.2016
  94   2.0000      -0.255534        -6.9534
  95   2.0000      -0.236718        -6.4414
  96   2.0000      -0.219176        -5.9641
  97   2.0000      -0.208767        -5.6808
  98   2.0000      -0.199173        -5.4198
  99   2.0000      -0.193085        -5.2541
 100   2.0000      -0.185150        -5.0382
 101   0.0000      -0.042926        -1.1681
 102   0.0000      -0.031041        -0.8447
 103   0.0000      -0.014462        -0.3935
 104   0.0000       0.010184         0.2771
 105   0.0000       0.017640         0.4800

MULLIKEN ATOMIC CHARGES
-----------------------
   0 C :   -0.296319
   1 C :   -0.028388
   2 O :   -0.382174
   3 P :    0.608989
   4 S :   -0.290641
   5 O :   -0.356176
   6 C :   -0.011003
   7 C :   -0.287814
   8 S :   -0.137841
   9 C :   -0.338745
  10 S :   -0.121432
  11 P :    0.589314
  12 S :   -0.290440
  13 O :   -0.377614
  14 C :   -0.013385
  15 C :   -0.311231
  16 O :   -0.343514
  17 C :   -0.008588
  18 C :   -0.285609
  19 H :    0.105427
  20 H :    0.141000
  21 H :    0.106198
  22 H :    0.093768
  23 H :    0.130067
  24 H :    0.108527
  25 H :    0.099370
  26 H :    0.120304
  27 H :    0.106657
  28 H :    0.123037
  29 H :    0.214559
  30 H :    0.182227
  31 H :    0.110146
  32 H :    0.114549
  33 H :    0.112865
  34 H :    0.130864
  35 H :    0.128954
  36 H :    0.108110
  37 H :    0.097419
  38 H :    0.109491
  39 H :    0.120228
  40 H :    0.118846
Sum of atomic charges:   -0.0000000

LOEWDIN ATOMIC CHARGES
----------------------
   0 C :   -0.363793
   1 C :   -0.122508
   2 O :   -0.243663
   3 P :    0.564285
   4 S :   -0.283363
   5 O :   -0.239033
   6 C :   -0.113881
   7 C :   -0.359080
   8 S :    0.049214
   9 C :   -0.478841
  10 S :    0.065309
  11 P :    0.563932
  12 S :   -0.283801
  13 O :   -0.245195
  14 C :   -0.115263
  15 C :   -0.369243
  16 O :   -0.231427
  17 C :   -0.116982
  18 C :   -0.357973
  19 H :    0.128842
  20 H :    0.124302
  21 H :    0.121863
  22 H :    0.112602
  23 H :    0.107164
  24 H :    0.120573
  25 H :    0.101727
  26 H :    0.129288
  27 H :    0.127746
  28 H :    0.127000
  29 H :    0.124319
  30 H :    0.134983
  31 H :    0.121540
  32 H :    0.108393
  33 H :    0.130960
  34 H :    0.123299
  35 H :    0.131564
  36 H :    0.118739
  37 H :    0.102431
  38 H :    0.129195
  39 H :    0.126443
  40 H :    0.128333

  Mayer bond orders larger than 0.100000
B(  0-C ,  1-C ) :   1.1727 B(  0-C , 19-H ) :   0.9390 B(  0-C , 20-H ) :   0.9300
B(  0-C , 21-H ) :   0.9464 B(  1-C ,  2-O ) :   0.8986 B(  1-C , 22-H ) :   0.9353
B(  1-C , 23-H ) :   0.9005 B(  2-O ,  3-P ) :   1.0872 B(  3-P ,  4-S ) :   1.6673
B(  3-P ,  5-O ) :   1.1331 B(  3-P ,  8-S ) :   0.9424 B(  4-S ,  8-S ) :   0.1195
B(  5-O ,  6-C ) :   0.8984 B(  6-C ,  7-C ) :   1.1639 B(  6-C , 24-H ) :   0.9365
B(  6-C , 25-H ) :   0.9147 B(  7-C , 26-H ) :   0.9468 B(  7-C , 27-H ) :   0.9401
B(  7-C , 28-H ) :   0.9420 B(  8-S ,  9-C ) :   0.9911 B(  9-C , 10-S ) :   1.0070
B(  9-C , 29-H ) :   0.8396 B(  9-C , 30-H ) :   0.9103 B( 10-S , 11-P ) :   0.9302
B( 10-S , 12-S ) :   0.1094 B( 11-P , 12-S ) :   1.6631 B( 11-P , 13-O ) :   1.0803
B( 11-P , 16-O ) :   1.1218 B( 13-O , 14-C ) :   0.9108 B( 14-C , 15-C ) :   1.1673
B( 14-C , 31-H ) :   0.9329 B( 14-C , 32-H ) :   0.9264 B( 15-C , 33-H ) :   0.9345
B( 15-C , 34-H ) :   0.9318 B( 15-C , 35-H ) :   0.9426 B( 16-O , 17-C ) :   0.8907
B( 17-C , 18-C ) :   1.1646 B( 17-C , 36-H ) :   0.9334 B( 17-C , 37-H ) :   0.9125
B( 18-C , 38-H ) :   0.9405 B( 18-C , 39-H ) :   0.9435 B( 18-C , 40-H ) :   0.9474

Dispersion correction           -0.065554956
FINAL SINGLE POINT ENERGY     -2929.517335731360

DIPOLE MOMENT
-------------

Method             : SCF
Type of density    : Electron Density
Multiplicity       :   1
Irrep              :   0
Energy             : -2929.6370221576194126 Eh
Relativity type    :
Basis              : AO
                                X                 Y                 Z
Electronic contribution:      3.910782634       9.589456638       9.838960496
Nuclear contribution   :     -5.343418193     -11.247418516      -9.619997957
                        -----------------------------------------
Total Dipole Moment    :     -1.432635559      -1.657961878       0.218962539
                        -----------------------------------------
Magnitude (a.u.)       :      2.202096008
Magnitude (Debye)      :      5.597283228

Rotational constants in cm-1:             0.012763             0.004868             0.004687
Rotational constants in MHz :           382.634520           145.939522           140.511172

                             ****ORCA TERMINATED NORMALLY****
TOTAL RUN TIME: 0 days 0 hours 0 minutes 21 seconds 274 msec
