                         Program Version 6.0.0  -   RELEASE  -
|  1> ! pbe def2-sv(p) def2/J RI DEFGRID1 loosescf d4 GCP(DFT/SV(P)) printgap
|  2> %output
|  3>     printlevel normal
|  4> end
|  5> * xyz 0 1
|  6> C 4.6830029468 0.2664982212 -1.8047050092
|  7> C 4.4568449219 1.1764189931 -0.6146706837
|  8> O 3.5950936882 0.5838881735 0.3722317545
|  9> P 2.055872276 0.2980854138 0.1080001363
| 10> S 1.1436504948 1.6998051222 -0.9123842473
| 11> O 1.4635393112 0.1669044835 1.5625764143
| 12> C 1.6712943713 -0.9251484708 2.4943911194
| 13> C 3.1334578739 -1.2166752601 2.749379588
| 14> S 2.0208147618 -1.6468074271 -0.7494466841
| 15> C 0.2978029756 -1.653220846 -1.2834364794
| 16> S -0.8742392501 -1.7776771793 0.1149113097
| 17> P -2.0060762865 -0.0234840671 -0.1322813598
| 18> S -2.1622259053 0.6745344054 -1.9613775616
| 19> O -1.4176838734 0.9170383322 0.9938025483
| 20> C -1.655917844 2.3381180865 1.0178011258
| 21> C -3.1174595736 2.6647511862 1.232545484
| 22> O -3.3920164146 -0.4457859944 0.523335471
| 23> C -4.3494158818 -1.2539301946 -0.188489547
| 24> C -5.7048531311 -1.0565757933 0.4598624573
| 25> H 5.0061648778 -0.7174243916 -1.4748617711
| 26> H 3.7614651551 0.1616891121 -2.3750279214
| 27> H 5.443352085 0.7003217023 -2.4461883772
| 28> H 4.0148739728 2.1251838815 -0.9351394147
| 29> H 5.3826693343 1.3640482441 -0.0692077377
| 30> H 1.1635092081 -0.5763840411 3.3949059548
| 31> H 1.1571214657 -1.8086844648 2.1047061715
| 32> H 3.6500079348 -0.3131940537 3.0625696518
| 33> H 3.2096498149 -1.9651936708 3.5321308775
| 34> H 3.6058275532 -1.5985443762 1.8467814625
| 35> H 0.1740154439 -2.5373934136 -1.9030058449
| 36> H 0.0719792063 -0.7421002887 -1.8447010509
| 37> H -1.0294457677 2.6890259047 1.8394793041
| 38> H -1.291146676 2.765251612 0.0774009614
| 39> H -3.2317736677 3.7388418784 1.3406776698
| 40> H -3.6985015167 2.3314334718 0.373214332
| 41> H -3.4863852816 2.165306006 2.1245631898
| 42> H -4.35601742 -0.9420742212 -1.2386025776
| 43> H -4.0258030918 -2.2964419263 -0.1267217432
| 44> H -5.6546810443 -1.3268620881 1.5104780646
| 45> H -6.0134628227 -0.0182705289 0.3772204197
| 46> H -6.4325124535 -1.6868222036 -0.0406046272
| 47> *
| 48>
| 49>                          ****END OF INPUT****

CARTESIAN COORDINATES (ANGSTROEM)
---------------------------------
  C      4.683003    0.266498   -1.804705
  C      4.456845    1.176419   -0.614671
  O      3.595094    0.583888    0.372232
  P      2.055872    0.298085    0.108000
  S      1.143650    1.699805   -0.912384
  O      1.463539    0.166904    1.562576
  C      1.671294   -0.925148    2.494391
  C      3.133458   -1.216675    2.749380
  S      2.020815   -1.646807   -0.749447
  C      0.297803   -1.653221   -1.283436
  S     -0.874239   -1.777677    0.114911
  P     -2.006076   -0.023484   -0.132281
  S     -2.162226    0.674534   -1.961378
  O     -1.417684    0.917038    0.993803
  C     -1.655918    2.338118    1.017801
  C     -3.117460    2.664751    1.232545
  O     -3.392016   -0.445786    0.523335
  C     -4.349416   -1.253930   -0.188490
  C     -5.704853   -1.056576    0.459862
  H      5.006165   -0.717424   -1.474862
  H      3.761465    0.161689   -2.375028
  H      5.443352    0.700322   -2.446188
  H      4.014874    2.125184   -0.935139
  H      5.382669    1.364048   -0.069208
  H      1.163509   -0.576384    3.394906
  H      1.157121   -1.808684    2.104706
  H      3.650008   -0.313194    3.062570
  H      3.209650   -1.965194    3.532131
  H      3.605828   -1.598544    1.846781
  H      0.174015   -2.537393   -1.903006
  H      0.071979   -0.742100   -1.844701
  H     -1.029446    2.689026    1.839479
  H     -1.291147    2.765252    0.077401
  H     -3.231774    3.738842    1.340678
  H     -3.698502    2.331433    0.373214
  H     -3.486385    2.165306    2.124563
  H     -4.356017   -0.942074   -1.238603
  H     -4.025803   -2.296442   -0.126722
  H     -5.654681   -1.326862    1.510478
  H     -6.013463   -0.018271    0.377220
  H     -6.432512   -1.686822   -0.040605

 Total Charge           Charge          ....    0
 Multiplicity           Mult            ....    1
 Number of Electrons    NEL             ....  202
 Basis Dimension        Dim             ....  334

ORBITAL ENERGIES
----------------

  NO   OCC          E(Eh)            E(eV)
   0   2.0000     -88.045727     -2395.8460
   1   2.0000     -88.041068     -2395.7193
   2   2.0000     -87.980745     -2394.0778
   3   2.0000     -87.979416     -2394.0416
   4   2.0000     -76.424268     -2079.6101
   5   2.0000     -76.420158     -2079.4982
   6   2.0000     -18.793174      -511.3883
   7   2.0000     -18.787878      -511.2442
   8   2.0000     -18.787643      -511.2377
   9   2.0000     -18.780228      -511.0360
  10   2.0000      -9.955175      -270.8941
  11   2.0000      -9.952207      -270.8133
  12   2.0000      -9.951216      -270.7864
  13   2.0000      -9.947881      -270.6956
  14   2.0000      -9.939124      -270.4573
  15   2.0000      -9.885802      -269.0064
  16   2.0000      -9.885486      -268.9978
  17   2.0000      -9.883850      -268.9532
  18   2.0000      -9.875705      -268.7316
  19   2.0000      -7.690636      -209.2728
  20   2.0000      -7.686247      -209.1534
  21   2.0000      -7.625666      -207.5049
  22   2.0000      -7.624329      -207.4685
  23   2.0000      -6.421553      -174.7393
  24   2.0000      -6.417806      -174.6374
  25   2.0000      -5.718455      -155.6071
  26   2.0000      -5.714990      -155.5128
  27   2.0000      -5.714097      -155.4885
  28   2.0000      -5.710693      -155.3958
  29   2.0000      -5.707840      -155.3182
  30   2.0000      -5.703233      -155.1929
  31   2.0000      -5.654544      -153.8680
  32   2.0000      -5.653301      -153.8341
  33   2.0000      -5.646475      -153.6484
  34   2.0000      -5.645697      -153.6272
  35   2.0000      -5.644863      -153.6045
  36   2.0000      -5.644482      -153.5942
  37   2.0000      -4.644320      -126.3784
  38   2.0000      -4.643449      -126.3547
  39   2.0000      -4.641740      -126.3082
  40   2.0000      -4.640057      -126.2624
  41   2.0000      -4.639489      -126.2469
  42   2.0000      -4.638607      -126.2229
  43   2.0000      -0.985124       -26.8066
  44   2.0000      -0.980341       -26.6764
  45   2.0000      -0.943352       -25.6699
  46   2.0000      -0.937777       -25.5182
  47   2.0000      -0.762179       -20.7399
  48   2.0000      -0.718770       -19.5587
  49   2.0000      -0.707810       -19.2605
  50   2.0000      -0.689417       -18.7600
  51   2.0000      -0.683181       -18.5903
  52   2.0000      -0.673096       -18.3159
  53   2.0000      -0.647952       -17.6317
  54   2.0000      -0.630859       -17.1665
  55   2.0000      -0.598596       -16.2886
  56   2.0000      -0.590253       -16.0616
  57   2.0000      -0.575247       -15.6533
  58   2.0000      -0.563750       -15.3404
  59   2.0000      -0.557565       -15.1721
  60   2.0000      -0.499702       -13.5976
  61   2.0000      -0.490241       -13.3401
  62   2.0000      -0.469589       -12.7782
  63   2.0000      -0.467841       -12.7306
  64   2.0000      -0.448829       -12.2133
  65   2.0000      -0.446271       -12.1437
  66   2.0000      -0.440938       -11.9985
  67   2.0000      -0.433474       -11.7954
  68   2.0000      -0.426700       -11.6111
  69   2.0000      -0.415662       -11.3107
  70   2.0000      -0.410854       -11.1799
  71   2.0000      -0.396363       -10.7856
  72   2.0000      -0.390302       -10.6207
  73   2.0000      -0.381172       -10.3722
  74   2.0000      -0.379191       -10.3183
  75   2.0000      -0.370269       -10.0755
  76   2.0000      -0.364339        -9.9142
  77   2.0000      -0.358906        -9.7663
  78   2.0000      -0.353534        -9.6202
  79   2.0000      -0.350887        -9.5481
  80   2.0000      -0.345686        -9.4066
  81   2.0000      -0.340968        -9.2782
  82   2.0000      -0.337284        -9.1780
  83   2.0000      -0.335239        -9.1223
  84   2.0000      -0.331490        -9.0203
  85   2.0000      -0.313565        -8.5325
  86   2.0000      -0.308203        -8.3866
  87   2.0000      -0.295913        -8.0522
  88   2.0000      -0.292161        -7.9501
  89   2.0000      -0.290540        -7.9060
  90   2.0000      -0.275635        -7.5004
  91   2.0000      -0.270696        -7.3660
  92   2.0000      -0.263333        -7.1657
  93   2.0000      -0.260354        -7.0846
  94   2.0000      -0.256836        -6.9889
  95   2.0000      -0.237655        -6.4669
  96   2.0000      -0.220827        -6.0090
  97   2.0000      -0.213149        -5.8001
  98   2.0000      -0.201085        -5.4718
  99   2.0000      -0.192675        -5.2429
 100   2.0000      -0.183733        -4.9996
 101   0.0000      -0.040178        -1.0933
 102   0.0000      -0.028952        -0.7878
 103   0.0000      -0.008906        -0.2423
 104   0.0000       0.012699         0.3456
 105   0.0000       0.025685         0.6989

MULLIKEN ATOMIC CHARGES
-----------------------
   0 C :   -0.319429
   1 C :   -0.000871
   2 O :   -0.374216
   3 P :    0.596102
   4 S :   -0.302883
   5 O :   -0.349313
   6 C :   -0.002267
   7 C :   -0.304880
   8 S :   -0.111562
   9 C :   -0.349202
  10 S :   -0.107779
  11 P :    0.615291
  12 S :   -0.319195
  13 O :   -0.352864
  14 C :   -0.000410
  15 C :   -0.305909
  16 O :   -0.378687
  17 C :   -0.008679
  18 C :   -0.281724
  19 H :    0.115310
  20 H :    0.130994
  21 H :    0.114262
  22 H :    0.113527
  23 H :    0.103900
  24 H :    0.107992
  25 H :    0.114327
  26 H :    0.120349
  27 H :    0.111938
  28 H :    0.116522
  29 H :    0.182829
  30 H :    0.210756
  31 H :    0.102595
  32 H :    0.122948
  33 H :    0.109271
  34 H :    0.121644
  35 H :    0.112324
  36 H :    0.102992
  37 H :    0.098051
  38 H :    0.115357
  39 H :    0.119959
  40 H :    0.110629
Sum of atomic charges:   -0.0000000

LOEWDIN ATOMIC CHARGES
----------------------
   0 C :   -0.371361
   1 C :   -0.118190
   2 O :   -0.242490
   3 P :    0.567813
   4 S :   -0.292660
   5 O :   -0.229562
   6 C :   -0.115394
   7 C :   -0.366738
   8 S :    0.075166
   9 C :   -0.477636
  10 S :    0.078827
  11 P :    0.568906
  12 S :   -0.313028
  13 O :   -0.229795
  14 C :   -0.117029
  15 C :   -0.367114
  16 O :   -0.248867
  17 C :   -0.123325
  18 C :   -0.350450
  19 H :    0.122365
  20 H :    0.122751
  21 H :    0.131821
  22 H :    0.112669
  23 H :    0.118220
  24 H :    0.122386
  25 H :    0.102091
  26 H :    0.127635
  27 H :    0.130643
  28 H :    0.117124
  29 H :    0.137616
  30 H :    0.127248
  31 H :    0.119028
  32 H :    0.109708
  33 H :    0.129277
  34 H :    0.120354
  35 H :    0.123824
  36 H :    0.106090
  37 H :    0.107861
  38 H :    0.126292
  39 H :    0.127797
  40 H :    0.130128

  Mayer bond orders larger than 0.100000
B(  0-C ,  1-C ) :   1.1664 B(  0-C , 19-H ) :   0.9448 B(  0-C , 20-H ) :   0.9341
B(  0-C , 21-H ) :   0.9374 B(  1-C ,  2-O ) :   0.9056 B(  1-C , 22-H ) :   0.9146
B(  1-C , 23-H ) :   0.9338 B(  2-O ,  3-P ) :   1.0904 B(  3-P ,  4-S ) :   1.6308
B(  3-P ,  5-O ) :   1.1531 B(  3-P ,  8-S ) :   0.9337 B(  4-S ,  8-S ) :   0.1042
B(  5-O ,  6-C ) :   0.8980 B(  6-C ,  7-C ) :   1.1691 B(  6-C , 24-H ) :   0.9351
B(  6-C , 25-H ) :   0.9093 B(  7-C , 26-H ) :   0.9433 B(  7-C , 27-H ) :   0.9361
B(  7-C , 28-H ) :   0.9383 B(  8-S ,  9-C ) :   1.0052 B(  9-C , 10-S ) :   0.9922
B(  9-C , 29-H ) :   0.9111 B(  9-C , 30-H ) :   0.8476 B( 10-S , 11-P ) :   0.9588
B( 10-S , 12-S ) :   0.1145 B( 11-P , 12-S ) :   1.6063 B( 11-P , 13-O ) :   1.1559
B( 11-P , 16-O ) :   1.0929 B( 13-O , 14-C ) :   0.8997 B( 14-C , 15-C ) :   1.1591
B( 14-C , 31-H ) :   0.9361 B( 14-C , 32-H ) :   0.9134 B( 15-C , 33-H ) :   0.9385
B( 15-C , 34-H ) :   0.9347 B( 15-C , 35-H ) :   0.9446 B( 16-O , 17-C ) :   0.9080
B( 17-C , 18-C ) :   1.1601 B( 17-C , 36-H ) :   0.9058 B( 17-C , 37-H ) :   0.9282
B( 18-C , 38-H ) :   0.9505 B( 18-C , 39-H ) :   0.9515 B( 18-C , 40-H ) :   0.9423

Dispersion correction           -0.067526249
FINAL SINGLE POINT ENERGY     -2929.520069056233

DIPOLE MOMENT
-------------

Method             : SCF
Type of density    : Electron Density
Multiplicity       :   1
Irrep              :   0
Energy             : -2929.6383470807809317 Eh
Relativity type    :
Basis              : AO
                                X                 Y                 Z
Electronic contribution:      2.841003391      -1.962534675      -7.843460791
Nuclear contribution   :     -2.464144362       1.221385465       8.739946293
                        -----------------------------------------
Total Dipole Moment    :      0.376859029      -0.741149210       0.896485502
                        -----------------------------------------
Magnitude (a.u.)       :      1.222706479
Magnitude (Debye)      :      3.107872883

Rotational constants in cm-1:             0.013731             0.004982             0.004832
Rotational constants in MHz :           411.630956           149.349207           144.863249

                             ****ORCA TERMINATED NORMALLY****
TOTAL RUN TIME: 0 days 0 hours 0 minutes 21 seconds 675 msec
