                         Program Version 6.0.0  -   RELEASE  -
|  1> ! pbe def2-sv(p) def2/J RI DEFGRID1 loosescf d4 GCP(DFT/SV(P)) printgap
|  2> %output
|  3>     printlevel normal
|  4> end
|  5> * xyz 0 1
|  6> C 2.8139066691 -2.6040795243 1.869917496
|  7> C 1.5624381642 -2.1138621847 1.1706695746
|  8> O 1.6276837466 -0.6934654142 0.9545953739
|  9> P 2.325076453 -0.0248692645 -0.3184325324
| 10> S 2.9757322166 -1.2464637585 -1.6937878033
| 11> O 3.4885545332 0.862638273 0.2816887634
| 12> C 3.3578026369 1.7015200497 1.4569385775
| 13> C 3.0349717978 3.1322020947 1.0760367163
| 14> S 0.8606782959 1.3819617353 -0.9424485596
| 15> C -0.0393336651 0.2751899194 -2.0559636444
| 16> S -0.8036427781 -1.1361048598 -1.2116132308
| 17> P -2.0889862219 -0.0014776353 0.0280632341
| 18> S -2.8828624044 1.6172631445 -0.748970223
| 19> O -1.1458150195 0.1985251613 1.2839685146
| 20> C -1.3006219782 1.3052157578 2.1945053807
| 21> C -2.5659528319 1.1796010586 3.0165404573
| 22> O -3.1271777444 -1.0652065763 0.5886151188
| 23> C -4.3724540116 -1.3527948444 -0.0707382285
| 24> C -4.1685530483 -2.0769726675 -1.3858734657
| 25> H 3.6811584718 -2.4213856822 1.2366327287
| 26> H 2.9500528132 -2.0852022678 2.814863279
| 27> H 2.7283509215 -3.670364767 2.0527849888
| 28> H 0.6670287798 -2.2568613425 1.778170411
| 29> H 1.435790951 -2.6166836272 0.2067617936
| 30> H 2.5908657524 1.2785790419 2.1091935084
| 31> H 4.3344487388 1.6331216856 1.9392380373
| 32> H 2.0567259362 3.1939758196 0.6032011598
| 33> H 3.0366128488 3.7462195032 1.9712258275
| 34> H 3.7800738271 3.509034494 0.3809667388
| 35> H 0.6498404153 -0.1415149717 -2.7900016997
| 36> H -0.8109999271 0.880578695 -2.5305025386
| 37> H -0.4052371599 1.2603335747 2.8161264356
| 38> H -1.3031602196 2.2338740711 1.6144774565
| 39> H -2.5912830541 0.2193418194 3.5249244205
| 40> H -2.601572658 1.9799723942 3.7488990193
| 41> H -3.4364202534 1.2562380009 2.3658545895
| 42> H -4.9138588228 -1.9685018947 0.648713474
| 43> H -4.9045435126 -0.4094829209 -0.2306549054
| 44> H -3.6811499085 -1.4181878654 -2.1034854577
| 45> H -3.5456544879 -2.9561985306 -1.2412835512
| 46> H -5.1322677606 -2.3783079137 -1.7837845139
| 47> *
| 48>
| 49>                          ****END OF INPUT****

CARTESIAN COORDINATES (ANGSTROEM)
---------------------------------
  C      2.813907   -2.604080    1.869917
  C      1.562438   -2.113862    1.170670
  O      1.627684   -0.693465    0.954595
  P      2.325076   -0.024869   -0.318433
  S      2.975732   -1.246464   -1.693788
  O      3.488555    0.862638    0.281689
  C      3.357803    1.701520    1.456939
  C      3.034972    3.132202    1.076037
  S      0.860678    1.381962   -0.942449
  C     -0.039334    0.275190   -2.055964
  S     -0.803643   -1.136105   -1.211613
  P     -2.088986   -0.001478    0.028063
  S     -2.882862    1.617263   -0.748970
  O     -1.145815    0.198525    1.283969
  C     -1.300622    1.305216    2.194505
  C     -2.565953    1.179601    3.016540
  O     -3.127178   -1.065207    0.588615
  C     -4.372454   -1.352795   -0.070738
  C     -4.168553   -2.076973   -1.385873
  H      3.681158   -2.421386    1.236633
  H      2.950053   -2.085202    2.814863
  H      2.728351   -3.670365    2.052785
  H      0.667029   -2.256861    1.778170
  H      1.435791   -2.616684    0.206762
  H      2.590866    1.278579    2.109194
  H      4.334449    1.633122    1.939238
  H      2.056726    3.193976    0.603201
  H      3.036613    3.746220    1.971226
  H      3.780074    3.509034    0.380967
  H      0.649840   -0.141515   -2.790002
  H     -0.811000    0.880579   -2.530503
  H     -0.405237    1.260334    2.816126
  H     -1.303160    2.233874    1.614477
  H     -2.591283    0.219342    3.524924
  H     -2.601573    1.979972    3.748899
  H     -3.436420    1.256238    2.365855
  H     -4.913859   -1.968502    0.648713
  H     -4.904544   -0.409483   -0.230655
  H     -3.681150   -1.418188   -2.103485
  H     -3.545654   -2.956199   -1.241284
  H     -5.132268   -2.378308   -1.783785

 Total Charge           Charge          ....    0
 Multiplicity           Mult            ....    1
 Number of Electrons    NEL             ....  202
 Basis Dimension        Dim             ....  334

ORBITAL ENERGIES
----------------

  NO   OCC          E(Eh)            E(eV)
   0   2.0000     -88.043829     -2395.7944
   1   2.0000     -88.039387     -2395.6735
   2   2.0000     -87.992576     -2394.3997
   3   2.0000     -87.985462     -2394.2061
   4   2.0000     -76.428907     -2079.7363
   5   2.0000     -76.424786     -2079.6242
   6   2.0000     -18.796983      -511.4919
   7   2.0000     -18.794629      -511.4279
   8   2.0000     -18.789612      -511.2913
   9   2.0000     -18.786123      -511.1964
  10   2.0000      -9.960344      -271.0347
  11   2.0000      -9.955517      -270.9034
  12   2.0000      -9.953609      -270.8515
  13   2.0000      -9.952988      -270.8346
  14   2.0000      -9.945249      -270.6240
  15   2.0000      -9.891419      -269.1592
  16   2.0000      -9.886265      -269.0189
  17   2.0000      -9.885984      -269.0113
  18   2.0000      -9.881069      -268.8775
  19   2.0000      -7.688576      -209.2168
  20   2.0000      -7.684270      -209.0996
  21   2.0000      -7.637461      -207.8259
  22   2.0000      -7.630738      -207.6429
  23   2.0000      -6.426393      -174.8711
  24   2.0000      -6.422374      -174.7617
  25   2.0000      -5.716450      -155.5525
  26   2.0000      -5.713222      -155.4647
  27   2.0000      -5.712114      -155.4345
  28   2.0000      -5.708935      -155.3480
  29   2.0000      -5.705415      -155.2522
  30   2.0000      -5.701121      -155.1354
  31   2.0000      -5.666226      -154.1859
  32   2.0000      -5.659764      -154.0100
  33   2.0000      -5.658111      -153.9650
  34   2.0000      -5.657783      -153.9561
  35   2.0000      -5.651251      -153.7784
  36   2.0000      -5.650839      -153.7671
  37   2.0000      -4.648750      -126.4989
  38   2.0000      -4.648143      -126.4824
  39   2.0000      -4.647062      -126.4530
  40   2.0000      -4.645262      -126.4040
  41   2.0000      -4.643736      -126.3625
  42   2.0000      -4.642963      -126.3415
  43   2.0000      -0.989380       -26.9224
  44   2.0000      -0.984256       -26.7830
  45   2.0000      -0.948052       -25.7978
  46   2.0000      -0.941416       -25.6172
  47   2.0000      -0.765037       -20.8177
  48   2.0000      -0.722536       -19.6612
  49   2.0000      -0.710679       -19.3386
  50   2.0000      -0.690454       -18.7882
  51   2.0000      -0.688488       -18.7347
  52   2.0000      -0.674241       -18.3470
  53   2.0000      -0.653257       -17.7760
  54   2.0000      -0.639579       -17.4038
  55   2.0000      -0.603946       -16.4342
  56   2.0000      -0.589474       -16.0404
  57   2.0000      -0.578219       -15.7341
  58   2.0000      -0.574123       -15.6227
  59   2.0000      -0.560793       -15.2600
  60   2.0000      -0.501141       -13.6367
  61   2.0000      -0.494428       -13.4541
  62   2.0000      -0.478403       -13.0180
  63   2.0000      -0.474542       -12.9129
  64   2.0000      -0.455319       -12.3899
  65   2.0000      -0.447890       -12.1877
  66   2.0000      -0.442662       -12.0454
  67   2.0000      -0.438000       -11.9186
  68   2.0000      -0.426587       -11.6080
  69   2.0000      -0.416325       -11.3288
  70   2.0000      -0.408261       -11.1093
  71   2.0000      -0.396523       -10.7899
  72   2.0000      -0.391023       -10.6403
  73   2.0000      -0.389837       -10.6080
  74   2.0000      -0.377675       -10.2771
  75   2.0000      -0.375485       -10.2175
  76   2.0000      -0.371817       -10.1177
  77   2.0000      -0.360860        -9.8195
  78   2.0000      -0.358091        -9.7442
  79   2.0000      -0.356589        -9.7033
  80   2.0000      -0.351189        -9.5563
  81   2.0000      -0.348761        -9.4903
  82   2.0000      -0.345694        -9.4068
  83   2.0000      -0.340570        -9.2674
  84   2.0000      -0.332401        -9.0451
  85   2.0000      -0.321731        -8.7548
  86   2.0000      -0.311587        -8.4787
  87   2.0000      -0.302748        -8.2382
  88   2.0000      -0.297822        -8.1041
  89   2.0000      -0.286102        -7.7852
  90   2.0000      -0.281504        -7.6601
  91   2.0000      -0.277792        -7.5591
  92   2.0000      -0.270706        -7.3663
  93   2.0000      -0.266931        -7.2636
  94   2.0000      -0.256098        -6.9688
  95   2.0000      -0.231788        -6.3073
  96   2.0000      -0.217360        -5.9147
  97   2.0000      -0.214712        -5.8426
  98   2.0000      -0.209916        -5.7121
  99   2.0000      -0.202223        -5.5028
 100   2.0000      -0.198483        -5.4010
 101   0.0000      -0.045916        -1.2494
 102   0.0000      -0.022750        -0.6190
 103   0.0000      -0.001800        -0.0490
 104   0.0000       0.002873         0.0782
 105   0.0000       0.005413         0.1473

MULLIKEN ATOMIC CHARGES
-----------------------
   0 C :   -0.292249
   1 C :   -0.007587
   2 O :   -0.382459
   3 P :    0.634208
   4 S :   -0.316532
   5 O :   -0.365671
   6 C :   -0.030100
   7 C :   -0.306250
   8 S :   -0.109765
   9 C :   -0.346101
  10 S :   -0.078996
  11 P :    0.613876
  12 S :   -0.336219
  13 O :   -0.352615
  14 C :   -0.008905
  15 C :   -0.304083
  16 O :   -0.370970
  17 C :   -0.005574
  18 C :   -0.314753
  19 H :    0.121698
  20 H :    0.105723
  21 H :    0.109439
  22 H :    0.100193
  23 H :    0.113839
  24 H :    0.115850
  25 H :    0.111946
  26 H :    0.137376
  27 H :    0.111711
  28 H :    0.126012
  29 H :    0.192852
  30 H :    0.190218
  31 H :    0.104243
  32 H :    0.112808
  33 H :    0.115170
  34 H :    0.110969
  35 H :    0.122706
  36 H :    0.106186
  37 H :    0.111282
  38 H :    0.127449
  39 H :    0.118710
  40 H :    0.114363
Sum of atomic charges:    0.0000000

LOEWDIN ATOMIC CHARGES
----------------------
   0 C :   -0.361819
   1 C :   -0.123855
   2 O :   -0.246413
   3 P :    0.573391
   4 S :   -0.308488
   5 O :   -0.242749
   6 C :   -0.115231
   7 C :   -0.362291
   8 S :    0.081110
   9 C :   -0.480608
  10 S :    0.102061
  11 P :    0.574059
  12 S :   -0.323912
  13 O :   -0.232506
  14 C :   -0.118372
  15 C :   -0.364910
  16 O :   -0.243944
  17 C :   -0.119195
  18 C :   -0.369025
  19 H :    0.124655
  20 H :    0.120380
  21 H :    0.129520
  22 H :    0.114473
  23 H :    0.104759
  24 H :    0.110694
  25 H :    0.122368
  26 H :    0.119163
  27 H :    0.131050
  28 H :    0.131965
  29 H :    0.131816
  30 H :    0.130652
  31 H :    0.115411
  32 H :    0.109782
  33 H :    0.125770
  34 H :    0.129860
  35 H :    0.122378
  36 H :    0.119123
  37 H :    0.110595
  38 H :    0.121589
  39 H :    0.124982
  40 H :    0.131709

  Mayer bond orders larger than 0.100000
B(  0-C ,  1-C ) :   1.1610 B(  0-C , 19-H ) :   0.9399 B(  0-C , 20-H ) :   0.9488
B(  0-C , 21-H ) :   0.9414 B(  1-C ,  2-O ) :   0.8983 B(  1-C , 22-H ) :   0.9319
B(  1-C , 23-H ) :   0.9066 B(  2-O ,  3-P ) :   1.0770 B(  3-P ,  4-S ) :   1.6297
B(  3-P ,  5-O ) :   1.1349 B(  3-P ,  8-S ) :   0.9453 B(  4-S ,  8-S ) :   0.1020
B(  5-O ,  6-C ) :   0.9019 B(  6-C ,  7-C ) :   1.1673 B(  6-C , 24-H ) :   0.9148
B(  6-C , 25-H ) :   0.9338 B(  7-C , 26-H ) :   0.9318 B(  7-C , 27-H ) :   0.9382
B(  7-C , 28-H ) :   0.9459 B(  8-S ,  9-C ) :   1.0105 B(  9-C , 10-S ) :   0.9991
B(  9-C , 29-H ) :   0.8814 B(  9-C , 30-H ) :   0.8856 B( 10-S , 11-P ) :   0.9544
B( 10-S , 12-S ) :   0.1076 B( 11-P , 12-S ) :   1.5846 B( 11-P , 13-O ) :   1.1284
B( 11-P , 16-O ) :   1.1128 B( 13-O , 14-C ) :   0.9076 B( 14-C , 15-C ) :   1.1634
B( 14-C , 31-H ) :   0.9315 B( 14-C , 32-H ) :   0.9157 B( 15-C , 33-H ) :   0.9459
B( 15-C , 34-H ) :   0.9396 B( 15-C , 35-H ) :   0.9358 B( 16-O , 17-C ) :   0.9079
B( 17-C , 18-C ) :   1.1661 B( 17-C , 36-H ) :   0.9339 B( 17-C , 37-H ) :   0.9161
B( 18-C , 38-H ) :   0.9358 B( 18-C , 39-H ) :   0.9448 B( 18-C , 40-H ) :   0.9378

Dispersion correction           -0.067320638
FINAL SINGLE POINT ENERGY     -2929.523703070054

DIPOLE MOMENT
-------------

Method             : SCF
Type of density    : Electron Density
Multiplicity       :   1
Irrep              :   0
Energy             : -2929.6417963898770722 Eh
Relativity type    :
Basis              : AO
                                X                 Y                 Z
Electronic contribution:      4.676566616       1.028470568     -16.782825611
Nuclear contribution   :     -5.283184959      -1.066108493      18.387958913
                        -----------------------------------------
Total Dipole Moment    :     -0.606618343      -0.037637924       1.605133302
                        -----------------------------------------
Magnitude (a.u.)       :      1.716349424
Magnitude (Debye)      :      4.362613533

Rotational constants in cm-1:             0.011616             0.005564             0.005100
Rotational constants in MHz :           348.226885           166.812872           152.884880

                             ****ORCA TERMINATED NORMALLY****
TOTAL RUN TIME: 0 days 0 hours 0 minutes 21 seconds 399 msec
