                         Program Version 6.0.0  -   RELEASE  -
|  1> ! r2scan-3c def2/J RI DEFGRID2 scfconv6 printgap
|  2> %output
|  3>     printlevel normal
|  4> end
|  5> * xyz 0 1
|  6> C -1.7580644723 0.6888757118 -0.0002362335
|  7> C -0.4724585722 -0.1057075901 -2.9273e-05
|  8> O -0.4470318568 -1.3349206466 0.0001094084
|  9> N 0.6384328337 0.6445068175 0.0005985934
| 10> C 1.9754302552 0.0967019475 -0.0003202137
| 11> H -1.8069824201 1.3169733336 0.8849384152
| 12> H -1.8059718751 1.3181079992 -0.8847788392
| 13> H -2.6002381575 0.0034966903 -0.001126571
| 14> H 0.5517865188 1.6490187967 -9.53237e-05
| 15> H 2.5148234017 0.4111179508 -0.893747797
| 16> H 1.8897675297 -0.9886181978 0.0060826976
| 17> H 2.5205366933 0.4218728946 0.8856519821
| 18> *
| 19>
| 20>                          ****END OF INPUT****

CARTESIAN COORDINATES (ANGSTROEM)
---------------------------------
  C     -1.758064    0.688876   -0.000236
  C     -0.472459   -0.105708   -0.000029
  O     -0.447032   -1.334921    0.000109
  N      0.638433    0.644507    0.000599
  C      1.975430    0.096702   -0.000320
  H     -1.806982    1.316973    0.884938
  H     -1.805972    1.318108   -0.884779
  H     -2.600238    0.003497   -0.001127
  H      0.551787    1.649019   -0.000095
  H      2.514823    0.411118   -0.893748
  H      1.889768   -0.988618    0.006083
  H      2.520537    0.421873    0.885652

 Total Charge           Charge          ....    0
 Multiplicity           Mult            ....    1
 Number of Electrons    NEL             ....   40
 Basis Dimension        Dim             ....  140

ORBITAL ENERGIES
----------------

  NO   OCC          E(Eh)            E(eV)
   0   2.0000     -18.903871      -514.4005
   1   2.0000     -14.186963      -386.0469
   2   2.0000     -10.123677      -275.4793
   3   2.0000     -10.062654      -273.8187
   4   2.0000     -10.033012      -273.0121
   5   2.0000      -0.990801       -26.9611
   6   2.0000      -0.890124       -24.2215
   7   2.0000      -0.722566       -19.6620
   8   2.0000      -0.656487       -17.8639
   9   2.0000      -0.555061       -15.1040
  10   2.0000      -0.474892       -12.9225
  11   2.0000      -0.432798       -11.7770
  12   2.0000      -0.431311       -11.7366
  13   2.0000      -0.397839       -10.8257
  14   2.0000      -0.371958       -10.1215
  15   2.0000      -0.363576        -9.8934
  16   2.0000      -0.352380        -9.5887
  17   2.0000      -0.324930        -8.8418
  18   2.0000      -0.227526        -6.1913
  19   2.0000      -0.212595        -5.7850
  20   0.0000       0.006158         0.1676
  21   0.0000       0.061053         1.6613
  22   0.0000       0.103090         2.8052
  23   0.0000       0.116152         3.1607
  24   0.0000       0.130536         3.5521

MULLIKEN ATOMIC CHARGES
-----------------------
   0 C :   -0.565069
   1 C :    0.353139
   2 O :   -0.460082
   3 N :   -0.140789
   4 C :   -0.413476
   5 H :    0.160606
   6 H :    0.160496
   7 H :    0.184065
   8 H :    0.236373
   9 H :    0.142358
  10 H :    0.200136
  11 H :    0.142244
Sum of atomic charges:   -0.0000000

LOEWDIN ATOMIC CHARGES
----------------------
   0 C :   -0.354505
   1 C :    0.310977
   2 O :   -0.483190
   3 N :   -0.675862
   4 C :   -0.122781
   5 H :    0.168561
   6 H :    0.168531
   7 H :    0.177715
   8 H :    0.267175
   9 H :    0.168519
  10 H :    0.206300
  11 H :    0.168560

  Mayer bond orders larger than 0.100000
B(  0-C ,  1-C ) :   0.9019 B(  0-C ,  5-H ) :   0.9617 B(  0-C ,  6-H ) :   0.9618
B(  0-C ,  7-H ) :   0.9810 B(  1-C ,  2-O ) :   1.8368 B(  1-C ,  3-N ) :   1.1836
B(  3-N ,  4-C ) :   0.8929 B(  3-N ,  8-H ) :   0.9208 B(  4-C ,  9-H ) :   0.9611
B(  4-C , 10-H ) :   0.9567 B(  4-C , 11-H ) :   0.9614

Dispersion correction           -0.002391357
FINAL SINGLE POINT ENERGY      -248.462104766711

DIPOLE MOMENT
-------------

Method             : SCF
Type of density    : Electron Density
Multiplicity       :   1
Irrep              :   0
Energy             :  -248.4702428565451839 Eh
Relativity type    :
Basis              : AO
                                X                 Y                 Z
Electronic contribution:     -0.772900624      -2.351497449       0.002414948
Nuclear contribution   :      1.182464162       3.860218645      -0.002880369
                        -----------------------------------------
Total Dipole Moment    :      0.409563538       1.508721196      -0.000465421
                        -----------------------------------------
Magnitude (a.u.)       :      1.563324072
Magnitude (Debye)      :      3.973654000

Rotational constants in cm-1:             0.330380             0.130846             0.097155
Rotational constants in MHz :          9904.532948          3922.659011          2912.643398

                             ****ORCA TERMINATED NORMALLY****
TOTAL RUN TIME: 0 days 0 hours 0 minutes 13 seconds 531 msec
