                         Program Version 6.0.0  -   RELEASE  -
|  1> ! r2scan-3c def2/J RI DEFGRID2 scfconv6 printgap
|  2> %output
|  3>     printlevel normal
|  4> end
|  5> %cpcm
|  6>     smd true
|  7>     smdsolvent "water"
|  8> end
|  9> * xyz 0 1
| 10> C -1.7580644723 0.6888757118 -0.0002362335
| 11> C -0.4724585722 -0.1057075901 -2.9273e-05
| 12> O -0.4470318568 -1.3349206466 0.0001094084
| 13> N 0.6384328337 0.6445068175 0.0005985934
| 14> C 1.9754302552 0.0967019475 -0.0003202137
| 15> H -1.8069824201 1.3169733336 0.8849384152
| 16> H -1.8059718751 1.3181079992 -0.8847788392
| 17> H -2.6002381575 0.0034966903 -0.001126571
| 18> H 0.5517865188 1.6490187967 -9.53237e-05
| 19> H 2.5148234017 0.4111179508 -0.893747797
| 20> H 1.8897675297 -0.9886181978 0.0060826976
| 21> H 2.5205366933 0.4218728946 0.8856519821
| 22> *
| 23>
| 24>                          ****END OF INPUT****

CARTESIAN COORDINATES (ANGSTROEM)
---------------------------------
  C     -1.758064    0.688876   -0.000236
  C     -0.472459   -0.105708   -0.000029
  O     -0.447032   -1.334921    0.000109
  N      0.638433    0.644507    0.000599
  C      1.975430    0.096702   -0.000320
  H     -1.806982    1.316973    0.884938
  H     -1.805972    1.318108   -0.884779
  H     -2.600238    0.003497   -0.001127
  H      0.551787    1.649019   -0.000095
  H      2.514823    0.411118   -0.893748
  H      1.889768   -0.988618    0.006083
  H      2.520537    0.421873    0.885652

 Total Charge           Charge          ....    0
 Multiplicity           Mult            ....    1
 Number of Electrons    NEL             ....   40
 Basis Dimension        Dim             ....  140

ORBITAL ENERGIES
----------------

  NO   OCC          E(Eh)            E(eV)
   0   2.0000     -18.920508      -514.8532
   1   2.0000     -14.182845      -385.9348
   2   2.0000     -10.131163      -275.6830
   3   2.0000     -10.050965      -273.5007
   4   2.0000     -10.022988      -272.7394
   5   2.0000      -1.005686       -27.3661
   6   2.0000      -0.888511       -24.1776
   7   2.0000      -0.715311       -19.4646
   8   2.0000      -0.646842       -17.6015
   9   2.0000      -0.548589       -14.9279
  10   2.0000      -0.467197       -12.7131
  11   2.0000      -0.437980       -11.9180
  12   2.0000      -0.427824       -11.6417
  13   2.0000      -0.386050       -10.5050
  14   2.0000      -0.375699       -10.2233
  15   2.0000      -0.357981        -9.7412
  16   2.0000      -0.349829        -9.5193
  17   2.0000      -0.329533        -8.9670
  18   2.0000      -0.232458        -6.3255
  19   2.0000      -0.230713        -6.2780
  20   0.0000       0.000423         0.0115
  21   0.0000       0.078750         2.1429
  22   0.0000       0.114743         3.1223
  23   0.0000       0.131364         3.5746
  24   0.0000       0.144316         3.9270

MULLIKEN ATOMIC CHARGES
-----------------------
   0 C :   -0.575130
   1 C :    0.364588
   2 O :   -0.583729
   3 N :   -0.161097
   4 C :   -0.427265
   5 H :    0.189997
   6 H :    0.189942
   7 H :    0.180386
   8 H :    0.301627
   9 H :    0.168556
  10 H :    0.183536
  11 H :    0.168589
Sum of atomic charges:    0.0000000

LOEWDIN ATOMIC CHARGES
----------------------
   0 C :   -0.350770
   1 C :    0.312306
   2 O :   -0.581297
   3 N :   -0.643589
   4 C :   -0.121275
   5 H :    0.182712
   6 H :    0.182709
   7 H :    0.174428
   8 H :    0.287171
   9 H :    0.179921
  10 H :    0.197637
  11 H :    0.180047

  Mayer bond orders larger than 0.100000
B(  0-C ,  1-C ) :   0.9269 B(  0-C ,  5-H ) :   0.9452 B(  0-C ,  6-H ) :   0.9452
B(  0-C ,  7-H ) :   0.9827 B(  1-C ,  2-O ) :   1.7340 B(  1-C ,  3-N ) :   1.2465
B(  3-N ,  4-C ) :   0.8833 B(  3-N ,  8-H ) :   0.8974 B(  4-C ,  9-H ) :   0.9539
B(  4-C , 10-H ) :   0.9604 B(  4-C , 11-H ) :   0.9541

Dispersion correction           -0.002391357
FINAL SINGLE POINT ENERGY      -248.475998190380

DIPOLE MOMENT
-------------

Method             : SCF
Type of density    : Electron Density
Multiplicity       :   1
Irrep              :   0
Energy             :  -248.4841362802143863 Eh
Relativity type    :
Basis              : AO
                                X                 Y                 Z
Electronic contribution:     -0.591581646      -1.611961233       0.002121672
Nuclear contribution   :      1.182464162       3.860218645      -0.002880369
                        -----------------------------------------
Total Dipole Moment    :      0.590882516       2.248257412      -0.000758697
                        -----------------------------------------
Magnitude (a.u.)       :      2.324608378
Magnitude (Debye)      :      5.908684927

Rotational constants in cm-1:             0.330380             0.130846             0.097155
Rotational constants in MHz :          9904.532948          3922.659011          2912.643398

                             ****ORCA TERMINATED NORMALLY****
TOTAL RUN TIME: 0 days 0 hours 0 minutes 14 seconds 123 msec
