                         Program Version 6.0.0  -   RELEASE  -
|  1> ! pbe def2-sv(p) def2/J RI DEFGRID1 loosescf d4 GCP(DFT/SV(P)) printgap
|  2> %output
|  3>     printlevel normal
|  4> end
|  5> * xyz 0 1
|  6> C 0.0764848973 -2.9982358374 1.5615747399
|  7> C 1.3927199541 -2.2490023975 1.5844455742
|  8> O 1.1487522831 -0.8861073613 1.1681523336
|  9> P 2.1799622368 -0.0656507711 0.2933347663
| 10> S 3.1657347512 -1.0811743455 -1.0697132049
| 11> O 3.0953148157 0.5774552033 1.4256876208
| 12> C 4.3747231481 1.1699790841 1.1429604082
| 13> C 4.245137281 2.4473794831 0.3387588169
| 14> S 0.944185366 1.5074291195 -0.3639560103
| 15> C 0.362132555 0.7010216238 -1.8775581727
| 16> S -0.6519238461 -0.7663782007 -1.5687391884
| 17> P -2.2489300168 0.2340424797 -0.6077936019
| 18> S -2.6321119794 2.0868330859 -1.0891019767
| 19> O -1.8650310877 -0.0285022897 0.9219148576
| 20> C -2.3159691947 0.8131646853 2.0021015555
| 21> C -1.2301699997 1.7858619526 2.4172693746
| 22> O -3.5131054425 -0.6670317781 -0.9374304647
| 23> C -3.5486121218 -2.1128056127 -0.896623294
| 24> C -3.8173236179 -2.6293629335 0.5024769538
| 25> H -0.6416939592 -2.4971405811 2.2044004057
| 26> H -0.3158105746 -3.0288189624 0.5480491282
| 27> H 0.2351337808 -4.0113082713 1.916409176
| 28> H 2.1192855359 -2.7017407531 0.9007980092
| 29> H 1.8175199351 -2.2111807883 2.5900797153
| 30> H 4.8014306248 1.3554133973 2.1295356822
| 31> H 4.982837473 0.4359265782 0.6046632892
| 32> H 5.2186584889 2.919444974 0.2538678445
| 33> H 3.8736611798 2.2228300788 -0.6603184155
| 34> H 3.5521912771 3.130803912 0.8232153177
| 35> H 1.2147630866 0.3614037299 -2.4654370247
| 36> H -0.2246931617 1.4451187468 -2.4149410454
| 37> H -3.2178890257 1.3486856932 1.6909655946
| 38> H -2.5599412944 0.1219128701 2.8112090891
| 39> H -0.3037842839 1.2501504997 2.6110514957
| 40> H -1.0533377621 2.5118457217 1.6264591812
| 41> H -1.5412357493 2.3079282336 3.316399255
| 42> H -4.3593739107 -2.3715687192 -1.5800038002
| 43> H -2.6030389431 -2.4978643411 -1.2888870076
| 44> H -4.7321776309 -2.19052866 0.8920499574
| 45> H -3.926001118 -3.7087378012 0.4655567148
| 46> H -2.9929516648 -2.3789705507 1.1643275692
| 47> *
| 48>
| 49>                          ****END OF INPUT****

CARTESIAN COORDINATES (ANGSTROEM)
---------------------------------
  C      0.076485   -2.998236    1.561575
  C      1.392720   -2.249002    1.584446
  O      1.148752   -0.886107    1.168152
  P      2.179962   -0.065651    0.293335
  S      3.165735   -1.081174   -1.069713
  O      3.095315    0.577455    1.425688
  C      4.374723    1.169979    1.142960
  C      4.245137    2.447379    0.338759
  S      0.944185    1.507429   -0.363956
  C      0.362133    0.701022   -1.877558
  S     -0.651924   -0.766378   -1.568739
  P     -2.248930    0.234042   -0.607794
  S     -2.632112    2.086833   -1.089102
  O     -1.865031   -0.028502    0.921915
  C     -2.315969    0.813165    2.002102
  C     -1.230170    1.785862    2.417269
  O     -3.513105   -0.667032   -0.937430
  C     -3.548612   -2.112806   -0.896623
  C     -3.817324   -2.629363    0.502477
  H     -0.641694   -2.497141    2.204400
  H     -0.315811   -3.028819    0.548049
  H      0.235134   -4.011308    1.916409
  H      2.119286   -2.701741    0.900798
  H      1.817520   -2.211181    2.590080
  H      4.801431    1.355413    2.129536
  H      4.982837    0.435927    0.604663
  H      5.218658    2.919445    0.253868
  H      3.873661    2.222830   -0.660318
  H      3.552191    3.130804    0.823215
  H      1.214763    0.361404   -2.465437
  H     -0.224693    1.445119   -2.414941
  H     -3.217889    1.348686    1.690966
  H     -2.559941    0.121913    2.811209
  H     -0.303784    1.250150    2.611051
  H     -1.053338    2.511846    1.626459
  H     -1.541236    2.307928    3.316399
  H     -4.359374   -2.371569   -1.580004
  H     -2.603039   -2.497864   -1.288887
  H     -4.732178   -2.190529    0.892050
  H     -3.926001   -3.708738    0.465557
  H     -2.992952   -2.378971    1.164328

 Total Charge           Charge          ....    0
 Multiplicity           Mult            ....    1
 Number of Electrons    NEL             ....  202
 Basis Dimension        Dim             ....  334

ORBITAL ENERGIES
----------------

  NO   OCC          E(Eh)            E(eV)
   0   2.0000     -88.044536     -2395.8136
   1   2.0000     -88.043013     -2395.7722
   2   2.0000     -87.989606     -2394.3189
   3   2.0000     -87.985168     -2394.1981
   4   2.0000     -76.426764     -2079.6780
   5   2.0000     -76.425008     -2079.6302
   6   2.0000     -18.794126      -511.4142
   7   2.0000     -18.792806      -511.3783
   8   2.0000     -18.789004      -511.2748
   9   2.0000     -18.786748      -511.2134
  10   2.0000      -9.961794      -271.0742
  11   2.0000      -9.956302      -270.9248
  12   2.0000      -9.953026      -270.8356
  13   2.0000      -9.951745      -270.8007
  14   2.0000      -9.949656      -270.7439
  15   2.0000      -9.892597      -269.1913
  16   2.0000      -9.886589      -269.0278
  17   2.0000      -9.884622      -268.9743
  18   2.0000      -9.874582      -268.7010
  19   2.0000      -7.689397      -209.2391
  20   2.0000      -7.688165      -209.2056
  21   2.0000      -7.634533      -207.7462
  22   2.0000      -7.630496      -207.6364
  23   2.0000      -6.424470      -174.8187
  24   2.0000      -6.422851      -174.7747
  25   2.0000      -5.717300      -155.5756
  26   2.0000      -5.715975      -155.5396
  27   2.0000      -5.713966      -155.4849
  28   2.0000      -5.712876      -155.4552
  29   2.0000      -5.706235      -155.2746
  30   2.0000      -5.704933      -155.2391
  31   2.0000      -5.663245      -154.1047
  32   2.0000      -5.659585      -154.0051
  33   2.0000      -5.655238      -153.8868
  34   2.0000      -5.654836      -153.8759
  35   2.0000      -5.651355      -153.7812
  36   2.0000      -5.650183      -153.7493
  37   2.0000      -4.646924      -126.4492
  38   2.0000      -4.646170      -126.4287
  39   2.0000      -4.645718      -126.4164
  40   2.0000      -4.645044      -126.3981
  41   2.0000      -4.644322      -126.3784
  42   2.0000      -4.643334      -126.3515
  43   2.0000      -0.986844       -26.8534
  44   2.0000      -0.981964       -26.7206
  45   2.0000      -0.945206       -25.7204
  46   2.0000      -0.942354       -25.6427
  47   2.0000      -0.767643       -20.8886
  48   2.0000      -0.723791       -19.6954
  49   2.0000      -0.711544       -19.3621
  50   2.0000      -0.690512       -18.7898
  51   2.0000      -0.687107       -18.6971
  52   2.0000      -0.673554       -18.3283
  53   2.0000      -0.650376       -17.6976
  54   2.0000      -0.640840       -17.4382
  55   2.0000      -0.601754       -16.3745
  56   2.0000      -0.587575       -15.9887
  57   2.0000      -0.580080       -15.7848
  58   2.0000      -0.572079       -15.5671
  59   2.0000      -0.555985       -15.1291
  60   2.0000      -0.505134       -13.7454
  61   2.0000      -0.501013       -13.6333
  62   2.0000      -0.478660       -13.0250
  63   2.0000      -0.473722       -12.8906
  64   2.0000      -0.458371       -12.4729
  65   2.0000      -0.447164       -12.1680
  66   2.0000      -0.442081       -12.0296
  67   2.0000      -0.433143       -11.7864
  68   2.0000      -0.429273       -11.6811
  69   2.0000      -0.417499       -11.3607
  70   2.0000      -0.406829       -11.0704
  71   2.0000      -0.394761       -10.7420
  72   2.0000      -0.392001       -10.6669
  73   2.0000      -0.387463       -10.5434
  74   2.0000      -0.384356       -10.4589
  75   2.0000      -0.371851       -10.1186
  76   2.0000      -0.368495       -10.0272
  77   2.0000      -0.358407        -9.7527
  78   2.0000      -0.353853        -9.6288
  79   2.0000      -0.352416        -9.5897
  80   2.0000      -0.349768        -9.5177
  81   2.0000      -0.346581        -9.4310
  82   2.0000      -0.342035        -9.3072
  83   2.0000      -0.340492        -9.2653
  84   2.0000      -0.337617        -9.1870
  85   2.0000      -0.319024        -8.6811
  86   2.0000      -0.309931        -8.4337
  87   2.0000      -0.304116        -8.2754
  88   2.0000      -0.297438        -8.0937
  89   2.0000      -0.288271        -7.8443
  90   2.0000      -0.280420        -7.6306
  91   2.0000      -0.277585        -7.5535
  92   2.0000      -0.273950        -7.4545
  93   2.0000      -0.265037        -7.2120
  94   2.0000      -0.259698        -7.0667
  95   2.0000      -0.230721        -6.2782
  96   2.0000      -0.216100        -5.8804
  97   2.0000      -0.214521        -5.8374
  98   2.0000      -0.207380        -5.6431
  99   2.0000      -0.202552        -5.5117
 100   2.0000      -0.197371        -5.3707
 101   0.0000      -0.046888        -1.2759
 102   0.0000      -0.026210        -0.7132
 103   0.0000      -0.006514        -0.1773
 104   0.0000       0.001419         0.0386
 105   0.0000       0.007684         0.2091

MULLIKEN ATOMIC CHARGES
-----------------------
   0 C :   -0.300741
   1 C :   -0.006414
   2 O :   -0.357595
   3 P :    0.618848
   4 S :   -0.340611
   5 O :   -0.378092
   6 C :   -0.003622
   7 C :   -0.317018
   8 S :   -0.061634
   9 C :   -0.354037
  10 S :   -0.104031
  11 P :    0.624774
  12 S :   -0.317271
  13 O :   -0.377575
  14 C :   -0.012761
  15 C :   -0.291872
  16 O :   -0.366423
  17 C :   -0.026392
  18 C :   -0.317440
  19 H :    0.127908
  20 H :    0.124055
  21 H :    0.106498
  22 H :    0.106633
  23 H :    0.102032
  24 H :    0.105014
  25 H :    0.111469
  26 H :    0.113927
  27 H :    0.126627
  28 H :    0.119002
  29 H :    0.191624
  30 H :    0.195212
  31 H :    0.105816
  32 H :    0.096719
  33 H :    0.116670
  34 H :    0.130293
  35 H :    0.102463
  36 H :    0.115940
  37 H :    0.119665
  38 H :    0.119953
  39 H :    0.112633
  40 H :    0.139757
Sum of atomic charges:    0.0000000

LOEWDIN ATOMIC CHARGES
----------------------
   0 C :   -0.354721
   1 C :   -0.115081
   2 O :   -0.236160
   3 P :    0.569775
   4 S :   -0.328194
   5 O :   -0.248117
   6 C :   -0.119398
   7 C :   -0.369450
   8 S :    0.117500
   9 C :   -0.479024
  10 S :    0.086030
  11 P :    0.570984
  12 S :   -0.311416
  13 O :   -0.250524
  14 C :   -0.115679
  15 C :   -0.364663
  16 O :   -0.246635
  17 C :   -0.113901
  18 C :   -0.363922
  19 H :    0.124720
  20 H :    0.122109
  21 H :    0.127897
  22 H :    0.107114
  23 H :    0.113351
  24 H :    0.118611
  25 H :    0.110656
  26 H :    0.131444
  27 H :    0.121079
  28 H :    0.124922
  29 H :    0.130810
  30 H :    0.133096
  31 H :    0.108795
  32 H :    0.112140
  33 H :    0.121881
  34 H :    0.121948
  35 H :    0.125429
  36 H :    0.124504
  37 H :    0.104832
  38 H :    0.128991
  39 H :    0.131248
  40 H :    0.127021

  Mayer bond orders larger than 0.100000
B(  0-C ,  1-C ) :   1.1648 B(  0-C , 19-H ) :   0.9406 B(  0-C , 20-H ) :   0.9440
B(  0-C , 21-H ) :   0.9380 B(  1-C ,  2-O ) :   0.9015 B(  1-C , 22-H ) :   0.9040
B(  1-C , 23-H ) :   0.9332 B(  2-O ,  3-P ) :   1.1250 B(  3-P ,  4-S ) :   1.5925
B(  3-P ,  5-O ) :   1.1064 B(  3-P ,  8-S ) :   0.9664 B(  4-S ,  8-S ) :   0.1069
B(  5-O ,  6-C ) :   0.9104 B(  6-C ,  7-C ) :   1.1643 B(  6-C , 24-H ) :   0.9339
B(  6-C , 25-H ) :   0.9159 B(  7-C , 26-H ) :   0.9379 B(  7-C , 27-H ) :   0.9356
B(  7-C , 28-H ) :   0.9449 B(  8-S ,  9-C ) :   1.0061 B(  9-C , 10-S ) :   1.0113
B(  9-C , 29-H ) :   0.8817 B(  9-C , 30-H ) :   0.8840 B( 10-S , 11-P ) :   0.9555
B( 10-S , 12-S ) :   0.1017 B( 11-P , 12-S ) :   1.6250 B( 11-P , 13-O ) :   1.0872
B( 11-P , 16-O ) :   1.1192 B( 13-O , 14-C ) :   0.9014 B( 14-C , 15-C ) :   1.1757
B( 14-C , 31-H ) :   0.9139 B( 14-C , 32-H ) :   0.9319 B( 15-C , 33-H ) :   0.9423
B( 15-C , 34-H ) :   0.9356 B( 15-C , 35-H ) :   0.9385 B( 16-O , 17-C ) :   0.9098
B( 17-C , 18-C ) :   1.1604 B( 17-C , 36-H ) :   0.9347 B( 17-C , 37-H ) :   0.9131
B( 18-C , 38-H ) :   0.9449 B( 18-C , 39-H ) :   0.9385 B( 18-C , 40-H ) :   0.9338

Dispersion correction           -0.067534603
FINAL SINGLE POINT ENERGY     -2929.522503438017

DIPOLE MOMENT
-------------

Method             : SCF
Type of density    : Electron Density
Multiplicity       :   1
Irrep              :   0
Energy             : -2929.6404698344540520 Eh
Relativity type    :
Basis              : AO
                                X                 Y                 Z
Electronic contribution:      0.697805900       7.007729714     -16.166792107
Nuclear contribution   :     -0.594940452      -7.896138433      17.455514605
                        -----------------------------------------
Total Dipole Moment    :      0.102865448      -0.888408719       1.288722498
                        -----------------------------------------
Magnitude (a.u.)       :      1.568648153
Magnitude (Debye)      :      3.987186739

Rotational constants in cm-1:             0.012066             0.005629             0.005109
Rotational constants in MHz :           361.742031           168.755684           153.158196

                             ****ORCA TERMINATED NORMALLY****
TOTAL RUN TIME: 0 days 0 hours 0 minutes 22 seconds 387 msec
