                         Program Version 6.0.0  -   RELEASE  -
|  1> ! pbe def2-sv(p) def2/J RI DEFGRID1 loosescf d4 GCP(DFT/SV(P)) printgap
|  2> %output
|  3>     printlevel normal
|  4> end
|  5> * xyz 0 1
|  6> C 1.3645982787 -2.0346501235 -2.2741398139
|  7> C 1.730723662 -0.5758117601 -2.4535535413
|  8> O 1.4836612392 0.2231713728 -1.267752431
|  9> P 2.1577360148 -0.0172426822 0.1400579671
| 10> S 2.1907564775 1.6237037453 1.2116947003
| 11> O 3.552516407 -0.6420888454 -0.2906591859
| 12> C 4.5153272736 -1.2031080097 0.6225457413
| 13> C 5.3295113009 -0.1344837367 1.3239906917
| 14> S 1.2045408327 -1.656038514 1.1132844956
| 15> C -0.0638242215 -0.7783802065 2.0651743243
| 16> S -1.7450578927 -1.170628902 1.519371345
| 17> P -2.0065879516 0.2443432021 -0.0259709874
| 18> S -1.1952642487 2.0039170845 0.3190547044
| 19> O -3.580257606 0.2666340177 -0.2334015357
| 20> C -4.447135968 1.0359422233 0.6228140923
| 21> C -5.6952823373 1.3857443137 -0.1625559912
| 22> O -1.5268078006 -0.5649710211 -1.2995124242
| 23> C -2.0613027236 -0.3489985444 -2.6278670713
| 24> C -1.9106232594 1.0874729125 -3.0817234008
| 25> H 0.3460530628 -2.1290075825 -1.9054765268
| 26> H 1.4491080148 -2.538023962 -3.2324285072
| 27> H 2.0353401455 -2.5124585869 -1.5632111147
| 28> H 1.1083223474 -0.0945585524 -3.2097179922
| 29> H 2.7839032151 -0.4661108339 -2.717900685
| 30> H 3.990803743 -1.8349267024 1.3440263769
| 31> H 5.1472517401 -1.8223892829 -0.0173851677
| 32> H 5.8122086959 0.5104927063 0.5944277696
| 33> H 4.6899194609 0.47823267 1.9552559925
| 34> H 6.0862415826 -0.6098843681 1.9396633502
| 35> H 0.1142003051 0.2992184276 1.9852622865
| 36> H 0.0061226795 -1.1111160485 3.0973549034
| 37> H -4.6832902592 0.4241423944 1.4965461409
| 38> H -3.9106858876 1.934545023 0.9464838366
| 39> H -5.4408048165 2.0025289181 -1.0200234164
| 40> H -6.1807330923 0.47866141 -0.5102555947
| 41> H -6.3760642718 1.9340192313 0.4801398232
| 42> H -1.4814462611 -1.0311442703 -3.251671077
| 43> H -3.1109316266 -0.6486655303 -2.622705738
| 44> H -0.8761033937 1.4117809676 -2.9840741779
| 45> H -2.2220223712 1.1769493214 -4.1177457849
| 46> H -2.5260596356 1.7421406798 -2.4656324337
| 47> *
| 48>
| 49>                          ****END OF INPUT****

CARTESIAN COORDINATES (ANGSTROEM)
---------------------------------
  C      1.364598   -2.034650   -2.274140
  C      1.730724   -0.575812   -2.453554
  O      1.483661    0.223171   -1.267752
  P      2.157736   -0.017243    0.140058
  S      2.190756    1.623704    1.211695
  O      3.552516   -0.642089   -0.290659
  C      4.515327   -1.203108    0.622546
  C      5.329511   -0.134484    1.323991
  S      1.204541   -1.656039    1.113284
  C     -0.063824   -0.778380    2.065174
  S     -1.745058   -1.170629    1.519371
  P     -2.006588    0.244343   -0.025971
  S     -1.195264    2.003917    0.319055
  O     -3.580258    0.266634   -0.233402
  C     -4.447136    1.035942    0.622814
  C     -5.695282    1.385744   -0.162556
  O     -1.526808   -0.564971   -1.299512
  C     -2.061303   -0.348999   -2.627867
  C     -1.910623    1.087473   -3.081723
  H      0.346053   -2.129008   -1.905477
  H      1.449108   -2.538024   -3.232429
  H      2.035340   -2.512459   -1.563211
  H      1.108322   -0.094559   -3.209718
  H      2.783903   -0.466111   -2.717901
  H      3.990804   -1.834927    1.344026
  H      5.147252   -1.822389   -0.017385
  H      5.812209    0.510493    0.594428
  H      4.689919    0.478233    1.955256
  H      6.086242   -0.609884    1.939663
  H      0.114200    0.299218    1.985262
  H      0.006123   -1.111116    3.097355
  H     -4.683290    0.424142    1.496546
  H     -3.910686    1.934545    0.946484
  H     -5.440805    2.002529   -1.020023
  H     -6.180733    0.478661   -0.510256
  H     -6.376064    1.934019    0.480140
  H     -1.481446   -1.031144   -3.251671
  H     -3.110932   -0.648666   -2.622706
  H     -0.876103    1.411781   -2.984074
  H     -2.222022    1.176949   -4.117746
  H     -2.526060    1.742141   -2.465632

 Total Charge           Charge          ....    0
 Multiplicity           Mult            ....    1
 Number of Electrons    NEL             ....  202
 Basis Dimension        Dim             ....  334

ORBITAL ENERGIES
----------------

  NO   OCC          E(Eh)            E(eV)
   0   2.0000     -88.038205     -2395.6413
   1   2.0000     -88.036797     -2395.6030
   2   2.0000     -87.978046     -2394.0044
   3   2.0000     -87.972907     -2393.8645
   4   2.0000     -76.422845     -2079.5713
   5   2.0000     -76.421010     -2079.5214
   6   2.0000     -18.795918      -511.4629
   7   2.0000     -18.794637      -511.4281
   8   2.0000     -18.789411      -511.2859
   9   2.0000     -18.784295      -511.1467
  10   2.0000      -9.957665      -270.9618
  11   2.0000      -9.955244      -270.8960
  12   2.0000      -9.953054      -270.8364
  13   2.0000      -9.952955      -270.8337
  14   2.0000      -9.949809      -270.7481
  15   2.0000      -9.890296      -269.1286
  16   2.0000      -9.884431      -268.9690
  17   2.0000      -9.883299      -268.9382
  18   2.0000      -9.878136      -268.7977
  19   2.0000      -7.683824      -209.0875
  20   2.0000      -7.681851      -209.0338
  21   2.0000      -7.622912      -207.4300
  22   2.0000      -7.618126      -207.2998
  23   2.0000      -6.420424      -174.7086
  24   2.0000      -6.418168      -174.6472
  25   2.0000      -5.711767      -155.4251
  26   2.0000      -5.709589      -155.3658
  27   2.0000      -5.708184      -155.3276
  28   2.0000      -5.706254      -155.2751
  29   2.0000      -5.700813      -155.1270
  30   2.0000      -5.699057      -155.0792
  31   2.0000      -5.651760      -153.7922
  32   2.0000      -5.647241      -153.6692
  33   2.0000      -5.643641      -153.5713
  34   2.0000      -5.643077      -153.5559
  35   2.0000      -5.638644      -153.4353
  36   2.0000      -5.638124      -153.4212
  37   2.0000      -4.643416      -126.3538
  38   2.0000      -4.642034      -126.3162
  39   2.0000      -4.641202      -126.2935
  40   2.0000      -4.640571      -126.2764
  41   2.0000      -4.639933      -126.2590
  42   2.0000      -4.638245      -126.2131
  43   2.0000      -0.989095       -26.9147
  44   2.0000      -0.985680       -26.8217
  45   2.0000      -0.944949       -25.7134
  46   2.0000      -0.939382       -25.5619
  47   2.0000      -0.758138       -20.6300
  48   2.0000      -0.719359       -19.5748
  49   2.0000      -0.709142       -19.2967
  50   2.0000      -0.692155       -18.8345
  51   2.0000      -0.688561       -18.7367
  52   2.0000      -0.673379       -18.3236
  53   2.0000      -0.647032       -17.6066
  54   2.0000      -0.628045       -17.0900
  55   2.0000      -0.592623       -16.1261
  56   2.0000      -0.585427       -15.9303
  57   2.0000      -0.577090       -15.7034
  58   2.0000      -0.573885       -15.6162
  59   2.0000      -0.560605       -15.2548
  60   2.0000      -0.505717       -13.7613
  61   2.0000      -0.496620       -13.5137
  62   2.0000      -0.475043       -12.9266
  63   2.0000      -0.469988       -12.7890
  64   2.0000      -0.455199       -12.3866
  65   2.0000      -0.446590       -12.1523
  66   2.0000      -0.440286       -11.9808
  67   2.0000      -0.437522       -11.9056
  68   2.0000      -0.422775       -11.5043
  69   2.0000      -0.416260       -11.3270
  70   2.0000      -0.411314       -11.1924
  71   2.0000      -0.400137       -10.8883
  72   2.0000      -0.399160       -10.8617
  73   2.0000      -0.390588       -10.6285
  74   2.0000      -0.380817       -10.3626
  75   2.0000      -0.368384       -10.0242
  76   2.0000      -0.355701        -9.6791
  77   2.0000      -0.351943        -9.5769
  78   2.0000      -0.350369        -9.5340
  79   2.0000      -0.349049        -9.4981
  80   2.0000      -0.345987        -9.4148
  81   2.0000      -0.342922        -9.3314
  82   2.0000      -0.338783        -9.2188
  83   2.0000      -0.335924        -9.1410
  84   2.0000      -0.331969        -9.0333
  85   2.0000      -0.318418        -8.6646
  86   2.0000      -0.316448        -8.6110
  87   2.0000      -0.301668        -8.2088
  88   2.0000      -0.297161        -8.0862
  89   2.0000      -0.291721        -7.9381
  90   2.0000      -0.285524        -7.7695
  91   2.0000      -0.275144        -7.4871
  92   2.0000      -0.271051        -7.3757
  93   2.0000      -0.258326        -7.0294
  94   2.0000      -0.253409        -6.8956
  95   2.0000      -0.233997        -6.3674
  96   2.0000      -0.218164        -5.9366
  97   2.0000      -0.212064        -5.7706
  98   2.0000      -0.194353        -5.2886
  99   2.0000      -0.183453        -4.9920
 100   2.0000      -0.176545        -4.8040
 101   0.0000      -0.036711        -0.9989
 102   0.0000      -0.027494        -0.7482
 103   0.0000      -0.011359        -0.3091
 104   0.0000       0.015687         0.4269
 105   0.0000       0.020311         0.5527

MULLIKEN ATOMIC CHARGES
-----------------------
   0 C :   -0.342951
   1 C :    0.004119
   2 O :   -0.357407
   3 P :    0.611397
   4 S :   -0.288629
   5 O :   -0.386964
   6 C :   -0.012367
   7 C :   -0.297852
   8 S :   -0.115278
   9 C :   -0.360342
  10 S :   -0.095751
  11 P :    0.614399
  12 S :   -0.290420
  13 O :   -0.391190
  14 C :   -0.007096
  15 C :   -0.286987
  16 O :   -0.371112
  17 C :    0.000785
  18 C :   -0.332080
  19 H :    0.152563
  20 H :    0.107839
  21 H :    0.118061
  22 H :    0.105480
  23 H :    0.109353
  24 H :    0.107484
  25 H :    0.103501
  26 H :    0.115433
  27 H :    0.131655
  28 H :    0.106116
  29 H :    0.210418
  30 H :    0.182178
  31 H :    0.103931
  32 H :    0.107171
  33 H :    0.119481
  34 H :    0.115420
  35 H :    0.114220
  36 H :    0.102926
  37 H :    0.111232
  38 H :    0.143702
  39 H :    0.109269
  40 H :    0.128293
Sum of atomic charges:    0.0000000

LOEWDIN ATOMIC CHARGES
----------------------
   0 C :   -0.375292
   1 C :   -0.108576
   2 O :   -0.234198
   3 P :    0.567607
   4 S :   -0.293501
   5 O :   -0.245171
   6 C :   -0.116450
   7 C :   -0.366675
   8 S :    0.063898
   9 C :   -0.482337
  10 S :    0.073193
  11 P :    0.560876
  12 S :   -0.288099
  13 O :   -0.250850
  14 C :   -0.121277
  15 C :   -0.351385
  16 O :   -0.242813
  17 C :   -0.109144
  18 C :   -0.369813
  19 H :    0.130209
  20 H :    0.128434
  21 H :    0.116854
  22 H :    0.115986
  23 H :    0.114447
  24 H :    0.104995
  25 H :    0.117200
  26 H :    0.127309
  27 H :    0.123973
  28 H :    0.128176
  29 H :    0.125996
  30 H :    0.137893
  31 H :    0.112366
  32 H :    0.108003
  33 H :    0.126917
  34 H :    0.125885
  35 H :    0.132106
  36 H :    0.114992
  37 H :    0.114260
  38 H :    0.132733
  39 H :    0.128662
  40 H :    0.122609

  Mayer bond orders larger than 0.100000
B(  0-C ,  1-C ) :   1.1711 B(  0-C , 19-H ) :   0.9260 B(  0-C , 20-H ) :   0.9355
B(  0-C , 21-H ) :   0.9376 B(  1-C ,  2-O ) :   0.9053 B(  1-C , 22-H ) :   0.9250
B(  1-C , 23-H ) :   0.9286 B(  2-O ,  3-P ) :   1.1274 B(  3-P ,  4-S ) :   1.6616
B(  3-P ,  5-O ) :   1.0684 B(  3-P ,  8-S ) :   0.9495 B(  4-S ,  8-S ) :   0.1186
B(  5-O ,  6-C ) :   0.9088 B(  6-C ,  7-C ) :   1.1685 B(  6-C , 24-H ) :   0.9167
B(  6-C , 25-H ) :   0.9354 B(  7-C , 26-H ) :   0.9472 B(  7-C , 27-H ) :   0.9280
B(  7-C , 28-H ) :   0.9374 B(  8-S ,  9-C ) :   0.9960 B(  9-C , 10-S ) :   1.0086
B(  9-C , 29-H ) :   0.8347 B(  9-C , 30-H ) :   0.9110 B( 10-S , 11-P ) :   0.9570
B( 10-S , 12-S ) :   0.1225 B( 11-P , 12-S ) :   1.6639 B( 11-P , 13-O ) :   1.0722
B( 11-P , 16-O ) :   1.1137 B( 13-O , 14-C ) :   0.9015 B( 14-C , 15-C ) :   1.1597
B( 14-C , 31-H ) :   0.9316 B( 14-C , 32-H ) :   0.9020 B( 15-C , 33-H ) :   0.9514
B( 15-C , 34-H ) :   0.9504 B( 15-C , 35-H ) :   0.9418 B( 16-O , 17-C ) :   0.9036
B( 17-C , 18-C ) :   1.1690 B( 17-C , 36-H ) :   0.9286 B( 17-C , 37-H ) :   0.9296
B( 18-C , 38-H ) :   0.9365 B( 18-C , 39-H ) :   0.9346 B( 18-C , 40-H ) :   0.9313

Dispersion correction           -0.066842520
FINAL SINGLE POINT ENERGY     -2929.510903369380

DIPOLE MOMENT
-------------

Method             : SCF
Type of density    : Electron Density
Multiplicity       :   1
Irrep              :   0
Energy             : -2929.6312137411296135 Eh
Relativity type    :
Basis              : AO
                                X                 Y                 Z
Electronic contribution:      2.706542506       1.242842520      14.085776790
Nuclear contribution   :     -3.187697414      -2.493565319     -15.071715938
                        -----------------------------------------
Total Dipole Moment    :     -0.481154908      -1.250722799      -0.985939148
                        -----------------------------------------
Magnitude (a.u.)       :      1.663698762
Magnitude (Debye)      :      4.228786185

Rotational constants in cm-1:             0.014006             0.005053             0.004698
Rotational constants in MHz :           419.882228           151.470950           140.830827

                             ****ORCA TERMINATED NORMALLY****
TOTAL RUN TIME: 0 days 0 hours 0 minutes 21 seconds 509 msec
