                         Program Version 6.0.0  -   RELEASE  -
|  1> ! pbe def2-sv(p) def2/J RI DEFGRID1 loosescf d4 GCP(DFT/SV(P)) printgap
|  2> %output
|  3>     printlevel normal
|  4> end
|  5> * xyz 0 1
|  6> C 3.649423729 -1.5706383238 -2.4999889093
|  7> C 4.0126820957 -0.1807384723 -2.0205710652
|  8> O 3.587484432 0.0590958226 -0.6660370851
|  9> P 2.0565183367 0.0935508506 -0.2427890263
| 10> S 0.8932566545 1.0029596402 -1.5274168722
| 11> O 2.0751700424 0.8341598401 1.14588423
| 12> C 2.8560036411 0.4296785488 2.2971652379
| 13> C 4.1957020744 1.1356719241 2.3195039897
| 14> S 1.67741576 -1.9504227906 0.2184076939
| 15> C -0.018586495 -1.8310215495 0.8394668317
| 16> S -1.2530613391 -1.5293641498 -0.4673751897
| 17> P -2.0239321489 0.2997090311 0.2210184105
| 18> S -1.0923800252 1.2483168976 1.6581934835
| 19> O -3.4614175937 -0.2596925846 0.6621606648
| 20> C -4.4309355186 0.601456912 1.2910757676
| 21> C -4.4628204994 0.3603913815 2.7876609589
| 22> O -2.2815939974 1.2709455999 -1.0035486733
| 23> C -2.5280353529 0.8794432476 -2.3740354656
| 24> C -3.7222131273 -0.0398786009 -2.5192734611
| 25> H 4.005430388 -2.3198718426 -1.7972698959
| 26> H 2.5679292016 -1.6607287347 -2.5927074338
| 27> H 4.1001415272 -1.7426617733 -3.4721004605
| 28> H 3.5567750141 0.5793410126 -2.6623000717
| 29> H 5.0931256021 -0.0355607006 -1.9819359621
| 30> H 2.2361303336 0.7177153224 3.1490356726
| 31> H 2.9832261474 -0.6564543957 2.2761404644
| 32> H 4.0493420611 2.2118612915 2.2826981612
| 33> H 4.7157193724 0.8756326887 3.2361998972
| 34> H 4.7961354841 0.8327108755 1.4659899837
| 35> H -0.0903963615 -1.0229759832 1.5734787473
| 36> H -0.2362532466 -2.7971442037 1.2867738993
| 37> H -4.1883445322 1.6454369001 1.065431599
| 38> H -5.3844719556 0.3397509685 0.8279230393
| 39> H -5.2476134076 0.9640235855 3.2321657831
| 40> H -4.6549167185 -0.6896848977 2.988076487
| 41> H -3.5077828645 0.6349084734 3.2304602904
| 42> H -2.6854178957 1.8342642088 -2.8782961911
| 43> H -1.615655275 0.4154394345 -2.7583638991
| 44> H -3.5453142581 -0.9782045313 -1.9954298716
| 45> H -4.6145447985 0.4310682733 -2.1139957061
| 46> H -3.8753299045 -0.2492684455 -3.5733280176
| 47> *
| 48>
| 49>                          ****END OF INPUT****

CARTESIAN COORDINATES (ANGSTROEM)
---------------------------------
  C      3.649424   -1.570638   -2.499989
  C      4.012682   -0.180738   -2.020571
  O      3.587484    0.059096   -0.666037
  P      2.056518    0.093551   -0.242789
  S      0.893257    1.002960   -1.527417
  O      2.075170    0.834160    1.145884
  C      2.856004    0.429679    2.297165
  C      4.195702    1.135672    2.319504
  S      1.677416   -1.950423    0.218408
  C     -0.018586   -1.831022    0.839467
  S     -1.253061   -1.529364   -0.467375
  P     -2.023932    0.299709    0.221018
  S     -1.092380    1.248317    1.658193
  O     -3.461418   -0.259693    0.662161
  C     -4.430936    0.601457    1.291076
  C     -4.462820    0.360391    2.787661
  O     -2.281594    1.270946   -1.003549
  C     -2.528035    0.879443   -2.374035
  C     -3.722213   -0.039879   -2.519273
  H      4.005430   -2.319872   -1.797270
  H      2.567929   -1.660729   -2.592707
  H      4.100142   -1.742662   -3.472100
  H      3.556775    0.579341   -2.662300
  H      5.093126   -0.035561   -1.981936
  H      2.236130    0.717715    3.149036
  H      2.983226   -0.656454    2.276140
  H      4.049342    2.211861    2.282698
  H      4.715719    0.875633    3.236200
  H      4.796135    0.832711    1.465990
  H     -0.090396   -1.022976    1.573479
  H     -0.236253   -2.797144    1.286774
  H     -4.188345    1.645437    1.065432
  H     -5.384472    0.339751    0.827923
  H     -5.247613    0.964024    3.232166
  H     -4.654917   -0.689685    2.988076
  H     -3.507783    0.634908    3.230460
  H     -2.685418    1.834264   -2.878296
  H     -1.615655    0.415439   -2.758364
  H     -3.545314   -0.978205   -1.995430
  H     -4.614545    0.431068   -2.113996
  H     -3.875330   -0.249268   -3.573328

 Total Charge           Charge          ....    0
 Multiplicity           Mult            ....    1
 Number of Electrons    NEL             ....  202
 Basis Dimension        Dim             ....  334

ORBITAL ENERGIES
----------------

  NO   OCC          E(Eh)            E(eV)
   0   2.0000     -88.042531     -2395.7591
   1   2.0000     -88.038876     -2395.6596
   2   2.0000     -87.978463     -2394.0157
   3   2.0000     -87.975695     -2393.9404
   4   2.0000     -76.422204     -2079.5539
   5   2.0000     -76.417556     -2079.4274
   6   2.0000     -18.790943      -511.3276
   7   2.0000     -18.785180      -511.1707
   8   2.0000     -18.784629      -511.1557
   9   2.0000     -18.776115      -510.9241
  10   2.0000      -9.955760      -270.9100
  11   2.0000      -9.952306      -270.8160
  12   2.0000      -9.950479      -270.7663
  13   2.0000      -9.950466      -270.7659
  14   2.0000      -9.945369      -270.6273
  15   2.0000      -9.887526      -269.0533
  16   2.0000      -9.884243      -268.9639
  17   2.0000      -9.882091      -268.9054
  18   2.0000      -9.874324      -268.6940
  19   2.0000      -7.687449      -209.1861
  20   2.0000      -7.684223      -209.0983
  21   2.0000      -7.623371      -207.4425
  22   2.0000      -7.620926      -207.3760
  23   2.0000      -6.419595      -174.6861
  24   2.0000      -6.415262      -174.5681
  25   2.0000      -5.715106      -155.5159
  26   2.0000      -5.712130      -155.4350
  27   2.0000      -5.711888      -155.4284
  28   2.0000      -5.708927      -155.3478
  29   2.0000      -5.704716      -155.2332
  30   2.0000      -5.700870      -155.1286
  31   2.0000      -5.652343      -153.8081
  32   2.0000      -5.649995      -153.7442
  33   2.0000      -5.643877      -153.5777
  34   2.0000      -5.643584      -153.5697
  35   2.0000      -5.642100      -153.5293
  36   2.0000      -5.640269      -153.4795
  37   2.0000      -4.642602      -126.3316
  38   2.0000      -4.641420      -126.2995
  39   2.0000      -4.639630      -126.2508
  40   2.0000      -4.638125      -126.2098
  41   2.0000      -4.636920      -126.1770
  42   2.0000      -4.635583      -126.1406
  43   2.0000      -0.984393       -26.7867
  44   2.0000      -0.974209       -26.5096
  45   2.0000      -0.942382       -25.6435
  46   2.0000      -0.933093       -25.3908
  47   2.0000      -0.760682       -20.6992
  48   2.0000      -0.716749       -19.5037
  49   2.0000      -0.706881       -19.2352
  50   2.0000      -0.688553       -18.7365
  51   2.0000      -0.687579       -18.7100
  52   2.0000      -0.670707       -18.2509
  53   2.0000      -0.647265       -17.6130
  54   2.0000      -0.631987       -17.1973
  55   2.0000      -0.594057       -16.1651
  56   2.0000      -0.583820       -15.8865
  57   2.0000      -0.575489       -15.6598
  58   2.0000      -0.570407       -15.5216
  59   2.0000      -0.555270       -15.1097
  60   2.0000      -0.498310       -13.5597
  61   2.0000      -0.491767       -13.3817
  62   2.0000      -0.472232       -12.8501
  63   2.0000      -0.468769       -12.7559
  64   2.0000      -0.451217       -12.2782
  65   2.0000      -0.446949       -12.1621
  66   2.0000      -0.441018       -12.0007
  67   2.0000      -0.427462       -11.6318
  68   2.0000      -0.426012       -11.5924
  69   2.0000      -0.418982       -11.4011
  70   2.0000      -0.405469       -11.0334
  71   2.0000      -0.398289       -10.8380
  72   2.0000      -0.389153       -10.5894
  73   2.0000      -0.380972       -10.3668
  74   2.0000      -0.375917       -10.2292
  75   2.0000      -0.362709        -9.8698
  76   2.0000      -0.360136        -9.7998
  77   2.0000      -0.356219        -9.6932
  78   2.0000      -0.352392        -9.5891
  79   2.0000      -0.350066        -9.5258
  80   2.0000      -0.347986        -9.4692
  81   2.0000      -0.344055        -9.3622
  82   2.0000      -0.342230        -9.3125
  83   2.0000      -0.335521        -9.1300
  84   2.0000      -0.330229        -8.9860
  85   2.0000      -0.313399        -8.5280
  86   2.0000      -0.306257        -8.3337
  87   2.0000      -0.299292        -8.1442
  88   2.0000      -0.292560        -7.9610
  89   2.0000      -0.287659        -7.8276
  90   2.0000      -0.273342        -7.4380
  91   2.0000      -0.266824        -7.2606
  92   2.0000      -0.265381        -7.2214
  93   2.0000      -0.260207        -7.0806
  94   2.0000      -0.257805        -7.0152
  95   2.0000      -0.240508        -6.5445
  96   2.0000      -0.217318        -5.9135
  97   2.0000      -0.202563        -5.5120
  98   2.0000      -0.196502        -5.3471
  99   2.0000      -0.187287        -5.0964
 100   2.0000      -0.179338        -4.8800
 101   0.0000      -0.038936        -1.0595
 102   0.0000      -0.027906        -0.7594
 103   0.0000      -0.009245        -0.2516
 104   0.0000       0.003599         0.0979
 105   0.0000       0.026730         0.7274

MULLIKEN ATOMIC CHARGES
-----------------------
   0 C :   -0.326348
   1 C :    0.001765
   2 O :   -0.381544
   3 P :    0.608019
   4 S :   -0.304065
   5 O :   -0.340986
   6 C :   -0.014159
   7 C :   -0.290732
   8 S :   -0.111907
   9 C :   -0.339132
  10 S :   -0.087103
  11 P :    0.611350
  12 S :   -0.301829
  13 O :   -0.381362
  14 C :   -0.018218
  15 C :   -0.280237
  16 O :   -0.368401
  17 C :   -0.013083
  18 C :   -0.321793
  19 H :    0.118897
  20 H :    0.132153
  21 H :    0.114650
  22 H :    0.113434
  23 H :    0.103947
  24 H :    0.111505
  25 H :    0.098018
  26 H :    0.122113
  27 H :    0.107514
  28 H :    0.120996
  29 H :    0.190375
  30 H :    0.183853
  31 H :    0.104454
  32 H :    0.100215
  33 H :    0.102818
  34 H :    0.108451
  35 H :    0.122675
  36 H :    0.110427
  37 H :    0.127133
  38 H :    0.133494
  39 H :    0.117390
  40 H :    0.115255
Sum of atomic charges:   -0.0000000

LOEWDIN ATOMIC CHARGES
----------------------
   0 C :   -0.373685
   1 C :   -0.117649
   2 O :   -0.247738
   3 P :    0.568258
   4 S :   -0.299116
   5 O :   -0.223641
   6 C :   -0.116501
   7 C :   -0.360053
   8 S :    0.074098
   9 C :   -0.480202
  10 S :    0.086751
  11 P :    0.571643
  12 S :   -0.297557
  13 O :   -0.263898
  14 C :   -0.120151
  15 C :   -0.361436
  16 O :   -0.236658
  17 C :   -0.117315
  18 C :   -0.367444
  19 H :    0.122786
  20 H :    0.122937
  21 H :    0.132074
  22 H :    0.113047
  23 H :    0.117974
  24 H :    0.121246
  25 H :    0.100727
  26 H :    0.129747
  27 H :    0.128629
  28 H :    0.125310
  29 H :    0.121551
  30 H :    0.138480
  31 H :    0.108926
  32 H :    0.113191
  33 H :    0.126205
  34 H :    0.123839
  35 H :    0.123604
  36 H :    0.123114
  37 H :    0.110685
  38 H :    0.119883
  39 H :    0.125739
  40 H :    0.132600

  Mayer bond orders larger than 0.100000
B(  0-C ,  1-C ) :   1.1655 B(  0-C , 19-H ) :   0.9424 B(  0-C , 20-H ) :   0.9324
B(  0-C , 21-H ) :   0.9369 B(  1-C ,  2-O ) :   0.9049 B(  1-C , 22-H ) :   0.9168
B(  1-C , 23-H ) :   0.9335 B(  2-O ,  3-P ) :   1.0804 B(  3-P ,  4-S ) :   1.6463
B(  3-P ,  5-O ) :   1.1459 B(  3-P ,  8-S ) :   0.9474 B(  4-S ,  8-S ) :   0.1137
B(  5-O ,  6-C ) :   0.8980 B(  6-C ,  7-C ) :   1.1667 B(  6-C , 24-H ) :   0.9324
B(  6-C , 25-H ) :   0.9075 B(  7-C , 26-H ) :   0.9474 B(  7-C , 27-H ) :   0.9395
B(  7-C , 28-H ) :   0.9414 B(  8-S ,  9-C ) :   0.9895 B(  9-C , 10-S ) :   1.0055
B(  9-C , 29-H ) :   0.8484 B(  9-C , 30-H ) :   0.9117 B( 10-S , 11-P ) :   0.9584
B( 10-S , 12-S ) :   0.1110 B( 11-P , 12-S ) :   1.6121 B( 11-P , 13-O ) :   1.0743
B( 11-P , 16-O ) :   1.1183 B( 12-S , 29-H ) :   0.1202 B( 13-O , 14-C ) :   0.9073
B( 14-C , 15-C ) :   1.1687 B( 14-C , 31-H ) :   0.9135 B( 14-C , 32-H ) :   0.9331
B( 15-C , 33-H ) :   0.9407 B( 15-C , 34-H ) :   0.9475 B( 15-C , 35-H ) :   0.9334
B( 16-O , 17-C ) :   0.9048 B( 17-C , 18-C ) :   1.1609 B( 17-C , 36-H ) :   0.9356
B( 17-C , 37-H ) :   0.9141 B( 18-C , 38-H ) :   0.9356 B( 18-C , 39-H ) :   0.9439
B( 18-C , 40-H ) :   0.9364

Dispersion correction           -0.067276594
FINAL SINGLE POINT ENERGY     -2929.509744273340

DIPOLE MOMENT
-------------

Method             : SCF
Type of density    : Electron Density
Multiplicity       :   1
Irrep              :   0
Energy             : -2929.6277032816560677 Eh
Relativity type    :
Basis              : AO
                                X                 Y                 Z
Electronic contribution:      1.617749611       0.119939903      -0.949453628
Nuclear contribution   :     -1.483567470      -0.916564353       0.764809833
                        -----------------------------------------
Total Dipole Moment    :      0.134182141      -0.796624449      -0.184643795
                        -----------------------------------------
Magnitude (a.u.)       :      0.828678883
Magnitude (Debye)      :      2.106334328

Rotational constants in cm-1:             0.012798             0.005319             0.004638
Rotational constants in MHz :           383.677524           159.467880           139.028795

                             ****ORCA TERMINATED NORMALLY****
TOTAL RUN TIME: 0 days 0 hours 0 minutes 21 seconds 65 msec
