                         Program Version 6.0.0  -   RELEASE  -
|  1> ! pbe def2-sv(p) def2/J RI DEFGRID1 loosescf d4 GCP(DFT/SV(P)) printgap
|  2> %output
|  3>     printlevel normal
|  4> end
|  5> * xyz 0 1
|  6> C 5.0634903593 1.1329677339 -0.0588882602
|  7> C 3.7619000007 1.3727722802 -0.7938223109
|  8> O 2.9933348795 0.1578022758 -0.8944745398
|  9> P 2.2539829185 -0.4689681385 0.3598381818
| 10> S 1.7247534839 0.8477227243 1.7205461487
| 11> O 3.299983514 -1.5607903673 0.8468636161
| 12> C 2.9780314517 -2.7640145695 1.5677247488
| 13> C 2.0345605034 -2.5221678021 2.7275591506
| 14> S 0.76423691 -1.6321262888 -0.6150066216
| 15> C 0.1887690301 -0.4082008097 -1.8243230536
| 16> S -0.4775597509 1.099724024 -1.0855403625
| 17> P -2.4922350469 0.4385647532 -0.7476298662
| 18> S -3.01826638 -1.19460207 -1.6816170795
| 19> O -3.3797376276 1.6454391301 -1.2254994397
| 20> C -3.2313505156 3.0003134212 -0.7307705456
| 21> C -4.2648696616 3.2942779699 0.3370351331
| 22> O -2.6858223771 0.507646613 0.8310181877
| 23> C -1.9277126886 -0.2125362653 1.8155583254
| 24> C -2.1576935308 -1.7087020098 1.7504024859
| 25> H 5.6470831802 2.0479654608 -0.0458228062
| 26> H 4.8518819307 0.8292559514 0.9658940877
| 27> H 5.6309861841 0.3449361059 -0.5464577928
| 28> H 3.9264801458 1.6719910105 -1.8296647727
| 29> H 3.1577793749 2.1278467139 -0.2798382471
| 30> H 2.5424541006 -3.4743606118 0.8592296633
| 31> H 3.9485508456 -3.1282953848 1.9092308438
| 32> H 2.44215703 -1.7713484936 3.4005653354
| 33> H 1.0731077729 -2.1693698358 2.3546889048
| 34> H 1.8847698076 -3.4498682126 3.2703503072
| 35> H -0.5985112975 -0.9075121424 -2.3933410783
| 36> H 1.0190081138 -0.1138496693 -2.460152949
| 37> H -2.2149766582 3.1328385759 -0.3495753411
| 38> H -3.3777704816 3.6296088627 -1.6104497328
| 39> H -4.1096828935 2.6521923891 1.1997947897
| 40> H -4.1759583543 4.3324090601 0.6414774307
| 41> H -5.2626145617 3.1180486172 -0.0552235726
| 42> H -0.8674528581 0.0343164321 1.6963142239
| 43> H -2.2800911843 0.1997310503 2.7629609723
| 44> H -1.6739251647 -2.1803942681 2.6000954615
| 45> H -3.2229263828 -1.9238474536 1.7793319662
| 46> H -1.7461184209 -2.1242189223 0.8320936059
| 47> *
| 48>
| 49>                          ****END OF INPUT****

CARTESIAN COORDINATES (ANGSTROEM)
---------------------------------
  C      5.063490    1.132968   -0.058888
  C      3.761900    1.372772   -0.793822
  O      2.993335    0.157802   -0.894475
  P      2.253983   -0.468968    0.359838
  S      1.724753    0.847723    1.720546
  O      3.299984   -1.560790    0.846864
  C      2.978031   -2.764015    1.567725
  C      2.034561   -2.522168    2.727559
  S      0.764237   -1.632126   -0.615007
  C      0.188769   -0.408201   -1.824323
  S     -0.477560    1.099724   -1.085540
  P     -2.492235    0.438565   -0.747630
  S     -3.018266   -1.194602   -1.681617
  O     -3.379738    1.645439   -1.225499
  C     -3.231351    3.000313   -0.730771
  C     -4.264870    3.294278    0.337035
  O     -2.685822    0.507647    0.831018
  C     -1.927713   -0.212536    1.815558
  C     -2.157694   -1.708702    1.750402
  H      5.647083    2.047965   -0.045823
  H      4.851882    0.829256    0.965894
  H      5.630986    0.344936   -0.546458
  H      3.926480    1.671991   -1.829665
  H      3.157779    2.127847   -0.279838
  H      2.542454   -3.474361    0.859230
  H      3.948551   -3.128295    1.909231
  H      2.442157   -1.771348    3.400565
  H      1.073108   -2.169370    2.354689
  H      1.884770   -3.449868    3.270350
  H     -0.598511   -0.907512   -2.393341
  H      1.019008   -0.113850   -2.460153
  H     -2.214977    3.132839   -0.349575
  H     -3.377770    3.629609   -1.610450
  H     -4.109683    2.652192    1.199795
  H     -4.175958    4.332409    0.641477
  H     -5.262615    3.118049   -0.055224
  H     -0.867453    0.034316    1.696314
  H     -2.280091    0.199731    2.762961
  H     -1.673925   -2.180394    2.600095
  H     -3.222926   -1.923847    1.779332
  H     -1.746118   -2.124219    0.832094

 Total Charge           Charge          ....    0
 Multiplicity           Mult            ....    1
 Number of Electrons    NEL             ....  202
 Basis Dimension        Dim             ....  334

ORBITAL ENERGIES
----------------

  NO   OCC          E(Eh)            E(eV)
   0   2.0000     -88.045690     -2395.8450
   1   2.0000     -88.039800     -2395.6847
   2   2.0000     -87.989026     -2394.3031
   3   2.0000     -87.984373     -2394.1765
   4   2.0000     -76.431968     -2079.8196
   5   2.0000     -76.424382     -2079.6131
   6   2.0000     -18.797556      -511.5075
   7   2.0000     -18.794908      -511.4355
   8   2.0000     -18.789163      -511.2791
   9   2.0000     -18.788882      -511.2715
  10   2.0000      -9.963264      -271.1142
  11   2.0000      -9.957735      -270.9637
  12   2.0000      -9.956462      -270.9291
  13   2.0000      -9.954946      -270.8879
  14   2.0000      -9.942883      -270.5596
  15   2.0000      -9.890523      -269.1348
  16   2.0000      -9.885954      -269.0105
  17   2.0000      -9.885646      -269.0021
  18   2.0000      -9.872564      -268.6461
  19   2.0000      -7.690586      -209.2715
  20   2.0000      -7.684620      -209.1091
  21   2.0000      -7.633651      -207.7222
  22   2.0000      -7.629613      -207.6123
  23   2.0000      -6.429178      -174.9468
  24   2.0000      -6.421757      -174.7449
  25   2.0000      -5.718534      -155.6092
  26   2.0000      -5.715122      -155.5164
  27   2.0000      -5.712497      -155.4449
  28   2.0000      -5.709168      -155.3543
  29   2.0000      -5.707493      -155.3088
  30   2.0000      -5.701595      -155.1483
  31   2.0000      -5.662552      -154.0859
  32   2.0000      -5.658631      -153.9792
  33   2.0000      -5.654339      -153.8624
  34   2.0000      -5.653813      -153.8481
  35   2.0000      -5.650279      -153.7519
  36   2.0000      -5.649568      -153.7326
  37   2.0000      -4.651843      -126.5831
  38   2.0000      -4.651243      -126.5668
  39   2.0000      -4.649335      -126.5148
  40   2.0000      -4.644457      -126.3821
  41   2.0000      -4.643629      -126.3596
  42   2.0000      -4.642040      -126.3163
  43   2.0000      -0.991705       -26.9857
  44   2.0000      -0.985445       -26.8153
  45   2.0000      -0.951687       -25.8967
  46   2.0000      -0.941047       -25.6072
  47   2.0000      -0.763611       -20.7789
  48   2.0000      -0.722276       -19.6541
  49   2.0000      -0.711679       -19.3658
  50   2.0000      -0.692979       -18.8569
  51   2.0000      -0.684681       -18.6311
  52   2.0000      -0.673361       -18.3231
  53   2.0000      -0.654941       -17.8219
  54   2.0000      -0.640885       -17.4394
  55   2.0000      -0.599526       -16.3139
  56   2.0000      -0.586306       -15.9542
  57   2.0000      -0.579208       -15.7610
  58   2.0000      -0.573543       -15.6069
  59   2.0000      -0.566375       -15.4118
  60   2.0000      -0.505391       -13.7524
  61   2.0000      -0.495429       -13.4813
  62   2.0000      -0.475411       -12.9366
  63   2.0000      -0.470078       -12.7915
  64   2.0000      -0.463752       -12.6193
  65   2.0000      -0.445773       -12.1301
  66   2.0000      -0.442944       -12.0531
  67   2.0000      -0.438846       -11.9416
  68   2.0000      -0.424615       -11.5544
  69   2.0000      -0.422372       -11.4933
  70   2.0000      -0.405682       -11.0392
  71   2.0000      -0.399747       -10.8777
  72   2.0000      -0.397509       -10.8168
  73   2.0000      -0.391998       -10.6668
  74   2.0000      -0.383505       -10.4357
  75   2.0000      -0.377421       -10.2701
  76   2.0000      -0.362614        -9.8672
  77   2.0000      -0.355354        -9.6697
  78   2.0000      -0.353947        -9.6314
  79   2.0000      -0.351582        -9.5670
  80   2.0000      -0.350620        -9.5409
  81   2.0000      -0.348252        -9.4764
  82   2.0000      -0.339604        -9.2411
  83   2.0000      -0.337427        -9.1818
  84   2.0000      -0.331519        -9.0211
  85   2.0000      -0.321104        -8.7377
  86   2.0000      -0.315308        -8.5800
  87   2.0000      -0.302660        -8.2358
  88   2.0000      -0.293869        -7.9966
  89   2.0000      -0.290008        -7.8915
  90   2.0000      -0.286218        -7.7884
  91   2.0000      -0.278969        -7.5911
  92   2.0000      -0.275454        -7.4955
  93   2.0000      -0.264630        -7.2010
  94   2.0000      -0.256106        -6.9690
  95   2.0000      -0.243983        -6.6391
  96   2.0000      -0.217740        -5.9250
  97   2.0000      -0.205879        -5.6023
  98   2.0000      -0.203739        -5.5440
  99   2.0000      -0.201362        -5.4793
 100   2.0000      -0.192170        -5.2292
 101   0.0000      -0.050721        -1.3802
 102   0.0000      -0.027046        -0.7359
 103   0.0000      -0.022648        -0.6163
 104   0.0000      -0.003151        -0.0857
 105   0.0000       0.012817         0.3488

MULLIKEN ATOMIC CHARGES
-----------------------
   0 C :   -0.302868
   1 C :   -0.011265
   2 O :   -0.371041
   3 P :    0.609205
   4 S :   -0.311970
   5 O :   -0.372050
   6 C :   -0.007641
   7 C :   -0.334635
   8 S :   -0.107359
   9 C :   -0.334046
  10 S :   -0.113377
  11 P :    0.608196
  12 S :   -0.308430
  13 O :   -0.355495
  14 C :   -0.018543
  15 C :   -0.287278
  16 O :   -0.377407
  17 C :   -0.035199
  18 C :   -0.317142
  19 H :    0.112770
  20 H :    0.124736
  21 H :    0.116899
  22 H :    0.104920
  23 H :    0.115638
  24 H :    0.116663
  25 H :    0.113058
  26 H :    0.130283
  27 H :    0.138658
  28 H :    0.115959
  29 H :    0.194251
  30 H :    0.190594
  31 H :    0.110660
  32 H :    0.112626
  33 H :    0.125003
  34 H :    0.109183
  35 H :    0.121257
  36 H :    0.135858
  37 H :    0.098719
  38 H :    0.111194
  39 H :    0.114428
  40 H :    0.134987
Sum of atomic charges:    0.0000000

LOEWDIN ATOMIC CHARGES
----------------------
   0 C :   -0.363226
   1 C :   -0.120947
   2 O :   -0.240094
   3 P :    0.572923
   4 S :   -0.305486
   5 O :   -0.245296
   6 C :   -0.113307
   7 C :   -0.372676
   8 S :    0.083628
   9 C :   -0.479032
  10 S :    0.064655
  11 P :    0.569074
  12 S :   -0.296942
  13 O :   -0.235866
  14 C :   -0.111732
  15 C :   -0.357929
  16 O :   -0.242517
  17 C :   -0.124315
  18 C :   -0.372365
  19 H :    0.130976
  20 H :    0.123941
  21 H :    0.126712
  22 H :    0.117934
  23 H :    0.110360
  24 H :    0.111551
  25 H :    0.123565
  26 H :    0.130757
  27 H :    0.120520
  28 H :    0.132080
  29 H :    0.128821
  30 H :    0.134608
  31 H :    0.106844
  32 H :    0.122368
  33 H :    0.128262
  34 H :    0.129206
  35 H :    0.129829
  36 H :    0.099605
  37 H :    0.117168
  38 H :    0.126499
  39 H :    0.125682
  40 H :    0.114161

  Mayer bond orders larger than 0.100000
B(  0-C ,  1-C ) :   1.1657 B(  0-C , 19-H ) :   0.9393 B(  0-C , 20-H ) :   0.9352
B(  0-C , 21-H ) :   0.9464 B(  1-C ,  2-O ) :   0.8989 B(  1-C , 22-H ) :   0.9327
B(  1-C , 23-H ) :   0.9108 B(  2-O ,  3-P ) :   1.1114 B(  3-P ,  4-S ) :   1.6141
B(  3-P ,  5-O ) :   1.1060 B(  3-P ,  8-S ) :   0.9501 B(  4-S ,  8-S ) :   0.1089
B(  5-O ,  6-C ) :   0.9161 B(  6-C ,  7-C ) :   1.1645 B(  6-C , 24-H ) :   0.9256
B(  6-C , 25-H ) :   0.9339 B(  7-C , 26-H ) :   0.9387 B(  7-C , 27-H ) :   0.9291
B(  7-C , 28-H ) :   0.9335 B(  8-S ,  9-C ) :   0.9993 B(  9-C , 10-S ) :   1.0262
B(  9-C , 29-H ) :   0.8596 B(  9-C , 30-H ) :   0.8962 B( 10-S , 11-P ) :   0.9337
B( 10-S , 12-S ) :   0.1133 B( 11-P , 12-S ) :   1.6475 B( 11-P , 13-O ) :   1.1449
B( 11-P , 16-O ) :   1.0882 B( 12-S , 29-H ) :   0.1056 B( 13-O , 14-C ) :   0.8925
B( 14-C , 15-C ) :   1.1662 B( 14-C , 31-H ) :   0.9166 B( 14-C , 32-H ) :   0.9357
B( 15-C , 33-H ) :   0.9421 B( 15-C , 34-H ) :   0.9395 B( 15-C , 35-H ) :   0.9468
B( 16-O , 17-C ) :   0.9051 B( 17-C , 18-C ) :   1.1678 B( 17-C , 36-H ) :   0.8948
B( 17-C , 37-H ) :   0.9343 B( 18-C , 38-H ) :   0.9320 B( 18-C , 39-H ) :   0.9422
B( 18-C , 40-H ) :   0.9268

Dispersion correction           -0.065863656
FINAL SINGLE POINT ENERGY     -2929.515146621213

DIPOLE MOMENT
-------------

Method             : SCF
Type of density    : Electron Density
Multiplicity       :   1
Irrep              :   0
Energy             : -2929.6346928242860486 Eh
Relativity type    :
Basis              : AO
                                X                 Y                 Z
Electronic contribution:     -5.292960299      -2.326652674     -13.628548735
Nuclear contribution   :      6.431918648       2.763856476      14.180579703
                        -----------------------------------------
Total Dipole Moment    :      1.138958349       0.437203802       0.552030968
                        -----------------------------------------
Magnitude (a.u.)       :      1.339071124
Magnitude (Debye)      :      3.403648304

Rotational constants in cm-1:             0.012448             0.004922             0.004528
Rotational constants in MHz :           373.168591           147.564721           135.748923

                             ****ORCA TERMINATED NORMALLY****
TOTAL RUN TIME: 0 days 0 hours 0 minutes 21 seconds 212 msec
