                         Program Version 6.0.1  -  RELEASE   -
|  1> ! pbe def2-sv(p) def2/J RI DEFGRID1 loosescf d4 GCP(DFT/SV(P)) printgap
|  2> %output
|  3>     printlevel normal
|  4> end
|  5> * xyz 0 1
|  6> C 1.4959608643 -3.836391823 0.3142306007
|  7> C 2.4633921429 -2.6675367255 0.3171236802
|  8> O 2.1541750933 -1.8170215162 -0.8023787798
|  9> C 2.2209481309 -0.5105959621 -0.6744747506
| 10> O 2.5401069137 0.0835873902 0.3344711918
| 11> C 1.8211389636 0.1926430384 -1.9602205306
| 12> C 0.4681674094 0.8828823516 -1.7645232298
| 13> H 0.2420343734 1.503850211 -2.635523228
| 14> C 0.4641300788 1.7488045434 -0.5218828148
| 15> O -0.3629270977 1.6069905217 0.3625225104
| 16> O 1.4101395038 2.6378410959 -0.532815994
| 17> C 1.5623348691 3.4988115157 0.6169902302
| 18> C 0.6135453864 4.6831609044 0.5420078862
| 19> S -0.9014753228 -0.3141818103 -1.6566761861
| 20> P -1.3876594715 -0.5754408743 0.412596832
| 21> S -0.1730645667 -0.8044451229 1.9359949515
| 22> O -2.7157624969 0.2883419119 0.6673029531
| 23> C -2.8380074043 1.4123338601 1.5346182251
| 24> O -2.0612400616 -2.0192832147 0.23343711
| 25> C -3.1511162106 -2.308294423 -0.6572048271
| 26> H 1.766000691 -4.5255306731 1.1070755997
| 27> H 0.4820923269 -3.4813615645 0.4899229717
| 28> H 1.5322850575 -4.3470982091 -0.6432507848
| 29> H 3.4954288339 -3.0037412413 0.1864877328
| 30> H 2.3823995475 -2.0809433665 1.2375419416
| 31> H 1.7493883661 -0.5349512239 -2.7665690741
| 32> H 2.571093446 0.9522551203 -2.1845382986
| 33> H 1.3899164294 2.9031815104 1.5176862862
| 34> H 2.6042112528 3.8144670342 0.5710792558
| 35> H 0.7670546966 5.2274867436 -0.3855444223
| 36> H -0.418755553 4.3448703762 0.5920983094
| 37> H 0.805341154 5.3436868499 1.3808450334
| 38> H -2.0686938126 1.3807320405 2.3071256801
| 39> H -3.8276111244 1.3400242571 1.9812250333
| 40> H -2.7414786997 2.3291693924 0.9554470114
| 41> H -2.7994301153 -2.299785867 -1.6885520634
| 42> H -3.9483061764 -1.5791343002 -0.5254221892
| 43> H -3.4896349359 -3.302600325 -0.3762777179
| 44> *
| 45>
| 46>                          ****END OF INPUT****

CARTESIAN COORDINATES (ANGSTROEM)
---------------------------------
  C      1.495961   -3.836392    0.314231
  C      2.463392   -2.667537    0.317124
  O      2.154175   -1.817022   -0.802379
  C      2.220948   -0.510596   -0.674475
  O      2.540107    0.083587    0.334471
  C      1.821139    0.192643   -1.960221
  C      0.468167    0.882882   -1.764523
  H      0.242034    1.503850   -2.635523
  C      0.464130    1.748805   -0.521883
  O     -0.362927    1.606991    0.362523
  O      1.410140    2.637841   -0.532816
  C      1.562335    3.498812    0.616990
  C      0.613545    4.683161    0.542008
  S     -0.901475   -0.314182   -1.656676
  P     -1.387659   -0.575441    0.412597
  S     -0.173065   -0.804445    1.935995
  O     -2.715762    0.288342    0.667303
  C     -2.838007    1.412334    1.534618
  O     -2.061240   -2.019283    0.233437
  C     -3.151116   -2.308294   -0.657205
  H      1.766001   -4.525531    1.107076
  H      0.482092   -3.481362    0.489923
  H      1.532285   -4.347098   -0.643251
  H      3.495429   -3.003741    0.186488
  H      2.382400   -2.080943    1.237542
  H      1.749388   -0.534951   -2.766569
  H      2.571093    0.952255   -2.184538
  H      1.389916    2.903182    1.517686
  H      2.604211    3.814467    0.571079
  H      0.767055    5.227487   -0.385544
  H     -0.418756    4.344870    0.592098
  H      0.805341    5.343687    1.380845
  H     -2.068694    1.380732    2.307126
  H     -3.827611    1.340024    1.981225
  H     -2.741479    2.329169    0.955447
  H     -2.799430   -2.299786   -1.688552
  H     -3.948306   -1.579134   -0.525422
  H     -3.489635   -3.302600   -0.376278

 Total Charge           Charge          ....    0
 Multiplicity           Mult            ....    1
 Number of Electrons    NEL             ....  174
 Basis Dimension        Dim             ....  316

ORBITAL ENERGIES
----------------

  NO   OCC          E(Eh)            E(eV)
   0   2.0000     -88.032719     -2395.4921
   1   2.0000     -87.961798     -2393.5622
   2   2.0000     -76.417362     -2079.4221
   3   2.0000     -18.822041      -512.1738
   4   2.0000     -18.795740      -511.4581
   5   2.0000     -18.774740      -510.8866
   6   2.0000     -18.769273      -510.7379
   7   2.0000     -18.768087      -510.7056
   8   2.0000     -18.731987      -509.7233
   9   2.0000     -10.033721      -273.0314
  10   2.0000     -10.005867      -272.2735
  11   2.0000      -9.958496      -270.9845
  12   2.0000      -9.957087      -270.9461
  13   2.0000      -9.934514      -270.3319
  14   2.0000      -9.931612      -270.2529
  15   2.0000      -9.931170      -270.2409
  16   2.0000      -9.913557      -269.7616
  17   2.0000      -9.896395      -269.2946
  18   2.0000      -9.867662      -268.5127
  19   2.0000      -7.677817      -208.9240
  20   2.0000      -7.607028      -206.9978
  21   2.0000      -6.411906      -174.4768
  22   2.0000      -5.706078      -155.2703
  23   2.0000      -5.702098      -155.1620
  24   2.0000      -5.694584      -154.9575
  25   2.0000      -5.636547      -153.3782
  26   2.0000      -5.627776      -153.1396
  27   2.0000      -5.626375      -153.1014
  28   2.0000      -4.635003      -126.1249
  29   2.0000      -4.633825      -126.0928
  30   2.0000      -4.632398      -126.0539
  31   2.0000      -1.035517       -28.1778
  32   2.0000      -1.002186       -27.2709
  33   2.0000      -0.965894       -26.2833
  34   2.0000      -0.943092       -25.6628
  35   2.0000      -0.920955       -25.0605
  36   2.0000      -0.909546       -24.7500
  37   2.0000      -0.769292       -20.9335
  38   2.0000      -0.715140       -19.4600
  39   2.0000      -0.700580       -19.0638
  40   2.0000      -0.684164       -18.6171
  41   2.0000      -0.651711       -17.7340
  42   2.0000      -0.628165       -17.0932
  43   2.0000      -0.624873       -17.0037
  44   2.0000      -0.601337       -16.3632
  45   2.0000      -0.587231       -15.9794
  46   2.0000      -0.561501       -15.2792
  47   2.0000      -0.514502       -14.0003
  48   2.0000      -0.503299       -13.6955
  49   2.0000      -0.496599       -13.5131
  50   2.0000      -0.488022       -13.2798
  51   2.0000      -0.468939       -12.7605
  52   2.0000      -0.457202       -12.4411
  53   2.0000      -0.449782       -12.2392
  54   2.0000      -0.432688       -11.7740
  55   2.0000      -0.431026       -11.7288
  56   2.0000      -0.424370       -11.5477
  57   2.0000      -0.413694       -11.2572
  58   2.0000      -0.411187       -11.1890
  59   2.0000      -0.404732       -11.0133
  60   2.0000      -0.397955       -10.8289
  61   2.0000      -0.397189       -10.8081
  62   2.0000      -0.387741       -10.5510
  63   2.0000      -0.380522       -10.3545
  64   2.0000      -0.373101       -10.1526
  65   2.0000      -0.366408        -9.9705
  66   2.0000      -0.357979        -9.7411
  67   2.0000      -0.350644        -9.5415
  68   2.0000      -0.341824        -9.3015
  69   2.0000      -0.339489        -9.2380
  70   2.0000      -0.330748        -9.0001
  71   2.0000      -0.329857        -8.9759
  72   2.0000      -0.310555        -8.4506
  73   2.0000      -0.306990        -8.3536
  74   2.0000      -0.300664        -8.1815
  75   2.0000      -0.289431        -7.8758
  76   2.0000      -0.285615        -7.7720
  77   2.0000      -0.283150        -7.7049
  78   2.0000      -0.279748        -7.6123
  79   2.0000      -0.259878        -7.0716
  80   2.0000      -0.251673        -6.8484
  81   2.0000      -0.248665        -6.7665
  82   2.0000      -0.244075        -6.6416
  83   2.0000      -0.218076        -5.9342
  84   2.0000      -0.211992        -5.7686
  85   2.0000      -0.182411        -4.9636
  86   2.0000      -0.170975        -4.6525
  87   0.0000      -0.045864        -1.2480
  88   0.0000      -0.038041        -1.0351
  89   0.0000      -0.025081        -0.6825
  90   0.0000      -0.002951        -0.0803
  91   0.0000       0.034344         0.9345

MULLIKEN ATOMIC CHARGES
-----------------------
   0 C :   -0.292094
   1 C :   -0.029593
   2 O :   -0.219814
   3 C :    0.093147
   4 O :   -0.198275
   5 C :   -0.029492
   6 C :   -0.299540
   7 H :    0.153186
   8 C :    0.230840
   9 O :   -0.205305
  10 O :   -0.212196
  11 C :   -0.005763
  12 C :   -0.316797
  13 S :   -0.129757
  14 P :    0.646613
  15 S :   -0.314589
  16 O :   -0.401522
  17 C :   -0.085120
  18 O :   -0.379755
  19 C :   -0.117156
  20 H :    0.103256
  21 H :    0.133407
  22 H :    0.101114
  23 H :    0.094552
  24 H :    0.131758
  25 H :    0.113957
  26 H :    0.121465
  27 H :    0.131362
  28 H :    0.111280
  29 H :    0.114906
  30 H :    0.130427
  31 H :    0.120326
  32 H :    0.117911
  33 H :    0.114145
  34 H :    0.107176
  35 H :    0.121859
  36 H :    0.118655
  37 H :    0.125425
Sum of atomic charges:    0.0000000

LOEWDIN ATOMIC CHARGES
----------------------
   0 C :   -0.356171
   1 C :   -0.112601
   2 O :   -0.046248
   3 C :    0.021089
   4 O :   -0.161825
   5 C :   -0.246239
   6 C :   -0.256815
   7 H :    0.148935
   8 C :    0.032088
   9 O :   -0.146395
  10 O :   -0.027106
  11 C :   -0.101427
  12 C :   -0.357167
  13 S :    0.085144
  14 P :    0.581068
  15 S :   -0.307674
  16 O :   -0.261682
  17 C :   -0.210054
  18 O :   -0.261248
  19 C :   -0.218030
  20 H :    0.127559
  21 H :    0.127308
  22 H :    0.119613
  23 H :    0.111626
  24 H :    0.121019
  25 H :    0.135423
  26 H :    0.143963
  27 H :    0.131752
  28 H :    0.123574
  29 H :    0.125487
  30 H :    0.128807
  31 H :    0.134717
  32 H :    0.110442
  33 H :    0.114947
  34 H :    0.106589
  35 H :    0.105309
  36 H :    0.111568
  37 H :    0.122657

  Mayer bond orders larger than 0.100000
B(  0-C ,  1-C ) :   1.1699 B(  0-C , 20-H ) :   0.9435 B(  0-C , 21-H ) :   0.9331
B(  0-C , 22-H ) :   0.9479 B(  1-C ,  2-O ) :   0.8964 B(  1-C , 23-H ) :   0.9339
B(  1-C , 24-H ) :   0.9036 B(  2-O ,  3-C ) :   1.2598 B(  2-O ,  4-O ) :   0.1064
B(  3-C ,  4-O ) :   2.0146 B(  3-C ,  5-C ) :   0.9871 B(  5-C ,  6-C ) :   1.0356
B(  5-C , 25-H ) :   0.9022 B(  5-C , 26-H ) :   0.8805 B(  6-C ,  7-H ) :   0.8747
B(  6-C ,  8-C ) :   0.9155 B(  6-C , 13-S ) :   1.0524 B(  8-C ,  9-O ) :   1.8710
B(  8-C , 10-O ) :   1.2852 B(  9-O , 14-P ) :   0.1538 B( 10-O , 11-C ) :   0.8933
B( 11-C , 12-C ) :   1.1695 B( 11-C , 27-H ) :   0.9172 B( 11-C , 28-H ) :   0.9372
B( 12-C , 29-H ) :   0.9469 B( 12-C , 30-H ) :   0.9442 B( 12-C , 31-H ) :   0.9434
B( 13-S , 14-P ) :   0.9160 B( 13-S , 15-S ) :   0.1133 B( 14-P , 15-S ) :   1.5800
B( 14-P , 16-O ) :   1.0661 B( 14-P , 18-O ) :   1.0610 B( 16-O , 17-C ) :   0.9359
B( 17-C , 32-H ) :   0.9348 B( 17-C , 33-H ) :   0.9541 B( 17-C , 34-H ) :   0.9538
B( 18-O , 19-C ) :   0.9366 B( 19-C , 35-H ) :   0.9407 B( 19-C , 36-H ) :   0.9431
B( 19-C , 37-H ) :   0.9603

Dispersion correction           -0.055058578
FINAL SINGLE POINT ENERGY     -1979.003939668018

DIPOLE MOMENT
-------------

Method             : SCF
Type of density    : Electron Density
Multiplicity       :   1
Irrep              :   0
Energy             : -1979.1333225881744511 Eh
Relativity type    :
Basis              : AO
                                X                 Y                 Z
Electronic contribution:     -1.839224334      -3.116584420      -1.784992712
Nuclear contribution   :      1.748106860       4.296317323       0.678700188
                        -----------------------------------------
Total Dipole Moment    :     -0.091117474       1.179732902      -1.106292524
                        -----------------------------------------
Magnitude (a.u.)       :      1.619862730
Magnitude (Debye)      :      4.117363847

Rotational constants in cm-1:             0.011707             0.009765             0.007076
Rotational constants in MHz :           350.978920           292.743510           212.127739

                             ****ORCA TERMINATED NORMALLY****
TOTAL RUN TIME: 0 days 0 hours 0 minutes 40 seconds 874 msec
