                         Program Version 6.0.0  -   RELEASE  -
|  1> ! pbe def2-sv(p) def2/J RI DEFGRID1 loosescf d4 GCP(DFT/SV(P)) printgap
|  2> %output
|  3>     printlevel normal
|  4> end
|  5> * xyz 0 1
|  6> C 0.591681367 1.7035197341 0.0179590313
|  7> C 1.3999588559 0.4217422826 -0.2455346475
|  8> H 1.5987087127 0.344247334 -1.3217773809
|  9> C 0.5538446556 -0.7821346446 0.1963632169
| 10> H 0.3525563166 -0.7152753703 1.2728741441
| 11> C -0.7915563437 -0.7407991226 -0.5496252825
| 12> H -0.6147576776 -0.8384471128 -1.6321738003
| 13> C -1.4758021576 0.6174559246 -0.2920199411
| 14> H -2.3659976893 0.7084934566 -0.9330076861
| 15> O -0.6525329462 1.6763184715 -0.6703117067
| 16> O -1.8295260429 0.7412434724 1.0567825313
| 17> O -1.6632898834 -1.7462579381 -0.0990261478
| 18> O 1.1935387746 -2.0222283365 0.0132083414
| 19> O 2.6640621328 0.4508115828 0.3606619715
| 20> H 1.1169905143 2.5763492866 -0.3688781938
| 21> H 0.4144947115 1.8230649154 1.0933396161
| 22> H -2.3353643069 -0.0496338356 1.3033847262
| 23> H -1.1581955868 -2.5702765518 -0.0066078327
| 24> H 1.6747831945 -2.0270700024 -0.8261770377
| 25> H 2.5700994774 0.5009401644 1.3230316426
| 26> *
| 27>
| 28>                          ****END OF INPUT****

CARTESIAN COORDINATES (ANGSTROEM)
---------------------------------
  C      0.591681    1.703520    0.017959
  C      1.399959    0.421742   -0.245535
  H      1.598709    0.344247   -1.321777
  C      0.553845   -0.782135    0.196363
  H      0.352556   -0.715275    1.272874
  C     -0.791556   -0.740799   -0.549625
  H     -0.614758   -0.838447   -1.632174
  C     -1.475802    0.617456   -0.292020
  H     -2.365998    0.708493   -0.933008
  O     -0.652533    1.676318   -0.670312
  O     -1.829526    0.741243    1.056783
  O     -1.663290   -1.746258   -0.099026
  O      1.193539   -2.022228    0.013208
  O      2.664062    0.450812    0.360662
  H      1.116991    2.576349   -0.368878
  H      0.414495    1.823065    1.093340
  H     -2.335364   -0.049634    1.303385
  H     -1.158196   -2.570277   -0.006608
  H      1.674783   -2.027070   -0.826177
  H      2.570099    0.500940    1.323032

 Total Charge           Charge          ....    0
 Multiplicity           Mult            ....    1
 Number of Electrons    NEL             ....   80
 Basis Dimension        Dim             ....  160

ORBITAL ENERGIES
----------------

  NO   OCC          E(Eh)            E(eV)
   0   2.0000     -18.770884      -510.7817
   1   2.0000     -18.764884      -510.6185
   2   2.0000     -18.763112      -510.5702
   3   2.0000     -18.759496      -510.4718
   4   2.0000     -18.756462      -510.3893
   5   2.0000      -9.985397      -271.7165
   6   2.0000      -9.950132      -270.7568
   7   2.0000      -9.947199      -270.6770
   8   2.0000      -9.943432      -270.5745
   9   2.0000      -9.936241      -270.3789
  10   2.0000      -0.981877       -26.7182
  11   2.0000      -0.952106       -25.9081
  12   2.0000      -0.939633       -25.5687
  13   2.0000      -0.924374       -25.1535
  14   2.0000      -0.909246       -24.7418
  15   2.0000      -0.704769       -19.1777
  16   2.0000      -0.679941       -18.5021
  17   2.0000      -0.589493       -16.0409
  18   2.0000      -0.585426       -15.9302
  19   2.0000      -0.539277       -14.6745
  20   2.0000      -0.502909       -13.6848
  21   2.0000      -0.480533       -13.0760
  22   2.0000      -0.474817       -12.9204
  23   2.0000      -0.448125       -12.1941
  24   2.0000      -0.440175       -11.9778
  25   2.0000      -0.423279       -11.5180
  26   2.0000      -0.413458       -11.2508
  27   2.0000      -0.387571       -10.5464
  28   2.0000      -0.365359        -9.9419
  29   2.0000      -0.355703        -9.6792
  30   2.0000      -0.321723        -8.7545
  31   2.0000      -0.314543        -8.5592
  32   2.0000      -0.306166        -8.3312
  33   2.0000      -0.292296        -7.9538
  34   2.0000      -0.283456        -7.7132
  35   2.0000      -0.259253        -7.0546
  36   2.0000      -0.249510        -6.7895
  37   2.0000      -0.231707        -6.3051
  38   2.0000      -0.215038        -5.8515
  39   2.0000      -0.211034        -5.7425
  40   0.0000       0.013407         0.3648
  41   0.0000       0.020883         0.5683
  42   0.0000       0.038857         1.0574
  43   0.0000       0.043904         1.1947
  44   0.0000       0.069279         1.8852

MULLIKEN ATOMIC CHARGES
-----------------------
   0 C :    0.080942
   1 C :   -0.010766
   2 H :    0.061742
   3 C :    0.037524
   4 H :    0.050597
   5 C :    0.034408
   6 H :    0.050782
   7 C :    0.191183
   8 H :    0.070737
   9 O :   -0.304826
  10 O :   -0.415592
  11 O :   -0.424474
  12 O :   -0.412236
  13 O :   -0.406796
  14 H :    0.102188
  15 H :    0.071519
  16 H :    0.308157
  17 H :    0.309760
  18 H :    0.303545
  19 H :    0.301606
Sum of atomic charges:    0.0000000

LOEWDIN ATOMIC CHARGES
----------------------
   0 C :   -0.123943
   1 C :   -0.089994
   2 H :    0.111938
   3 C :   -0.091636
   4 H :    0.110452
   5 C :   -0.101538
   6 H :    0.100372
   7 C :    0.010335
   8 H :    0.099647
   9 O :   -0.136229
  10 O :   -0.322676
  11 O :   -0.323997
  12 O :   -0.314033
  13 O :   -0.309699
  14 H :    0.121123
  15 H :    0.106907
  16 H :    0.289421
  17 H :    0.287093
  18 H :    0.288725
  19 H :    0.287732

  Mayer bond orders larger than 0.100000
B(  0-C ,  1-C ) :   1.0472 B(  0-C ,  9-O ) :   0.9940 B(  0-C , 14-H ) :   0.9241
B(  0-C , 15-H ) :   0.8921 B(  1-C ,  2-H ) :   0.8681 B(  1-C ,  3-C ) :   1.0156
B(  1-C , 13-O ) :   1.0565 B(  3-C ,  4-H ) :   0.8660 B(  3-C ,  5-C ) :   0.9752
B(  3-C , 12-O ) :   1.0641 B(  5-C ,  6-H ) :   0.8754 B(  5-C ,  7-C ) :   0.9894
B(  5-C , 11-O ) :   1.0795 B(  7-C ,  8-H ) :   0.9040 B(  7-C ,  9-O ) :   1.0885
B(  7-C , 10-O ) :   1.0418 B( 10-O , 16-H ) :   0.8216 B( 11-O , 17-H ) :   0.8286
B( 12-O , 18-H ) :   0.8465 B( 13-O , 19-H ) :   0.8483

Dispersion correction           -0.019229892
FINAL SINGLE POINT ENERGY      -571.417088419119

DIPOLE MOMENT
-------------

Method             : SCF
Type of density    : Electron Density
Multiplicity       :   1
Irrep              :   0
Energy             :  -571.5256105208700319 Eh
Relativity type    :
Basis              : AO
                                X                 Y                 Z
Electronic contribution:     -0.929822800      -0.337420699       0.067282239
Nuclear contribution   :      1.171562343      -0.245632872      -0.080259596
                        -----------------------------------------
Total Dipole Moment    :      0.241739543      -0.583053571      -0.012977356
                        -----------------------------------------
Magnitude (a.u.)       :      0.631314411
Magnitude (Debye)      :      1.604673707

Rotational constants in cm-1:             0.057103             0.044574             0.028951
Rotational constants in MHz :          1711.906038          1336.308973           867.917829

                             ****ORCA TERMINATED NORMALLY****
TOTAL RUN TIME: 0 days 0 hours 0 minutes 11 seconds 160 msec
