                         Program Version 6.0.0  -   RELEASE  -
|  1> ! r2scan-3c def2/J RI DEFGRID2 scfconv6 printgap
|  2> %output
|  3>     printlevel normal
|  4> end
|  5> * xyz 0 1
|  6> C 1.0566236505 -0.8680727856 3.2048980213
|  7> C 1.2419054411 0.4735259747 2.5230846881
|  8> O 2.4293380903 0.517459088 1.7149187233
|  9> P 2.6317879856 -0.2152341264 0.3253555964
| 10> S 2.8408941778 -2.1692510839 0.3126925098
| 11> O 3.9338871542 0.5913048537 -0.0642968568
| 12> C 4.8714087617 0.0917698555 -1.0338090192
| 13> C 4.3167118667 0.1495820828 -2.4433998101
| 14> S 1.1029242119 0.5554495407 -0.9545722608
| 15> C 0.1525932378 -0.9677361702 -1.1992346166
| 16> S -1.0010714024 -1.320094482 0.1565894023
| 17> P -2.3051367012 0.2957330559 -0.2176570662
| 18> S -2.6442887706 0.7670979337 -2.0941740159
| 19> O -1.6001555817 1.4120615715 0.6632691391
| 20> C -1.8321128543 2.8185301558 0.4450170932
| 21> C -3.2378192384 3.2225356007 0.8363426692
| 22> O -3.5975135277 -0.0276891249 0.6470787571
| 23> C -4.7136435094 -0.7645652799 0.118204966
| 24> C -4.3614485108 -2.2109100655 -0.1637906396
| 25> H 0.2086453829 -0.8104638071 3.8797979127
| 26> H 0.8664285159 -1.6486500849 2.4703204545
| 27> H 1.9496963865 -1.1285201973 3.7671038661
| 28> H 1.4015280566 1.2685518766 3.2542749913
| 29> H 0.3726223919 0.7198154748 1.9049312545
| 30> H 5.7401140652 0.7408940277 -0.9164923097
| 31> H 5.137449994 -0.9362763121 -0.7665158674
| 32> H 5.0984194071 -0.1147992993 -3.148288061
| 33> H 3.493475272 -0.555600566 -2.5496495205
| 34> H 3.953034351 1.149749027 -2.6651019576
| 35> H 0.833900624 -1.8180884875 -1.250854598
| 36> H -0.407212505 -0.8408306388 -2.1249806078
| 37> H -1.0805518212 3.3089640773 1.0651685861
| 38> H -1.6414276746 3.0398483457 -0.6101474702
| 39> H -3.9578312459 2.7528681799 0.1673643403
| 40> H -3.4483413638 2.9090485743 1.8554564066
| 41> H -3.3370397483 4.3007857161 0.7599789595
| 42> H -5.4753695839 -0.6788242883 0.8941864737
| 43> H -5.053894246 -0.2677556472 -0.7961534013
| 44> H -3.9204271468 -2.671845066 0.7165406164
| 45> H -5.2596635125 -2.7521026673 -0.4434781202
| 46> H -3.6464400996 -2.2677878975 -0.9837131577
| 47> *
| 48>
| 49>                          ****END OF INPUT****

CARTESIAN COORDINATES (ANGSTROEM)
---------------------------------
  C      1.056624   -0.868073    3.204898
  C      1.241905    0.473526    2.523085
  O      2.429338    0.517459    1.714919
  P      2.631788   -0.215234    0.325356
  S      2.840894   -2.169251    0.312693
  O      3.933887    0.591305   -0.064297
  C      4.871409    0.091770   -1.033809
  C      4.316712    0.149582   -2.443400
  S      1.102924    0.555450   -0.954572
  C      0.152593   -0.967736   -1.199235
  S     -1.001071   -1.320094    0.156589
  P     -2.305137    0.295733   -0.217657
  S     -2.644289    0.767098   -2.094174
  O     -1.600156    1.412062    0.663269
  C     -1.832113    2.818530    0.445017
  C     -3.237819    3.222536    0.836343
  O     -3.597514   -0.027689    0.647079
  C     -4.713644   -0.764565    0.118205
  C     -4.361449   -2.210910   -0.163791
  H      0.208645   -0.810464    3.879798
  H      0.866429   -1.648650    2.470320
  H      1.949696   -1.128520    3.767104
  H      1.401528    1.268552    3.254275
  H      0.372622    0.719815    1.904931
  H      5.740114    0.740894   -0.916492
  H      5.137450   -0.936276   -0.766516
  H      5.098419   -0.114799   -3.148288
  H      3.493475   -0.555601   -2.549650
  H      3.953034    1.149749   -2.665102
  H      0.833901   -1.818088   -1.250855
  H     -0.407213   -0.840831   -2.124981
  H     -1.080552    3.308964    1.065169
  H     -1.641428    3.039848   -0.610147
  H     -3.957831    2.752868    0.167364
  H     -3.448341    2.909049    1.855456
  H     -3.337040    4.300786    0.759979
  H     -5.475370   -0.678824    0.894186
  H     -5.053894   -0.267756   -0.796153
  H     -3.920427   -2.671845    0.716541
  H     -5.259664   -2.752103   -0.443478
  H     -3.646440   -2.267788   -0.983713

 Total Charge           Charge          ....    0
 Multiplicity           Mult            ....    1
 Number of Electrons    NEL             ....  202
 Basis Dimension        Dim             ....  539

ORBITAL ENERGIES
----------------

  NO   OCC          E(Eh)            E(eV)
   0   2.0000     -88.578667     -2410.3481
   1   2.0000     -88.575253     -2410.2552
   2   2.0000     -88.527488     -2408.9554
   3   2.0000     -88.522326     -2408.8150
   4   2.0000     -76.918869     -2093.0688
   5   2.0000     -76.913271     -2092.9165
   6   2.0000     -18.998815      -516.9840
   7   2.0000     -18.994197      -516.8584
   8   2.0000     -18.989328      -516.7259
   9   2.0000     -18.986725      -516.6551
  10   2.0000     -10.104745      -274.9641
  11   2.0000     -10.103607      -274.9331
  12   2.0000     -10.100681      -274.8535
  13   2.0000     -10.095663      -274.7170
  14   2.0000     -10.092178      -274.6221
  15   2.0000     -10.032432      -272.9963
  16   2.0000     -10.032395      -272.9953
  17   2.0000     -10.026294      -272.8293
  18   2.0000     -10.019075      -272.6329
  19   2.0000      -7.873092      -214.2377
  20   2.0000      -7.869311      -214.1349
  21   2.0000      -7.822158      -212.8517
  22   2.0000      -7.817158      -212.7157
  23   2.0000      -6.597525      -179.5278
  24   2.0000      -6.591721      -179.3699
  25   2.0000      -5.819894      -158.3674
  26   2.0000      -5.817005      -158.2887
  27   2.0000      -5.816222      -158.2674
  28   2.0000      -5.813135      -158.1835
  29   2.0000      -5.810206      -158.1038
  30   2.0000      -5.806485      -158.0025
  31   2.0000      -5.769736      -157.0025
  32   2.0000      -5.764761      -156.8671
  33   2.0000      -5.762468      -156.8047
  34   2.0000      -5.762223      -156.7981
  35   2.0000      -5.757387      -156.6665
  36   2.0000      -5.757252      -156.6628
  37   2.0000      -4.742894      -129.0607
  38   2.0000      -4.742422      -129.0479
  39   2.0000      -4.741381      -129.0195
  40   2.0000      -4.737013      -128.9007
  41   2.0000      -4.736924      -128.8983
  42   2.0000      -4.735401      -128.8568
  43   2.0000      -1.055269       -28.7153
  44   2.0000      -1.050185       -28.5770
  45   2.0000      -1.016539       -27.6614
  46   2.0000      -1.006912       -27.3995
  47   2.0000      -0.802294       -21.8315
  48   2.0000      -0.759185       -20.6585
  49   2.0000      -0.749602       -20.3977
  50   2.0000      -0.735524       -20.0146
  51   2.0000      -0.723497       -19.6874
  52   2.0000      -0.714210       -19.4346
  53   2.0000      -0.688991       -18.7484
  54   2.0000      -0.671650       -18.2765
  55   2.0000      -0.637560       -17.3489
  56   2.0000      -0.627341       -17.0708
  57   2.0000      -0.609914       -16.5966
  58   2.0000      -0.599505       -16.3134
  59   2.0000      -0.592222       -16.1152
  60   2.0000      -0.525155       -14.2902
  61   2.0000      -0.516190       -14.0462
  62   2.0000      -0.497350       -13.5336
  63   2.0000      -0.485367       -13.2075
  64   2.0000      -0.478816       -13.0293
  65   2.0000      -0.462813       -12.5938
  66   2.0000      -0.462358       -12.5814
  67   2.0000      -0.451359       -12.2821
  68   2.0000      -0.440614       -11.9897
  69   2.0000      -0.434780       -11.8310
  70   2.0000      -0.427233       -11.6256
  71   2.0000      -0.423257       -11.5174
  72   2.0000      -0.414832       -11.2882
  73   2.0000      -0.408360       -11.1120
  74   2.0000      -0.396794       -10.7973
  75   2.0000      -0.391114       -10.6428
  76   2.0000      -0.385483       -10.4895
  77   2.0000      -0.377079       -10.2608
  78   2.0000      -0.372433       -10.1344
  79   2.0000      -0.366593        -9.9755
  80   2.0000      -0.362498        -9.8641
  81   2.0000      -0.357936        -9.7399
  82   2.0000      -0.354367        -9.6428
  83   2.0000      -0.352210        -9.5841
  84   2.0000      -0.346920        -9.4402
  85   2.0000      -0.334255        -9.0955
  86   2.0000      -0.324230        -8.8227
  87   2.0000      -0.314192        -8.5496
  88   2.0000      -0.310807        -8.4575
  89   2.0000      -0.303934        -8.2705
  90   2.0000      -0.300092        -8.1659
  91   2.0000      -0.292250        -7.9525
  92   2.0000      -0.283765        -7.7216
  93   2.0000      -0.282437        -7.6855
  94   2.0000      -0.272623        -7.4185
  95   2.0000      -0.249686        -6.7943
  96   2.0000      -0.232223        -6.3191
  97   2.0000      -0.230283        -6.2663
  98   2.0000      -0.221161        -6.0181
  99   2.0000      -0.219922        -5.9844
 100   2.0000      -0.216241        -5.8842
 101   0.0000      -0.049810        -1.3554
 102   0.0000      -0.030804        -0.8382
 103   0.0000      -0.007044        -0.1917
 104   0.0000      -0.005241        -0.1426
 105   0.0000       0.012824         0.3490

MULLIKEN ATOMIC CHARGES
-----------------------
   0 C :   -0.420531
   1 C :   -0.163417
   2 O :   -0.277611
   3 P :    0.687035
   4 S :   -0.469243
   5 O :   -0.313343
   6 C :   -0.150389
   7 C :   -0.436734
   8 S :   -0.127783
   9 C :   -0.252324
  10 S :   -0.118172
  11 P :    0.681315
  12 S :   -0.477873
  13 O :   -0.279200
  14 C :   -0.151936
  15 C :   -0.438947
  16 O :   -0.305714
  17 C :   -0.152582
  18 C :   -0.450361
  19 H :    0.144785
  20 H :    0.169710
  21 H :    0.151944
  22 H :    0.146750
  23 H :    0.177641
  24 H :    0.149305
  25 H :    0.173082
  26 H :    0.146851
  27 H :    0.167482
  28 H :    0.155536
  29 H :    0.215744
  30 H :    0.218048
  31 H :    0.152036
  32 H :    0.174155
  33 H :    0.166067
  34 H :    0.156034
  35 H :    0.148206
  36 H :    0.149492
  37 H :    0.171493
  38 H :    0.157025
  39 H :    0.149376
  40 H :    0.177047
Sum of atomic charges:    0.0000000

LOEWDIN ATOMIC CHARGES
----------------------
   0 C :   -0.409006
   1 C :    0.020573
   2 O :   -0.647270
   3 P :    0.393973
   4 S :   -0.129745
   5 O :   -0.650961
   6 C :    0.021190
   7 C :   -0.405265
   8 S :    0.160610
   9 C :   -0.426585
  10 S :    0.168633
  11 P :    0.375868
  12 S :   -0.128732
  13 O :   -0.695013
  14 C :    0.019191
  15 C :   -0.398214
  16 O :   -0.660951
  17 C :    0.020548
  18 C :   -0.406057
  19 H :    0.158815
  20 H :    0.165587
  21 H :    0.160377
  22 H :    0.179284
  23 H :    0.191711
  24 H :    0.180070
  25 H :    0.179941
  26 H :    0.158620
  27 H :    0.162474
  28 H :    0.161062
  29 H :    0.194669
  30 H :    0.190560
  31 H :    0.180365
  32 H :    0.181633
  33 H :    0.164412
  34 H :    0.161143
  35 H :    0.159975
  36 H :    0.180171
  37 H :    0.179516
  38 H :    0.160981
  39 H :    0.160072
  40 H :    0.165776

  Mayer bond orders larger than 0.100000
B(  0-C ,  1-C ) :   0.9306 B(  0-C , 19-H ) :   0.9666 B(  0-C , 20-H ) :   0.9523
B(  0-C , 21-H ) :   0.9691 B(  1-C ,  2-O ) :   0.8020 B(  1-C , 22-H ) :   0.9642
B(  1-C , 23-H ) :   0.9511 B(  2-O ,  3-P ) :   1.1444 B(  3-P ,  4-S ) :   1.7396
B(  3-P ,  5-O ) :   1.1282 B(  3-P ,  8-S ) :   1.0533 B(  5-O ,  6-C ) :   0.8167
B(  6-C ,  7-C ) :   0.9223 B(  6-C , 24-H ) :   0.9590 B(  6-C , 25-H ) :   0.9680
B(  7-C , 26-H ) :   0.9609 B(  7-C , 27-H ) :   0.9659 B(  7-C , 28-H ) :   0.9674
B(  8-S ,  9-C ) :   0.9056 B(  9-C , 10-S ) :   0.9042 B(  9-C , 29-H ) :   0.8978
B(  9-C , 30-H ) :   0.9087 B( 10-S , 11-P ) :   1.0936 B( 11-P , 12-S ) :   1.7517
B( 11-P , 13-O ) :   1.1322 B( 11-P , 16-O ) :   1.0700 B( 13-O , 14-C ) :   0.7963
B( 14-C , 15-C ) :   0.9244 B( 14-C , 31-H ) :   0.9610 B( 14-C , 32-H ) :   0.9639
B( 15-C , 33-H ) :   0.9601 B( 15-C , 34-H ) :   0.9715 B( 15-C , 35-H ) :   0.9618
B( 16-O , 17-C ) :   0.8125 B( 17-C , 18-C ) :   0.9225 B( 17-C , 36-H ) :   0.9575
B( 17-C , 37-H ) :   0.9666 B( 18-C , 38-H ) :   0.9682 B( 18-C , 39-H ) :   0.9580
B( 18-C , 40-H ) :   0.9619

Dispersion correction           -0.021691979
FINAL SINGLE POINT ENERGY     -2932.465217747264

DIPOLE MOMENT
-------------

Method             : SCF
Type of density    : Electron Density
Multiplicity       :   1
Irrep              :   0
Energy             : -2932.4902613950089290 Eh
Relativity type    :
Basis              : AO
                                X                 Y                 Z
Electronic contribution:      7.194691800      -2.882981721      -3.857262378
Nuclear contribution   :     -7.950811878       3.497999494       4.225065689
                        -----------------------------------------
Total Dipole Moment    :     -0.756120078       0.615017774       0.367803312
                        -----------------------------------------
Magnitude (a.u.)       :      1.041750311
Magnitude (Debye)      :      2.647918856

Rotational constants in cm-1:             0.013000             0.004611             0.004557
Rotational constants in MHz :           389.734606           138.245713           136.622080

                             ****ORCA TERMINATED NORMALLY****
TOTAL RUN TIME: 0 days 0 hours 1 minutes 21 seconds 11 msec
