                         Program Version 6.0.0  -   RELEASE  -
|  1> ! r2scan-3c def2/J RI DEFGRID2 scfconv6 printgap
|  2> %output
|  3>     printlevel normal
|  4> end
|  5> %cpcm
|  6>     smd true
|  7>     smdsolvent "water"
|  8> end
|  9> * xyz 0 1
| 10> C 1.0566236505 -0.8680727856 3.2048980213
| 11> C 1.2419054411 0.4735259747 2.5230846881
| 12> O 2.4293380903 0.517459088 1.7149187233
| 13> P 2.6317879856 -0.2152341264 0.3253555964
| 14> S 2.8408941778 -2.1692510839 0.3126925098
| 15> O 3.9338871542 0.5913048537 -0.0642968568
| 16> C 4.8714087617 0.0917698555 -1.0338090192
| 17> C 4.3167118667 0.1495820828 -2.4433998101
| 18> S 1.1029242119 0.5554495407 -0.9545722608
| 19> C 0.1525932378 -0.9677361702 -1.1992346166
| 20> S -1.0010714024 -1.320094482 0.1565894023
| 21> P -2.3051367012 0.2957330559 -0.2176570662
| 22> S -2.6442887706 0.7670979337 -2.0941740159
| 23> O -1.6001555817 1.4120615715 0.6632691391
| 24> C -1.8321128543 2.8185301558 0.4450170932
| 25> C -3.2378192384 3.2225356007 0.8363426692
| 26> O -3.5975135277 -0.0276891249 0.6470787571
| 27> C -4.7136435094 -0.7645652799 0.118204966
| 28> C -4.3614485108 -2.2109100655 -0.1637906396
| 29> H 0.2086453829 -0.8104638071 3.8797979127
| 30> H 0.8664285159 -1.6486500849 2.4703204545
| 31> H 1.9496963865 -1.1285201973 3.7671038661
| 32> H 1.4015280566 1.2685518766 3.2542749913
| 33> H 0.3726223919 0.7198154748 1.9049312545
| 34> H 5.7401140652 0.7408940277 -0.9164923097
| 35> H 5.137449994 -0.9362763121 -0.7665158674
| 36> H 5.0984194071 -0.1147992993 -3.148288061
| 37> H 3.493475272 -0.555600566 -2.5496495205
| 38> H 3.953034351 1.149749027 -2.6651019576
| 39> H 0.833900624 -1.8180884875 -1.250854598
| 40> H -0.407212505 -0.8408306388 -2.1249806078
| 41> H -1.0805518212 3.3089640773 1.0651685861
| 42> H -1.6414276746 3.0398483457 -0.6101474702
| 43> H -3.9578312459 2.7528681799 0.1673643403
| 44> H -3.4483413638 2.9090485743 1.8554564066
| 45> H -3.3370397483 4.3007857161 0.7599789595
| 46> H -5.4753695839 -0.6788242883 0.8941864737
| 47> H -5.053894246 -0.2677556472 -0.7961534013
| 48> H -3.9204271468 -2.671845066 0.7165406164
| 49> H -5.2596635125 -2.7521026673 -0.4434781202
| 50> H -3.6464400996 -2.2677878975 -0.9837131577
| 51> *
| 52>
| 53>                          ****END OF INPUT****

CARTESIAN COORDINATES (ANGSTROEM)
---------------------------------
  C      1.056624   -0.868073    3.204898
  C      1.241905    0.473526    2.523085
  O      2.429338    0.517459    1.714919
  P      2.631788   -0.215234    0.325356
  S      2.840894   -2.169251    0.312693
  O      3.933887    0.591305   -0.064297
  C      4.871409    0.091770   -1.033809
  C      4.316712    0.149582   -2.443400
  S      1.102924    0.555450   -0.954572
  C      0.152593   -0.967736   -1.199235
  S     -1.001071   -1.320094    0.156589
  P     -2.305137    0.295733   -0.217657
  S     -2.644289    0.767098   -2.094174
  O     -1.600156    1.412062    0.663269
  C     -1.832113    2.818530    0.445017
  C     -3.237819    3.222536    0.836343
  O     -3.597514   -0.027689    0.647079
  C     -4.713644   -0.764565    0.118205
  C     -4.361449   -2.210910   -0.163791
  H      0.208645   -0.810464    3.879798
  H      0.866429   -1.648650    2.470320
  H      1.949696   -1.128520    3.767104
  H      1.401528    1.268552    3.254275
  H      0.372622    0.719815    1.904931
  H      5.740114    0.740894   -0.916492
  H      5.137450   -0.936276   -0.766516
  H      5.098419   -0.114799   -3.148288
  H      3.493475   -0.555601   -2.549650
  H      3.953034    1.149749   -2.665102
  H      0.833901   -1.818088   -1.250855
  H     -0.407213   -0.840831   -2.124981
  H     -1.080552    3.308964    1.065169
  H     -1.641428    3.039848   -0.610147
  H     -3.957831    2.752868    0.167364
  H     -3.448341    2.909049    1.855456
  H     -3.337040    4.300786    0.759979
  H     -5.475370   -0.678824    0.894186
  H     -5.053894   -0.267756   -0.796153
  H     -3.920427   -2.671845    0.716541
  H     -5.259664   -2.752103   -0.443478
  H     -3.646440   -2.267788   -0.983713

 Total Charge           Charge          ....    0
 Multiplicity           Mult            ....    1
 Number of Electrons    NEL             ....  202
 Basis Dimension        Dim             ....  539

ORBITAL ENERGIES
----------------

  NO   OCC          E(Eh)            E(eV)
   0   2.0000     -88.579800     -2410.3789
   1   2.0000     -88.579534     -2410.3717
   2   2.0000     -88.531303     -2409.0592
   3   2.0000     -88.530655     -2409.0416
   4   2.0000     -76.920709     -2093.1189
   5   2.0000     -76.919945     -2093.0981
   6   2.0000     -18.997163      -516.9391
   7   2.0000     -18.995749      -516.9006
   8   2.0000     -18.994592      -516.8691
   9   2.0000     -18.992610      -516.8152
  10   2.0000     -10.104373      -274.9540
  11   2.0000     -10.090499      -274.5764
  12   2.0000     -10.089726      -274.5554
  13   2.0000     -10.089086      -274.5380
  14   2.0000     -10.088982      -274.5352
  15   2.0000     -10.019053      -272.6323
  16   2.0000     -10.018753      -272.6241
  17   2.0000     -10.018156      -272.6079
  18   2.0000     -10.015974      -272.5485
  19   2.0000      -7.874272      -214.2698
  20   2.0000      -7.873597      -214.2515
  21   2.0000      -7.826374      -212.9665
  22   2.0000      -7.825601      -212.9454
  23   2.0000      -6.599276      -179.5754
  24   2.0000      -6.598633      -179.5579
  25   2.0000      -5.821067      -158.3993
  26   2.0000      -5.820537      -158.3849
  27   2.0000      -5.818190      -158.3210
  28   2.0000      -5.817422      -158.3001
  29   2.0000      -5.811385      -158.1358
  30   2.0000      -5.810751      -158.1186
  31   2.0000      -5.773928      -157.1166
  32   2.0000      -5.773123      -157.0947
  33   2.0000      -5.766607      -156.9173
  34   2.0000      -5.766470      -156.9136
  35   2.0000      -5.765895      -156.8980
  36   2.0000      -5.765687      -156.8923
  37   2.0000      -4.744566      -129.1062
  38   2.0000      -4.744459      -129.1033
  39   2.0000      -4.743950      -129.0894
  40   2.0000      -4.743523      -129.0778
  41   2.0000      -4.742978      -129.0630
  42   2.0000      -4.742580      -129.0522
  43   2.0000      -1.057158       -28.7667
  44   2.0000      -1.053296       -28.6616
  45   2.0000      -1.013893       -27.5894
  46   2.0000      -1.013082       -27.5674
  47   2.0000      -0.803527       -21.8651
  48   2.0000      -0.756391       -20.5824
  49   2.0000      -0.744872       -20.2690
  50   2.0000      -0.724037       -19.7021
  51   2.0000      -0.719289       -19.5728
  52   2.0000      -0.712981       -19.4012
  53   2.0000      -0.691870       -18.8267
  54   2.0000      -0.676328       -18.4038
  55   2.0000      -0.634589       -17.2680
  56   2.0000      -0.625882       -17.0311
  57   2.0000      -0.599820       -16.3219
  58   2.0000      -0.598126       -16.2758
  59   2.0000      -0.590362       -16.0646
  60   2.0000      -0.521538       -14.1918
  61   2.0000      -0.512550       -13.9472
  62   2.0000      -0.491498       -13.3743
  63   2.0000      -0.485979       -13.2241
  64   2.0000      -0.478168       -13.0116
  65   2.0000      -0.461164       -12.5489
  66   2.0000      -0.454851       -12.3771
  67   2.0000      -0.448634       -12.2079
  68   2.0000      -0.436798       -11.8859
  69   2.0000      -0.433286       -11.7903
  70   2.0000      -0.426567       -11.6075
  71   2.0000      -0.422198       -11.4886
  72   2.0000      -0.406779       -11.0690
  73   2.0000      -0.404787       -11.0148
  74   2.0000      -0.395099       -10.7512
  75   2.0000      -0.389147       -10.5892
  76   2.0000      -0.385146       -10.4803
  77   2.0000      -0.372991       -10.1496
  78   2.0000      -0.365320        -9.9409
  79   2.0000      -0.355875        -9.6838
  80   2.0000      -0.355386        -9.6705
  81   2.0000      -0.351320        -9.5599
  82   2.0000      -0.350815        -9.5462
  83   2.0000      -0.348106        -9.4724
  84   2.0000      -0.344166        -9.3652
  85   2.0000      -0.332133        -9.0378
  86   2.0000      -0.321760        -8.7555
  87   2.0000      -0.309203        -8.4138
  88   2.0000      -0.305572        -8.3150
  89   2.0000      -0.302275        -8.2253
  90   2.0000      -0.298508        -8.1228
  91   2.0000      -0.287992        -7.8367
  92   2.0000      -0.284986        -7.7549
  93   2.0000      -0.280874        -7.6430
  94   2.0000      -0.277570        -7.5531
  95   2.0000      -0.251379        -6.8404
  96   2.0000      -0.237908        -6.4738
  97   2.0000      -0.235589        -6.4107
  98   2.0000      -0.227618        -6.1938
  99   2.0000      -0.225945        -6.1483
 100   2.0000      -0.222155        -6.0451
 101   0.0000      -0.054392        -1.4801
 102   0.0000      -0.035686        -0.9711
 103   0.0000      -0.011645        -0.3169
 104   0.0000      -0.007448        -0.2027
 105   0.0000       0.011301         0.3075

MULLIKEN ATOMIC CHARGES
-----------------------
   0 C :   -0.469522
   1 C :   -0.149863
   2 O :   -0.311483
   3 P :    0.711504
   4 S :   -0.504911
   5 O :   -0.344694
   6 C :   -0.148566
   7 C :   -0.475139
   8 S :   -0.135361
   9 C :   -0.259225
  10 S :   -0.125393
  11 P :    0.720990
  12 S :   -0.525109
  13 O :   -0.300657
  14 C :   -0.147868
  15 C :   -0.482328
  16 O :   -0.329994
  17 C :   -0.153263
  18 C :   -0.487174
  19 H :    0.171931
  20 H :    0.165227
  21 H :    0.164687
  22 H :    0.175852
  23 H :    0.176032
  24 H :    0.175397
  25 H :    0.177298
  26 H :    0.171765
  27 H :    0.169410
  28 H :    0.167160
  29 H :    0.229314
  30 H :    0.238706
  31 H :    0.177842
  32 H :    0.176427
  33 H :    0.167975
  34 H :    0.169900
  35 H :    0.172068
  36 H :    0.176225
  37 H :    0.178472
  38 H :    0.169815
  39 H :    0.173577
  40 H :    0.172977
Sum of atomic charges:   -0.0000000

LOEWDIN ATOMIC CHARGES
----------------------
   0 C :   -0.414139
   1 C :    0.025555
   2 O :   -0.666000
   3 P :    0.395404
   4 S :   -0.154334
   5 O :   -0.668855
   6 C :    0.025796
   7 C :   -0.408164
   8 S :    0.158680
   9 C :   -0.419600
  10 S :    0.164619
  11 P :    0.381510
  12 S :   -0.157084
  13 O :   -0.703071
  14 C :    0.023315
  15 C :   -0.401847
  16 O :   -0.671273
  17 C :    0.026278
  18 C :   -0.409605
  19 H :    0.168636
  20 H :    0.161102
  21 H :    0.162326
  22 H :    0.191370
  23 H :    0.192063
  24 H :    0.191037
  25 H :    0.181589
  26 H :    0.167907
  27 H :    0.160761
  28 H :    0.163698
  29 H :    0.199375
  30 H :    0.196868
  31 H :    0.190685
  32 H :    0.181998
  33 H :    0.162677
  34 H :    0.164434
  35 H :    0.168757
  36 H :    0.191480
  37 H :    0.181778
  38 H :    0.163810
  39 H :    0.168789
  40 H :    0.161677

  Mayer bond orders larger than 0.100000
B(  0-C ,  1-C ) :   0.9138 B(  0-C , 19-H ) :   0.9608 B(  0-C , 20-H ) :   0.9546
B(  0-C , 21-H ) :   0.9696 B(  1-C ,  2-O ) :   0.7952 B(  1-C , 22-H ) :   0.9547
B(  1-C , 23-H ) :   0.9482 B(  2-O ,  3-P ) :   1.1420 B(  3-P ,  4-S ) :   1.7213
B(  3-P ,  5-O ) :   1.1288 B(  3-P ,  8-S ) :   1.0659 B(  5-O ,  6-C ) :   0.8058
B(  6-C ,  7-C ) :   0.9127 B(  6-C , 24-H ) :   0.9491 B(  6-C , 25-H ) :   0.9641
B(  7-C , 26-H ) :   0.9552 B(  7-C , 27-H ) :   0.9652 B(  7-C , 28-H ) :   0.9658
B(  8-S ,  9-C ) :   0.8971 B(  9-C , 10-S ) :   0.9001 B(  9-C , 29-H ) :   0.8954
B(  9-C , 30-H ) :   0.9030 B( 10-S , 11-P ) :   1.1003 B( 11-P , 12-S ) :   1.7081
B( 11-P , 13-O ) :   1.1423 B( 11-P , 16-O ) :   1.0789 B( 13-O , 14-C ) :   0.7844
B( 14-C , 15-C ) :   0.9144 B( 14-C , 31-H ) :   0.9512 B( 14-C , 32-H ) :   0.9604
B( 15-C , 33-H ) :   0.9594 B( 15-C , 34-H ) :   0.9707 B( 15-C , 35-H ) :   0.9559
B( 16-O , 17-C ) :   0.8010 B( 17-C , 18-C ) :   0.9084 B( 17-C , 36-H ) :   0.9480
B( 17-C , 37-H ) :   0.9656 B( 18-C , 38-H ) :   0.9656 B( 18-C , 39-H ) :   0.9528
B( 18-C , 40-H ) :   0.9633

Dispersion correction           -0.021691979
FINAL SINGLE POINT ENERGY     -2932.471152323988

DIPOLE MOMENT
-------------

Method             : SCF
Type of density    : Electron Density
Multiplicity       :   1
Irrep              :   0
Energy             : -2932.4961959717329592 Eh
Relativity type    :
Basis              : AO
                                X                 Y                 Z
Electronic contribution:      6.939730730      -2.708521851      -3.801793959
Nuclear contribution   :     -7.950811878       3.497999494       4.225065689
                        -----------------------------------------
Total Dipole Moment    :     -1.011081148       0.789477643       0.423271730
                        -----------------------------------------
Magnitude (a.u.)       :      1.350821600
Magnitude (Debye)      :      3.433515642

Rotational constants in cm-1:             0.013000             0.004611             0.004557
Rotational constants in MHz :           389.734606           138.245713           136.622080

                             ****ORCA TERMINATED NORMALLY****
TOTAL RUN TIME: 0 days 0 hours 1 minutes 47 seconds 945 msec
