                         Program Version 6.0.0  -   RELEASE  -
|  1> ! r2scan-3c def2/J RI DEFGRID2 scfconv6 printgap
|  2> %output
|  3>     printlevel normal
|  4> end
|  5> * xyz 0 1
|  6> C 4.5586939107 -1.5862937875 -0.5856986591
|  7> C 4.5883572582 -0.1358159491 -0.1485940708
|  8> O 3.3967095589 0.2457966745 0.559110612
|  9> P 1.9754392513 0.3586502457 -0.147641756
| 10> S 2.0344281115 1.0615932487 -1.9813596145
| 11> O 1.1652328988 1.1850917658 0.9332964166
| 12> C 1.1337891323 2.6237228297 0.9465551997
| 13> C 2.4839525745 3.2221458635 1.2778968351
| 14> S 1.1611837485 -1.5576499806 0.1370061868
| 15> C 0.0015372545 -1.6503463732 -1.2696910121
| 16> S -1.7090208188 -1.9112519063 -0.7535499784
| 17> P -2.0666423866 0.0156509598 0.0661340336
| 18> S -1.4808789103 1.5118324434 -1.051103185
| 19> O -1.4165398337 0.0241719295 1.4993619813
| 20> C -1.7650594395 -0.949914581 2.5211781392
| 21> C -0.6064541625 -1.0444003354 3.4911321015
| 22> O -3.6156483327 0.0023824122 0.4209847644
| 23> C -4.6498273673 0.2021210887 -0.5615192387
| 24> C -5.1200416789 -1.114702611 -1.1468572675
| 25> H 4.3283925664 -2.2314027036 0.2583042218
| 26> H 3.8002592882 -1.7270835363 -1.3545143368
| 27> H 5.5271198786 -1.8562707163 -0.9944190332
| 28> H 4.699805226 0.5226764873 -1.0161577374
| 29> H 5.388644448 0.0530249915 0.5681804379
| 30> H 0.7786875854 2.9714010166 -0.0299043635
| 31> H 0.3836914437 2.8581236981 1.7038731358
| 32> H 3.1871978605 3.0204002626 0.4708231967
| 33> H 2.3790540047 4.2964517503 1.3933720441
| 34> H 2.868631824 2.7913188794 2.1986170706
| 35> H 0.2680991144 -2.5163905567 -1.8697608729
| 36> H 0.0792281338 -0.727480013 -1.8512576527
| 37> H -2.6755853316 -0.5972859647 3.0085270782
| 38> H -1.9607525133 -1.9111162689 2.0367726724
| 39> H 0.2861812204 -1.3937593403 2.9780666906
| 40> H -0.400218848 -0.0691291103 3.922765133
| 41> H -0.8624246538 -1.7427557958 4.2813048654
| 42> H -5.450862524 0.6985656312 -0.0108006154
| 43> H -4.2716557137 0.8746633181 -1.3382725555
| 44> H -5.9633059078 -0.9271351219 -1.8036498436
| 45> H -4.3244527905 -1.5885380766 -1.7167703065
| 46> H -5.4273990641 -1.7866550176 -0.3507789053
| 47> *
| 48>
| 49>                          ****END OF INPUT****

CARTESIAN COORDINATES (ANGSTROEM)
---------------------------------
  C      4.558694   -1.586294   -0.585699
  C      4.588357   -0.135816   -0.148594
  O      3.396710    0.245797    0.559111
  P      1.975439    0.358650   -0.147642
  S      2.034428    1.061593   -1.981360
  O      1.165233    1.185092    0.933296
  C      1.133789    2.623723    0.946555
  C      2.483953    3.222146    1.277897
  S      1.161184   -1.557650    0.137006
  C      0.001537   -1.650346   -1.269691
  S     -1.709021   -1.911252   -0.753550
  P     -2.066642    0.015651    0.066134
  S     -1.480879    1.511832   -1.051103
  O     -1.416540    0.024172    1.499362
  C     -1.765059   -0.949915    2.521178
  C     -0.606454   -1.044400    3.491132
  O     -3.615648    0.002382    0.420985
  C     -4.649827    0.202121   -0.561519
  C     -5.120042   -1.114703   -1.146857
  H      4.328393   -2.231403    0.258304
  H      3.800259   -1.727084   -1.354514
  H      5.527120   -1.856271   -0.994419
  H      4.699805    0.522676   -1.016158
  H      5.388644    0.053025    0.568180
  H      0.778688    2.971401   -0.029904
  H      0.383691    2.858124    1.703873
  H      3.187198    3.020400    0.470823
  H      2.379054    4.296452    1.393372
  H      2.868632    2.791319    2.198617
  H      0.268099   -2.516391   -1.869761
  H      0.079228   -0.727480   -1.851258
  H     -2.675585   -0.597286    3.008527
  H     -1.960753   -1.911116    2.036773
  H      0.286181   -1.393759    2.978067
  H     -0.400219   -0.069129    3.922765
  H     -0.862425   -1.742756    4.281305
  H     -5.450863    0.698566   -0.010801
  H     -4.271656    0.874663   -1.338273
  H     -5.963306   -0.927135   -1.803650
  H     -4.324453   -1.588538   -1.716770
  H     -5.427399   -1.786655   -0.350779

 Total Charge           Charge          ....    0
 Multiplicity           Mult            ....    1
 Number of Electrons    NEL             ....  202
 Basis Dimension        Dim             ....  539

ORBITAL ENERGIES
----------------

  NO   OCC          E(Eh)            E(eV)
   0   2.0000     -88.576307     -2410.2838
   1   2.0000     -88.572351     -2410.1762
   2   2.0000     -88.514555     -2408.6035
   3   2.0000     -88.513570     -2408.5767
   4   2.0000     -76.910779     -2092.8487
   5   2.0000     -76.908069     -2092.7750
   6   2.0000     -18.992544      -516.8134
   7   2.0000     -18.987741      -516.6827
   8   2.0000     -18.986603      -516.6517
   9   2.0000     -18.978459      -516.4301
  10   2.0000     -10.105886      -274.9951
  11   2.0000     -10.098925      -274.8057
  12   2.0000     -10.098605      -274.7970
  13   2.0000     -10.094281      -274.6794
  14   2.0000     -10.084172      -274.4043
  15   2.0000     -10.031005      -272.9575
  16   2.0000     -10.028053      -272.8772
  17   2.0000     -10.025370      -272.8042
  18   2.0000     -10.020172      -272.6627
  19   2.0000      -7.870875      -214.1774
  20   2.0000      -7.867171      -214.0766
  21   2.0000      -7.809204      -212.4992
  22   2.0000      -7.808367      -212.4765
  23   2.0000      -6.589273      -179.3032
  24   2.0000      -6.586515      -179.2282
  25   2.0000      -5.817706      -158.3078
  26   2.0000      -5.814468      -158.2197
  27   2.0000      -5.813990      -158.2067
  28   2.0000      -5.811078      -158.1275
  29   2.0000      -5.808234      -158.0501
  30   2.0000      -5.804185      -157.9399
  31   2.0000      -5.756850      -156.6519
  32   2.0000      -5.756155      -156.6329
  33   2.0000      -5.749712      -156.4576
  34   2.0000      -5.749006      -156.4384
  35   2.0000      -5.748515      -156.4250
  36   2.0000      -5.748363      -156.4209
  37   2.0000      -4.735129      -128.8494
  38   2.0000      -4.734301      -128.8269
  39   2.0000      -4.732579      -128.7800
  40   2.0000      -4.731806      -128.7590
  41   2.0000      -4.731322      -128.7458
  42   2.0000      -4.730565      -128.7252
  43   2.0000      -1.049710       -28.5641
  44   2.0000      -1.042456       -28.3667
  45   2.0000      -1.007863       -27.4253
  46   2.0000      -1.002196       -27.2711
  47   2.0000      -0.799312       -21.7504
  48   2.0000      -0.756760       -20.5925
  49   2.0000      -0.745916       -20.2974
  50   2.0000      -0.733470       -19.9587
  51   2.0000      -0.725315       -19.7368
  52   2.0000      -0.709368       -19.3029
  53   2.0000      -0.682607       -18.5747
  54   2.0000      -0.662224       -18.0200
  55   2.0000      -0.630166       -17.1477
  56   2.0000      -0.619235       -16.8502
  57   2.0000      -0.602104       -16.3841
  58   2.0000      -0.598577       -16.2881
  59   2.0000      -0.590495       -16.0682
  60   2.0000      -0.529722       -14.4145
  61   2.0000      -0.511062       -13.9067
  62   2.0000      -0.497850       -13.5472
  63   2.0000      -0.484308       -13.1787
  64   2.0000      -0.469688       -12.7809
  65   2.0000      -0.463668       -12.6170
  66   2.0000      -0.452222       -12.3056
  67   2.0000      -0.451752       -12.2928
  68   2.0000      -0.447309       -12.1719
  69   2.0000      -0.430105       -11.7037
  70   2.0000      -0.425877       -11.5887
  71   2.0000      -0.409841       -11.1523
  72   2.0000      -0.403294       -10.9742
  73   2.0000      -0.400387       -10.8951
  74   2.0000      -0.393823       -10.7165
  75   2.0000      -0.392311       -10.6753
  76   2.0000      -0.379129       -10.3166
  77   2.0000      -0.371335       -10.1045
  78   2.0000      -0.367658       -10.0045
  79   2.0000      -0.365878        -9.9561
  80   2.0000      -0.357388        -9.7250
  81   2.0000      -0.356251        -9.6941
  82   2.0000      -0.350265        -9.5312
  83   2.0000      -0.349025        -9.4974
  84   2.0000      -0.345746        -9.4082
  85   2.0000      -0.328701        -8.9444
  86   2.0000      -0.319289        -8.6883
  87   2.0000      -0.316102        -8.6016
  88   2.0000      -0.306515        -8.3407
  89   2.0000      -0.304480        -8.2853
  90   2.0000      -0.289936        -7.8896
  91   2.0000      -0.283200        -7.7063
  92   2.0000      -0.278923        -7.5899
  93   2.0000      -0.277484        -7.5507
  94   2.0000      -0.270819        -7.3693
  95   2.0000      -0.249152        -6.7798
  96   2.0000      -0.230806        -6.2805
  97   2.0000      -0.227007        -6.1772
  98   2.0000      -0.215829        -5.8730
  99   2.0000      -0.205031        -5.5792
 100   2.0000      -0.198580        -5.4036
 101   0.0000      -0.041349        -1.1252
 102   0.0000      -0.030553        -0.8314
 103   0.0000      -0.008850        -0.2408
 104   0.0000       0.014728         0.4008
 105   0.0000       0.020896         0.5686

MULLIKEN ATOMIC CHARGES
-----------------------
   0 C :   -0.445243
   1 C :   -0.157332
   2 O :   -0.298862
   3 P :    0.647485
   4 S :   -0.461488
   5 O :   -0.256560
   6 C :   -0.162252
   7 C :   -0.448075
   8 S :   -0.129515
   9 C :   -0.224391
  10 S :   -0.175225
  11 P :    0.677234
  12 S :   -0.421181
  13 O :   -0.258445
  14 C :   -0.105809
  15 C :   -0.455434
  16 O :   -0.298324
  17 C :   -0.172412
  18 C :   -0.441374
  19 H :    0.153352
  20 H :    0.173872
  21 H :    0.146404
  22 H :    0.172924
  23 H :    0.146924
  24 H :    0.182401
  25 H :    0.156994
  26 H :    0.164333
  27 H :    0.145921
  28 H :    0.154598
  29 H :    0.196906
  30 H :    0.219791
  31 H :    0.155131
  32 H :    0.157817
  33 H :    0.169436
  34 H :    0.154428
  35 H :    0.142745
  36 H :    0.148831
  37 H :    0.176288
  38 H :    0.148653
  39 H :    0.163643
  40 H :    0.155808
Sum of atomic charges:   -0.0000000

LOEWDIN ATOMIC CHARGES
----------------------
   0 C :   -0.408275
   1 C :    0.017682
   2 O :   -0.668033
   3 P :    0.372918
   4 S :   -0.125718
   5 O :   -0.667410
   6 C :    0.012184
   7 C :   -0.400585
   8 S :    0.171025
   9 C :   -0.413982
  10 S :    0.119359
  11 P :    0.375392
  12 S :   -0.074563
  13 O :   -0.651866
  14 C :    0.022240
  15 C :   -0.390426
  16 O :   -0.663277
  17 C :    0.021968
  18 C :   -0.402795
  19 H :    0.159813
  20 H :    0.164263
  21 H :    0.158087
  22 H :    0.179775
  23 H :    0.178630
  24 H :    0.184670
  25 H :    0.183070
  26 H :    0.163576
  27 H :    0.158519
  28 H :    0.160212
  29 H :    0.180243
  30 H :    0.203065
  31 H :    0.174733
  32 H :    0.176266
  33 H :    0.165888
  34 H :    0.161551
  35 H :    0.157845
  36 H :    0.179304
  37 H :    0.182342
  38 H :    0.160102
  39 H :    0.163215
  40 H :    0.158993

  Mayer bond orders larger than 0.100000
B(  0-C ,  1-C ) :   0.9215 B(  0-C , 19-H ) :   0.9678 B(  0-C , 20-H ) :   0.9658
B(  0-C , 21-H ) :   0.9595 B(  1-C ,  2-O ) :   0.8222 B(  1-C , 22-H ) :   0.9672
B(  1-C , 23-H ) :   0.9593 B(  2-O ,  3-P ) :   1.0522 B(  3-P ,  4-S ) :   1.7583
B(  3-P ,  5-O ) :   1.1567 B(  3-P ,  8-S ) :   1.1271 B(  5-O ,  6-C ) :   0.8001
B(  6-C ,  7-C ) :   0.9067 B(  6-C , 24-H ) :   0.9614 B(  6-C , 25-H ) :   0.9645
B(  7-C , 26-H ) :   0.9631 B(  7-C , 27-H ) :   0.9616 B(  7-C , 28-H ) :   0.9740
B(  8-S ,  9-C ) :   0.8873 B(  9-C , 10-S ) :   0.9120 B(  9-C , 29-H ) :   0.9144
B(  9-C , 30-H ) :   0.9059 B( 10-S , 11-P ) :   0.9927 B( 11-P , 12-S ) :   1.8474
B( 11-P , 13-O ) :   1.1410 B( 11-P , 16-O ) :   1.0453 B( 13-O , 14-C ) :   0.7455
B( 14-C , 15-C ) :   0.9571 B( 14-C , 31-H ) :   0.9440 B( 14-C , 32-H ) :   0.9535
B( 15-C , 33-H ) :   0.9648 B( 15-C , 34-H ) :   0.9704 B( 15-C , 35-H ) :   0.9648
B( 16-O , 17-C ) :   0.7910 B( 17-C , 18-C ) :   0.9435 B( 17-C , 36-H ) :   0.9620
B( 17-C , 37-H ) :   0.9628 B( 18-C , 38-H ) :   0.9637 B( 18-C , 39-H ) :   0.9565
B( 18-C , 40-H ) :   0.9744

Dispersion correction           -0.022329543
FINAL SINGLE POINT ENERGY     -2932.459556768003

DIPOLE MOMENT
-------------

Method             : SCF
Type of density    : Electron Density
Multiplicity       :   1
Irrep              :   0
Energy             : -2932.4839178071820243 Eh
Relativity type    :
Basis              : AO
                                X                 Y                 Z
Electronic contribution:     -2.851666247       0.363846745      -9.001908732
Nuclear contribution   :      2.549572358      -1.214200183      10.065093444
                        -----------------------------------------
Total Dipole Moment    :     -0.302093889      -0.850353438       1.063184712
                        -----------------------------------------
Magnitude (a.u.)       :      1.394533405
Magnitude (Debye)      :      3.544622221

Rotational constants in cm-1:             0.012804             0.005289             0.005160
Rotational constants in MHz :           383.843758           158.553768           154.695376

                             ****ORCA TERMINATED NORMALLY****
TOTAL RUN TIME: 0 days 0 hours 1 minutes 23 seconds 139 msec
