                         Program Version 6.0.0  -   RELEASE  -
|  1> ! r2scan-3c def2/J RI DEFGRID2 scfconv6 printgap
|  2> %output
|  3>     printlevel normal
|  4> end
|  5> %cpcm
|  6>     smd true
|  7>     smdsolvent "water"
|  8> end
|  9> * xyz 0 1
| 10> C 4.5586939107 -1.5862937875 -0.5856986591
| 11> C 4.5883572582 -0.1358159491 -0.1485940708
| 12> O 3.3967095589 0.2457966745 0.559110612
| 13> P 1.9754392513 0.3586502457 -0.147641756
| 14> S 2.0344281115 1.0615932487 -1.9813596145
| 15> O 1.1652328988 1.1850917658 0.9332964166
| 16> C 1.1337891323 2.6237228297 0.9465551997
| 17> C 2.4839525745 3.2221458635 1.2778968351
| 18> S 1.1611837485 -1.5576499806 0.1370061868
| 19> C 0.0015372545 -1.6503463732 -1.2696910121
| 20> S -1.7090208188 -1.9112519063 -0.7535499784
| 21> P -2.0666423866 0.0156509598 0.0661340336
| 22> S -1.4808789103 1.5118324434 -1.051103185
| 23> O -1.4165398337 0.0241719295 1.4993619813
| 24> C -1.7650594395 -0.949914581 2.5211781392
| 25> C -0.6064541625 -1.0444003354 3.4911321015
| 26> O -3.6156483327 0.0023824122 0.4209847644
| 27> C -4.6498273673 0.2021210887 -0.5615192387
| 28> C -5.1200416789 -1.114702611 -1.1468572675
| 29> H 4.3283925664 -2.2314027036 0.2583042218
| 30> H 3.8002592882 -1.7270835363 -1.3545143368
| 31> H 5.5271198786 -1.8562707163 -0.9944190332
| 32> H 4.699805226 0.5226764873 -1.0161577374
| 33> H 5.388644448 0.0530249915 0.5681804379
| 34> H 0.7786875854 2.9714010166 -0.0299043635
| 35> H 0.3836914437 2.8581236981 1.7038731358
| 36> H 3.1871978605 3.0204002626 0.4708231967
| 37> H 2.3790540047 4.2964517503 1.3933720441
| 38> H 2.868631824 2.7913188794 2.1986170706
| 39> H 0.2680991144 -2.5163905567 -1.8697608729
| 40> H 0.0792281338 -0.727480013 -1.8512576527
| 41> H -2.6755853316 -0.5972859647 3.0085270782
| 42> H -1.9607525133 -1.9111162689 2.0367726724
| 43> H 0.2861812204 -1.3937593403 2.9780666906
| 44> H -0.400218848 -0.0691291103 3.922765133
| 45> H -0.8624246538 -1.7427557958 4.2813048654
| 46> H -5.450862524 0.6985656312 -0.0108006154
| 47> H -4.2716557137 0.8746633181 -1.3382725555
| 48> H -5.9633059078 -0.9271351219 -1.8036498436
| 49> H -4.3244527905 -1.5885380766 -1.7167703065
| 50> H -5.4273990641 -1.7866550176 -0.3507789053
| 51> *
| 52>
| 53>                          ****END OF INPUT****

CARTESIAN COORDINATES (ANGSTROEM)
---------------------------------
  C      4.558694   -1.586294   -0.585699
  C      4.588357   -0.135816   -0.148594
  O      3.396710    0.245797    0.559111
  P      1.975439    0.358650   -0.147642
  S      2.034428    1.061593   -1.981360
  O      1.165233    1.185092    0.933296
  C      1.133789    2.623723    0.946555
  C      2.483953    3.222146    1.277897
  S      1.161184   -1.557650    0.137006
  C      0.001537   -1.650346   -1.269691
  S     -1.709021   -1.911252   -0.753550
  P     -2.066642    0.015651    0.066134
  S     -1.480879    1.511832   -1.051103
  O     -1.416540    0.024172    1.499362
  C     -1.765059   -0.949915    2.521178
  C     -0.606454   -1.044400    3.491132
  O     -3.615648    0.002382    0.420985
  C     -4.649827    0.202121   -0.561519
  C     -5.120042   -1.114703   -1.146857
  H      4.328393   -2.231403    0.258304
  H      3.800259   -1.727084   -1.354514
  H      5.527120   -1.856271   -0.994419
  H      4.699805    0.522676   -1.016158
  H      5.388644    0.053025    0.568180
  H      0.778688    2.971401   -0.029904
  H      0.383691    2.858124    1.703873
  H      3.187198    3.020400    0.470823
  H      2.379054    4.296452    1.393372
  H      2.868632    2.791319    2.198617
  H      0.268099   -2.516391   -1.869761
  H      0.079228   -0.727480   -1.851258
  H     -2.675585   -0.597286    3.008527
  H     -1.960753   -1.911116    2.036773
  H      0.286181   -1.393759    2.978067
  H     -0.400219   -0.069129    3.922765
  H     -0.862425   -1.742756    4.281305
  H     -5.450863    0.698566   -0.010801
  H     -4.271656    0.874663   -1.338273
  H     -5.963306   -0.927135   -1.803650
  H     -4.324453   -1.588538   -1.716770
  H     -5.427399   -1.786655   -0.350779

 Total Charge           Charge          ....    0
 Multiplicity           Mult            ....    1
 Number of Electrons    NEL             ....  202
 Basis Dimension        Dim             ....  539

ORBITAL ENERGIES
----------------

  NO   OCC          E(Eh)            E(eV)
   0   2.0000     -88.579322     -2410.3659
   1   2.0000     -88.576504     -2410.2892
   2   2.0000     -88.525257     -2408.8947
   3   2.0000     -88.524160     -2408.8649
   4   2.0000     -76.917550     -2093.0329
   5   2.0000     -76.916712     -2093.0101
   6   2.0000     -18.994992      -516.8800
   7   2.0000     -18.992979      -516.8252
   8   2.0000     -18.992190      -516.8038
   9   2.0000     -18.988241      -516.6963
  10   2.0000     -10.104927      -274.9690
  11   2.0000     -10.091186      -274.5951
  12   2.0000     -10.089950      -274.5615
  13   2.0000     -10.087968      -274.5076
  14   2.0000     -10.085698      -274.4458
  15   2.0000     -10.018827      -272.6261
  16   2.0000     -10.018501      -272.6173
  17   2.0000     -10.017234      -272.5828
  18   2.0000     -10.017214      -272.5823
  19   2.0000      -7.873804      -214.2571
  20   2.0000      -7.871256      -214.1878
  21   2.0000      -7.820237      -212.7995
  22   2.0000      -7.819305      -212.7741
  23   2.0000      -6.596084      -179.4886
  24   2.0000      -6.595213      -179.4649
  25   2.0000      -5.820657      -158.3881
  26   2.0000      -5.818100      -158.3185
  27   2.0000      -5.817413      -158.2998
  28   2.0000      -5.815174      -158.2389
  29   2.0000      -5.811139      -158.1291
  30   2.0000      -5.808249      -158.0505
  31   2.0000      -5.767815      -156.9502
  32   2.0000      -5.766981      -156.9275
  33   2.0000      -5.760733      -156.7575
  34   2.0000      -5.760058      -156.7391
  35   2.0000      -5.759425      -156.7219
  36   2.0000      -5.759372      -156.7205
  37   2.0000      -4.741902      -129.0337
  38   2.0000      -4.741070      -129.0111
  39   2.0000      -4.740483      -128.9951
  40   2.0000      -4.740019      -128.9825
  41   2.0000      -4.739507      -128.9686
  42   2.0000      -4.739309      -128.9631
  43   2.0000      -1.053389       -28.6642
  44   2.0000      -1.049556       -28.5599
  45   2.0000      -1.011198       -27.5161
  46   2.0000      -1.009093       -27.4588
  47   2.0000      -0.801277       -21.8039
  48   2.0000      -0.755873       -20.5683
  49   2.0000      -0.744244       -20.2519
  50   2.0000      -0.725111       -19.7313
  51   2.0000      -0.722067       -19.6484
  52   2.0000      -0.710623       -19.3370
  53   2.0000      -0.688350       -18.7309
  54   2.0000      -0.669854       -18.2277
  55   2.0000      -0.632217       -17.2035
  56   2.0000      -0.616249       -16.7690
  57   2.0000      -0.598260       -16.2795
  58   2.0000      -0.597265       -16.2524
  59   2.0000      -0.589868       -16.0511
  60   2.0000      -0.527401       -14.3513
  61   2.0000      -0.512429       -13.9439
  62   2.0000      -0.495641       -13.4871
  63   2.0000      -0.486477       -13.2377
  64   2.0000      -0.470638       -12.8067
  65   2.0000      -0.466215       -12.6864
  66   2.0000      -0.451790       -12.2938
  67   2.0000      -0.446894       -12.1606
  68   2.0000      -0.444806       -12.1038
  69   2.0000      -0.430512       -11.7148
  70   2.0000      -0.422686       -11.5019
  71   2.0000      -0.408861       -11.1257
  72   2.0000      -0.405249       -11.0274
  73   2.0000      -0.401638       -10.9291
  74   2.0000      -0.394887       -10.7454
  75   2.0000      -0.389266       -10.5925
  76   2.0000      -0.374979       -10.2037
  77   2.0000      -0.366671        -9.9776
  78   2.0000      -0.363632        -9.8949
  79   2.0000      -0.359410        -9.7800
  80   2.0000      -0.355096        -9.6627
  81   2.0000      -0.352794        -9.6000
  82   2.0000      -0.348120        -9.4728
  83   2.0000      -0.345841        -9.4108
  84   2.0000      -0.343808        -9.3555
  85   2.0000      -0.326726        -8.8907
  86   2.0000      -0.320161        -8.7120
  87   2.0000      -0.315805        -8.5935
  88   2.0000      -0.303451        -8.2573
  89   2.0000      -0.301710        -8.2100
  90   2.0000      -0.294721        -8.0198
  91   2.0000      -0.285621        -7.7721
  92   2.0000      -0.282061        -7.6753
  93   2.0000      -0.280057        -7.6207
  94   2.0000      -0.274182        -7.4609
  95   2.0000      -0.253054        -6.8860
  96   2.0000      -0.238726        -6.4961
  97   2.0000      -0.237418        -6.4605
  98   2.0000      -0.226512        -6.1637
  99   2.0000      -0.213845        -5.8190
 100   2.0000      -0.210159        -5.7187
 101   0.0000      -0.045913        -1.2493
 102   0.0000      -0.036724        -0.9993
 103   0.0000      -0.012915        -0.3514
 104   0.0000       0.009092         0.2474
 105   0.0000       0.014570         0.3965

MULLIKEN ATOMIC CHARGES
-----------------------
   0 C :   -0.479686
   1 C :   -0.157348
   2 O :   -0.326196
   3 P :    0.686636
   4 S :   -0.518495
   5 O :   -0.285520
   6 C :   -0.160677
   7 C :   -0.491935
   8 S :   -0.124893
   9 C :   -0.224409
  10 S :   -0.173020
  11 P :    0.688485
  12 S :   -0.475925
  13 O :   -0.288696
  14 C :   -0.092785
  15 C :   -0.507207
  16 O :   -0.322284
  17 C :   -0.161557
  18 C :   -0.473633
  19 H :    0.166043
  20 H :    0.171929
  21 H :    0.171120
  22 H :    0.176966
  23 H :    0.173773
  24 H :    0.181264
  25 H :    0.178072
  26 H :    0.168315
  27 H :    0.170703
  28 H :    0.169393
  29 H :    0.238711
  30 H :    0.212147
  31 H :    0.176234
  32 H :    0.172483
  33 H :    0.170180
  34 H :    0.169781
  35 H :    0.170119
  36 H :    0.174317
  37 H :    0.173901
  38 H :    0.171503
  39 H :    0.160001
  40 H :    0.172189
Sum of atomic charges:    0.0000000

LOEWDIN ATOMIC CHARGES
----------------------
   0 C :   -0.410780
   1 C :    0.023211
   2 O :   -0.680063
   3 P :    0.378086
   4 S :   -0.160539
   5 O :   -0.686497
   6 C :    0.012630
   7 C :   -0.402924
   8 S :    0.176915
   9 C :   -0.408288
  10 S :    0.129144
  11 P :    0.377125
  12 S :   -0.114556
  13 O :   -0.672831
  14 C :    0.028947
  15 C :   -0.394975
  16 O :   -0.672421
  17 C :    0.026716
  18 C :   -0.404332
  19 H :    0.163128
  20 H :    0.161120
  21 H :    0.167154
  22 H :    0.181087
  23 H :    0.190002
  24 H :    0.183299
  25 H :    0.190209
  26 H :    0.162895
  27 H :    0.167945
  28 H :    0.164150
  29 H :    0.196956
  30 H :    0.199773
  31 H :    0.184142
  32 H :    0.182044
  33 H :    0.163108
  34 H :    0.164191
  35 H :    0.169008
  36 H :    0.189943
  37 H :    0.181856
  38 H :    0.168767
  39 H :    0.160641
  40 H :    0.164016

  Mayer bond orders larger than 0.100000
B(  0-C ,  1-C ) :   0.9102 B(  0-C , 19-H ) :   0.9653 B(  0-C , 20-H ) :   0.9659
B(  0-C , 21-H ) :   0.9543 B(  1-C ,  2-O ) :   0.8092 B(  1-C , 22-H ) :   0.9654
B(  1-C , 23-H ) :   0.9495 B(  2-O ,  3-P ) :   1.0616 B(  3-P ,  4-S ) :   1.7019
B(  3-P ,  5-O ) :   1.1557 B(  3-P ,  8-S ) :   1.1531 B(  5-O ,  6-C ) :   0.7849
B(  6-C ,  7-C ) :   0.9043 B(  6-C , 24-H ) :   0.9582 B(  6-C , 25-H ) :   0.9530
B(  7-C , 26-H ) :   0.9620 B(  7-C , 27-H ) :   0.9548 B(  7-C , 28-H ) :   0.9722
B(  8-S ,  9-C ) :   0.8804 B(  9-C , 10-S ) :   0.9060 B(  9-C , 29-H ) :   0.8980
B(  9-C , 30-H ) :   0.9107 B( 10-S , 11-P ) :   1.0152 B( 11-P , 12-S ) :   1.8174
B( 11-P , 13-O ) :   1.1430 B( 11-P , 16-O ) :   1.0537 B( 13-O , 14-C ) :   0.7387
B( 14-C , 15-C ) :   0.9400 B( 14-C , 31-H ) :   0.9339 B( 14-C , 32-H ) :   0.9470
B( 15-C , 33-H ) :   0.9666 B( 15-C , 34-H ) :   0.9686 B( 15-C , 35-H ) :   0.9578
B( 16-O , 17-C ) :   0.7812 B( 17-C , 18-C ) :   0.9401 B( 17-C , 36-H ) :   0.9524
B( 17-C , 37-H ) :   0.9591 B( 18-C , 38-H ) :   0.9583 B( 18-C , 39-H ) :   0.9560
B( 18-C , 40-H ) :   0.9716

Dispersion correction           -0.022329543
FINAL SINGLE POINT ENERGY     -2932.468519997368

DIPOLE MOMENT
-------------

Method             : SCF
Type of density    : Electron Density
Multiplicity       :   1
Irrep              :   0
Energy             : -2932.4928810365472600 Eh
Relativity type    :
Basis              : AO
                                X                 Y                 Z
Electronic contribution:     -2.951043520      -0.186384341      -8.699708583
Nuclear contribution   :      2.549572358      -1.214200183      10.065093444
                        -----------------------------------------
Total Dipole Moment    :     -0.401471163      -1.400584523       1.365384860
                        -----------------------------------------
Magnitude (a.u.)       :      1.996770372
Magnitude (Debye)      :      5.075386938

Rotational constants in cm-1:             0.012804             0.005289             0.005160
Rotational constants in MHz :           383.843758           158.553768           154.695376

                             ****ORCA TERMINATED NORMALLY****
TOTAL RUN TIME: 0 days 0 hours 1 minutes 51 seconds 106 msec
