                         Program Version 6.0.1  -  RELEASE   -
|  1> ! r2scan-3c def2/J RI DEFGRID2 scfconv6 printgap
|  2> %output
|  3>     printlevel normal
|  4> end
|  5> * xyz 0 1
|  6> C 5.2889988741 -2.3274090827 -0.9174082123
|  7> C 4.6525265862 -1.1802525299 -0.1486095533
|  8> O 3.2263464156 -1.3548620426 -0.0431298563
|  9> C 2.4707874663 -0.9412125459 -1.0373924072
| 10> O 2.8814560536 -0.3989959854 -2.0405509329
| 11> C 1.0043588244 -1.2378910871 -0.779467035
| 12> C 0.1620721221 -0.0848415546 -1.3084334245
| 13> H 0.4744781309 0.139502867 -2.3358413421
| 14> C 0.3195793942 1.192045887 -0.5040070296
| 15> O -0.5795752638 2.0031540416 -0.3913880224
| 16> O 1.5227403461 1.3131791049 -0.0146213346
| 17> C 1.8439153588 2.4481621456 0.818605784
| 18> C 2.2861854428 1.9479514945 2.182293321
| 19> S -1.609192128 -0.4761932759 -1.4284358698
| 20> P -2.269046246 0.0288395805 0.5295723017
| 21> S -0.9816942747 -0.096522351 1.9962880132
| 22> O -3.0668584899 1.3897331119 0.5237453708
| 23> C -4.0108287535 1.7402980436 -0.5061012708
| 24> O -3.4986198033 -0.9904931545 0.6799119439
| 25> C -3.2882980061 -2.4003674219 0.8127018133
| 26> H 4.935168505 -2.329846035 -1.9457780797
| 27> H 6.3670934483 -2.205344017 -0.9163836945
| 28> H 5.0348776208 -3.2756060348 -0.451894886
| 29> H 4.8499924277 -0.2254145289 -0.644038421
| 30> H 4.9999951726 -1.1543023028 0.8842812866
| 31> H 0.8509993294 -1.3953753428 0.2888134006
| 32> H 0.7414279848 -2.1490814351 -1.3205058824
| 33> H 2.6489244043 2.9780323577 0.304929942
| 34> H 0.9596933611 3.0871831353 0.8906115077
| 35> H 3.1416044683 1.2872394772 2.0776901666
| 36> H 2.5560124532 2.7952746 2.8033998624
| 37> H 1.4770642416 1.3979075614 2.6584207202
| 38> H -3.4759536491 1.9415786197 -1.4340074695
| 39> H -4.4995424852 2.6413268002 -0.1449682439
| 40> H -4.7304381409 0.9357129264 -0.6467316225
| 41> H -2.9740328778 -2.8190539911 -0.142899306
| 42> H -4.2479218247 -2.811187134 1.1155622292
| 43> H -2.5328128444 -2.5956592732 1.5753243125
| 44> *
| 45>
| 46>                          ****END OF INPUT****

CARTESIAN COORDINATES (ANGSTROEM)
---------------------------------
  C      5.288999   -2.327409   -0.917408
  C      4.652527   -1.180253   -0.148610
  O      3.226346   -1.354862   -0.043130
  C      2.470787   -0.941213   -1.037392
  O      2.881456   -0.398996   -2.040551
  C      1.004359   -1.237891   -0.779467
  C      0.162072   -0.084842   -1.308433
  H      0.474478    0.139503   -2.335841
  C      0.319579    1.192046   -0.504007
  O     -0.579575    2.003154   -0.391388
  O      1.522740    1.313179   -0.014621
  C      1.843915    2.448162    0.818606
  C      2.286185    1.947951    2.182293
  S     -1.609192   -0.476193   -1.428436
  P     -2.269046    0.028840    0.529572
  S     -0.981694   -0.096522    1.996288
  O     -3.066858    1.389733    0.523745
  C     -4.010829    1.740298   -0.506101
  O     -3.498620   -0.990493    0.679912
  C     -3.288298   -2.400367    0.812702
  H      4.935169   -2.329846   -1.945778
  H      6.367093   -2.205344   -0.916384
  H      5.034878   -3.275606   -0.451895
  H      4.849992   -0.225415   -0.644038
  H      4.999995   -1.154302    0.884281
  H      0.850999   -1.395375    0.288813
  H      0.741428   -2.149081   -1.320506
  H      2.648924    2.978032    0.304930
  H      0.959693    3.087183    0.890612
  H      3.141604    1.287239    2.077690
  H      2.556012    2.795275    2.803400
  H      1.477064    1.397908    2.658421
  H     -3.475954    1.941579   -1.434007
  H     -4.499542    2.641327   -0.144968
  H     -4.730438    0.935713   -0.646732
  H     -2.974033   -2.819054   -0.142899
  H     -4.247922   -2.811187    1.115562
  H     -2.532813   -2.595659    1.575324

 Total Charge           Charge          ....    0
 Multiplicity           Mult            ....    1
 Number of Electrons    NEL             ....  174
 Basis Dimension        Dim             ....  510

ORBITAL ENERGIES
----------------

  NO   OCC          E(Eh)            E(eV)
   0   2.0000     -88.575160     -2410.2526
   1   2.0000     -88.515235     -2408.6220
   2   2.0000     -76.912136     -2092.8856
   3   2.0000     -19.008433      -517.2457
   4   2.0000     -19.002581      -517.0865
   5   2.0000     -18.986829      -516.6579
   6   2.0000     -18.985640      -516.6255
   7   2.0000     -18.933398      -515.2040
   8   2.0000     -18.932492      -515.1793
   9   2.0000     -10.166539      -276.6456
  10   2.0000     -10.159391      -276.4511
  11   2.0000     -10.096744      -274.7464
  12   2.0000     -10.096104      -274.7290
  13   2.0000     -10.093442      -274.6565
  14   2.0000     -10.090049      -274.5642
  15   2.0000     -10.088785      -274.5298
  16   2.0000     -10.052868      -273.5524
  17   2.0000     -10.032236      -272.9910
  18   2.0000     -10.026789      -272.8428
  19   2.0000      -7.869423      -214.1379
  20   2.0000      -7.810437      -212.5328
  21   2.0000      -6.590089      -179.3254
  22   2.0000      -5.816468      -158.2741
  23   2.0000      -5.813203      -158.1853
  24   2.0000      -5.806459      -158.0018
  25   2.0000      -5.758265      -156.6904
  26   2.0000      -5.750694      -156.4843
  27   2.0000      -5.750196      -156.4708
  28   2.0000      -4.735732      -128.8658
  29   2.0000      -4.735253      -128.8528
  30   2.0000      -4.733618      -128.8083
  31   2.0000      -1.086643       -29.5691
  32   2.0000      -1.078516       -29.3479
  33   2.0000      -1.044862       -28.4321
  34   2.0000      -1.002792       -27.2873
  35   2.0000      -0.987030       -26.8584
  36   2.0000      -0.982830       -26.7442
  37   2.0000      -0.809728       -22.0338
  38   2.0000      -0.753652       -20.5079
  39   2.0000      -0.748306       -20.3624
  40   2.0000      -0.728247       -19.8166
  41   2.0000      -0.697170       -18.9710
  42   2.0000      -0.671314       -18.2674
  43   2.0000      -0.658492       -17.9185
  44   2.0000      -0.651087       -17.7170
  45   2.0000      -0.628387       -17.0993
  46   2.0000      -0.596173       -16.2227
  47   2.0000      -0.540941       -14.7197
  48   2.0000      -0.529603       -14.4112
  49   2.0000      -0.528119       -14.3709
  50   2.0000      -0.497367       -13.5341
  51   2.0000      -0.488722       -13.2988
  52   2.0000      -0.486531       -13.2392
  53   2.0000      -0.463592       -12.6150
  54   2.0000      -0.457328       -12.4445
  55   2.0000      -0.456611       -12.4250
  56   2.0000      -0.446851       -12.1594
  57   2.0000      -0.441779       -12.0214
  58   2.0000      -0.430248       -11.7077
  59   2.0000      -0.427282       -11.6269
  60   2.0000      -0.417608       -11.3637
  61   2.0000      -0.413587       -11.2543
  62   2.0000      -0.405470       -11.0334
  63   2.0000      -0.405033       -11.0215
  64   2.0000      -0.396081       -10.7779
  65   2.0000      -0.383372       -10.4321
  66   2.0000      -0.375423       -10.2158
  67   2.0000      -0.369443       -10.0531
  68   2.0000      -0.361913        -9.8481
  69   2.0000      -0.354354        -9.6424
  70   2.0000      -0.348657        -9.4874
  71   2.0000      -0.343634        -9.3508
  72   2.0000      -0.333016        -9.0618
  73   2.0000      -0.328385        -8.9358
  74   2.0000      -0.317332        -8.6350
  75   2.0000      -0.315013        -8.5719
  76   2.0000      -0.309731        -8.4282
  77   2.0000      -0.306605        -8.3431
  78   2.0000      -0.286859        -7.8058
  79   2.0000      -0.278699        -7.5838
  80   2.0000      -0.273702        -7.4478
  81   2.0000      -0.271312        -7.3828
  82   2.0000      -0.252605        -6.8737
  83   2.0000      -0.246695        -6.7129
  84   2.0000      -0.231785        -6.3072
  85   2.0000      -0.213242        -5.8026
  86   2.0000      -0.212214        -5.7746
  87   0.0000      -0.044930        -1.2226
  88   0.0000      -0.027649        -0.7524
  89   0.0000      -0.011094        -0.3019
  90   0.0000       0.007493         0.2039
  91   0.0000       0.019791         0.5386

MULLIKEN ATOMIC CHARGES
-----------------------
   0 C :   -0.474492
   1 C :   -0.137971
   2 O :   -0.160579
   3 C :    0.340854
   4 O :   -0.416892
   5 C :   -0.446029
   6 C :    0.059546
   7 H :    0.226470
   8 C :    0.219208
   9 O :   -0.395246
  10 O :   -0.066765
  11 C :   -0.172216
  12 C :   -0.449776
  13 S :   -0.179056
  14 P :    0.762729
  15 S :   -0.456234
  16 O :   -0.290873
  17 C :   -0.299004
  18 O :   -0.352876
  19 C :   -0.299453
  20 H :    0.174681
  21 H :    0.148262
  22 H :    0.153663
  23 H :    0.168248
  24 H :    0.150426
  25 H :    0.219730
  26 H :    0.186485
  27 H :    0.147988
  28 H :    0.192284
  29 H :    0.149102
  30 H :    0.146893
  31 H :    0.175702
  32 H :    0.176150
  33 H :    0.155069
  34 H :    0.162359
  35 H :    0.156014
  36 H :    0.151901
  37 H :    0.173698
Sum of atomic charges:   -0.0000000

LOEWDIN ATOMIC CHARGES
----------------------
   0 C :   -0.389263
   1 C :    0.027756
   2 O :   -0.576499
   3 C :    0.355090
   4 O :   -0.439279
   5 C :   -0.212415
   6 C :   -0.197754
   7 H :    0.218362
   8 C :    0.348399
   9 O :   -0.460032
  10 O :   -0.571247
  11 C :    0.040897
  12 C :   -0.386978
  13 S :    0.202553
  14 P :    0.406724
  15 S :   -0.077648
  16 O :   -0.638561
  17 C :   -0.050096
  18 O :   -0.686983
  19 C :   -0.063471
  20 H :    0.165884
  21 H :    0.159654
  22 H :    0.158072
  23 H :    0.187935
  24 H :    0.178975
  25 H :    0.202028
  26 H :    0.187042
  27 H :    0.178024
  28 H :    0.199169
  29 H :    0.156698
  30 H :    0.158846
  31 H :    0.169139
  32 H :    0.176782
  33 H :    0.181110
  34 H :    0.170709
  35 H :    0.167688
  36 H :    0.176897
  37 H :    0.175793

  Mayer bond orders larger than 0.100000
B(  0-C ,  1-C ) :   0.9372 B(  0-C , 20-H ) :   0.9715 B(  0-C , 21-H ) :   0.9647
B(  0-C , 22-H ) :   0.9732 B(  1-C ,  2-O ) :   0.8054 B(  1-C , 23-H ) :   0.9701
B(  1-C , 24-H ) :   0.9601 B(  2-O ,  3-C ) :   1.0858 B(  3-C ,  4-O ) :   1.8624
B(  3-C ,  5-C ) :   0.8663 B(  3-C , 10-O ) :   0.1046 B(  4-O ,  6-C ) :   0.1023
B(  5-C ,  6-C ) :   0.8805 B(  5-C , 25-H ) :   0.9749 B(  5-C , 26-H ) :   0.9457
B(  6-C ,  7-H ) :   0.8924 B(  6-C ,  8-C ) :   0.9610 B(  6-C , 13-S ) :   0.8293
B(  8-C ,  9-O ) :   1.7963 B(  8-C , 10-O ) :   1.1585 B( 10-O , 11-C ) :   0.7507
B( 11-C , 12-C ) :   0.9422 B( 11-C , 27-H ) :   0.9561 B( 11-C , 28-H ) :   0.9720
B( 12-C , 29-H ) :   0.9710 B( 12-C , 30-H ) :   0.9669 B( 12-C , 31-H ) :   0.9617
B( 13-S , 14-P ) :   1.0093 B( 14-P , 15-S ) :   1.7557 B( 14-P , 16-O ) :   1.2061
B( 14-P , 18-O ) :   1.0138 B( 16-O , 17-C ) :   0.7961 B( 17-C , 32-H ) :   0.9565
B( 17-C , 33-H ) :   0.9647 B( 17-C , 34-H ) :   0.9642 B( 18-O , 19-C ) :   0.8357
B( 19-C , 35-H ) :   0.9564 B( 19-C , 36-H ) :   0.9685 B( 19-C , 37-H ) :   0.9591

Dispersion correction           -0.017684553
FINAL SINGLE POINT ENERGY     -1981.450879244170

DIPOLE MOMENT
-------------

Method             : SCF
Type of density    : Electron Density
Multiplicity       :   1
Irrep              :   0
Energy             : -1981.4707457347521995 Eh
Relativity type    :
Basis              : AO
                                X                 Y                 Z
Electronic contribution:    -17.233097378       2.974009354      -2.135095812
Nuclear contribution   :     17.661319069      -3.504950313       1.945580550
                        -----------------------------------------
Total Dipole Moment    :      0.428221691      -0.530940958      -0.189515262
                        -----------------------------------------
Magnitude (a.u.)       :      0.707946433
Magnitude (Debye)      :      1.799456829

Rotational constants in cm-1:             0.016539             0.006087             0.005583
Rotational constants in MHz :           495.814369           182.488266           167.372915

                             ****ORCA TERMINATED NORMALLY****
TOTAL RUN TIME: 0 days 0 hours 1 minutes 15 seconds 84 msec
