                         Program Version 6.0.1  -  RELEASE   -
|  1> ! r2scan-3c def2/J RI DEFGRID2 scfconv6 printgap
|  2> %output
|  3>     printlevel normal
|  4> end
|  5> %cpcm
|  6>     smd true
|  7>     smdsolvent "water"
|  8> end
|  9> * xyz 0 1
| 10> C 5.2889988741 -2.3274090827 -0.9174082123
| 11> C 4.6525265862 -1.1802525299 -0.1486095533
| 12> O 3.2263464156 -1.3548620426 -0.0431298563
| 13> C 2.4707874663 -0.9412125459 -1.0373924072
| 14> O 2.8814560536 -0.3989959854 -2.0405509329
| 15> C 1.0043588244 -1.2378910871 -0.779467035
| 16> C 0.1620721221 -0.0848415546 -1.3084334245
| 17> H 0.4744781309 0.139502867 -2.3358413421
| 18> C 0.3195793942 1.192045887 -0.5040070296
| 19> O -0.5795752638 2.0031540416 -0.3913880224
| 20> O 1.5227403461 1.3131791049 -0.0146213346
| 21> C 1.8439153588 2.4481621456 0.818605784
| 22> C 2.2861854428 1.9479514945 2.182293321
| 23> S -1.609192128 -0.4761932759 -1.4284358698
| 24> P -2.269046246 0.0288395805 0.5295723017
| 25> S -0.9816942747 -0.096522351 1.9962880132
| 26> O -3.0668584899 1.3897331119 0.5237453708
| 27> C -4.0108287535 1.7402980436 -0.5061012708
| 28> O -3.4986198033 -0.9904931545 0.6799119439
| 29> C -3.2882980061 -2.4003674219 0.8127018133
| 30> H 4.935168505 -2.329846035 -1.9457780797
| 31> H 6.3670934483 -2.205344017 -0.9163836945
| 32> H 5.0348776208 -3.2756060348 -0.451894886
| 33> H 4.8499924277 -0.2254145289 -0.644038421
| 34> H 4.9999951726 -1.1543023028 0.8842812866
| 35> H 0.8509993294 -1.3953753428 0.2888134006
| 36> H 0.7414279848 -2.1490814351 -1.3205058824
| 37> H 2.6489244043 2.9780323577 0.304929942
| 38> H 0.9596933611 3.0871831353 0.8906115077
| 39> H 3.1416044683 1.2872394772 2.0776901666
| 40> H 2.5560124532 2.7952746 2.8033998624
| 41> H 1.4770642416 1.3979075614 2.6584207202
| 42> H -3.4759536491 1.9415786197 -1.4340074695
| 43> H -4.4995424852 2.6413268002 -0.1449682439
| 44> H -4.7304381409 0.9357129264 -0.6467316225
| 45> H -2.9740328778 -2.8190539911 -0.142899306
| 46> H -4.2479218247 -2.811187134 1.1155622292
| 47> H -2.5328128444 -2.5956592732 1.5753243125
| 48> *
| 49>
| 50>                          ****END OF INPUT****

CARTESIAN COORDINATES (ANGSTROEM)
---------------------------------
  C      5.288999   -2.327409   -0.917408
  C      4.652527   -1.180253   -0.148610
  O      3.226346   -1.354862   -0.043130
  C      2.470787   -0.941213   -1.037392
  O      2.881456   -0.398996   -2.040551
  C      1.004359   -1.237891   -0.779467
  C      0.162072   -0.084842   -1.308433
  H      0.474478    0.139503   -2.335841
  C      0.319579    1.192046   -0.504007
  O     -0.579575    2.003154   -0.391388
  O      1.522740    1.313179   -0.014621
  C      1.843915    2.448162    0.818606
  C      2.286185    1.947951    2.182293
  S     -1.609192   -0.476193   -1.428436
  P     -2.269046    0.028840    0.529572
  S     -0.981694   -0.096522    1.996288
  O     -3.066858    1.389733    0.523745
  C     -4.010829    1.740298   -0.506101
  O     -3.498620   -0.990493    0.679912
  C     -3.288298   -2.400367    0.812702
  H      4.935169   -2.329846   -1.945778
  H      6.367093   -2.205344   -0.916384
  H      5.034878   -3.275606   -0.451895
  H      4.849992   -0.225415   -0.644038
  H      4.999995   -1.154302    0.884281
  H      0.850999   -1.395375    0.288813
  H      0.741428   -2.149081   -1.320506
  H      2.648924    2.978032    0.304930
  H      0.959693    3.087183    0.890612
  H      3.141604    1.287239    2.077690
  H      2.556012    2.795275    2.803400
  H      1.477064    1.397908    2.658421
  H     -3.475954    1.941579   -1.434007
  H     -4.499542    2.641327   -0.144968
  H     -4.730438    0.935713   -0.646732
  H     -2.974033   -2.819054   -0.142899
  H     -4.247922   -2.811187    1.115562
  H     -2.532813   -2.595659    1.575324

 Total Charge           Charge          ....    0
 Multiplicity           Mult            ....    1
 Number of Electrons    NEL             ....  174
 Basis Dimension        Dim             ....  510

ORBITAL ENERGIES
----------------

  NO   OCC          E(Eh)            E(eV)
   0   2.0000     -88.581082     -2410.4138
   1   2.0000     -88.528208     -2408.9750
   2   2.0000     -76.921750     -2093.1472
   3   2.0000     -19.015897      -517.4489
   4   2.0000     -19.007539      -517.2214
   5   2.0000     -18.996432      -516.9192
   6   2.0000     -18.992368      -516.8086
   7   2.0000     -18.948589      -515.6173
   8   2.0000     -18.946027      -515.5476
   9   2.0000     -10.178543      -276.9722
  10   2.0000     -10.169728      -276.7324
  11   2.0000     -10.099325      -274.8166
  12   2.0000     -10.088574      -274.5241
  13   2.0000     -10.085666      -274.4449
  14   2.0000     -10.084624      -274.4166
  15   2.0000     -10.080696      -274.3097
  16   2.0000     -10.052852      -273.5520
  17   2.0000     -10.019695      -272.6498
  18   2.0000     -10.019098      -272.6335
  19   2.0000      -7.875258      -214.2967
  20   2.0000      -7.823642      -212.8921
  21   2.0000      -6.599865      -179.5915
  22   2.0000      -5.822341      -158.4339
  23   2.0000      -5.819071      -158.3450
  24   2.0000      -5.812233      -158.1589
  25   2.0000      -5.771375      -157.0471
  26   2.0000      -5.763942      -156.8448
  27   2.0000      -5.763405      -156.8302
  28   2.0000      -4.745484      -129.1312
  29   2.0000      -4.744964      -129.1170
  30   2.0000      -4.743479      -129.0766
  31   2.0000      -1.095205       -29.8021
  32   2.0000      -1.085004       -29.5245
  33   2.0000      -1.053124       -28.6570
  34   2.0000      -1.010051       -27.4849
  35   2.0000      -1.000633       -27.2286
  36   2.0000      -0.994528       -27.0625
  37   2.0000      -0.813352       -22.1324
  38   2.0000      -0.750371       -20.4186
  39   2.0000      -0.746923       -20.3248
  40   2.0000      -0.729889       -19.8613
  41   2.0000      -0.697761       -18.9870
  42   2.0000      -0.669029       -18.2052
  43   2.0000      -0.661969       -18.0131
  44   2.0000      -0.653479       -17.7821
  45   2.0000      -0.624269       -16.9872
  46   2.0000      -0.595584       -16.2067
  47   2.0000      -0.541763       -14.7421
  48   2.0000      -0.530677       -14.4405
  49   2.0000      -0.526005       -14.3133
  50   2.0000      -0.501374       -13.6431
  51   2.0000      -0.491623       -13.3777
  52   2.0000      -0.489714       -13.3258
  53   2.0000      -0.471477       -12.8295
  54   2.0000      -0.464125       -12.6295
  55   2.0000      -0.459679       -12.5085
  56   2.0000      -0.450027       -12.2458
  57   2.0000      -0.447146       -12.1675
  58   2.0000      -0.437495       -11.9048
  59   2.0000      -0.427086       -11.6216
  60   2.0000      -0.414995       -11.2926
  61   2.0000      -0.411344       -11.1932
  62   2.0000      -0.407662       -11.0930
  63   2.0000      -0.406033       -11.0487
  64   2.0000      -0.393265       -10.7013
  65   2.0000      -0.381215       -10.3734
  66   2.0000      -0.373060       -10.1515
  67   2.0000      -0.367403        -9.9975
  68   2.0000      -0.362725        -9.8703
  69   2.0000      -0.353978        -9.6322
  70   2.0000      -0.347432        -9.4541
  71   2.0000      -0.342437        -9.3182
  72   2.0000      -0.334714        -9.1080
  73   2.0000      -0.329317        -8.9612
  74   2.0000      -0.319945        -8.7061
  75   2.0000      -0.316040        -8.5999
  76   2.0000      -0.309665        -8.4264
  77   2.0000      -0.307183        -8.3589
  78   2.0000      -0.292840        -7.9686
  79   2.0000      -0.285749        -7.7756
  80   2.0000      -0.279613        -7.6087
  81   2.0000      -0.277667        -7.5557
  82   2.0000      -0.264062        -7.1855
  83   2.0000      -0.260844        -7.0979
  84   2.0000      -0.242511        -6.5991
  85   2.0000      -0.226991        -6.1767
  86   2.0000      -0.224378        -6.1056
  87   0.0000      -0.052424        -1.4265
  88   0.0000      -0.037435        -1.0186
  89   0.0000      -0.019829        -0.5396
  90   0.0000       0.001983         0.0540
  91   0.0000       0.011782         0.3206

MULLIKEN ATOMIC CHARGES
-----------------------
   0 C :   -0.498260
   1 C :   -0.140275
   2 O :   -0.181686
   3 C :    0.374498
   4 O :   -0.486777
   5 C :   -0.455251
   6 C :    0.048414
   7 H :    0.258637
   8 C :    0.242677
   9 O :   -0.448439
  10 O :   -0.084667
  11 C :   -0.163435
  12 C :   -0.488854
  13 S :   -0.176599
  14 P :    0.761202
  15 S :   -0.490814
  16 O :   -0.340683
  17 C :   -0.304524
  18 O :   -0.382798
  19 C :   -0.305014
  20 H :    0.170811
  21 H :    0.171938
  22 H :    0.166863
  23 H :    0.174667
  24 H :    0.177374
  25 H :    0.220338
  26 H :    0.224130
  27 H :    0.177876
  28 H :    0.190651
  29 H :    0.170121
  30 H :    0.172934
  31 H :    0.167332
  32 H :    0.181307
  33 H :    0.182015
  34 H :    0.184842
  35 H :    0.174124
  36 H :    0.179220
  37 H :    0.176101
Sum of atomic charges:    0.0000000

LOEWDIN ATOMIC CHARGES
----------------------
   0 C :   -0.391579
   1 C :    0.034133
   2 O :   -0.581178
   3 C :    0.363793
   4 O :   -0.485896
   5 C :   -0.206673
   6 C :   -0.194467
   7 H :    0.229640
   8 C :    0.353324
   9 O :   -0.504043
  10 O :   -0.573535
  11 C :    0.047062
  12 C :   -0.390330
  13 S :    0.215827
  14 P :    0.401969
  15 S :   -0.105752
  16 O :   -0.670898
  17 C :   -0.044165
  18 O :   -0.699629
  19 C :   -0.057341
  20 H :    0.163106
  21 H :    0.168450
  22 H :    0.162707
  23 H :    0.190654
  24 H :    0.190856
  25 H :    0.201654
  26 H :    0.202958
  27 H :    0.190930
  28 H :    0.198204
  29 H :    0.163123
  30 H :    0.168952
  31 H :    0.163414
  32 H :    0.180157
  33 H :    0.192067
  34 H :    0.181066
  35 H :    0.175749
  36 H :    0.188534
  37 H :    0.177156

  Mayer bond orders larger than 0.100000
B(  0-C ,  1-C ) :   0.9349 B(  0-C , 20-H ) :   0.9688 B(  0-C , 21-H ) :   0.9597
B(  0-C , 22-H ) :   0.9693 B(  1-C ,  2-O ) :   0.7885 B(  1-C , 23-H ) :   0.9641
B(  1-C , 24-H ) :   0.9502 B(  2-O ,  3-C ) :   1.1003 B(  3-C ,  4-O ) :   1.8062
B(  3-C ,  5-C ) :   0.8836 B(  3-C , 10-O ) :   0.1002 B(  5-C ,  6-C ) :   0.8595
B(  5-C , 25-H ) :   0.9777 B(  5-C , 26-H ) :   0.9248 B(  6-C ,  7-H ) :   0.8879
B(  6-C ,  8-C ) :   0.9596 B(  6-C , 13-S ) :   0.8135 B(  8-C ,  9-O ) :   1.7562
B(  8-C , 10-O ) :   1.1722 B( 10-O , 11-C ) :   0.7388 B( 11-C , 12-C ) :   0.9300
B( 11-C , 27-H ) :   0.9451 B( 11-C , 28-H ) :   0.9661 B( 12-C , 29-H ) :   0.9690
B( 12-C , 30-H ) :   0.9605 B( 12-C , 31-H ) :   0.9635 B( 13-S , 14-P ) :   1.0288
B( 14-P , 15-S ) :   1.7575 B( 14-P , 16-O ) :   1.1919 B( 14-P , 18-O ) :   1.0168
B( 16-O , 17-C ) :   0.7907 B( 17-C , 32-H ) :   0.9484 B( 17-C , 33-H ) :   0.9541
B( 17-C , 34-H ) :   0.9541 B( 18-O , 19-C ) :   0.8277 B( 19-C , 35-H ) :   0.9494
B( 19-C , 36-H ) :   0.9583 B( 19-C , 37-H ) :   0.9547

Dispersion correction           -0.017684553
FINAL SINGLE POINT ENERGY     -1981.464669825289

DIPOLE MOMENT
-------------

Method             : SCF
Type of density    : Electron Density
Multiplicity       :   1
Irrep              :   0
Energy             : -1981.4845363158717646 Eh
Relativity type    :
Basis              : AO
                                X                 Y                 Z
Electronic contribution:    -16.993651228       2.504788702      -2.335283227
Nuclear contribution   :     17.661319069      -3.504950313       1.945580550
                        -----------------------------------------
Total Dipole Moment    :      0.667667842      -1.000161610      -0.389702677
                        -----------------------------------------
Magnitude (a.u.)       :      1.264109082
Magnitude (Debye)      :      3.213109936

Rotational constants in cm-1:             0.016539             0.006087             0.005583
Rotational constants in MHz :           495.814369           182.488266           167.372915

                             ****ORCA TERMINATED NORMALLY****
TOTAL RUN TIME: 0 days 0 hours 1 minutes 58 seconds 350 msec
