                         Program Version 6.0.0  -   RELEASE  -
|  1> ! pbe def2-sv(p) def2/J RI DEFGRID1 loosescf d4 GCP(DFT/SV(P)) printgap
|  2> %output
|  3>     printlevel normal
|  4> end
|  5> * xyz 0 1
|  6> C 4.2159013356 -1.3662695197 -2.5103506525
|  7> C 4.8338990025 -1.2073209528 -1.1365529834
|  8> O 3.84860482 -1.222417306 -0.0870463131
|  9> P 2.755122735 -0.0817053663 0.0787827272
| 10> S 3.3663958074 1.7500471505 -0.2259657074
| 11> O 2.2501809606 -0.2808159867 1.5575955493
| 12> C 1.7324051975 -1.5285540575 2.0813362073
| 13> C 2.8187003029 -2.3056102192 2.7959314068
| 14> S 1.1364391448 -0.7353050181 -1.1489058763
| 15> C 0.1780260523 0.7873153974 -1.0016797965
| 16> S -0.6522123432 0.9584616752 0.6053363352
| 17> P -2.669240157 0.6395976023 0.0212298318
| 18> S -2.989375403 0.52945656 -1.9157639044
| 19> O -3.2813603717 1.8591995324 0.8218416333
| 20> C -4.6497636621 1.9267885477 1.2810702815
| 21> C -5.6433868306 1.879937629 0.1387010201
| 22> O -3.2384766375 -0.5964138162 0.8474982304
| 23> C -3.2307895741 -1.9381784693 0.3315758729
| 24> C -1.8463141091 -2.5502455121 0.3829006357
| 25> H 3.5611344722 -2.2337292095 -2.5338972
| 26> H 3.634968675 -0.4808198233 -2.7636999683
| 27> H 5.0048771868 -1.4889341455 -3.2454038562
| 28> H 5.3914600011 -0.2680835121 -1.071380964
| 29> H 5.4876480773 -2.0452108873 -0.8902713508
| 30> H 0.9403878571 -1.221160114 2.7671505077
| 31> H 1.3082770516 -2.1097341148 1.2576378599
| 32> H 2.383816196 -3.1944457967 3.242215978
| 33> H 3.594892316 -2.5985867674 2.0943320343
| 34> H 3.2632519718 -1.69296338 3.5754222038
| 35> H -0.5774631607 0.775154249 -1.7917712963
| 36> H 0.8561961803 1.6338379276 -1.1150122477
| 37> H -4.8184456155 1.10605097 1.9813734714
| 38> H -4.6916186481 2.8809084097 1.8090407096
| 39> H -5.4301322 2.6674565479 -0.5804997829
| 40> H -5.5832366789 0.9205565979 -0.3736671175
| 41> H -6.6479918297 2.0117652108 0.5280794723
| 42> H -3.9312380918 -2.4725665016 0.9749432252
| 43> H -3.6073201208 -1.9186453557 -0.6964364069
| 44> H -1.4387671755 -2.4717561126 1.3875920746
| 45> H -1.9043256746 -3.5955953627 0.0977900781
| 46> H -1.1834655356 -2.0359477468 -0.3124241967
| 47> *
| 48>
| 49>                          ****END OF INPUT****

CARTESIAN COORDINATES (ANGSTROEM)
---------------------------------
  C      4.215901   -1.366270   -2.510351
  C      4.833899   -1.207321   -1.136553
  O      3.848605   -1.222417   -0.087046
  P      2.755123   -0.081705    0.078783
  S      3.366396    1.750047   -0.225966
  O      2.250181   -0.280816    1.557596
  C      1.732405   -1.528554    2.081336
  C      2.818700   -2.305610    2.795931
  S      1.136439   -0.735305   -1.148906
  C      0.178026    0.787315   -1.001680
  S     -0.652212    0.958462    0.605336
  P     -2.669240    0.639598    0.021230
  S     -2.989375    0.529457   -1.915764
  O     -3.281360    1.859200    0.821842
  C     -4.649764    1.926789    1.281070
  C     -5.643387    1.879938    0.138701
  O     -3.238477   -0.596414    0.847498
  C     -3.230790   -1.938178    0.331576
  C     -1.846314   -2.550246    0.382901
  H      3.561134   -2.233729   -2.533897
  H      3.634969   -0.480820   -2.763700
  H      5.004877   -1.488934   -3.245404
  H      5.391460   -0.268084   -1.071381
  H      5.487648   -2.045211   -0.890271
  H      0.940388   -1.221160    2.767151
  H      1.308277   -2.109734    1.257638
  H      2.383816   -3.194446    3.242216
  H      3.594892   -2.598587    2.094332
  H      3.263252   -1.692963    3.575422
  H     -0.577463    0.775154   -1.791771
  H      0.856196    1.633838   -1.115012
  H     -4.818446    1.106051    1.981373
  H     -4.691619    2.880908    1.809041
  H     -5.430132    2.667457   -0.580500
  H     -5.583237    0.920557   -0.373667
  H     -6.647992    2.011765    0.528079
  H     -3.931238   -2.472567    0.974943
  H     -3.607320   -1.918645   -0.696436
  H     -1.438767   -2.471756    1.387592
  H     -1.904326   -3.595595    0.097790
  H     -1.183466   -2.035948   -0.312424

 Total Charge           Charge          ....    0
 Multiplicity           Mult            ....    1
 Number of Electrons    NEL             ....  202
 Basis Dimension        Dim             ....  334

ORBITAL ENERGIES
----------------

  NO   OCC          E(Eh)            E(eV)
   0   2.0000     -88.043459     -2395.7843
   1   2.0000     -88.040446     -2395.7023
   2   2.0000     -87.992880     -2394.4080
   3   2.0000     -87.985656     -2394.2114
   4   2.0000     -76.429032     -2079.7397
   5   2.0000     -76.426893     -2079.6815
   6   2.0000     -18.798328      -511.5285
   7   2.0000     -18.797581      -511.5082
   8   2.0000     -18.792939      -511.3819
   9   2.0000     -18.792934      -511.3817
  10   2.0000      -9.957171      -270.9484
  11   2.0000      -9.956591      -270.9326
  12   2.0000      -9.956105      -270.9194
  13   2.0000      -9.955297      -270.8974
  14   2.0000      -9.947119      -270.6749
  15   2.0000      -9.887386      -269.0495
  16   2.0000      -9.886967      -269.0380
  17   2.0000      -9.886383      -269.0222
  18   2.0000      -9.885984      -269.0113
  19   2.0000      -7.687865      -209.1974
  20   2.0000      -7.685466      -209.1322
  21   2.0000      -7.637713      -207.8327
  22   2.0000      -7.630937      -207.6483
  23   2.0000      -6.426616      -174.8771
  24   2.0000      -6.424595      -174.8221
  25   2.0000      -5.715467      -155.5258
  26   2.0000      -5.713316      -155.4672
  27   2.0000      -5.712477      -155.4444
  28   2.0000      -5.709997      -155.3769
  29   2.0000      -5.705102      -155.2437
  30   2.0000      -5.702448      -155.1715
  31   2.0000      -5.666404      -154.1907
  32   2.0000      -5.659914      -154.0141
  33   2.0000      -5.658580      -153.9778
  34   2.0000      -5.657874      -153.9586
  35   2.0000      -5.651463      -153.7841
  36   2.0000      -5.651096      -153.7741
  37   2.0000      -4.649428      -126.5174
  38   2.0000      -4.648009      -126.4788
  39   2.0000      -4.647555      -126.4664
  40   2.0000      -4.647195      -126.4566
  41   2.0000      -4.646259      -126.4311
  42   2.0000      -4.644756      -126.3902
  43   2.0000      -0.991526       -26.9808
  44   2.0000      -0.990881       -26.9632
  45   2.0000      -0.948629       -25.8135
  46   2.0000      -0.947486       -25.7824
  47   2.0000      -0.761291       -20.7158
  48   2.0000      -0.724093       -19.7036
  49   2.0000      -0.711675       -19.3657
  50   2.0000      -0.692689       -18.8490
  51   2.0000      -0.691910       -18.8278
  52   2.0000      -0.676844       -18.4179
  53   2.0000      -0.653175       -17.7738
  54   2.0000      -0.638344       -17.3702
  55   2.0000      -0.602453       -16.3936
  56   2.0000      -0.594680       -16.1821
  57   2.0000      -0.581076       -15.8119
  58   2.0000      -0.576561       -15.6890
  59   2.0000      -0.556251       -15.1364
  60   2.0000      -0.503969       -13.7137
  61   2.0000      -0.497263       -13.5312
  62   2.0000      -0.477703       -12.9990
  63   2.0000      -0.474699       -12.9172
  64   2.0000      -0.460139       -12.5210
  65   2.0000      -0.450216       -12.2510
  66   2.0000      -0.442295       -12.0354
  67   2.0000      -0.434206       -11.8153
  68   2.0000      -0.431067       -11.7299
  69   2.0000      -0.420648       -11.4464
  70   2.0000      -0.414729       -11.2853
  71   2.0000      -0.407996       -11.1021
  72   2.0000      -0.394662       -10.7393
  73   2.0000      -0.387641       -10.5483
  74   2.0000      -0.376630       -10.2486
  75   2.0000      -0.375923       -10.2294
  76   2.0000      -0.367245        -9.9932
  77   2.0000      -0.359522        -9.7831
  78   2.0000      -0.356923        -9.7124
  79   2.0000      -0.352802        -9.6002
  80   2.0000      -0.350872        -9.5477
  81   2.0000      -0.347112        -9.4454
  82   2.0000      -0.344316        -9.3693
  83   2.0000      -0.340601        -9.2682
  84   2.0000      -0.339028        -9.2254
  85   2.0000      -0.321622        -8.7518
  86   2.0000      -0.313734        -8.5371
  87   2.0000      -0.301171        -8.1953
  88   2.0000      -0.297724        -8.1015
  89   2.0000      -0.293764        -7.9937
  90   2.0000      -0.293047        -7.9742
  91   2.0000      -0.278663        -7.5828
  92   2.0000      -0.272684        -7.4201
  93   2.0000      -0.265764        -7.2318
  94   2.0000      -0.260699        -7.0940
  95   2.0000      -0.232339        -6.3223
  96   2.0000      -0.222367        -6.0509
  97   2.0000      -0.213824        -5.8185
  98   2.0000      -0.205894        -5.6027
  99   2.0000      -0.205186        -5.5834
 100   2.0000      -0.198889        -5.4120
 101   0.0000      -0.040297        -1.0965
 102   0.0000      -0.031094        -0.8461
 103   0.0000      -0.008554        -0.2328
 104   0.0000       0.004177         0.1137
 105   0.0000       0.009725         0.2646

MULLIKEN ATOMIC CHARGES
-----------------------
   0 C :   -0.321376
   1 C :   -0.000775
   2 O :   -0.381435
   3 P :    0.598680
   4 S :   -0.307818
   5 O :   -0.350282
   6 C :   -0.026127
   7 C :   -0.285668
   8 S :   -0.102730
   9 C :   -0.371212
  10 S :   -0.069888
  11 P :    0.625508
  12 S :   -0.327609
  13 O :   -0.369983
  14 C :   -0.001321
  15 C :   -0.315896
  16 O :   -0.381680
  17 C :   -0.001360
  18 C :   -0.329136
  19 H :    0.117571
  20 H :    0.132810
  21 H :    0.115997
  22 H :    0.115128
  23 H :    0.105551
  24 H :    0.114167
  25 H :    0.112449
  26 H :    0.107976
  27 H :    0.120170
  28 H :    0.120497
  29 H :    0.196338
  30 H :    0.197185
  31 H :    0.109406
  32 H :    0.110862
  33 H :    0.127111
  34 H :    0.127229
  35 H :    0.111436
  36 H :    0.102275
  37 H :    0.112256
  38 H :    0.117088
  39 H :    0.111479
  40 H :    0.135125
Sum of atomic charges:   -0.0000000

LOEWDIN ATOMIC CHARGES
----------------------
   0 C :   -0.371529
   1 C :   -0.115753
   2 O :   -0.246855
   3 P :    0.569073
   4 S :   -0.306690
   5 O :   -0.232331
   6 C :   -0.118452
   7 C :   -0.359102
   8 S :    0.085868
   9 C :   -0.492715
  10 S :    0.095143
  11 P :    0.568412
  12 S :   -0.305406
  13 O :   -0.241956
  14 C :   -0.110413
  15 C :   -0.366476
  16 O :   -0.247036
  17 C :   -0.120620
  18 C :   -0.369451
  19 H :    0.123283
  20 H :    0.123551
  21 H :    0.132659
  22 H :    0.114529
  23 H :    0.118662
  24 H :    0.119746
  25 H :    0.104505
  26 H :    0.128796
  27 H :    0.125628
  28 H :    0.129106
  29 H :    0.124959
  30 H :    0.128627
  31 H :    0.113046
  32 H :    0.122374
  33 H :    0.131283
  34 H :    0.121621
  35 H :    0.129960
  36 H :    0.117009
  37 H :    0.109071
  38 H :    0.123567
  39 H :    0.130912
  40 H :    0.113397

  Mayer bond orders larger than 0.100000
B(  0-C ,  1-C ) :   1.1661 B(  0-C , 19-H ) :   0.9436 B(  0-C , 20-H ) :   0.9341
B(  0-C , 21-H ) :   0.9369 B(  1-C ,  2-O ) :   0.9035 B(  1-C , 22-H ) :   0.9188
B(  1-C , 23-H ) :   0.9340 B(  2-O ,  3-P ) :   1.0870 B(  3-P ,  4-S ) :   1.6419
B(  3-P ,  5-O ) :   1.1437 B(  3-P ,  8-S ) :   0.9490 B(  4-S ,  8-S ) :   0.1067
B(  5-O ,  6-C ) :   0.8911 B(  6-C ,  7-C ) :   1.1608 B(  6-C , 24-H ) :   0.9326
B(  6-C , 25-H ) :   0.9073 B(  7-C , 26-H ) :   0.9402 B(  7-C , 27-H ) :   0.9416
B(  7-C , 28-H ) :   0.9468 B(  8-S ,  9-C ) :   1.0012 B(  9-C , 10-S ) :   1.0075
B(  9-C , 29-H ) :   0.8480 B(  9-C , 30-H ) :   0.8673 B( 10-S , 11-P ) :   0.9692
B( 10-S , 12-S ) :   0.1230 B( 11-P , 12-S ) :   1.5997 B( 11-P , 13-O ) :   1.1372
B( 11-P , 16-O ) :   1.0768 B( 12-S , 29-H ) :   0.1176 B( 13-O , 14-C ) :   0.9066
B( 14-C , 15-C ) :   1.1659 B( 14-C , 31-H ) :   0.9291 B( 14-C , 32-H ) :   0.9346
B( 15-C , 33-H ) :   0.9451 B( 15-C , 34-H ) :   0.9366 B( 15-C , 35-H ) :   0.9363
B( 16-O , 17-C ) :   0.9135 B( 17-C , 18-C ) :   1.1630 B( 17-C , 36-H ) :   0.9322
B( 17-C , 37-H ) :   0.9107 B( 18-C , 38-H ) :   0.9423 B( 18-C , 39-H ) :   0.9379
B( 18-C , 40-H ) :   0.9270

Dispersion correction           -0.063477193
FINAL SINGLE POINT ENERGY     -2929.521096244494

DIPOLE MOMENT
-------------

Method             : SCF
Type of density    : Electron Density
Multiplicity       :   1
Irrep              :   0
Energy             : -2929.6427426893806114 Eh
Relativity type    :
Basis              : AO
                                X                 Y                 Z
Electronic contribution:      3.640945092      15.580617143      -3.408356464
Nuclear contribution   :     -4.223751700     -17.304386597       4.107582639
                        -----------------------------------------
Total Dipole Moment    :     -0.582806608      -1.723769453       0.699226175
                        -----------------------------------------
Magnitude (a.u.)       :      1.949349100
Magnitude (Debye)      :      4.954851645

Rotational constants in cm-1:             0.014279             0.004012             0.003868
Rotational constants in MHz :           428.061677           120.290088           115.960433

                             ****ORCA TERMINATED NORMALLY****
TOTAL RUN TIME: 0 days 0 hours 0 minutes 20 seconds 620 msec
