                         Program Version 6.0.0  -   RELEASE  -
|  1> ! pbe def2-sv(p) def2/J RI DEFGRID1 loosescf d4 GCP(DFT/SV(P)) printgap
|  2> %output
|  3>     printlevel normal
|  4> end
|  5> * xyz 0 1
|  6> C 2.9007656238 0.8964206805 -2.059080987
|  7> C 2.1394522562 1.7438745847 -1.0629592165
|  8> O 1.2417344061 0.967466549 -0.2243619493
|  9> P 1.7117293698 -0.0826180123 0.8655825415
| 10> S 0.5764155172 -0.1227722536 2.4619723823
| 11> O 3.2018274616 0.3789701872 1.1630884699
| 12> C 3.9086799176 -0.0513027891 2.3390836932
| 13> C 4.25077568 -1.5256342865 2.2836270982
| 14> S 1.9522078333 -1.9231655065 -0.1917685123
| 15> C 0.4567694673 -1.9045773035 -1.2119363062
| 16> S -1.0917125901 -1.7777874784 -0.2644364575
| 17> P -1.7384483575 0.1365955603 -0.8775309813
| 18> S -0.988945043 0.9031093889 -2.5046009853
| 19> O -1.5629355559 0.9730720559 0.4708315827
| 20> C -1.5211449333 2.4101367742 0.4819816188
| 21> C -2.8885278729 3.0134662611 0.2344930906
| 22> O -3.3049814177 -0.0750392692 -1.0580696833
| 23> C -4.1297617324 -0.6406247499 -0.0114406806
| 24> C -5.5518631719 -0.166871179 -0.2306288574
| 25> H 3.5363386516 1.5477713024 -2.650902103
| 26> H 3.5211000354 0.1656394591 -1.5456845555
| 27> H 2.2119158251 0.3837889797 -2.7264014153
| 28> H 1.4672373646 2.4358423538 -1.5737794975
| 29> H 2.8200301949 2.2902156268 -0.4089865744
| 30> H 4.8036624005 0.5721712258 2.348295216
| 31> H 3.2896791342 0.1683955918 3.214897918
| 32> H 4.8647018531 -1.7847545781 3.1401054539
| 33> H 3.337358136 -2.118937763 2.3115905497
| 34> H 4.7889654083 -1.7578832812 1.3685251872
| 35> H 0.4482301986 -2.8632054773 -1.7250579037
| 36> H 0.4886195726 -1.0773353786 -1.9253759098
| 37> H -1.1370171744 2.6523884007 1.474852625
| 38> H -0.8073178426 2.7404898202 -0.2789201557
| 39> H -2.8175239179 4.0951112743 0.292744919
| 40> H -3.2407744807 2.7333104786 -0.7582830538
| 41> H -3.5975339295 2.659441107 0.9787632326
| 42> H -4.0552836118 -1.7287705474 -0.084193833
| 43> H -3.7404858575 -0.3216848876 0.9600949154
| 44> H -5.6080457719 0.9151700578 -0.1493835635
| 45> H -5.8887261421 -0.4607855435 -1.2204938797
| 46> H -6.1949283549 -0.6176341396 0.518283617
| 47> *
| 48>
| 49>                          ****END OF INPUT****

CARTESIAN COORDINATES (ANGSTROEM)
---------------------------------
  C      2.900766    0.896421   -2.059081
  C      2.139452    1.743875   -1.062959
  O      1.241734    0.967467   -0.224362
  P      1.711729   -0.082618    0.865583
  S      0.576416   -0.122772    2.461972
  O      3.201827    0.378970    1.163088
  C      3.908680   -0.051303    2.339084
  C      4.250776   -1.525634    2.283627
  S      1.952208   -1.923166   -0.191769
  C      0.456769   -1.904577   -1.211936
  S     -1.091713   -1.777787   -0.264436
  P     -1.738448    0.136596   -0.877531
  S     -0.988945    0.903109   -2.504601
  O     -1.562936    0.973072    0.470832
  C     -1.521145    2.410137    0.481982
  C     -2.888528    3.013466    0.234493
  O     -3.304981   -0.075039   -1.058070
  C     -4.129762   -0.640625   -0.011441
  C     -5.551863   -0.166871   -0.230629
  H      3.536339    1.547771   -2.650902
  H      3.521100    0.165639   -1.545685
  H      2.211916    0.383789   -2.726401
  H      1.467237    2.435842   -1.573779
  H      2.820030    2.290216   -0.408987
  H      4.803662    0.572171    2.348295
  H      3.289679    0.168396    3.214898
  H      4.864702   -1.784755    3.140105
  H      3.337358   -2.118938    2.311591
  H      4.788965   -1.757883    1.368525
  H      0.448230   -2.863205   -1.725058
  H      0.488620   -1.077335   -1.925376
  H     -1.137017    2.652388    1.474853
  H     -0.807318    2.740490   -0.278920
  H     -2.817524    4.095111    0.292745
  H     -3.240774    2.733310   -0.758283
  H     -3.597534    2.659441    0.978763
  H     -4.055284   -1.728771   -0.084194
  H     -3.740486   -0.321685    0.960095
  H     -5.608046    0.915170   -0.149384
  H     -5.888726   -0.460786   -1.220494
  H     -6.194928   -0.617634    0.518284

 Total Charge           Charge          ....    0
 Multiplicity           Mult            ....    1
 Number of Electrons    NEL             ....  202
 Basis Dimension        Dim             ....  334

ORBITAL ENERGIES
----------------

  NO   OCC          E(Eh)            E(eV)
   0   2.0000     -88.039144     -2395.6669
   1   2.0000     -88.037737     -2395.6286
   2   2.0000     -87.986016     -2394.2212
   3   2.0000     -87.977013     -2393.9762
   4   2.0000     -76.423526     -2079.5899
   5   2.0000     -76.421205     -2079.5267
   6   2.0000     -18.793668      -511.4017
   7   2.0000     -18.788526      -511.2618
   8   2.0000     -18.787115      -511.2234
   9   2.0000     -18.781991      -511.0840
  10   2.0000      -9.954942      -270.8877
  11   2.0000      -9.953869      -270.8586
  12   2.0000      -9.953412      -270.8461
  13   2.0000      -9.950705      -270.7724
  14   2.0000      -9.943573      -270.5784
  15   2.0000      -9.889198      -269.0988
  16   2.0000      -9.886413      -269.0230
  17   2.0000      -9.882466      -268.9156
  18   2.0000      -9.881388      -268.8862
  19   2.0000      -7.684382      -209.1027
  20   2.0000      -7.682815      -209.0600
  21   2.0000      -7.631238      -207.6565
  22   2.0000      -7.622157      -207.4094
  23   2.0000      -6.420701      -174.7162
  24   2.0000      -6.419194      -174.6751
  25   2.0000      -5.712233      -155.4378
  26   2.0000      -5.710783      -155.3983
  27   2.0000      -5.709127      -155.3532
  28   2.0000      -5.707359      -155.3051
  29   2.0000      -5.701064      -155.1338
  30   2.0000      -5.699674      -155.0960
  31   2.0000      -5.660162      -154.0208
  32   2.0000      -5.652194      -153.8040
  33   2.0000      -5.651233      -153.7779
  34   2.0000      -5.650923      -153.7694
  35   2.0000      -5.642818      -153.5489
  36   2.0000      -5.642123      -153.5300
  37   2.0000      -4.644030      -126.3705
  38   2.0000      -4.642391      -126.3259
  39   2.0000      -4.641977      -126.3146
  40   2.0000      -4.640565      -126.2762
  41   2.0000      -4.640470      -126.2736
  42   2.0000      -4.639931      -126.2590
  43   2.0000      -0.987537       -26.8722
  44   2.0000      -0.979160       -26.6443
  45   2.0000      -0.943092       -25.6628
  46   2.0000      -0.936816       -25.4920
  47   2.0000      -0.759347       -20.6629
  48   2.0000      -0.718786       -19.5592
  49   2.0000      -0.707720       -19.2580
  50   2.0000      -0.690195       -18.7812
  51   2.0000      -0.687855       -18.7175
  52   2.0000      -0.672296       -18.2941
  53   2.0000      -0.648489       -17.6463
  54   2.0000      -0.636176       -17.3112
  55   2.0000      -0.594909       -16.1883
  56   2.0000      -0.585258       -15.9257
  57   2.0000      -0.576651       -15.6915
  58   2.0000      -0.570095       -15.5131
  59   2.0000      -0.558476       -15.1969
  60   2.0000      -0.501878       -13.6568
  61   2.0000      -0.494387       -13.4530
  62   2.0000      -0.474720       -12.9178
  63   2.0000      -0.469798       -12.7839
  64   2.0000      -0.451681       -12.2909
  65   2.0000      -0.447991       -12.1905
  66   2.0000      -0.441019       -12.0007
  67   2.0000      -0.436176       -11.8689
  68   2.0000      -0.423028       -11.5112
  69   2.0000      -0.418241       -11.3809
  70   2.0000      -0.404073       -10.9954
  71   2.0000      -0.398472       -10.8430
  72   2.0000      -0.389985       -10.6120
  73   2.0000      -0.387830       -10.5534
  74   2.0000      -0.379756       -10.3337
  75   2.0000      -0.366502        -9.9730
  76   2.0000      -0.365863        -9.9556
  77   2.0000      -0.357077        -9.7166
  78   2.0000      -0.354071        -9.6348
  79   2.0000      -0.350151        -9.5281
  80   2.0000      -0.345277        -9.3955
  81   2.0000      -0.340749        -9.2723
  82   2.0000      -0.338754        -9.2180
  83   2.0000      -0.336730        -9.1629
  84   2.0000      -0.330290        -8.9877
  85   2.0000      -0.320579        -8.7234
  86   2.0000      -0.313547        -8.5321
  87   2.0000      -0.307392        -8.3646
  88   2.0000      -0.296796        -8.0762
  89   2.0000      -0.292612        -7.9624
  90   2.0000      -0.275126        -7.4866
  91   2.0000      -0.270631        -7.3642
  92   2.0000      -0.265581        -7.2268
  93   2.0000      -0.260780        -7.0962
  94   2.0000      -0.255762        -6.9596
  95   2.0000      -0.234740        -6.3876
  96   2.0000      -0.217584        -5.9208
  97   2.0000      -0.204844        -5.5741
  98   2.0000      -0.201470        -5.4823
  99   2.0000      -0.191565        -5.2127
 100   2.0000      -0.185110        -5.0371
 101   0.0000      -0.046019        -1.2522
 102   0.0000      -0.029870        -0.8128
 103   0.0000      -0.011234        -0.3057
 104   0.0000       0.003490         0.0950
 105   0.0000       0.022575         0.6143

MULLIKEN ATOMIC CHARGES
-----------------------
   0 C :   -0.330455
   1 C :    0.008664
   2 O :   -0.374237
   3 P :    0.608089
   4 S :   -0.293827
   5 O :   -0.382152
   6 C :   -0.000781
   7 C :   -0.327891
   8 S :   -0.111316
   9 C :   -0.353069
  10 S :   -0.090330
  11 P :    0.629374
  12 S :   -0.326336
  13 O :   -0.363059
  14 C :   -0.006478
  15 C :   -0.320248
  16 O :   -0.373627
  17 C :   -0.037715
  18 C :   -0.278289
  19 H :    0.108967
  20 H :    0.125780
  21 H :    0.133491
  22 H :    0.116547
  23 H :    0.105623
  24 H :    0.103458
  25 H :    0.112330
  26 H :    0.117024
  27 H :    0.134420
  28 H :    0.119912
  29 H :    0.182430
  30 H :    0.206838
  31 H :    0.105709
  32 H :    0.112783
  33 H :    0.110933
  34 H :    0.130096
  35 H :    0.115879
  36 H :    0.112995
  37 H :    0.115157
  38 H :    0.119345
  39 H :    0.122573
  40 H :    0.111392
Sum of atomic charges:   -0.0000000

LOEWDIN ATOMIC CHARGES
----------------------
   0 C :   -0.369750
   1 C :   -0.113102
   2 O :   -0.240814
   3 P :    0.569044
   4 S :   -0.302380
   5 O :   -0.244816
   6 C :   -0.120933
   7 C :   -0.372025
   8 S :    0.066171
   9 C :   -0.478247
  10 S :    0.089159
  11 P :    0.574641
  12 S :   -0.300833
  13 O :   -0.236397
  14 C :   -0.119207
  15 C :   -0.366517
  16 O :   -0.249779
  17 C :   -0.124267
  18 C :   -0.349164
  19 H :    0.131142
  20 H :    0.118345
  21 H :    0.126056
  22 H :    0.116592
  23 H :    0.113009
  24 H :    0.117815
  25 H :    0.110928
  26 H :    0.133530
  27 H :    0.122989
  28 H :    0.124689
  29 H :    0.139219
  30 H :    0.120086
  31 H :    0.117971
  32 H :    0.108496
  33 H :    0.130255
  34 H :    0.124556
  35 H :    0.122360
  36 H :    0.112241
  37 H :    0.110685
  38 H :    0.126741
  39 H :    0.130777
  40 H :    0.130734

  Mayer bond orders larger than 0.100000
B(  0-C ,  1-C ) :   1.1796 B(  0-C , 19-H ) :   0.9348 B(  0-C , 20-H ) :   0.9348
B(  0-C , 21-H ) :   0.9348 B(  1-C ,  2-O ) :   0.8872 B(  1-C , 22-H ) :   0.9153
B(  1-C , 23-H ) :   0.9262 B(  2-O ,  3-P ) :   1.1036 B(  3-P ,  4-S ) :   1.6774
B(  3-P ,  5-O ) :   1.0650 B(  3-P ,  8-S ) :   0.9420 B(  4-S ,  8-S ) :   0.1098
B(  5-O ,  6-C ) :   0.9068 B(  6-C ,  7-C ) :   1.1651 B(  6-C , 24-H ) :   0.9325
B(  6-C , 25-H ) :   0.9110 B(  7-C , 26-H ) :   0.9379 B(  7-C , 27-H ) :   0.9298
B(  7-C , 28-H ) :   0.9445 B(  8-S ,  9-C ) :   0.9969 B(  9-C , 10-S ) :   1.0157
B(  9-C , 29-H ) :   0.9126 B(  9-C , 30-H ) :   0.8466 B( 10-S , 11-P ) :   0.9766
B( 10-S , 12-S ) :   0.1092 B( 11-P , 12-S ) :   1.6058 B( 11-P , 13-O ) :   1.1034
B( 11-P , 16-O ) :   1.1045 B( 13-O , 14-C ) :   0.9066 B( 14-C , 15-C ) :   1.1582
B( 14-C , 31-H ) :   0.9289 B( 14-C , 32-H ) :   0.9150 B( 15-C , 33-H ) :   0.9394
B( 15-C , 34-H ) :   0.9362 B( 15-C , 35-H ) :   0.9434 B( 16-O , 17-C ) :   0.9028
B( 17-C , 18-C ) :   1.1674 B( 17-C , 36-H ) :   0.9239 B( 17-C , 37-H ) :   0.9138
B( 18-C , 38-H ) :   0.9495 B( 18-C , 39-H ) :   0.9487 B( 18-C , 40-H ) :   0.9406

Dispersion correction           -0.069609544
FINAL SINGLE POINT ENERGY     -2929.510793075235

DIPOLE MOMENT
-------------

Method             : SCF
Type of density    : Electron Density
Multiplicity       :   1
Irrep              :   0
Energy             : -2929.6298061413840514 Eh
Relativity type    :
Basis              : AO
                                X                 Y                 Z
Electronic contribution:      1.782330942      -9.698870344      -1.277815241
Nuclear contribution   :     -1.411828711      10.041143528       1.494518040
                        -----------------------------------------
Total Dipole Moment    :      0.370502231       0.342273184       0.216702798
                        -----------------------------------------
Magnitude (a.u.)       :      0.548983550
Magnitude (Debye)      :      1.395405290

Rotational constants in cm-1:             0.013166             0.005404             0.005295
Rotational constants in MHz :           394.711879           162.010058           158.748750

                             ****ORCA TERMINATED NORMALLY****
TOTAL RUN TIME: 0 days 0 hours 0 minutes 22 seconds 288 msec
