                         Program Version 6.0.0  -   RELEASE  -
|  1> ! pbe def2-sv(p) def2/J RI DEFGRID1 loosescf d4 GCP(DFT/SV(P)) printgap
|  2> %output
|  3>     printlevel normal
|  4> end
|  5> * xyz 0 1
|  6> C 5.474667204 0.0064202706 0.9552078587
|  7> C 4.4086922267 -1.0230789731 0.6409374285
|  8> O 3.7227444972 -0.6907065698 -0.5918940105
|  9> P 2.3329358544 0.0470459514 -0.6484018643
| 10> S 1.7936146532 0.2823028993 -2.5122050083
| 11> O 2.616593889 1.3303978295 0.2505405236
| 12> C 1.6354738203 2.3174996073 0.6076044979
| 13> C 1.4910267072 3.3720249668 -0.4708024049
| 14> S 1.0371271189 -1.1140882772 0.5850698698
| 15> C -0.089035819 -1.7821790842 -0.684305216
| 16> S -1.7681067381 -1.9390749704 -0.0582667761
| 17> P -2.146190954 0.1357786382 0.2824761087
| 18> S -1.5147453213 1.3306381174 -1.1366086082
| 19> O -1.5019230373 0.5204438846 1.671362905
| 20> C -2.0342087096 0.202313159 2.9820370504
| 21> C -2.0435453775 -1.2855577111 3.2621625022
| 22> O -3.7001033421 0.1905536638 0.6056426497
| 23> C -4.7045933702 0.3238345743 -0.4157111668
| 24> C -4.7571715187 -0.877604165 -1.3365644926
| 25> H 6.1690937894 0.0859763887 0.1233882606
| 26> H 5.0217272267 0.9793398408 1.1253610365
| 27> H 6.0140656088 -0.3007750578 1.8456988209
| 28> H 3.6733581869 -1.0966131463 1.4473520057
| 29> H 4.8476354689 -2.0042550327 0.4517136485
| 30> H 0.6759208522 1.8273057401 0.8008279291
| 31> H 2.0156383616 2.7486942416 1.5357954091
| 32> H 1.0743490792 2.9323071277 -1.3754571145
| 33> H 0.8175154078 4.149105026 -0.1237488975
| 34> H 2.4593396091 3.8057392089 -0.7048608396
| 35> H 0.2324027065 -2.7841532492 -0.9575359187
| 36> H -0.0657236047 -1.1099971977 -1.5478817675
| 37> H -1.358027861 0.7314708858 3.6551432482
| 38> H -3.038752129 0.622714669 3.0531963137
| 39> H -1.0594699896 -1.7098729512 3.0754329923
| 40> H -2.3104732968 -1.4456320896 4.3021405612
| 41> H -2.7700967223 -1.7889212359 2.6282809513
| 42> H -5.6313125709 0.4396229696 0.1482944922
| 43> H -4.4981252702 1.2352216138 -0.9851804211
| 44> H -4.8419916732 -1.7955015924 -0.7604476464
| 45> H -5.6133736907 -0.7845997502 -1.9970043602
| 46> H -3.8522965268 -0.9246085811 -1.9407832469
| 47> *
| 48>
| 49>                          ****END OF INPUT****

CARTESIAN COORDINATES (ANGSTROEM)
---------------------------------
  C      5.474667    0.006420    0.955208
  C      4.408692   -1.023079    0.640937
  O      3.722744   -0.690707   -0.591894
  P      2.332936    0.047046   -0.648402
  S      1.793615    0.282303   -2.512205
  O      2.616594    1.330398    0.250541
  C      1.635474    2.317500    0.607604
  C      1.491027    3.372025   -0.470802
  S      1.037127   -1.114088    0.585070
  C     -0.089036   -1.782179   -0.684305
  S     -1.768107   -1.939075   -0.058267
  P     -2.146191    0.135779    0.282476
  S     -1.514745    1.330638   -1.136609
  O     -1.501923    0.520444    1.671363
  C     -2.034209    0.202313    2.982037
  C     -2.043545   -1.285558    3.262163
  O     -3.700103    0.190554    0.605643
  C     -4.704593    0.323835   -0.415711
  C     -4.757172   -0.877604   -1.336564
  H      6.169094    0.085976    0.123388
  H      5.021727    0.979340    1.125361
  H      6.014066   -0.300775    1.845699
  H      3.673358   -1.096613    1.447352
  H      4.847635   -2.004255    0.451714
  H      0.675921    1.827306    0.800828
  H      2.015638    2.748694    1.535795
  H      1.074349    2.932307   -1.375457
  H      0.817515    4.149105   -0.123749
  H      2.459340    3.805739   -0.704861
  H      0.232403   -2.784153   -0.957536
  H     -0.065724   -1.109997   -1.547882
  H     -1.358028    0.731471    3.655143
  H     -3.038752    0.622715    3.053196
  H     -1.059470   -1.709873    3.075433
  H     -2.310473   -1.445632    4.302141
  H     -2.770097   -1.788921    2.628281
  H     -5.631313    0.439623    0.148294
  H     -4.498125    1.235222   -0.985180
  H     -4.841992   -1.795502   -0.760448
  H     -5.613374   -0.784600   -1.997004
  H     -3.852297   -0.924609   -1.940783

 Total Charge           Charge          ....    0
 Multiplicity           Mult            ....    1
 Number of Electrons    NEL             ....  202
 Basis Dimension        Dim             ....  334

ORBITAL ENERGIES
----------------

  NO   OCC          E(Eh)            E(eV)
   0   2.0000     -88.045281     -2395.8339
   1   2.0000     -88.037221     -2395.6146
   2   2.0000     -87.984111     -2394.1694
   3   2.0000     -87.977269     -2393.9832
   4   2.0000     -76.429211     -2079.7446
   5   2.0000     -76.419236     -2079.4731
   6   2.0000     -18.800122      -511.5773
   7   2.0000     -18.793048      -511.3848
   8   2.0000     -18.787113      -511.2233
   9   2.0000     -18.784155      -511.1428
  10   2.0000      -9.959926      -271.0234
  11   2.0000      -9.958371      -270.9811
  12   2.0000      -9.953199      -270.8403
  13   2.0000      -9.950467      -270.7660
  14   2.0000      -9.940783      -270.5025
  15   2.0000      -9.889931      -269.1187
  16   2.0000      -9.887388      -269.0495
  17   2.0000      -9.883271      -268.9375
  18   2.0000      -9.867016      -268.4952
  19   2.0000      -7.690044      -209.2567
  20   2.0000      -7.681838      -209.0334
  21   2.0000      -7.628924      -207.5936
  22   2.0000      -7.622524      -207.4194
  23   2.0000      -6.426187      -174.8655
  24   2.0000      -6.416728      -174.6081
  25   2.0000      -5.717961      -155.5936
  26   2.0000      -5.714503      -155.4995
  27   2.0000      -5.709687      -155.3685
  28   2.0000      -5.707084      -155.2976
  29   2.0000      -5.706374      -155.2783
  30   2.0000      -5.698877      -155.0743
  31   2.0000      -5.657881      -153.9588
  32   2.0000      -5.651564      -153.7869
  33   2.0000      -5.649553      -153.7322
  34   2.0000      -5.649037      -153.7181
  35   2.0000      -5.643084      -153.5561
  36   2.0000      -5.642544      -153.5414
  37   2.0000      -4.649307      -126.5141
  38   2.0000      -4.647769      -126.4722
  39   2.0000      -4.646374      -126.4343
  40   2.0000      -4.639447      -126.2458
  41   2.0000      -4.638600      -126.2227
  42   2.0000      -4.636981      -126.1787
  43   2.0000      -0.992521       -27.0079
  44   2.0000      -0.981736       -26.7144
  45   2.0000      -0.948413       -25.8076
  46   2.0000      -0.937865       -25.5206
  47   2.0000      -0.760788       -20.7021
  48   2.0000      -0.720166       -19.5967
  49   2.0000      -0.709875       -19.3167
  50   2.0000      -0.694711       -18.9040
  51   2.0000      -0.681896       -18.5553
  52   2.0000      -0.673317       -18.3219
  53   2.0000      -0.649359       -17.6699
  54   2.0000      -0.631663       -17.1884
  55   2.0000      -0.598774       -16.2935
  56   2.0000      -0.583579       -15.8800
  57   2.0000      -0.580616       -15.7994
  58   2.0000      -0.567800       -15.4506
  59   2.0000      -0.559274       -15.2186
  60   2.0000      -0.501264       -13.6401
  61   2.0000      -0.496988       -13.5237
  62   2.0000      -0.474488       -12.9115
  63   2.0000      -0.470494       -12.8028
  64   2.0000      -0.453958       -12.3528
  65   2.0000      -0.444898       -12.1063
  66   2.0000      -0.442704       -12.0466
  67   2.0000      -0.433585       -11.7984
  68   2.0000      -0.429976       -11.7002
  69   2.0000      -0.417500       -11.3608
  70   2.0000      -0.413067       -11.2401
  71   2.0000      -0.403072       -10.9682
  72   2.0000      -0.390873       -10.6362
  73   2.0000      -0.381077       -10.3696
  74   2.0000      -0.377942       -10.2843
  75   2.0000      -0.370401       -10.0791
  76   2.0000      -0.359804        -9.7908
  77   2.0000      -0.355918        -9.6850
  78   2.0000      -0.354793        -9.6544
  79   2.0000      -0.351983        -9.5779
  80   2.0000      -0.348609        -9.4861
  81   2.0000      -0.343190        -9.3387
  82   2.0000      -0.340085        -9.2542
  83   2.0000      -0.333528        -9.0758
  84   2.0000      -0.324672        -8.8348
  85   2.0000      -0.320006        -8.7078
  86   2.0000      -0.313318        -8.5258
  87   2.0000      -0.301826        -8.2131
  88   2.0000      -0.297536        -8.0964
  89   2.0000      -0.284966        -7.7543
  90   2.0000      -0.282348        -7.6831
  91   2.0000      -0.275875        -7.5069
  92   2.0000      -0.270422        -7.3586
  93   2.0000      -0.263289        -7.1645
  94   2.0000      -0.254933        -6.9371
  95   2.0000      -0.233176        -6.3451
  96   2.0000      -0.218152        -5.9362
  97   2.0000      -0.208515        -5.6740
  98   2.0000      -0.200966        -5.4686
  99   2.0000      -0.191720        -5.2170
 100   2.0000      -0.185595        -5.0503
 101   0.0000      -0.043931        -1.1954
 102   0.0000      -0.031654        -0.8614
 103   0.0000      -0.010096        -0.2747
 104   0.0000       0.007599         0.2068
 105   0.0000       0.018473         0.5027

MULLIKEN ATOMIC CHARGES
-----------------------
   0 C :   -0.288017
   1 C :   -0.010531
   2 O :   -0.356307
   3 P :    0.608469
   4 S :   -0.290952
   5 O :   -0.382503
   6 C :   -0.030222
   7 C :   -0.294577
   8 S :   -0.138389
   9 C :   -0.341935
  10 S :   -0.109931
  11 P :    0.611228
  12 S :   -0.300398
  13 O :   -0.354617
  14 C :    0.006364
  15 C :   -0.318599
  16 O :   -0.385123
  17 C :    0.001084
  18 C :   -0.323724
  19 H :    0.120201
  20 H :    0.123003
  21 H :    0.106482
  22 H :    0.099072
  23 H :    0.108387
  24 H :    0.130318
  25 H :    0.093513
  26 H :    0.141115
  27 H :    0.104170
  28 H :    0.106042
  29 H :    0.181473
  30 H :    0.213629
  31 H :    0.107943
  32 H :    0.110277
  33 H :    0.126672
  34 H :    0.112876
  35 H :    0.123553
  36 H :    0.104935
  37 H :    0.114915
  38 H :    0.117327
  39 H :    0.116722
  40 H :    0.136059
Sum of atomic charges:    0.0000000

LOEWDIN ATOMIC CHARGES
----------------------
   0 C :   -0.359082
   1 C :   -0.113865
   2 O :   -0.239237
   3 P :    0.563661
   4 S :   -0.283788
   5 O :   -0.244229
   6 C :   -0.122753
   7 C :   -0.363640
   8 S :    0.050080
   9 C :   -0.480866
  10 S :    0.084043
  11 P :    0.570026
  12 S :   -0.292897
  13 O :   -0.236590
  14 C :   -0.107683
  15 C :   -0.369776
  16 O :   -0.248007
  17 C :   -0.115709
  18 C :   -0.371923
  19 H :    0.129218
  20 H :    0.126980
  21 H :    0.127663
  22 H :    0.101678
  23 H :    0.120480
  24 H :    0.106717
  25 H :    0.112424
  26 H :    0.124445
  27 H :    0.128255
  28 H :    0.121778
  29 H :    0.135108
  30 H :    0.123516
  31 H :    0.121517
  32 H :    0.114571
  33 H :    0.125500
  34 H :    0.130642
  35 H :    0.117910
  36 H :    0.118594
  37 H :    0.114599
  38 H :    0.122912
  39 H :    0.133163
  40 H :    0.124563

  Mayer bond orders larger than 0.100000
B(  0-C ,  1-C ) :   1.1635 B(  0-C , 19-H ) :   0.9469 B(  0-C , 20-H ) :   0.9422
B(  0-C , 21-H ) :   0.9400 B(  1-C ,  2-O ) :   0.8987 B(  1-C , 22-H ) :   0.9147
B(  1-C , 23-H ) :   0.9366 B(  2-O ,  3-P ) :   1.1322 B(  3-P ,  4-S ) :   1.6667
B(  3-P ,  5-O ) :   1.0843 B(  3-P ,  8-S ) :   0.9457 B(  4-S ,  8-S ) :   0.1189
B(  5-O ,  6-C ) :   0.9002 B(  6-C ,  7-C ) :   1.1720 B(  6-C , 24-H ) :   0.9005
B(  6-C , 25-H ) :   0.9356 B(  7-C , 26-H ) :   0.9299 B(  7-C , 27-H ) :   0.9392
B(  7-C , 28-H ) :   0.9464 B(  8-S ,  9-C ) :   0.9910 B(  9-C , 10-S ) :   1.0101
B(  9-C , 29-H ) :   0.9101 B(  9-C , 30-H ) :   0.8401 B( 10-S , 11-P ) :   0.9330
B( 10-S , 12-S ) :   0.1092 B( 11-P , 12-S ) :   1.6486 B( 11-P , 13-O ) :   1.1147
B( 11-P , 16-O ) :   1.0796 B( 13-O , 14-C ) :   0.8998 B( 14-C , 15-C ) :   1.1710
B( 14-C , 31-H ) :   0.9344 B( 14-C , 32-H ) :   0.9271 B( 15-C , 33-H ) :   0.9406
B( 15-C , 34-H ) :   0.9353 B( 15-C , 35-H ) :   0.9398 B( 16-O , 17-C ) :   0.9015
B( 17-C , 18-C ) :   1.1673 B( 17-C , 36-H ) :   0.9342 B( 17-C , 37-H ) :   0.9182
B( 18-C , 38-H ) :   0.9435 B( 18-C , 39-H ) :   0.9364 B( 18-C , 40-H ) :   0.9333

Dispersion correction           -0.066277471
FINAL SINGLE POINT ENERGY     -2929.516789640157

DIPOLE MOMENT
-------------

Method             : SCF
Type of density    : Electron Density
Multiplicity       :   1
Irrep              :   0
Energy             : -2929.6360027121872918 Eh
Relativity type    :
Basis              : AO
                                X                 Y                 Z
Electronic contribution:      1.265126830      -3.933362697     -11.400527442
Nuclear contribution   :     -2.049480762       3.475183316      13.392510912
                        -----------------------------------------
Total Dipole Moment    :     -0.784353932      -0.458179381       1.991983470
                        -----------------------------------------
Magnitude (a.u.)       :      2.189323544
Magnitude (Debye)      :      5.564818205

Rotational constants in cm-1:             0.012974             0.004983             0.004736
Rotational constants in MHz :           388.962417           149.380081           141.968249

                             ****ORCA TERMINATED NORMALLY****
TOTAL RUN TIME: 0 days 0 hours 0 minutes 21 seconds 257 msec
