                         Program Version 6.0.0  -   RELEASE  -
|  1> ! pbe def2-sv(p) def2/J RI DEFGRID1 loosescf d4 GCP(DFT/SV(P)) printgap
|  2> %output
|  3>     printlevel normal
|  4> end
|  5> * xyz 0 1
|  6> C 5.3556337826 0.026617475 -2.2439164282
|  7> C 3.974412344 -0.5194717834 -1.9443884123
|  8> O 3.5256811549 0.0642012593 -0.7041774331
|  9> P 1.9904761648 0.0560702294 -0.2977134997
| 10> S 0.7974397603 0.8090812062 -1.6541301092
| 11> O 1.9610782056 0.8682833982 1.0454129314
| 12> C 2.8020480415 0.5819416579 2.1931090526
| 13> C 4.0498590854 1.4394865251 2.1700248542
| 14> S 1.7309599428 -1.993729478 0.2295231637
| 15> C 0.0535626736 -1.9549182964 0.9105562416
| 16> S -1.2662875777 -1.9392160386 -0.3480173194
| 17> P -2.1507147793 -0.056288135 0.0254774441
| 18> S -1.2761726405 1.006546993 1.4315679945
| 19> O -3.6788445262 -0.3901984272 0.3411647837
| 20> C -4.1322831879 -0.7861851616 1.6506686193
| 21> C -4.8100431191 0.3776355818 2.3478502723
| 22> O -2.2762284234 0.4902094994 -1.4466169934
| 23> C -3.2745681616 1.4372888869 -1.8858622439
| 24> C -3.1713345589 2.7562637785 -1.1492551587
| 25> H 6.0395809361 -0.2302520047 -1.4403396285
| 26> H 5.7140753305 -0.4050050867 -3.1725512429
| 27> H 5.3155003959 1.1077908825 -2.3431679591
| 28> H 3.9903433366 -1.6055536517 -1.8210300759
| 29> H 3.258702711 -0.2576297821 -2.7308283582
| 30> H 2.1689339078 0.8179735898 3.0508822573
| 31> H 3.0528159342 -0.4824121336 2.1922993688
| 32> H 3.7779163578 2.4905485511 2.1249785571
| 33> H 4.6220283833 1.2547977855 3.0738421233
| 34> H 4.6569984188 1.1966113905 1.3022417405
| 35> H -0.0638319504 -1.068976018 1.5431491776
| 36> H -0.0481017051 -2.8732809763 1.4821878644
| 37> H -4.8278489093 -1.608048035 1.4725893206
| 38> H -3.2816955119 -1.1443805611 2.2368954936
| 39> H -5.2080204009 0.0412461918 3.2995864292
| 40> H -4.0903144488 1.1737608849 2.5267707261
| 41> H -5.6197838336 0.7626532141 1.7344380552
| 42> H -3.0557119813 1.5539012028 -2.9486019489
| 43> H -4.2595092084 0.9846979271 -1.7510810071
| 44> H -3.3916999117 2.6132907277 -0.091754272
| 45> H -2.1628371904 3.1553812069 -1.2410016394
| 46> H -3.8789922025 3.4642292343 -1.5687887293
| 47> *
| 48>
| 49>                          ****END OF INPUT****

CARTESIAN COORDINATES (ANGSTROEM)
---------------------------------
  C      5.355634    0.026617   -2.243916
  C      3.974412   -0.519472   -1.944388
  O      3.525681    0.064201   -0.704177
  P      1.990476    0.056070   -0.297713
  S      0.797440    0.809081   -1.654130
  O      1.961078    0.868283    1.045413
  C      2.802048    0.581942    2.193109
  C      4.049859    1.439487    2.170025
  S      1.730960   -1.993729    0.229523
  C      0.053563   -1.954918    0.910556
  S     -1.266288   -1.939216   -0.348017
  P     -2.150715   -0.056288    0.025477
  S     -1.276173    1.006547    1.431568
  O     -3.678845   -0.390198    0.341165
  C     -4.132283   -0.786185    1.650669
  C     -4.810043    0.377636    2.347850
  O     -2.276228    0.490209   -1.446617
  C     -3.274568    1.437289   -1.885862
  C     -3.171335    2.756264   -1.149255
  H      6.039581   -0.230252   -1.440340
  H      5.714075   -0.405005   -3.172551
  H      5.315500    1.107791   -2.343168
  H      3.990343   -1.605554   -1.821030
  H      3.258703   -0.257630   -2.730828
  H      2.168934    0.817974    3.050882
  H      3.052816   -0.482412    2.192299
  H      3.777916    2.490549    2.124979
  H      4.622028    1.254798    3.073842
  H      4.656998    1.196611    1.302242
  H     -0.063832   -1.068976    1.543149
  H     -0.048102   -2.873281    1.482188
  H     -4.827849   -1.608048    1.472589
  H     -3.281696   -1.144381    2.236895
  H     -5.208020    0.041246    3.299586
  H     -4.090314    1.173761    2.526771
  H     -5.619784    0.762653    1.734438
  H     -3.055712    1.553901   -2.948602
  H     -4.259509    0.984698   -1.751081
  H     -3.391700    2.613291   -0.091754
  H     -2.162837    3.155381   -1.241002
  H     -3.878992    3.464229   -1.568789

 Total Charge           Charge          ....    0
 Multiplicity           Mult            ....    1
 Number of Electrons    NEL             ....  202
 Basis Dimension        Dim             ....  334

ORBITAL ENERGIES
----------------

  NO   OCC          E(Eh)            E(eV)
   0   2.0000     -88.036601     -2395.5977
   1   2.0000     -88.034027     -2395.5277
   2   2.0000     -87.981551     -2394.0997
   3   2.0000     -87.970025     -2393.7861
   4   2.0000     -76.421493     -2079.5345
   5   2.0000     -76.416515     -2079.3991
   6   2.0000     -18.787461      -511.2328
   7   2.0000     -18.785755      -511.1864
   8   2.0000     -18.784127      -511.1421
   9   2.0000     -18.783827      -511.1339
  10   2.0000      -9.951497      -270.7940
  11   2.0000      -9.951323      -270.7893
  12   2.0000      -9.950858      -270.7766
  13   2.0000      -9.949990      -270.7530
  14   2.0000      -9.949549      -270.7410
  15   2.0000      -9.886792      -269.0333
  16   2.0000      -9.882233      -268.9092
  17   2.0000      -9.881216      -268.8815
  18   2.0000      -9.877623      -268.7838
  19   2.0000      -7.681770      -209.0316
  20   2.0000      -7.679488      -208.9695
  21   2.0000      -7.626477      -207.5270
  22   2.0000      -7.615170      -207.2193
  23   2.0000      -6.418507      -174.6565
  24   2.0000      -6.414176      -174.5386
  25   2.0000      -5.709391      -155.3604
  26   2.0000      -5.707344      -155.3047
  27   2.0000      -5.706177      -155.2730
  28   2.0000      -5.704042      -155.2149
  29   2.0000      -5.699098      -155.0804
  30   2.0000      -5.696390      -155.0066
  31   2.0000      -5.655224      -153.8865
  32   2.0000      -5.647553      -153.6777
  33   2.0000      -5.646315      -153.6440
  34   2.0000      -5.644242      -153.5876
  35   2.0000      -5.635701      -153.3552
  36   2.0000      -5.635243      -153.3428
  37   2.0000      -4.641332      -126.2971
  38   2.0000      -4.639962      -126.2598
  39   2.0000      -4.639111      -126.2366
  40   2.0000      -4.637198      -126.1846
  41   2.0000      -4.636128      -126.1554
  42   2.0000      -4.633991      -126.0973
  43   2.0000      -0.983120       -26.7520
  44   2.0000      -0.981932       -26.7197
  45   2.0000      -0.941001       -25.6059
  46   2.0000      -0.936666       -25.4880
  47   2.0000      -0.755043       -20.5458
  48   2.0000      -0.716714       -19.5028
  49   2.0000      -0.706723       -19.2309
  50   2.0000      -0.689171       -18.7533
  51   2.0000      -0.684316       -18.6212
  52   2.0000      -0.668749       -18.1976
  53   2.0000      -0.644425       -17.5357
  54   2.0000      -0.628828       -17.1113
  55   2.0000      -0.590169       -16.0593
  56   2.0000      -0.582149       -15.8411
  57   2.0000      -0.571036       -15.5387
  58   2.0000      -0.566372       -15.4118
  59   2.0000      -0.558993       -15.2110
  60   2.0000      -0.504112       -13.7176
  61   2.0000      -0.496838       -13.5196
  62   2.0000      -0.478179       -13.0119
  63   2.0000      -0.468059       -12.7365
  64   2.0000      -0.446996       -12.1634
  65   2.0000      -0.441111       -12.0032
  66   2.0000      -0.439962       -11.9720
  67   2.0000      -0.431025       -11.7288
  68   2.0000      -0.428274       -11.6539
  69   2.0000      -0.407901       -11.0995
  70   2.0000      -0.407705       -11.0942
  71   2.0000      -0.397182       -10.8079
  72   2.0000      -0.386237       -10.5100
  73   2.0000      -0.382714       -10.4142
  74   2.0000      -0.378634       -10.3032
  75   2.0000      -0.365889        -9.9563
  76   2.0000      -0.359657        -9.7868
  77   2.0000      -0.353117        -9.6088
  78   2.0000      -0.350515        -9.5380
  79   2.0000      -0.347765        -9.4632
  80   2.0000      -0.343423        -9.3450
  81   2.0000      -0.341011        -9.2794
  82   2.0000      -0.335584        -9.1317
  83   2.0000      -0.331596        -9.0232
  84   2.0000      -0.330312        -8.9882
  85   2.0000      -0.313724        -8.5369
  86   2.0000      -0.309788        -8.4298
  87   2.0000      -0.296127        -8.0580
  88   2.0000      -0.293962        -7.9991
  89   2.0000      -0.287428        -7.8213
  90   2.0000      -0.284022        -7.7286
  91   2.0000      -0.270557        -7.3622
  92   2.0000      -0.267837        -7.2882
  93   2.0000      -0.255638        -6.9563
  94   2.0000      -0.252875        -6.8811
  95   2.0000      -0.235182        -6.3996
  96   2.0000      -0.217778        -5.9260
  97   2.0000      -0.201435        -5.4813
  98   2.0000      -0.197433        -5.3724
  99   2.0000      -0.181581        -4.9411
 100   2.0000      -0.179632        -4.8880
 101   0.0000      -0.030384        -0.8268
 102   0.0000      -0.025605        -0.6967
 103   0.0000      -0.006014        -0.1637
 104   0.0000       0.010042         0.2732
 105   0.0000       0.018534         0.5043

MULLIKEN ATOMIC CHARGES
-----------------------
   0 C :   -0.283504
   1 C :   -0.012602
   2 O :   -0.385859
   3 P :    0.596763
   4 S :   -0.297855
   5 O :   -0.344137
   6 C :   -0.013164
   7 C :   -0.290551
   8 S :   -0.118927
   9 C :   -0.358762
  10 S :   -0.070185
  11 P :    0.629021
  12 S :   -0.314964
  13 O :   -0.386966
  14 C :    0.004778
  15 C :   -0.293248
  16 O :   -0.358260
  17 C :    0.003077
  18 C :   -0.323700
  19 H :    0.115047
  20 H :    0.112327
  21 H :    0.122820
  22 H :    0.104313
  23 H :    0.106823
  24 H :    0.109314
  25 H :    0.097721
  26 H :    0.121134
  27 H :    0.106981
  28 H :    0.122853
  29 H :    0.193014
  30 H :    0.178999
  31 H :    0.104575
  32 H :    0.089939
  33 H :    0.106574
  34 H :    0.127165
  35 H :    0.110554
  36 H :    0.109684
  37 H :    0.107195
  38 H :    0.129431
  39 H :    0.134319
  40 H :    0.108263
Sum of atomic charges:   -0.0000000

LOEWDIN ATOMIC CHARGES
----------------------
   0 C :   -0.351018
   1 C :   -0.121006
   2 O :   -0.252182
   3 P :    0.559480
   4 S :   -0.304368
   5 O :   -0.224831
   6 C :   -0.115443
   7 C :   -0.359875
   8 S :    0.056174
   9 C :   -0.486851
  10 S :    0.084124
  11 P :    0.571636
  12 S :   -0.297976
  13 O :   -0.256711
  14 C :   -0.116061
  15 C :   -0.361755
  16 O :   -0.227746
  17 C :   -0.107755
  18 C :   -0.367801
  19 H :    0.124929
  20 H :    0.131065
  21 H :    0.129851
  22 H :    0.109017
  23 H :    0.109914
  24 H :    0.120255
  25 H :    0.101888
  26 H :    0.129308
  27 H :    0.128366
  28 H :    0.125660
  29 H :    0.118603
  30 H :    0.135232
  31 H :    0.117057
  32 H :    0.103978
  33 H :    0.128106
  34 H :    0.124627
  35 H :    0.123558
  36 H :    0.122308
  37 H :    0.111563
  38 H :    0.121801
  39 H :    0.134468
  40 H :    0.128413

  Mayer bond orders larger than 0.100000
B(  0-C ,  1-C ) :   1.1600 B(  0-C , 19-H ) :   0.9510 B(  0-C , 20-H ) :   0.9419
B(  0-C , 21-H ) :   0.9508 B(  1-C ,  2-O ) :   0.9076 B(  1-C , 22-H ) :   0.9294
B(  1-C , 23-H ) :   0.9064 B(  2-O ,  3-P ) :   1.0668 B(  3-P ,  4-S ) :   1.6852
B(  3-P ,  5-O ) :   1.1414 B(  3-P ,  8-S ) :   0.9479 B(  4-S ,  8-S ) :   0.1124
B(  5-O ,  6-C ) :   0.8947 B(  6-C ,  7-C ) :   1.1672 B(  6-C , 24-H ) :   0.9333
B(  6-C , 25-H ) :   0.9081 B(  7-C , 26-H ) :   0.9472 B(  7-C , 27-H ) :   0.9397
B(  7-C , 28-H ) :   0.9409 B(  8-S ,  9-C ) :   0.9931 B(  9-C , 10-S ) :   1.0063
B(  9-C , 29-H ) :   0.8458 B(  9-C , 30-H ) :   0.9125 B( 10-S , 11-P ) :   0.9639
B( 10-S , 12-S ) :   0.1275 B( 11-P , 12-S ) :   1.5873 B( 11-P , 13-O ) :   1.0643
B( 11-P , 16-O ) :   1.1450 B( 12-S , 29-H ) :   0.1209 B( 13-O , 14-C ) :   0.9076
B( 14-C , 15-C ) :   1.1677 B( 14-C , 31-H ) :   0.9354 B( 14-C , 32-H ) :   0.9114
B( 15-C , 33-H ) :   0.9404 B( 15-C , 34-H ) :   0.9338 B( 15-C , 35-H ) :   0.9478
B( 16-O , 17-C ) :   0.9050 B( 17-C , 18-C ) :   1.1674 B( 17-C , 36-H ) :   0.9336
B( 17-C , 37-H ) :   0.9281 B( 18-C , 38-H ) :   0.9347 B( 18-C , 39-H ) :   0.9428
B( 18-C , 40-H ) :   0.9360

Dispersion correction           -0.065187738
FINAL SINGLE POINT ENERGY     -2929.513927360326

DIPOLE MOMENT
-------------

Method             : SCF
Type of density    : Electron Density
Multiplicity       :   1
Irrep              :   0
Energy             : -2929.6326243458702265 Eh
Relativity type    :
Basis              : AO
                                X                 Y                 Z
Electronic contribution:     -2.637620080     -10.771677493      -6.109213820
Nuclear contribution   :      2.677728995      10.341637474       6.744001244
                        -----------------------------------------
Total Dipole Moment    :      0.040108916      -0.430040019       0.634787424
                        -----------------------------------------
Magnitude (a.u.)       :      0.767787872
Magnitude (Debye)      :      1.951561678

Rotational constants in cm-1:             0.013303             0.004720             0.004548
Rotational constants in MHz :           398.823642           141.490149           136.332994

                             ****ORCA TERMINATED NORMALLY****
TOTAL RUN TIME: 0 days 0 hours 0 minutes 20 seconds 606 msec
