                         Program Version 6.0.0  -   RELEASE  -
|  1> ! pbe def2-sv(p) def2/J RI DEFGRID1 loosescf d4 GCP(DFT/SV(P)) printgap
|  2> %output
|  3>     printlevel normal
|  4> end
|  5> * xyz 0 1
|  6> C 4.7231878159 1.254704785 -1.4731261975
|  7> C 4.8277572198 0.9621802872 0.0094003849
|  8> O 3.8967890668 -0.0484575005 0.4370978079
|  9> P 2.3201238118 0.1500037035 0.3881115236
| 10> S 1.6517967512 1.9102274435 0.9171520718
| 11> O 1.8210186256 -0.9902312781 1.3570696796
| 12> C 2.2597795936 -2.3686541302 1.2356881903
| 13> C 1.1521366246 -3.2633833767 1.7508167457
| 14> S 1.7889367276 -0.4986425195 -1.5732195705
| 15> C 0.0768549735 0.0473852275 -1.5211631112
| 16> S -0.9728162672 -1.14546722 -0.603794566
| 17> P -2.5188410924 0.2150546066 -0.1016333193
| 18> S -4.1456980742 -0.5348461762 0.6869125705
| 19> O -2.7177359862 1.0660280332 -1.4302528679
| 20> C -3.7557267351 0.7441855419 -2.3758165826
| 21> C -3.4654352621 -0.5366339473 -3.1334178656
| 22> O -1.7817115803 1.3469797528 0.736058778
| 23> C -1.8264262449 1.3720143757 2.1728521726
| 24> C -1.1831027552 0.1500781421 2.7968626529
| 25> H 3.7737010999 1.7407478073 -1.6919812633
| 26> H 5.5314996885 1.9179708206 -1.7640042621
| 27> H 4.7867290182 0.3335694715 -2.0469313997
| 28> H 4.6449251528 1.8683861833 0.5948455733
| 29> H 5.8004251839 0.5424087625 0.2698819806
| 30> H 2.4839030865 -2.5754845465 0.1853148309
| 31> H 3.1709348644 -2.4701789803 1.8275678167
| 32> H 1.4818555355 -4.2961990175 1.7071730595
| 33> H 0.9106326864 -3.0056149214 2.7780287249
| 34> H 0.2595697343 -3.1466444274 1.1407541625
| 35> H -0.2656194811 0.1039300372 -2.5506416486
| 36> H 0.0186192606 1.018412148 -1.0248405584
| 37> H -4.7031598046 0.6592843275 -1.8344397094
| 38> H -3.7840514792 1.6102746982 -3.0383552207
| 39> H -3.4332383288 -1.3778838297 -2.4413794748
| 40> H -4.2563157793 -0.7084396716 -3.8566393067
| 41> H -2.5145375938 -0.4703694855 -3.6557429727
| 42> H -1.2861324689 2.2841479344 2.4323597946
| 43> H -2.8728473901 1.4525695783 2.4824247401
| 44> H -1.7254368423 -0.748284743 2.5012313724
| 45> H -0.1469342431 0.0590730627 2.4779131214
| 46> H -1.2146917862 0.2429743616 3.8776357815
| 47> *
| 48>
| 49>                          ****END OF INPUT****

CARTESIAN COORDINATES (ANGSTROEM)
---------------------------------
  C      4.723188    1.254705   -1.473126
  C      4.827757    0.962180    0.009400
  O      3.896789   -0.048458    0.437098
  P      2.320124    0.150004    0.388112
  S      1.651797    1.910227    0.917152
  O      1.821019   -0.990231    1.357070
  C      2.259780   -2.368654    1.235688
  C      1.152137   -3.263383    1.750817
  S      1.788937   -0.498643   -1.573220
  C      0.076855    0.047385   -1.521163
  S     -0.972816   -1.145467   -0.603795
  P     -2.518841    0.215055   -0.101633
  S     -4.145698   -0.534846    0.686913
  O     -2.717736    1.066028   -1.430253
  C     -3.755727    0.744186   -2.375817
  C     -3.465435   -0.536634   -3.133418
  O     -1.781712    1.346980    0.736059
  C     -1.826426    1.372014    2.172852
  C     -1.183103    0.150078    2.796863
  H      3.773701    1.740748   -1.691981
  H      5.531500    1.917971   -1.764004
  H      4.786729    0.333569   -2.046931
  H      4.644925    1.868386    0.594846
  H      5.800425    0.542409    0.269882
  H      2.483903   -2.575485    0.185315
  H      3.170935   -2.470179    1.827568
  H      1.481856   -4.296199    1.707173
  H      0.910633   -3.005615    2.778029
  H      0.259570   -3.146644    1.140754
  H     -0.265619    0.103930   -2.550642
  H      0.018619    1.018412   -1.024841
  H     -4.703160    0.659284   -1.834440
  H     -3.784051    1.610275   -3.038355
  H     -3.433238   -1.377884   -2.441379
  H     -4.256316   -0.708440   -3.856639
  H     -2.514538   -0.470369   -3.655743
  H     -1.286132    2.284148    2.432360
  H     -2.872847    1.452570    2.482425
  H     -1.725437   -0.748285    2.501231
  H     -0.146934    0.059073    2.477913
  H     -1.214692    0.242974    3.877636

 Total Charge           Charge          ....    0
 Multiplicity           Mult            ....    1
 Number of Electrons    NEL             ....  202
 Basis Dimension        Dim             ....  334

ORBITAL ENERGIES
----------------

  NO   OCC          E(Eh)            E(eV)
   0   2.0000     -88.053572     -2396.0595
   1   2.0000     -88.039740     -2395.6831
   2   2.0000     -87.993813     -2394.4334
   3   2.0000     -87.986272     -2394.2282
   4   2.0000     -76.432817     -2079.8427
   5   2.0000     -76.422853     -2079.5716
   6   2.0000     -18.802495      -511.6419
   7   2.0000     -18.796571      -511.4807
   8   2.0000     -18.787821      -511.2426
   9   2.0000     -18.779769      -511.0235
  10   2.0000      -9.960932      -271.0507
  11   2.0000      -9.957940      -270.9693
  12   2.0000      -9.957521      -270.9579
  13   2.0000      -9.951634      -270.7977
  14   2.0000      -9.939031      -270.4548
  15   2.0000      -9.891262      -269.1549
  16   2.0000      -9.886248      -269.0185
  17   2.0000      -9.885293      -268.9925
  18   2.0000      -9.864986      -268.4399
  19   2.0000      -7.698397      -209.4840
  20   2.0000      -7.684594      -209.1084
  21   2.0000      -7.638641      -207.8580
  22   2.0000      -7.631407      -207.6611
  23   2.0000      -6.430363      -174.9791
  24   2.0000      -6.420261      -174.7042
  25   2.0000      -5.726161      -155.8168
  26   2.0000      -5.722861      -155.7270
  27   2.0000      -5.715567      -155.5285
  28   2.0000      -5.712819      -155.4537
  29   2.0000      -5.709095      -155.3524
  30   2.0000      -5.701292      -155.1400
  31   2.0000      -5.667633      -154.2241
  32   2.0000      -5.660377      -154.0267
  33   2.0000      -5.659100      -153.9919
  34   2.0000      -5.658894      -153.9863
  35   2.0000      -5.651909      -153.7963
  36   2.0000      -5.651643      -153.7890
  37   2.0000      -4.653231      -126.6209
  38   2.0000      -4.652036      -126.5883
  39   2.0000      -4.650632      -126.5501
  40   2.0000      -4.642623      -126.3322
  41   2.0000      -4.642293      -126.3232
  42   2.0000      -4.640706      -126.2800
  43   2.0000      -0.995434       -27.0871
  44   2.0000      -0.981842       -26.7173
  45   2.0000      -0.951554       -25.8931
  46   2.0000      -0.938243       -25.5309
  47   2.0000      -0.765958       -20.8428
  48   2.0000      -0.723393       -19.6845
  49   2.0000      -0.709359       -19.3026
  50   2.0000      -0.694969       -18.9111
  51   2.0000      -0.681351       -18.5405
  52   2.0000      -0.671652       -18.2766
  53   2.0000      -0.655881       -17.8474
  54   2.0000      -0.640735       -17.4353
  55   2.0000      -0.600972       -16.3533
  56   2.0000      -0.591704       -16.1011
  57   2.0000      -0.575124       -15.6499
  58   2.0000      -0.565139       -15.3782
  59   2.0000      -0.560510       -15.2523
  60   2.0000      -0.510559       -13.8930
  61   2.0000      -0.488990       -13.3061
  62   2.0000      -0.480475       -13.0744
  63   2.0000      -0.459616       -12.5068
  64   2.0000      -0.457377       -12.4459
  65   2.0000      -0.447363       -12.1734
  66   2.0000      -0.445291       -12.1170
  67   2.0000      -0.438350       -11.9281
  68   2.0000      -0.430835       -11.7236
  69   2.0000      -0.419996       -11.4287
  70   2.0000      -0.414614       -11.2822
  71   2.0000      -0.395758       -10.7691
  72   2.0000      -0.394735       -10.7413
  73   2.0000      -0.386526       -10.5179
  74   2.0000      -0.381216       -10.3734
  75   2.0000      -0.376355       -10.2411
  76   2.0000      -0.370325       -10.0771
  77   2.0000      -0.358748        -9.7620
  78   2.0000      -0.356710        -9.7066
  79   2.0000      -0.349302        -9.5050
  80   2.0000      -0.346880        -9.4391
  81   2.0000      -0.342707        -9.3255
  82   2.0000      -0.340092        -9.2544
  83   2.0000      -0.332306        -9.0425
  84   2.0000      -0.325892        -8.8680
  85   2.0000      -0.321512        -8.7488
  86   2.0000      -0.311684        -8.4813
  87   2.0000      -0.305158        -8.3038
  88   2.0000      -0.301447        -8.2028
  89   2.0000      -0.296034        -8.0555
  90   2.0000      -0.279895        -7.6163
  91   2.0000      -0.275485        -7.4963
  92   2.0000      -0.270719        -7.3666
  93   2.0000      -0.261406        -7.1132
  94   2.0000      -0.255460        -6.9514
  95   2.0000      -0.238633        -6.4935
  96   2.0000      -0.217159        -5.9092
  97   2.0000      -0.213311        -5.8045
  98   2.0000      -0.209256        -5.6942
  99   2.0000      -0.205348        -5.5878
 100   2.0000      -0.200584        -5.4582
 101   0.0000      -0.044172        -1.2020
 102   0.0000      -0.027983        -0.7615
 103   0.0000      -0.023533        -0.6404
 104   0.0000       0.002534         0.0690
 105   0.0000       0.012488         0.3398

MULLIKEN ATOMIC CHARGES
-----------------------
   0 C :   -0.325219
   1 C :    0.001051
   2 O :   -0.381872
   3 P :    0.606546
   4 S :   -0.298967
   5 O :   -0.350419
   6 C :   -0.014145
   7 C :   -0.289536
   8 S :   -0.096574
   9 C :   -0.369335
  10 S :   -0.086130
  11 P :    0.581491
  12 S :   -0.315424
  13 O :   -0.372974
  14 C :   -0.002990
  15 C :   -0.319519
  16 O :   -0.361465
  17 C :    0.015598
  18 C :   -0.349613
  19 H :    0.131869
  20 H :    0.117877
  21 H :    0.119759
  22 H :    0.114646
  23 H :    0.107739
  24 H :    0.101511
  25 H :    0.109182
  26 H :    0.109196
  27 H :    0.123645
  28 H :    0.135147
  29 H :    0.187944
  30 H :    0.213813
  31 H :    0.114266
  32 H :    0.106533
  33 H :    0.130739
  34 H :    0.113098
  35 H :    0.114419
  36 H :    0.106132
  37 H :    0.105248
  38 H :    0.114696
  39 H :    0.149195
  40 H :    0.102842
Sum of atomic charges:    0.0000000

LOEWDIN ATOMIC CHARGES
----------------------
   0 C :   -0.372070
   1 C :   -0.115072
   2 O :   -0.247433
   3 P :    0.576269
   4 S :   -0.291822
   5 O :   -0.230870
   6 C :   -0.115206
   7 C :   -0.353706
   8 S :    0.087520
   9 C :   -0.480223
  10 S :    0.070202
  11 P :    0.573831
  12 S :   -0.316221
  13 O :   -0.243283
  14 C :   -0.118349
  15 C :   -0.367456
  16 O :   -0.235839
  17 C :   -0.115643
  18 C :   -0.380411
  19 H :    0.122871
  20 H :    0.133661
  21 H :    0.123780
  22 H :    0.114556
  23 H :    0.120192
  24 H :    0.102738
  25 H :    0.116622
  26 H :    0.129833
  27 H :    0.130434
  28 H :    0.124765
  29 H :    0.130594
  30 H :    0.128048
  31 H :    0.111552
  32 H :    0.119151
  33 H :    0.123512
  34 H :    0.131584
  35 H :    0.120729
  36 H :    0.118941
  37 H :    0.108148
  38 H :    0.114341
  39 H :    0.121974
  40 H :    0.127754

  Mayer bond orders larger than 0.100000
B(  0-C ,  1-C ) :   1.1660 B(  0-C , 19-H ) :   0.9346 B(  0-C , 20-H ) :   0.9367
B(  0-C , 21-H ) :   0.9432 B(  1-C ,  2-O ) :   0.9038 B(  1-C , 22-H ) :   0.9199
B(  1-C , 23-H ) :   0.9341 B(  2-O ,  3-P ) :   1.0927 B(  3-P ,  4-S ) :   1.6423
B(  3-P ,  5-O ) :   1.1309 B(  3-P ,  8-S ) :   0.9367 B(  4-S ,  8-S ) :   0.1073
B(  5-O ,  6-C ) :   0.8864 B(  6-C ,  7-C ) :   1.1652 B(  6-C , 24-H ) :   0.9101
B(  6-C , 25-H ) :   0.9323 B(  7-C , 26-H ) :   0.9395 B(  7-C , 27-H ) :   0.9482
B(  7-C , 28-H ) :   0.9403 B(  8-S ,  9-C ) :   1.0155 B(  9-C , 10-S ) :   0.9579
B(  9-C , 29-H ) :   0.8999 B(  9-C , 30-H ) :   0.8533 B( 10-S , 11-P ) :   0.9717
B( 11-P , 12-S ) :   1.6236 B( 11-P , 13-O ) :   1.0792 B( 11-P , 16-O ) :   1.1162
B( 13-O , 14-C ) :   0.9139 B( 14-C , 15-C ) :   1.1609 B( 14-C , 31-H ) :   0.9146
B( 14-C , 32-H ) :   0.9343 B( 15-C , 33-H ) :   0.9346 B( 15-C , 34-H ) :   0.9378
B( 15-C , 35-H ) :   0.9429 B( 16-O , 17-C ) :   0.9006 B( 17-C , 18-C ) :   1.1663
B( 17-C , 36-H ) :   0.9284 B( 17-C , 37-H ) :   0.9223 B( 18-C , 38-H ) :   0.9315
B( 18-C , 39-H ) :   0.9218 B( 18-C , 40-H ) :   0.9368

Dispersion correction           -0.066296426
FINAL SINGLE POINT ENERGY     -2929.521283698300

DIPOLE MOMENT
-------------

Method             : SCF
Type of density    : Electron Density
Multiplicity       :   1
Irrep              :   0
Energy             : -2929.6420983511438862 Eh
Relativity type    :
Basis              : AO
                                X                 Y                 Z
Electronic contribution:     -5.027906033       4.580144677       0.936168983
Nuclear contribution   :      6.492231029      -4.956400457      -1.752149342
                        -----------------------------------------
Total Dipole Moment    :      1.464324995      -0.376255779      -0.815980359
                        -----------------------------------------
Magnitude (a.u.)       :      1.718033774
Magnitude (Debye)      :      4.366894811

Rotational constants in cm-1:             0.012599             0.004949             0.004661
Rotational constants in MHz :           377.716949           148.381378           139.728407

                             ****ORCA TERMINATED NORMALLY****
TOTAL RUN TIME: 0 days 0 hours 0 minutes 21 seconds 706 msec
