                         Program Version 6.0.0  -   RELEASE  -
|  1> ! r2scan-3c def2/J RI DEFGRID2 scfconv6 printgap
|  2> %output
|  3>     printlevel normal
|  4> end
|  5> * xyz 0 1
|  6> C 5.3614071582 -0.094941805 -1.2466173443
|  7> C 4.4982752592 -0.6514188841 -0.1315509525
|  8> O 3.4953654464 0.2974818195 0.282382278
|  9> P 2.0537260159 0.3947418206 -0.3847122612
| 10> S 1.9794245753 0.7877899935 -2.2978777344
| 11> O 1.3831312299 1.5097266611 0.4992939561
| 12> C 1.4366774499 1.5144302071 1.9475741445
| 13> C 2.4999474154 2.4749419042 2.4371899589
| 14> S 1.2318383133 -1.4913363456 0.1798057835
| 15> C 0.1139535733 -1.80602438 -1.2190078102
| 16> S -1.6016910905 -2.0368784633 -0.7059521011
| 17> P -1.9666393461 -0.0606169126 -0.0035496607
| 18> S -1.3918763447 1.3835103306 -1.1935944935
| 19> O -1.3154554996 0.0386041085 1.4263669512
| 20> C -1.6306773839 -0.8846363801 2.5050671446
| 21> C -2.6454290856 -0.2726198771 3.4471121807
| 22> O -3.5191725375 -0.1079810133 0.3191421026
| 23> C -4.4989546037 -0.1502037964 -0.7392073995
| 24> C -5.8461171309 0.1952447405 -0.138169932
| 25> H 6.1372190656 -0.8136576745 -1.4897831176
| 26> H 4.7591419258 0.0926774075 -2.1327607173
| 27> H 5.8206654512 0.8391604014 -0.935434999
| 28> H 5.0850061283 -0.831843849 0.7712343309
| 29> H 4.0085423928 -1.5791606377 -0.4394094029
| 30> H 0.4372968885 1.8289466605 2.2547826181
| 31> H 1.6275515799 0.4958683263 2.2970055111
| 32> H 2.4735897464 2.5096561076 3.5218313569
| 33> H 3.4825866198 2.1467874477 2.1091978227
| 34> H 2.31193634 3.4687324868 2.0399096
| 35> H 0.415951654 -2.7372401828 -1.6915494094
| 36> H 0.1893618581 -0.9666991289 -1.9172068493
| 37> H -2.0011583398 -1.8185608863 2.0741234733
| 38> H -0.67498051 -1.0639407972 3.0011991933
| 39> H -3.5785978594 -0.0857403739 2.9226894708
| 40> H -2.8254359528 -0.9608935614 4.2668899321
| 41> H -2.2721468098 0.6675155261 3.8434936699
| 42> H -4.2054881336 0.5668446479 -1.5129138688
| 43> H -4.4960661855 -1.1571722003 -1.1647704269
| 44> H -6.099920973 -0.5182345905 0.640279603
| 45> H -5.819313647 1.1933053424 0.2900712621
| 46> H -6.6010825268 0.1607741666 -0.9165864783
| 47> *
| 48>
| 49>                          ****END OF INPUT****

CARTESIAN COORDINATES (ANGSTROEM)
---------------------------------
  C      5.361407   -0.094942   -1.246617
  C      4.498275   -0.651419   -0.131551
  O      3.495365    0.297482    0.282382
  P      2.053726    0.394742   -0.384712
  S      1.979425    0.787790   -2.297878
  O      1.383131    1.509727    0.499294
  C      1.436677    1.514430    1.947574
  C      2.499947    2.474942    2.437190
  S      1.231838   -1.491336    0.179806
  C      0.113954   -1.806024   -1.219008
  S     -1.601691   -2.036878   -0.705952
  P     -1.966639   -0.060617   -0.003550
  S     -1.391876    1.383510   -1.193594
  O     -1.315455    0.038604    1.426367
  C     -1.630677   -0.884636    2.505067
  C     -2.645429   -0.272620    3.447112
  O     -3.519173   -0.107981    0.319142
  C     -4.498955   -0.150204   -0.739207
  C     -5.846117    0.195245   -0.138170
  H      6.137219   -0.813658   -1.489783
  H      4.759142    0.092677   -2.132761
  H      5.820665    0.839160   -0.935435
  H      5.085006   -0.831844    0.771234
  H      4.008542   -1.579161   -0.439409
  H      0.437297    1.828947    2.254783
  H      1.627552    0.495868    2.297006
  H      2.473590    2.509656    3.521831
  H      3.482587    2.146787    2.109198
  H      2.311936    3.468732    2.039910
  H      0.415952   -2.737240   -1.691549
  H      0.189362   -0.966699   -1.917207
  H     -2.001158   -1.818561    2.074123
  H     -0.674981   -1.063941    3.001199
  H     -3.578598   -0.085740    2.922689
  H     -2.825436   -0.960894    4.266890
  H     -2.272147    0.667516    3.843494
  H     -4.205488    0.566845   -1.512914
  H     -4.496066   -1.157172   -1.164770
  H     -6.099921   -0.518235    0.640280
  H     -5.819314    1.193305    0.290071
  H     -6.601083    0.160774   -0.916586

 Total Charge           Charge          ....    0
 Multiplicity           Mult            ....    1
 Number of Electrons    NEL             ....  202
 Basis Dimension        Dim             ....  539

ORBITAL ENERGIES
----------------

  NO   OCC          E(Eh)            E(eV)
   0   2.0000     -88.573739     -2410.2140
   1   2.0000     -88.571136     -2410.1431
   2   2.0000     -88.511097     -2408.5094
   3   2.0000     -88.509977     -2408.4789
   4   2.0000     -76.909464     -2092.8129
   5   2.0000     -76.908495     -2092.7865
   6   2.0000     -18.993213      -516.8316
   7   2.0000     -18.992848      -516.8217
   8   2.0000     -18.989503      -516.7306
   9   2.0000     -18.982623      -516.5434
  10   2.0000     -10.104086      -274.9462
  11   2.0000     -10.102828      -274.9119
  12   2.0000     -10.100028      -274.8357
  13   2.0000     -10.097883      -274.7774
  14   2.0000     -10.096360      -274.7359
  15   2.0000     -10.035055      -273.0677
  16   2.0000     -10.034578      -273.0548
  17   2.0000     -10.026573      -272.8369
  18   2.0000     -10.021744      -272.7055
  19   2.0000      -7.868257      -214.1062
  20   2.0000      -7.865659      -214.0355
  21   2.0000      -7.805965      -212.4111
  22   2.0000      -7.804454      -212.3700
  23   2.0000      -6.588010      -179.2689
  24   2.0000      -6.586689      -179.2329
  25   2.0000      -5.815055      -158.2357
  26   2.0000      -5.812427      -158.1642
  27   2.0000      -5.811898      -158.1498
  28   2.0000      -5.809399      -158.0818
  29   2.0000      -5.805633      -157.9793
  30   2.0000      -5.802954      -157.9064
  31   2.0000      -5.753758      -156.5677
  32   2.0000      -5.752299      -156.5280
  33   2.0000      -5.746246      -156.3633
  34   2.0000      -5.745796      -156.3511
  35   2.0000      -5.744637      -156.3195
  36   2.0000      -5.744421      -156.3136
  37   2.0000      -4.733888      -128.8156
  38   2.0000      -4.733134      -128.7951
  39   2.0000      -4.732444      -128.7763
  40   2.0000      -4.731755      -128.7576
  41   2.0000      -4.731154      -128.7413
  42   2.0000      -4.730102      -128.7126
  43   2.0000      -1.052362       -28.6362
  44   2.0000      -1.046553       -28.4782
  45   2.0000      -1.011821       -27.5330
  46   2.0000      -1.003812       -27.3151
  47   2.0000      -0.797099       -21.6902
  48   2.0000      -0.758221       -20.6322
  49   2.0000      -0.749465       -20.3940
  50   2.0000      -0.738888       -20.1062
  51   2.0000      -0.730397       -19.8751
  52   2.0000      -0.707599       -19.2547
  53   2.0000      -0.680559       -18.5189
  54   2.0000      -0.662100       -18.0167
  55   2.0000      -0.619397       -16.8547
  56   2.0000      -0.614885       -16.7319
  57   2.0000      -0.606323       -16.4989
  58   2.0000      -0.602152       -16.3854
  59   2.0000      -0.597452       -16.2575
  60   2.0000      -0.536121       -14.5886
  61   2.0000      -0.523254       -14.2385
  62   2.0000      -0.502285       -13.6679
  63   2.0000      -0.494376       -13.4526
  64   2.0000      -0.465861       -12.6767
  65   2.0000      -0.464678       -12.6445
  66   2.0000      -0.460929       -12.5425
  67   2.0000      -0.452467       -12.3123
  68   2.0000      -0.442834       -12.0501
  69   2.0000      -0.438635       -11.9359
  70   2.0000      -0.421286       -11.4638
  71   2.0000      -0.412401       -11.2220
  72   2.0000      -0.408952       -11.1282
  73   2.0000      -0.399315       -10.8659
  74   2.0000      -0.396660       -10.7937
  75   2.0000      -0.381486       -10.3808
  76   2.0000      -0.375084       -10.2066
  77   2.0000      -0.372702       -10.1417
  78   2.0000      -0.369971       -10.0674
  79   2.0000      -0.368192       -10.0190
  80   2.0000      -0.365308        -9.9405
  81   2.0000      -0.360888        -9.8203
  82   2.0000      -0.352677        -9.5968
  83   2.0000      -0.350289        -9.5319
  84   2.0000      -0.345086        -9.3903
  85   2.0000      -0.331243        -9.0136
  86   2.0000      -0.327660        -8.9161
  87   2.0000      -0.316257        -8.6058
  88   2.0000      -0.310577        -8.4512
  89   2.0000      -0.306524        -8.3409
  90   2.0000      -0.301957        -8.2167
  91   2.0000      -0.291470        -7.9313
  92   2.0000      -0.283956        -7.7268
  93   2.0000      -0.275461        -7.4957
  94   2.0000      -0.270105        -7.3499
  95   2.0000      -0.246962        -6.7202
  96   2.0000      -0.232886        -6.3371
  97   2.0000      -0.222666        -6.0591
  98   2.0000      -0.211309        -5.7500
  99   2.0000      -0.199942        -5.4407
 100   2.0000      -0.192422        -5.2361
 101   0.0000      -0.039223        -1.0673
 102   0.0000      -0.029569        -0.8046
 103   0.0000      -0.004597        -0.1251
 104   0.0000       0.014126         0.3844
 105   0.0000       0.019148         0.5210

MULLIKEN ATOMIC CHARGES
-----------------------
   0 C :   -0.438812
   1 C :   -0.155903
   2 O :   -0.291769
   3 P :    0.669547
   4 S :   -0.426971
   5 O :   -0.253765
   6 C :   -0.103491
   7 C :   -0.491678
   8 S :   -0.205191
   9 C :   -0.217002
  10 S :   -0.179699
  11 P :    0.640691
  12 S :   -0.388729
  13 O :   -0.252398
  14 C :   -0.106841
  15 C :   -0.462538
  16 O :   -0.296494
  17 C :   -0.155868
  18 C :   -0.442273
  19 H :    0.142409
  20 H :    0.181909
  21 H :    0.149985
  22 H :    0.147067
  23 H :    0.154742
  24 H :    0.171563
  25 H :    0.148891
  26 H :    0.142827
  27 H :    0.166549
  28 H :    0.161689
  29 H :    0.193136
  30 H :    0.222888
  31 H :    0.164573
  32 H :    0.159265
  33 H :    0.168918
  34 H :    0.148158
  35 H :    0.152791
  36 H :    0.174595
  37 H :    0.148734
  38 H :    0.149976
  39 H :    0.160287
  40 H :    0.148232
Sum of atomic charges:   -0.0000000

LOEWDIN ATOMIC CHARGES
----------------------
   0 C :   -0.402364
   1 C :    0.018770
   2 O :   -0.678167
   3 P :    0.377732
   4 S :   -0.096191
   5 O :   -0.646257
   6 C :    0.021377
   7 C :   -0.392526
   8 S :    0.128939
   9 C :   -0.417703
  10 S :    0.115364
  11 P :    0.367901
  12 S :   -0.055212
  13 O :   -0.667149
  14 C :    0.014588
  15 C :   -0.392630
  16 O :   -0.678093
  17 C :    0.019977
  18 C :   -0.386417
  19 H :    0.156790
  20 H :    0.170377
  21 H :    0.158630
  22 H :    0.177075
  23 H :    0.175912
  24 H :    0.188106
  25 H :    0.172493
  26 H :    0.157232
  27 H :    0.166012
  28 H :    0.163477
  29 H :    0.179687
  30 H :    0.203278
  31 H :    0.178914
  32 H :    0.179429
  33 H :    0.167295
  34 H :    0.158908
  35 H :    0.159233
  36 H :    0.182920
  37 H :    0.171395
  38 H :    0.157872
  39 H :    0.162179
  40 H :    0.160847

  Mayer bond orders larger than 0.100000
B(  0-C ,  1-C ) :   0.9549 B(  0-C , 19-H ) :   0.9654 B(  0-C , 20-H ) :   0.9528
B(  0-C , 21-H ) :   0.9733 B(  1-C ,  2-O ) :   0.7860 B(  1-C , 22-H ) :   0.9655
B(  1-C , 23-H ) :   0.9563 B(  2-O ,  3-P ) :   1.0372 B(  3-P ,  4-S ) :   1.8391
B(  3-P ,  5-O ) :   1.1610 B(  3-P ,  8-S ) :   1.0057 B(  5-O ,  6-C ) :   0.7233
B(  6-C ,  7-C ) :   0.9348 B(  6-C , 24-H ) :   0.9538 B(  6-C , 25-H ) :   0.9726
B(  7-C , 26-H ) :   0.9664 B(  7-C , 27-H ) :   0.9715 B(  7-C , 28-H ) :   0.9744
B(  8-S ,  9-C ) :   0.9014 B(  9-C , 10-S ) :   0.9246 B(  9-C , 29-H ) :   0.9157
B(  9-C , 30-H ) :   0.9036 B( 10-S , 11-P ) :   0.9861 B( 11-P , 12-S ) :   1.9076
B( 11-P , 13-O ) :   1.1005 B( 11-P , 16-O ) :   1.0554 B( 13-O , 14-C ) :   0.7121
B( 14-C , 15-C ) :   0.9307 B( 14-C , 31-H ) :   0.9592 B( 14-C , 32-H ) :   0.9642
B( 15-C , 33-H ) :   0.9672 B( 15-C , 34-H ) :   0.9680 B( 15-C , 35-H ) :   0.9739
B( 16-O , 17-C ) :   0.7882 B( 17-C , 18-C ) :   0.9558 B( 17-C , 36-H ) :   0.9493
B( 17-C , 37-H ) :   0.9419 B( 18-C , 38-H ) :   0.9720 B( 18-C , 39-H ) :   0.9713
B( 18-C , 40-H ) :   0.9632

Dispersion correction           -0.021743991
FINAL SINGLE POINT ENERGY     -2932.455951135242

DIPOLE MOMENT
-------------

Method             : SCF
Type of density    : Electron Density
Multiplicity       :   1
Irrep              :   0
Energy             : -2932.4807931493678552 Eh
Relativity type    :
Basis              : AO
                                X                 Y                 Z
Electronic contribution:      1.462101678      -2.347082693     -15.409647742
Nuclear contribution   :     -1.795948129       1.114743913      17.230395175
                        -----------------------------------------
Total Dipole Moment    :     -0.333846450      -1.232338780       1.820747434
                        -----------------------------------------
Magnitude (a.u.)       :      2.223788106
Magnitude (Debye)      :      5.652420160

Rotational constants in cm-1:             0.013412             0.005022             0.004641
Rotational constants in MHz :           402.092727           150.548392           139.130272

                             ****ORCA TERMINATED NORMALLY****
TOTAL RUN TIME: 0 days 0 hours 1 minutes 19 seconds 865 msec
