                         Program Version 6.0.0  -   RELEASE  -
|  1> ! r2scan-3c def2/J RI DEFGRID2 scfconv6 printgap
|  2> %output
|  3>     printlevel normal
|  4> end
|  5> %cpcm
|  6>     smd true
|  7>     smdsolvent "water"
|  8> end
|  9> * xyz 0 1
| 10> C 5.3614071582 -0.094941805 -1.2466173443
| 11> C 4.4982752592 -0.6514188841 -0.1315509525
| 12> O 3.4953654464 0.2974818195 0.282382278
| 13> P 2.0537260159 0.3947418206 -0.3847122612
| 14> S 1.9794245753 0.7877899935 -2.2978777344
| 15> O 1.3831312299 1.5097266611 0.4992939561
| 16> C 1.4366774499 1.5144302071 1.9475741445
| 17> C 2.4999474154 2.4749419042 2.4371899589
| 18> S 1.2318383133 -1.4913363456 0.1798057835
| 19> C 0.1139535733 -1.80602438 -1.2190078102
| 20> S -1.6016910905 -2.0368784633 -0.7059521011
| 21> P -1.9666393461 -0.0606169126 -0.0035496607
| 22> S -1.3918763447 1.3835103306 -1.1935944935
| 23> O -1.3154554996 0.0386041085 1.4263669512
| 24> C -1.6306773839 -0.8846363801 2.5050671446
| 25> C -2.6454290856 -0.2726198771 3.4471121807
| 26> O -3.5191725375 -0.1079810133 0.3191421026
| 27> C -4.4989546037 -0.1502037964 -0.7392073995
| 28> C -5.8461171309 0.1952447405 -0.138169932
| 29> H 6.1372190656 -0.8136576745 -1.4897831176
| 30> H 4.7591419258 0.0926774075 -2.1327607173
| 31> H 5.8206654512 0.8391604014 -0.935434999
| 32> H 5.0850061283 -0.831843849 0.7712343309
| 33> H 4.0085423928 -1.5791606377 -0.4394094029
| 34> H 0.4372968885 1.8289466605 2.2547826181
| 35> H 1.6275515799 0.4958683263 2.2970055111
| 36> H 2.4735897464 2.5096561076 3.5218313569
| 37> H 3.4825866198 2.1467874477 2.1091978227
| 38> H 2.31193634 3.4687324868 2.0399096
| 39> H 0.415951654 -2.7372401828 -1.6915494094
| 40> H 0.1893618581 -0.9666991289 -1.9172068493
| 41> H -2.0011583398 -1.8185608863 2.0741234733
| 42> H -0.67498051 -1.0639407972 3.0011991933
| 43> H -3.5785978594 -0.0857403739 2.9226894708
| 44> H -2.8254359528 -0.9608935614 4.2668899321
| 45> H -2.2721468098 0.6675155261 3.8434936699
| 46> H -4.2054881336 0.5668446479 -1.5129138688
| 47> H -4.4960661855 -1.1571722003 -1.1647704269
| 48> H -6.099920973 -0.5182345905 0.640279603
| 49> H -5.819313647 1.1933053424 0.2900712621
| 50> H -6.6010825268 0.1607741666 -0.9165864783
| 51> *
| 52>
| 53>                          ****END OF INPUT****

CARTESIAN COORDINATES (ANGSTROEM)
---------------------------------
  C      5.361407   -0.094942   -1.246617
  C      4.498275   -0.651419   -0.131551
  O      3.495365    0.297482    0.282382
  P      2.053726    0.394742   -0.384712
  S      1.979425    0.787790   -2.297878
  O      1.383131    1.509727    0.499294
  C      1.436677    1.514430    1.947574
  C      2.499947    2.474942    2.437190
  S      1.231838   -1.491336    0.179806
  C      0.113954   -1.806024   -1.219008
  S     -1.601691   -2.036878   -0.705952
  P     -1.966639   -0.060617   -0.003550
  S     -1.391876    1.383510   -1.193594
  O     -1.315455    0.038604    1.426367
  C     -1.630677   -0.884636    2.505067
  C     -2.645429   -0.272620    3.447112
  O     -3.519173   -0.107981    0.319142
  C     -4.498955   -0.150204   -0.739207
  C     -5.846117    0.195245   -0.138170
  H      6.137219   -0.813658   -1.489783
  H      4.759142    0.092677   -2.132761
  H      5.820665    0.839160   -0.935435
  H      5.085006   -0.831844    0.771234
  H      4.008542   -1.579161   -0.439409
  H      0.437297    1.828947    2.254783
  H      1.627552    0.495868    2.297006
  H      2.473590    2.509656    3.521831
  H      3.482587    2.146787    2.109198
  H      2.311936    3.468732    2.039910
  H      0.415952   -2.737240   -1.691549
  H      0.189362   -0.966699   -1.917207
  H     -2.001158   -1.818561    2.074123
  H     -0.674981   -1.063941    3.001199
  H     -3.578598   -0.085740    2.922689
  H     -2.825436   -0.960894    4.266890
  H     -2.272147    0.667516    3.843494
  H     -4.205488    0.566845   -1.512914
  H     -4.496066   -1.157172   -1.164770
  H     -6.099921   -0.518235    0.640280
  H     -5.819314    1.193305    0.290071
  H     -6.601083    0.160774   -0.916586

 Total Charge           Charge          ....    0
 Multiplicity           Mult            ....    1
 Number of Electrons    NEL             ....  202
 Basis Dimension        Dim             ....  539

ORBITAL ENERGIES
----------------

  NO   OCC          E(Eh)            E(eV)
   0   2.0000     -88.577628     -2410.3198
   1   2.0000     -88.575138     -2410.2520
   2   2.0000     -88.525061     -2408.8894
   3   2.0000     -88.523154     -2408.8375
   4   2.0000     -76.917948     -2093.0438
   5   2.0000     -76.916623     -2093.0077
   6   2.0000     -18.994777      -516.8742
   7   2.0000     -18.994155      -516.8572
   8   2.0000     -18.993218      -516.8317
   9   2.0000     -18.990764      -516.7650
  10   2.0000     -10.102692      -274.9082
  11   2.0000     -10.091637      -274.6074
  12   2.0000     -10.090876      -274.5867
  13   2.0000     -10.090845      -274.5859
  14   2.0000     -10.089648      -274.5533
  15   2.0000     -10.019874      -272.6546
  16   2.0000     -10.018627      -272.6207
  17   2.0000     -10.017889      -272.6006
  18   2.0000     -10.015594      -272.5382
  19   2.0000      -7.872075      -214.2101
  20   2.0000      -7.869559      -214.1416
  21   2.0000      -7.820351      -212.8026
  22   2.0000      -7.818139      -212.7424
  23   2.0000      -6.596170      -179.4909
  24   2.0000      -6.595191      -179.4643
  25   2.0000      -5.818882      -158.3398
  26   2.0000      -5.816368      -158.2714
  27   2.0000      -5.815734      -158.2542
  28   2.0000      -5.813357      -158.1895
  29   2.0000      -5.809438      -158.0828
  30   2.0000      -5.806771      -158.0103
  31   2.0000      -5.768006      -156.9554
  32   2.0000      -5.765828      -156.8961
  33   2.0000      -5.760713      -156.7570
  34   2.0000      -5.760158      -156.7419
  35   2.0000      -5.758319      -156.6918
  36   2.0000      -5.758170      -156.6878
  37   2.0000      -4.741868      -129.0328
  38   2.0000      -4.741164      -129.0136
  39   2.0000      -4.740998      -129.0091
  40   2.0000      -4.740279      -128.9895
  41   2.0000      -4.739756      -128.9753
  42   2.0000      -4.738516      -128.9416
  43   2.0000      -1.053744       -28.6738
  44   2.0000      -1.052029       -28.6272
  45   2.0000      -1.012278       -27.5455
  46   2.0000      -1.008976       -27.4556
  47   2.0000      -0.799468       -21.7546
  48   2.0000      -0.754561       -20.5327
  49   2.0000      -0.746077       -20.3018
  50   2.0000      -0.727307       -19.7910
  51   2.0000      -0.724869       -19.7247
  52   2.0000      -0.708387       -19.2762
  53   2.0000      -0.686624       -18.6840
  54   2.0000      -0.669809       -18.2264
  55   2.0000      -0.618859       -16.8400
  56   2.0000      -0.613304       -16.6889
  57   2.0000      -0.600865       -16.3504
  58   2.0000      -0.598402       -16.2833
  59   2.0000      -0.593396       -16.1471
  60   2.0000      -0.533489       -14.5170
  61   2.0000      -0.521375       -14.1873
  62   2.0000      -0.497161       -13.5284
  63   2.0000      -0.493273       -13.4226
  64   2.0000      -0.465703       -12.6724
  65   2.0000      -0.461481       -12.5575
  66   2.0000      -0.457634       -12.4529
  67   2.0000      -0.449414       -12.2292
  68   2.0000      -0.439958       -11.9719
  69   2.0000      -0.433952       -11.8084
  70   2.0000      -0.417886       -11.3713
  71   2.0000      -0.411775       -11.2050
  72   2.0000      -0.403512       -10.9801
  73   2.0000      -0.396061       -10.7774
  74   2.0000      -0.390136       -10.6161
  75   2.0000      -0.380764       -10.3611
  76   2.0000      -0.373859       -10.1732
  77   2.0000      -0.367287        -9.9944
  78   2.0000      -0.364976        -9.9315
  79   2.0000      -0.360704        -9.8153
  80   2.0000      -0.357824        -9.7369
  81   2.0000      -0.350754        -9.5445
  82   2.0000      -0.348023        -9.4702
  83   2.0000      -0.346588        -9.4311
  84   2.0000      -0.342409        -9.3174
  85   2.0000      -0.329289        -8.9604
  86   2.0000      -0.325768        -8.8646
  87   2.0000      -0.314038        -8.5454
  88   2.0000      -0.304574        -8.2879
  89   2.0000      -0.304113        -8.2753
  90   2.0000      -0.300080        -8.1656
  91   2.0000      -0.290141        -7.8951
  92   2.0000      -0.284746        -7.7483
  93   2.0000      -0.278231        -7.5711
  94   2.0000      -0.273583        -7.4446
  95   2.0000      -0.251040        -6.8311
  96   2.0000      -0.242240        -6.5917
  97   2.0000      -0.235535        -6.4092
  98   2.0000      -0.225177        -6.1274
  99   2.0000      -0.212174        -5.7735
 100   2.0000      -0.206651        -5.6233
 101   0.0000      -0.043891        -1.1943
 102   0.0000      -0.036953        -1.0055
 103   0.0000      -0.009664        -0.2630
 104   0.0000       0.006438         0.1752
 105   0.0000       0.014815         0.4031

MULLIKEN ATOMIC CHARGES
-----------------------
   0 C :   -0.486203
   1 C :   -0.138946
   2 O :   -0.311062
   3 P :    0.678941
   4 S :   -0.492016
   5 O :   -0.290169
   6 C :   -0.093136
   7 C :   -0.532372
   8 S :   -0.191453
   9 C :   -0.218606
  10 S :   -0.178282
  11 P :    0.668950
  12 S :   -0.470073
  13 O :   -0.277869
  14 C :   -0.091280
  15 C :   -0.507178
  16 O :   -0.314628
  17 C :   -0.146918
  18 C :   -0.481098
  19 H :    0.168740
  20 H :    0.170110
  21 H :    0.165861
  22 H :    0.175892
  23 H :    0.164577
  24 H :    0.181698
  25 H :    0.175286
  26 H :    0.171086
  27 H :    0.170722
  28 H :    0.168443
  29 H :    0.234411
  30 H :    0.214117
  31 H :    0.174804
  32 H :    0.183177
  33 H :    0.169681
  34 H :    0.172290
  35 H :    0.168117
  36 H :    0.173226
  37 H :    0.168481
  38 H :    0.166146
  39 H :    0.166947
  40 H :    0.169587
Sum of atomic charges:    0.0000000

LOEWDIN ATOMIC CHARGES
----------------------
   0 C :   -0.407660
   1 C :    0.025867
   2 O :   -0.683280
   3 P :    0.379356
   4 S :   -0.146382
   5 O :   -0.673361
   6 C :    0.027629
   7 C :   -0.395153
   8 S :    0.144162
   9 C :   -0.413822
  10 S :    0.124648
  11 P :    0.373323
  12 S :   -0.115485
  13 O :   -0.677997
  14 C :    0.023657
  15 C :   -0.395078
  16 O :   -0.683610
  17 C :    0.024116
  18 C :   -0.389149
  19 H :    0.166941
  20 H :    0.162792
  21 H :    0.161792
  22 H :    0.189674
  23 H :    0.180155
  24 H :    0.192604
  25 H :    0.182921
  26 H :    0.168802
  27 H :    0.165793
  28 H :    0.164072
  29 H :    0.195751
  30 H :    0.199441
  31 H :    0.183285
  32 H :    0.189731
  33 H :    0.165485
  34 H :    0.168986
  35 H :    0.163149
  36 H :    0.181783
  37 H :    0.179360
  38 H :    0.163253
  39 H :    0.163378
  40 H :    0.169071

  Mayer bond orders larger than 0.100000
B(  0-C ,  1-C ) :   0.9392 B(  0-C , 19-H ) :   0.9594 B(  0-C , 20-H ) :   0.9591
B(  0-C , 21-H ) :   0.9730 B(  1-C ,  2-O ) :   0.7757 B(  1-C , 22-H ) :   0.9550
B(  1-C , 23-H ) :   0.9512 B(  2-O ,  3-P ) :   1.0500 B(  3-P ,  4-S ) :   1.8007
B(  3-P ,  5-O ) :   1.1658 B(  3-P ,  8-S ) :   1.0333 B(  5-O ,  6-C ) :   0.7132
B(  6-C ,  7-C ) :   0.9271 B(  6-C , 24-H ) :   0.9463 B(  6-C , 25-H ) :   0.9584
B(  7-C , 26-H ) :   0.9593 B(  7-C , 27-H ) :   0.9701 B(  7-C , 28-H ) :   0.9728
B(  8-S ,  9-C ) :   0.8932 B(  9-C , 10-S ) :   0.9159 B(  9-C , 29-H ) :   0.8997
B(  9-C , 30-H ) :   0.9084 B( 10-S , 11-P ) :   1.0109 B( 11-P , 12-S ) :   1.8486
B( 11-P , 13-O ) :   1.1148 B( 11-P , 16-O ) :   1.0687 B( 13-O , 14-C ) :   0.7010
B( 14-C , 15-C ) :   0.9211 B( 14-C , 31-H ) :   0.9522 B( 14-C , 32-H ) :   0.9531
B( 15-C , 33-H ) :   0.9675 B( 15-C , 34-H ) :   0.9606 B( 15-C , 35-H ) :   0.9726
B( 16-O , 17-C ) :   0.7790 B( 17-C , 18-C ) :   0.9562 B( 17-C , 36-H ) :   0.9470
B( 17-C , 37-H ) :   0.9329 B( 18-C , 38-H ) :   0.9682 B( 18-C , 39-H ) :   0.9689
B( 18-C , 40-H ) :   0.9577

Dispersion correction           -0.021743991
FINAL SINGLE POINT ENERGY     -2932.468121518041

DIPOLE MOMENT
-------------

Method             : SCF
Type of density    : Electron Density
Multiplicity       :   1
Irrep              :   0
Energy             : -2932.4929635321673231 Eh
Relativity type    :
Basis              : AO
                                X                 Y                 Z
Electronic contribution:      1.430274589      -3.340961883     -14.559096321
Nuclear contribution   :     -1.795948129       1.114743913      17.230395175
                        -----------------------------------------
Total Dipole Moment    :     -0.365673539      -2.226217970       2.671298854
                        -----------------------------------------
Magnitude (a.u.)       :      3.496512714
Magnitude (Debye)      :      8.887429023

Rotational constants in cm-1:             0.013412             0.005022             0.004641
Rotational constants in MHz :           402.092727           150.548392           139.130272

                             ****ORCA TERMINATED NORMALLY****
TOTAL RUN TIME: 0 days 0 hours 1 minutes 57 seconds 590 msec
