                         Program Version 6.0.0  -   RELEASE  -
|  1> ! pbe def2-sv(p) def2/J RI DEFGRID1 loosescf d4 GCP(DFT/SV(P)) printgap
|  2> %output
|  3>     printlevel normal
|  4> end
|  5> * xyz 0 1
|  6> C 1.8502400991 -1.4698537787 -0.000292617
|  7> C 0.5697232599 -0.6941584569 0.0004107248
|  8> C -0.6403153854 -1.3830895144 0.0002091911
|  9> C -1.8294175261 -0.6788541283 -0.000113318
| 10> N -1.8850458851 0.6453538321 -0.0001897901
| 11> C -0.7354827266 1.3001411329 2.30365e-05
| 12> C 0.5213551008 0.703472223 0.0002351404
| 13> C 1.7539543804 1.5539380567 7.0757e-06
| 14> H 2.7191911991 -0.8222476947 0.0136073575
| 15> H 1.8839071539 -2.1225057592 0.8703360062
| 16> H 1.8959068077 -2.0999759078 -0.8869406432
| 17> H -0.6483059703 -2.4624335564 0.0003557697
| 18> H -2.7847153989 -1.1866105256 -0.0002595761
| 19> H -0.8254774657 2.3795513263 -0.0001279902
| 20> H 1.4827639321 2.6062296836 -0.0005237924
| 21> H 2.3579590743 1.3529176764 0.8830844636
| 22> H 2.3582935814 1.3519281335 -0.8826050539
| 23> *
| 24>
| 25>                          ****END OF INPUT****

CARTESIAN COORDINATES (ANGSTROEM)
---------------------------------
  C      1.850240   -1.469854   -0.000293
  C      0.569723   -0.694158    0.000411
  C     -0.640315   -1.383090    0.000209
  C     -1.829418   -0.678854   -0.000113
  N     -1.885046    0.645354   -0.000190
  C     -0.735483    1.300141    0.000023
  C      0.521355    0.703472    0.000235
  C      1.753954    1.553938    0.000007
  H      2.719191   -0.822248    0.013607
  H      1.883907   -2.122506    0.870336
  H      1.895907   -2.099976   -0.886941
  H     -0.648306   -2.462434    0.000356
  H     -2.784715   -1.186611   -0.000260
  H     -0.825477    2.379551   -0.000128
  H      1.482764    2.606230   -0.000524
  H      2.357959    1.352918    0.883084
  H      2.358294    1.351928   -0.882605

 Total Charge           Charge          ....    0
 Multiplicity           Mult            ....    1
 Number of Electrons    NEL             ....   58
 Basis Dimension        Dim             ....  130

ORBITAL ENERGIES
----------------

  NO   OCC          E(Eh)            E(eV)
   0   2.0000     -13.971044      -380.1714
   1   2.0000      -9.916180      -269.8330
   2   2.0000      -9.911979      -269.7187
   3   2.0000      -9.911094      -269.6946
   4   2.0000      -9.908079      -269.6125
   5   2.0000      -9.893733      -269.2222
   6   2.0000      -9.892660      -269.1930
   7   2.0000      -9.891959      -269.1739
   8   2.0000      -0.850108       -23.1326
   9   2.0000      -0.747742       -20.3471
  10   2.0000      -0.699174       -19.0255
  11   2.0000      -0.646434       -17.5904
  12   2.0000      -0.622126       -16.9289
  13   2.0000      -0.553240       -15.0544
  14   2.0000      -0.526765       -14.3340
  15   2.0000      -0.450541       -12.2598
  16   2.0000      -0.446879       -12.1602
  17   2.0000      -0.401595       -10.9280
  18   2.0000      -0.400872       -10.9083
  19   2.0000      -0.373894       -10.1742
  20   2.0000      -0.367715       -10.0060
  21   2.0000      -0.360336        -9.8052
  22   2.0000      -0.351793        -9.5728
  23   2.0000      -0.340750        -9.2723
  24   2.0000      -0.335468        -9.1286
  25   2.0000      -0.306439        -8.3386
  26   2.0000      -0.242343        -6.5945
  27   2.0000      -0.227699        -6.1960
  28   2.0000      -0.196558        -5.3486
  29   0.0000      -0.049572        -1.3489
  30   0.0000      -0.035822        -0.9748
  31   0.0000       0.038006         1.0342
  32   0.0000       0.062767         1.7080
  33   0.0000       0.071038         1.9331

MULLIKEN ATOMIC CHARGES
-----------------------
   0 C :   -0.222030
   1 C :    0.003025
   2 C :   -0.121422
   3 C :   -0.054560
   4 N :   -0.050862
   5 C :   -0.120521
   6 C :   -0.054492
   7 C :   -0.230902
   8 H :    0.104858
   9 H :    0.120798
  10 H :    0.121235
  11 H :    0.042410
  12 H :    0.063361
  13 H :    0.050206
  14 H :    0.107601
  15 H :    0.120793
  16 H :    0.120502
Sum of atomic charges:    0.0000000

LOEWDIN ATOMIC CHARGES
----------------------
   0 C :   -0.325513
   1 C :   -0.027689
   2 C :   -0.141916
   3 C :   -0.086696
   4 N :   -0.080071
   5 C :   -0.086821
   6 C :   -0.069887
   7 C :   -0.324151
   8 H :    0.125803
   9 H :    0.137936
  10 H :    0.138254
  11 H :    0.123903
  12 H :    0.112424
  13 H :    0.110789
  14 H :    0.128561
  15 H :    0.132551
  16 H :    0.132523

  Mayer bond orders larger than 0.100000
B(  0-C ,  1-C ) :   1.1329 B(  0-C ,  8-H ) :   0.9295 B(  0-C ,  9-H ) :   0.9317
B(  0-C , 10-H ) :   0.9314 B(  1-C ,  2-C ) :   1.4030 B(  1-C ,  6-C ) :   1.4271
B(  2-C ,  3-C ) :   1.3881 B(  2-C , 11-H ) :   0.9467 B(  3-C ,  4-N ) :   1.5372
B(  3-C , 12-H ) :   0.9524 B(  4-N ,  5-C ) :   1.5657 B(  5-C ,  6-C ) :   1.3696
B(  5-C , 13-H ) :   0.9450 B(  6-C ,  7-C ) :   1.1190 B(  7-C , 14-H ) :   0.9350
B(  7-C , 15-H ) :   0.9268 B(  7-C , 16-H ) :   0.9270

Dispersion correction           -0.016730255
FINAL SINGLE POINT ENERGY      -326.181685622009

DIPOLE MOMENT
-------------

Method             : SCF
Type of density    : Electron Density
Multiplicity       :   1
Irrep              :   0
Energy             :  -326.2301936244564331 Eh
Relativity type    :
Basis              : AO
                                X                 Y                 Z
Electronic contribution:     -6.893541671       0.510250354       0.001824800
Nuclear contribution   :      7.907359114      -0.937582121      -0.002884463
                        -----------------------------------------
Total Dipole Moment    :      1.013817443      -0.427331766      -0.001059663
                        -----------------------------------------
Magnitude (a.u.)       :      1.100199695
Magnitude (Debye)      :      2.796485384

Rotational constants in cm-1:             0.106761             0.074341             0.044549
Rotational constants in MHz :          3200.627253          2228.691292          1335.552525

                             ****ORCA TERMINATED NORMALLY****
TOTAL RUN TIME: 0 days 0 hours 0 minutes 7 seconds 11 msec
