                         Program Version 6.0.0  -   RELEASE  -
|  1> ! pbe def2-sv(p) def2/J RI DEFGRID1 loosescf d4 GCP(DFT/SV(P)) printgap
|  2> %output
|  3>     printlevel normal
|  4> end
|  5> * xyz 0 1
|  6> C 4.5276172057 1.2080748903 -2.2265879757
|  7> C 4.9107601167 0.8919207354 -0.7953439102
|  8> O 4.1058218885 -0.165141668 -0.2440567561
|  9> P 2.5579114475 0.0157782706 0.0757684695
| 10> S 2.1089684789 1.7756093351 0.8279561787
| 11> O 2.2785754584 -1.2624712354 0.9653070405
| 12> C 2.6224009395 -1.3379611685 2.3675972077
| 13> C 1.4481149374 -0.9239512676 3.2324771965
| 14> S 1.5311204363 -0.5617352055 -1.6685984228
| 15> C -0.045381611 0.1783981465 -1.1995632037
| 16> S -0.7990379614 -0.7461444582 0.187118799
| 17> P -2.7740822477 -0.0163214433 -0.1082663279
| 18> S -4.1357988327 -0.6447696073 1.1487214027
| 19> O -3.0692937941 -0.2753530446 -1.6486255231
| 20> C -3.7119070383 -1.4828130545 -2.0963937014
| 21> C -2.8107779355 -2.6948616431 -1.961380105
| 22> O -2.5918844436 1.5572444056 -0.237501315
| 23> C -2.7490426523 2.4262072134 0.89825193
| 24> C -1.6685764756 2.2168264609 1.9408970557
| 25> H 3.5296970045 1.6434322178 -2.2582228685
| 26> H 5.2355403168 1.9196914253 -2.6392301582
| 27> H 4.5325274588 0.3019829975 -2.8270557639
| 28> H 4.8006178787 1.778088076 -0.1616415098
| 29> H 5.9297857726 0.5094275012 -0.7245683311
| 30> H 2.8813629397 -2.3862800716 2.5240967483
| 31> H 3.4969701771 -0.7105424186 2.560236594
| 32> H 1.2198301444 0.129222966 3.0837674208
| 33> H 0.5703541121 -1.5091115015 2.9703628672
| 34> H 1.6950380507 -1.0884433252 4.276356095
| 35> H -0.7017057872 0.1319320499 -2.0651471525
| 36> H 0.125542438 1.2091880726 -0.8861064891
| 37> H -4.6308210791 -1.6222532612 -1.5181606945
| 38> H -3.9584214579 -1.2769918449 -3.1390499418
| 39> H -3.3074849196 -3.5585014824 -2.391967428
| 40> H -1.8667508934 -2.53221613 -2.4763594456
| 41> H -2.6093934212 -2.8932843475 -0.9089717964
| 42> H -2.7065232082 3.4285272349 0.4699172735
| 43> H -3.736733385 2.2491128595 1.3355184492
| 44> H -0.677735782 2.3486106275 1.510192763
| 45> H -1.8002059352 2.9363192473 2.7426572293
| 46> H -1.7431666429 1.2113546034 2.355548827
| 47> *
| 48>
| 49>                          ****END OF INPUT****

CARTESIAN COORDINATES (ANGSTROEM)
---------------------------------
  C      4.527617    1.208075   -2.226588
  C      4.910760    0.891921   -0.795344
  O      4.105822   -0.165142   -0.244057
  P      2.557911    0.015778    0.075768
  S      2.108968    1.775609    0.827956
  O      2.278575   -1.262471    0.965307
  C      2.622401   -1.337961    2.367597
  C      1.448115   -0.923951    3.232477
  S      1.531120   -0.561735   -1.668598
  C     -0.045382    0.178398   -1.199563
  S     -0.799038   -0.746144    0.187119
  P     -2.774082   -0.016321   -0.108266
  S     -4.135799   -0.644770    1.148721
  O     -3.069294   -0.275353   -1.648626
  C     -3.711907   -1.482813   -2.096394
  C     -2.810778   -2.694862   -1.961380
  O     -2.591884    1.557244   -0.237501
  C     -2.749043    2.426207    0.898252
  C     -1.668576    2.216826    1.940897
  H      3.529697    1.643432   -2.258223
  H      5.235540    1.919691   -2.639230
  H      4.532527    0.301983   -2.827056
  H      4.800618    1.778088   -0.161642
  H      5.929786    0.509428   -0.724568
  H      2.881363   -2.386280    2.524097
  H      3.496970   -0.710542    2.560237
  H      1.219830    0.129223    3.083767
  H      0.570354   -1.509112    2.970363
  H      1.695038   -1.088443    4.276356
  H     -0.701706    0.131932   -2.065147
  H      0.125542    1.209188   -0.886106
  H     -4.630821   -1.622253   -1.518161
  H     -3.958421   -1.276992   -3.139050
  H     -3.307485   -3.558501   -2.391967
  H     -1.866751   -2.532216   -2.476359
  H     -2.609393   -2.893284   -0.908972
  H     -2.706523    3.428527    0.469917
  H     -3.736733    2.249113    1.335518
  H     -0.677736    2.348611    1.510193
  H     -1.800206    2.936319    2.742657
  H     -1.743167    1.211355    2.355549

 Total Charge           Charge          ....    0
 Multiplicity           Mult            ....    1
 Number of Electrons    NEL             ....  202
 Basis Dimension        Dim             ....  334

ORBITAL ENERGIES
----------------

  NO   OCC          E(Eh)            E(eV)
   0   2.0000     -88.052906     -2396.0414
   1   2.0000     -88.039599     -2395.6793
   2   2.0000     -87.995720     -2394.4853
   3   2.0000     -87.988140     -2394.2790
   4   2.0000     -76.433085     -2079.8500
   5   2.0000     -76.424653     -2079.6205
   6   2.0000     -18.799632      -511.5640
   7   2.0000     -18.794342      -511.4200
   8   2.0000     -18.790317      -511.3105
   9   2.0000     -18.787102      -511.2230
  10   2.0000      -9.957306      -270.9521
  11   2.0000      -9.956151      -270.9206
  12   2.0000      -9.955664      -270.9074
  13   2.0000      -9.952163      -270.8121
  14   2.0000      -9.947387      -270.6822
  15   2.0000      -9.889293      -269.1014
  16   2.0000      -9.883504      -268.9438
  17   2.0000      -9.879170      -268.8259
  18   2.0000      -9.874187      -268.6903
  19   2.0000      -7.698321      -209.4820
  20   2.0000      -7.684144      -209.0962
  21   2.0000      -7.640345      -207.9044
  22   2.0000      -7.633298      -207.7126
  23   2.0000      -6.430798      -174.9909
  24   2.0000      -6.422084      -174.7538
  25   2.0000      -5.726047      -155.8137
  26   2.0000      -5.723103      -155.7336
  27   2.0000      -5.715106      -155.5159
  28   2.0000      -5.712333      -155.4405
  29   2.0000      -5.708706      -155.3418
  30   2.0000      -5.700880      -155.1288
  31   2.0000      -5.669035      -154.2623
  32   2.0000      -5.662266      -154.0781
  33   2.0000      -5.661242      -154.0502
  34   2.0000      -5.660489      -154.0297
  35   2.0000      -5.653830      -153.8485
  36   2.0000      -5.653521      -153.8401
  37   2.0000      -4.653310      -126.6230
  38   2.0000      -4.652396      -126.5981
  39   2.0000      -4.651442      -126.5722
  40   2.0000      -4.644370      -126.3797
  41   2.0000      -4.644310      -126.3781
  42   2.0000      -4.642403      -126.3262
  43   2.0000      -0.992461       -27.0062
  44   2.0000      -0.986448       -26.8426
  45   2.0000      -0.950159       -25.8552
  46   2.0000      -0.943105       -25.6632
  47   2.0000      -0.768195       -20.9036
  48   2.0000      -0.722551       -19.6616
  49   2.0000      -0.709243       -19.2995
  50   2.0000      -0.689804       -18.7705
  51   2.0000      -0.680393       -18.5144
  52   2.0000      -0.676624       -18.4119
  53   2.0000      -0.657735       -17.8979
  54   2.0000      -0.641589       -17.4585
  55   2.0000      -0.602186       -16.3863
  56   2.0000      -0.594400       -16.1745
  57   2.0000      -0.578703       -15.7473
  58   2.0000      -0.566164       -15.4061
  59   2.0000      -0.558830       -15.2065
  60   2.0000      -0.504416       -13.7258
  61   2.0000      -0.492431       -13.3997
  62   2.0000      -0.473999       -12.8982
  63   2.0000      -0.463729       -12.6187
  64   2.0000      -0.457094       -12.4382
  65   2.0000      -0.447348       -12.1730
  66   2.0000      -0.442658       -12.0453
  67   2.0000      -0.440258       -11.9800
  68   2.0000      -0.430902       -11.7255
  69   2.0000      -0.419102       -11.4044
  70   2.0000      -0.413758       -11.2589
  71   2.0000      -0.401829       -10.9343
  72   2.0000      -0.393787       -10.7155
  73   2.0000      -0.388202       -10.5635
  74   2.0000      -0.385003       -10.4765
  75   2.0000      -0.380565       -10.3557
  76   2.0000      -0.367595       -10.0028
  77   2.0000      -0.357273        -9.7219
  78   2.0000      -0.352993        -9.6054
  79   2.0000      -0.349352        -9.5064
  80   2.0000      -0.345945        -9.4136
  81   2.0000      -0.343041        -9.3346
  82   2.0000      -0.340807        -9.2738
  83   2.0000      -0.333997        -9.0885
  84   2.0000      -0.330079        -8.9819
  85   2.0000      -0.320331        -8.7166
  86   2.0000      -0.314596        -8.5606
  87   2.0000      -0.301050        -8.1920
  88   2.0000      -0.299486        -8.1494
  89   2.0000      -0.292283        -7.9534
  90   2.0000      -0.285627        -7.7723
  91   2.0000      -0.281364        -7.6563
  92   2.0000      -0.270348        -7.3565
  93   2.0000      -0.264351        -7.1933
  94   2.0000      -0.256417        -6.9775
  95   2.0000      -0.235346        -6.4041
  96   2.0000      -0.219774        -5.9804
  97   2.0000      -0.215463        -5.8630
  98   2.0000      -0.210384        -5.7249
  99   2.0000      -0.205944        -5.6040
 100   2.0000      -0.203100        -5.5266
 101   0.0000      -0.045622        -1.2414
 102   0.0000      -0.031014        -0.8439
 103   0.0000      -0.018549        -0.5047
 104   0.0000       0.001247         0.0339
 105   0.0000       0.014327         0.3899

MULLIKEN ATOMIC CHARGES
-----------------------
   0 C :   -0.318899
   1 C :   -0.005756
   2 O :   -0.371733
   3 P :    0.608199
   4 S :   -0.327669
   5 O :   -0.360110
   6 C :   -0.002041
   7 C :   -0.304659
   8 S :   -0.063600
   9 C :   -0.372643
  10 S :   -0.068336
  11 P :    0.579133
  12 S :   -0.314300
  13 O :   -0.369421
  14 C :   -0.004067
  15 C :   -0.312464
  16 O :   -0.371944
  17 C :    0.001101
  18 C :   -0.337553
  19 H :    0.127363
  20 H :    0.116081
  21 H :    0.119191
  22 H :    0.113363
  23 H :    0.107371
  24 H :    0.110096
  25 H :    0.101882
  26 H :    0.135471
  27 H :    0.127244
  28 H :    0.107232
  29 H :    0.189432
  30 H :    0.197975
  31 H :    0.113566
  32 H :    0.106184
  33 H :    0.112694
  34 H :    0.113150
  35 H :    0.130058
  36 H :    0.105153
  37 H :    0.109762
  38 H :    0.139619
  39 H :    0.108059
  40 H :    0.125814
Sum of atomic charges:    0.0000000

LOEWDIN ATOMIC CHARGES
----------------------
   0 C :   -0.369231
   1 C :   -0.119841
   2 O :   -0.243965
   3 P :    0.570627
   4 S :   -0.307399
   5 O :   -0.240540
   6 C :   -0.108766
   7 C :   -0.364566
   8 S :    0.107595
   9 C :   -0.481211
  10 S :    0.084552
  11 P :    0.569226
  12 S :   -0.317812
  13 O :   -0.241096
  14 C :   -0.118588
  15 C :   -0.367773
  16 O :   -0.242235
  17 C :   -0.117131
  18 C :   -0.374987
  19 H :    0.121160
  20 H :    0.132658
  21 H :    0.125232
  22 H :    0.110766
  23 H :    0.119817
  24 H :    0.121245
  25 H :    0.110067
  26 H :    0.125483
  27 H :    0.127381
  28 H :    0.128127
  29 H :    0.132095
  30 H :    0.121934
  31 H :    0.111549
  32 H :    0.118708
  33 H :    0.130724
  34 H :    0.123023
  35 H :    0.122795
  36 H :    0.118941
  37 H :    0.110159
  38 H :    0.121692
  39 H :    0.129524
  40 H :    0.120058

  Mayer bond orders larger than 0.100000
B(  0-C ,  1-C ) :   1.1646 B(  0-C , 19-H ) :   0.9356 B(  0-C , 20-H ) :   0.9381
B(  0-C , 21-H ) :   0.9453 B(  1-C ,  2-O ) :   0.9064 B(  1-C , 22-H ) :   0.9146
B(  1-C , 23-H ) :   0.9332 B(  2-O ,  3-P ) :   1.1135 B(  3-P ,  4-S ) :   1.5882
B(  3-P ,  5-O ) :   1.1385 B(  3-P ,  8-S ) :   0.9580 B(  4-S ,  8-S ) :   0.1147
B(  5-O ,  6-C ) :   0.8900 B(  6-C ,  7-C ) :   1.1712 B(  6-C , 24-H ) :   0.9344
B(  6-C , 25-H ) :   0.9194 B(  7-C , 26-H ) :   0.9340 B(  7-C , 27-H ) :   0.9428
B(  7-C , 28-H ) :   0.9387 B(  8-S ,  9-C ) :   1.0153 B(  9-C , 10-S ) :   0.9601
B(  9-C , 29-H ) :   0.8875 B(  9-C , 30-H ) :   0.8699 B( 10-S , 11-P ) :   0.9796
B( 11-P , 12-S ) :   1.6371 B( 11-P , 13-O ) :   1.0882 B( 11-P , 16-O ) :   1.0914
B( 13-O , 14-C ) :   0.9093 B( 14-C , 15-C ) :   1.1618 B( 14-C , 31-H ) :   0.9157
B( 14-C , 32-H ) :   0.9350 B( 15-C , 33-H ) :   0.9381 B( 15-C , 34-H ) :   0.9463
B( 15-C , 35-H ) :   0.9360 B( 16-O , 17-C ) :   0.9084 B( 17-C , 18-C ) :   1.1623
B( 17-C , 36-H ) :   0.9341 B( 17-C , 37-H ) :   0.9187 B( 18-C , 38-H ) :   0.9289
B( 18-C , 39-H ) :   0.9366 B( 18-C , 40-H ) :   0.9344

Dispersion correction           -0.064726130
FINAL SINGLE POINT ENERGY     -2929.521751144367

DIPOLE MOMENT
-------------

Method             : SCF
Type of density    : Electron Density
Multiplicity       :   1
Irrep              :   0
Energy             : -2929.6420126712673664 Eh
Relativity type    :
Basis              : AO
                                X                 Y                 Z
Electronic contribution:     -4.974147173      -2.083778870      -2.268959771
Nuclear contribution   :      6.131486474       2.085504235       1.716343164
                        -----------------------------------------
Total Dipole Moment    :      1.157339301       0.001725365      -0.552616607
                        -----------------------------------------
Magnitude (a.u.)       :      1.282506277
Magnitude (Debye)      :      3.259871889

Rotational constants in cm-1:             0.012543             0.004622             0.004289
Rotational constants in MHz :           376.043101           138.552009           128.566028

                             ****ORCA TERMINATED NORMALLY****
TOTAL RUN TIME: 0 days 0 hours 0 minutes 21 seconds 55 msec
