                         Program Version 6.0.0  -   RELEASE  -
|  1> ! pbe def2-sv(p) def2/J RI DEFGRID1 loosescf d4 GCP(DFT/SV(P)) printgap
|  2> %output
|  3>     printlevel normal
|  4> end
|  5> * xyz 0 1
|  6> C 3.7735969375 -0.6224352549 -2.7423556698
|  7> C 4.1334706994 0.498174448 -1.7890586605
|  8> O 3.6527974413 0.2544140249 -0.4546690433
|  9> P 2.1023757653 0.1950941948 -0.1053838205
| 10> S 1.015333295 1.5339566006 -1.0205860295
| 11> O 2.0681746192 0.3905544588 1.4569447707
| 12> C 2.8145246041 -0.4027377834 2.4105780148
| 13> C 4.1400718403 0.252302289 2.7397318341
| 14> S 1.6574232842 -1.8684717776 -0.4074627354
| 15> C -0.0338296612 -1.9101190929 0.2301334485
| 16> S -1.2575624359 -1.2123239897 -0.9230617977
| 17> P -2.300825288 0.0521873532 0.4411611659
| 18> S -1.2223279619 0.6820939739 1.9540295078
| 19> O -3.5108622477 -0.7777882904 1.0216847063
| 20> C -4.7590274378 -1.0684744411 0.3469207478
| 21> C -4.575701965 -1.9294829942 -0.8851197171
| 22> O -3.0591404142 1.0894651584 -0.4852551242
| 23> C -2.4706317968 2.1170303488 -1.3020389243
| 24> C -2.1432484056 3.3513008167 -0.487038193
| 25> H 4.0900204801 -1.5808961101 -2.3382657387
| 26> H 2.695850711 -0.6458212483 -2.8987128331
| 27> H 4.2625832177 -0.4522507335 -3.696116162
| 28> H 3.7159299297 1.4482156467 -2.1366043905
| 29> H 5.2130901576 0.5905839564 -1.6631307332
| 30> H 2.1622384491 -0.4476926504 3.285556703
| 31> H 2.9614826152 -1.4064325715 2.0012731717
| 32> H 3.9752007565 1.2674179565 3.0909942738
| 33> H 4.6333573947 -0.3211327328 3.5183694132
| 34> H 4.7746272689 0.2833489189 1.8581251386
| 35> H -0.0916746049 -1.3441815322 1.1649432191
| 36> H -0.2644138031 -2.9608613942 0.3835728438
| 37> H -5.3375771209 -1.5849490506 1.1146037013
| 38> H -5.2382787238 -0.1211418302 0.0947431496
| 39> H -5.5528642567 -2.1851017399 -1.2830751514
| 40> H -4.0133045974 -1.3922630031 -1.6462357911
| 41> H -4.0415466487 -2.8425724972 -0.6358870881
| 42> H -1.5734693966 1.7298897492 -1.7911467677
| 43> H -3.2376789062 2.3272008054 -2.0498387193
| 44> H -3.0251067712 3.7011551105 0.0431640499
| 45> H -1.3624883588 3.1259781605 0.2370490392
| 46> H -1.7823414537 4.1299895238 -1.1508551549
| 47> *
| 48>
| 49>                          ****END OF INPUT****

CARTESIAN COORDINATES (ANGSTROEM)
---------------------------------
  C      3.773597   -0.622435   -2.742356
  C      4.133471    0.498174   -1.789059
  O      3.652797    0.254414   -0.454669
  P      2.102376    0.195094   -0.105384
  S      1.015333    1.533957   -1.020586
  O      2.068175    0.390554    1.456945
  C      2.814525   -0.402738    2.410578
  C      4.140072    0.252302    2.739732
  S      1.657423   -1.868472   -0.407463
  C     -0.033830   -1.910119    0.230133
  S     -1.257562   -1.212324   -0.923062
  P     -2.300825    0.052187    0.441161
  S     -1.222328    0.682094    1.954030
  O     -3.510862   -0.777788    1.021685
  C     -4.759027   -1.068474    0.346921
  C     -4.575702   -1.929483   -0.885120
  O     -3.059140    1.089465   -0.485255
  C     -2.470632    2.117030   -1.302039
  C     -2.143248    3.351301   -0.487038
  H      4.090020   -1.580896   -2.338266
  H      2.695851   -0.645821   -2.898713
  H      4.262583   -0.452251   -3.696116
  H      3.715930    1.448216   -2.136604
  H      5.213090    0.590584   -1.663131
  H      2.162238   -0.447693    3.285557
  H      2.961483   -1.406433    2.001273
  H      3.975201    1.267418    3.090994
  H      4.633357   -0.321133    3.518369
  H      4.774627    0.283349    1.858125
  H     -0.091675   -1.344182    1.164943
  H     -0.264414   -2.960861    0.383573
  H     -5.337577   -1.584949    1.114604
  H     -5.238279   -0.121142    0.094743
  H     -5.552864   -2.185102   -1.283075
  H     -4.013305   -1.392263   -1.646236
  H     -4.041547   -2.842572   -0.635887
  H     -1.573469    1.729890   -1.791147
  H     -3.237679    2.327201   -2.049839
  H     -3.025107    3.701155    0.043164
  H     -1.362488    3.125978    0.237049
  H     -1.782341    4.129990   -1.150855

 Total Charge           Charge          ....    0
 Multiplicity           Mult            ....    1
 Number of Electrons    NEL             ....  202
 Basis Dimension        Dim             ....  334

ORBITAL ENERGIES
----------------

  NO   OCC          E(Eh)            E(eV)
   0   2.0000     -88.042743     -2395.7648
   1   2.0000     -88.034487     -2395.5402
   2   2.0000     -87.979424     -2394.0418
   3   2.0000     -87.974837     -2393.9170
   4   2.0000     -76.423512     -2079.5895
   5   2.0000     -76.420171     -2079.4986
   6   2.0000     -18.792688      -511.3750
   7   2.0000     -18.792622      -511.3732
   8   2.0000     -18.787451      -511.2325
   9   2.0000     -18.780156      -511.0340
  10   2.0000      -9.953053      -270.8363
  11   2.0000      -9.951956      -270.8065
  12   2.0000      -9.951664      -270.7985
  13   2.0000      -9.951297      -270.7885
  14   2.0000      -9.947672      -270.6899
  15   2.0000      -9.885693      -269.0034
  16   2.0000      -9.884885      -268.9814
  17   2.0000      -9.882686      -268.9215
  18   2.0000      -9.871285      -268.6113
  19   2.0000      -7.687602      -209.1903
  20   2.0000      -7.679379      -208.9665
  21   2.0000      -7.624571      -207.4751
  22   2.0000      -7.619994      -207.3506
  23   2.0000      -6.420906      -174.7217
  24   2.0000      -6.417392      -174.6261
  25   2.0000      -5.715305      -155.5213
  26   2.0000      -5.712026      -155.4321
  27   2.0000      -5.707260      -155.3025
  28   2.0000      -5.704862      -155.2372
  29   2.0000      -5.703987      -155.2134
  30   2.0000      -5.696291      -155.0040
  31   2.0000      -5.653478      -153.8389
  32   2.0000      -5.649059      -153.7187
  33   2.0000      -5.645012      -153.6086
  34   2.0000      -5.644836      -153.6038
  35   2.0000      -5.640904      -153.4968
  36   2.0000      -5.639665      -153.4631
  37   2.0000      -4.643931      -126.3678
  38   2.0000      -4.642725      -126.3350
  39   2.0000      -4.640942      -126.2864
  40   2.0000      -4.640432      -126.2726
  41   2.0000      -4.639040      -126.2347
  42   2.0000      -4.637584      -126.1951
  43   2.0000      -0.985813       -26.8253
  44   2.0000      -0.983456       -26.7612
  45   2.0000      -0.943986       -25.6872
  46   2.0000      -0.937459       -25.5096
  47   2.0000      -0.757969       -20.6254
  48   2.0000      -0.717689       -19.5293
  49   2.0000      -0.708368       -19.2757
  50   2.0000      -0.689237       -18.7551
  51   2.0000      -0.685705       -18.6590
  52   2.0000      -0.672707       -18.3053
  53   2.0000      -0.648079       -17.6351
  54   2.0000      -0.630325       -17.1520
  55   2.0000      -0.593312       -16.1448
  56   2.0000      -0.584626       -15.9085
  57   2.0000      -0.574178       -15.6242
  58   2.0000      -0.573444       -15.6042
  59   2.0000      -0.557484       -15.1699
  60   2.0000      -0.499614       -13.5952
  61   2.0000      -0.493233       -13.4216
  62   2.0000      -0.473504       -12.8847
  63   2.0000      -0.469211       -12.7679
  64   2.0000      -0.449029       -12.2187
  65   2.0000      -0.446555       -12.1514
  66   2.0000      -0.440578       -11.9887
  67   2.0000      -0.429734       -11.6937
  68   2.0000      -0.426703       -11.6112
  69   2.0000      -0.420926       -11.4540
  70   2.0000      -0.412946       -11.2368
  71   2.0000      -0.394590       -10.7373
  72   2.0000      -0.389917       -10.6102
  73   2.0000      -0.387951       -10.5567
  74   2.0000      -0.378843       -10.3089
  75   2.0000      -0.365559        -9.9474
  76   2.0000      -0.357178        -9.7193
  77   2.0000      -0.353468        -9.6183
  78   2.0000      -0.351179        -9.5561
  79   2.0000      -0.350584        -9.5399
  80   2.0000      -0.344866        -9.3843
  81   2.0000      -0.344547        -9.3756
  82   2.0000      -0.339135        -9.2283
  83   2.0000      -0.333127        -9.0648
  84   2.0000      -0.326181        -8.8758
  85   2.0000      -0.316024        -8.5995
  86   2.0000      -0.312026        -8.4907
  87   2.0000      -0.293690        -7.9917
  88   2.0000      -0.291708        -7.9378
  89   2.0000      -0.288067        -7.8387
  90   2.0000      -0.285207        -7.7609
  91   2.0000      -0.271232        -7.3806
  92   2.0000      -0.267097        -7.2681
  93   2.0000      -0.260316        -7.0836
  94   2.0000      -0.254254        -6.9186
  95   2.0000      -0.240312        -6.5392
  96   2.0000      -0.220373        -5.9967
  97   2.0000      -0.200168        -5.4468
  98   2.0000      -0.195270        -5.3136
  99   2.0000      -0.187853        -5.1117
 100   2.0000      -0.180682        -4.9166
 101   0.0000      -0.036064        -0.9813
 102   0.0000      -0.027879        -0.7586
 103   0.0000      -0.012943        -0.3522
 104   0.0000       0.004074         0.1109
 105   0.0000       0.021978         0.5981

MULLIKEN ATOMIC CHARGES
-----------------------
   0 C :   -0.326469
   1 C :    0.000685
   2 O :   -0.382153
   3 P :    0.616612
   4 S :   -0.314887
   5 O :   -0.345847
   6 C :   -0.015695
   7 C :   -0.289002
   8 S :   -0.110095
   9 C :   -0.345570
  10 S :   -0.103851
  11 P :    0.617864
  12 S :   -0.300937
  13 O :   -0.364520
  14 C :    0.005854
  15 C :   -0.313818
  16 O :   -0.386479
  17 C :   -0.016985
  18 C :   -0.305630
  19 H :    0.119017
  20 H :    0.133256
  21 H :    0.115198
  22 H :    0.113201
  23 H :    0.104302
  24 H :    0.113163
  25 H :    0.098346
  26 H :    0.121628
  27 H :    0.107887
  28 H :    0.120853
  29 H :    0.192027
  30 H :    0.180841
  31 H :    0.107356
  32 H :    0.107972
  33 H :    0.111416
  34 H :    0.122939
  35 H :    0.118983
  36 H :    0.130912
  37 H :    0.098396
  38 H :    0.109358
  39 H :    0.147053
  40 H :    0.106821
Sum of atomic charges:    0.0000000

LOEWDIN ATOMIC CHARGES
----------------------
   0 C :   -0.373334
   1 C :   -0.118072
   2 O :   -0.247879
   3 P :    0.573570
   4 S :   -0.302869
   5 O :   -0.225293
   6 C :   -0.116638
   7 C :   -0.359647
   8 S :    0.075523
   9 C :   -0.485046
  10 S :    0.066571
  11 P :    0.568359
  12 S :   -0.296525
  13 O :   -0.244765
  14 C :   -0.109888
  15 C :   -0.368120
  16 O :   -0.239405
  17 C :   -0.115733
  18 C :   -0.365343
  19 H :    0.123105
  20 H :    0.123483
  21 H :    0.132400
  22 H :    0.112843
  23 H :    0.118082
  24 H :    0.121983
  25 H :    0.101326
  26 H :    0.129536
  27 H :    0.128826
  28 H :    0.125336
  29 H :    0.120561
  30 H :    0.135306
  31 H :    0.120918
  32 H :    0.113668
  33 H :    0.129860
  34 H :    0.117226
  35 H :    0.125449
  36 H :    0.108108
  37 H :    0.114925
  38 H :    0.123677
  39 H :    0.128440
  40 H :    0.129475

  Mayer bond orders larger than 0.100000
B(  0-C ,  1-C ) :   1.1654 B(  0-C , 19-H ) :   0.9425 B(  0-C , 20-H ) :   0.9325
B(  0-C , 21-H ) :   0.9371 B(  1-C ,  2-O ) :   0.9057 B(  1-C , 22-H ) :   0.9167
B(  1-C , 23-H ) :   0.9334 B(  2-O ,  3-P ) :   1.0784 B(  3-P ,  4-S ) :   1.6526
B(  3-P ,  5-O ) :   1.1426 B(  3-P ,  8-S ) :   0.9485 B(  4-S ,  8-S ) :   0.1118
B(  5-O ,  6-C ) :   0.8966 B(  6-C ,  7-C ) :   1.1671 B(  6-C , 24-H ) :   0.9325
B(  6-C , 25-H ) :   0.9081 B(  7-C , 26-H ) :   0.9474 B(  7-C , 27-H ) :   0.9397
B(  7-C , 28-H ) :   0.9417 B(  8-S ,  9-C ) :   0.9948 B(  9-C , 10-S ) :   0.9982
B(  9-C , 29-H ) :   0.8449 B(  9-C , 30-H ) :   0.9113 B( 10-S , 11-P ) :   0.9458
B( 10-S , 12-S ) :   0.1188 B( 11-P , 12-S ) :   1.6419 B( 11-P , 13-O ) :   1.1208
B( 11-P , 16-O ) :   1.0946 B( 12-S , 29-H ) :   0.1220 B( 13-O , 14-C ) :   0.9082
B( 14-C , 15-C ) :   1.1695 B( 14-C , 31-H ) :   0.9352 B( 14-C , 32-H ) :   0.9273
B( 15-C , 33-H ) :   0.9362 B( 15-C , 34-H ) :   0.9397 B( 15-C , 35-H ) :   0.9440
B( 16-O , 17-C ) :   0.8962 B( 17-C , 18-C ) :   1.1743 B( 17-C , 36-H ) :   0.9105
B( 17-C , 37-H ) :   0.9347 B( 18-C , 38-H ) :   0.9464 B( 18-C , 39-H ) :   0.9285
B( 18-C , 40-H ) :   0.9385

Dispersion correction           -0.066335337
FINAL SINGLE POINT ENERGY     -2929.511541427449

DIPOLE MOMENT
-------------

Method             : SCF
Type of density    : Electron Density
Multiplicity       :   1
Irrep              :   0
Energy             : -2929.6303975124551471 Eh
Relativity type    :
Basis              : AO
                                X                 Y                 Z
Electronic contribution:     -2.746376392      -1.848370366       3.859220065
Nuclear contribution   :      2.939558484       1.055216073      -4.485139158
                        -----------------------------------------
Total Dipole Moment    :      0.193182092      -0.793154293      -0.625919093
                        -----------------------------------------
Magnitude (a.u.)       :      1.028682539
Magnitude (Debye)      :      2.614703219

Rotational constants in cm-1:             0.012595             0.004886             0.004875
Rotational constants in MHz :           377.599869           146.466599           146.144248

                             ****ORCA TERMINATED NORMALLY****
TOTAL RUN TIME: 0 days 0 hours 0 minutes 21 seconds 42 msec
