                         Program Version 6.0.0  -   RELEASE  -
|  1> ! r2scan-3c def2/J RI DEFGRID2 scfconv6 printgap
|  2> %output
|  3>     printlevel normal
|  4> end
|  5> * xyz 0 1
|  6> C 1.8144621102 0.0816076944 3.3412867086
|  7> C 1.1949259223 -0.7049310857 2.2038231875
|  8> O 1.8794055572 -0.336078036 0.9939224675
|  9> P 1.9569321753 -1.2697248141 -0.2920517133
| 10> S 2.1188010257 -3.184130464 0.0814190229
| 11> O 3.1279280654 -0.5859553161 -1.1115843904
| 12> C 4.5022678232 -1.000737673 -0.956992974
| 13> C 5.0349983007 -0.6895446856 0.4253562299
| 14> S 0.3278157184 -0.7123572634 -1.5207019354
| 15> C 0.5238156156 1.0950920973 -1.467790951
| 16> S -0.0775648585 1.8479915357 0.0689351759
| 17> P -2.0509503611 1.1104451625 -0.0444257932
| 18> S -2.8375737069 0.9980741826 -1.8419556709
| 19> O -2.8150758755 1.9951632101 1.0304801223
| 20> C -3.0532411653 3.4085960326 0.866047406
| 21> C -4.3612511082 3.6668794331 0.1436426229
| 22> O -1.9717217568 -0.2528769788 0.7607208645
| 23> C -2.7300005257 -1.4343195786 0.4228693934
| 24> C -1.9530277403 -2.652532483 0.8778317251
| 25> H 1.7295112353 1.1457333233 3.1389542594
| 26> H 1.2903673578 -0.1530704346 4.2618379401
| 27> H 2.8641200185 -0.1759855777 3.4505732325
| 28> H 0.1348586272 -0.4608358218 2.089805544
| 29> H 1.300887398 -1.7854712598 2.3494990504
| 30> H 4.5630865339 -2.0738780276 -1.162379628
| 31> H 5.0293051228 -0.4434820836 -1.7325644441
| 32> H 4.8780204016 0.3593890935 0.6628609825
| 33> H 4.5196508134 -1.3017723315 1.1642537112
| 34> H 6.0963587929 -0.9146935937 0.4604266422
| 35> H -0.0633239166 1.4728240471 -2.3041113613
| 36> H 1.5739365442 1.3553056266 -1.5649526358
| 37> H -3.0804632503 3.7954056748 1.8864367387
| 38> H -2.2113056486 3.8547867197 0.3292068564
| 39> H -5.1817629656 3.1933849901 0.675570831
| 40> H -4.5360500694 4.7367081404 0.0925899793
| 41> H -4.3229391468 3.2647420624 -0.8662363693
| 42> H -3.6920409509 -1.3659965586 0.9355277536
| 43> H -2.8979384348 -1.4472174965 -0.6594027354
| 44> H -2.5300053311 -3.543697391 0.6539397081
| 45> H -0.9984027791 -2.7162760064 0.3586753054
| 46> H -1.76880759 -2.6033471163 1.9472660893
| 47> *
| 48>
| 49>                          ****END OF INPUT****

CARTESIAN COORDINATES (ANGSTROEM)
---------------------------------
  C      1.814462    0.081608    3.341287
  C      1.194926   -0.704931    2.203823
  O      1.879406   -0.336078    0.993922
  P      1.956932   -1.269725   -0.292052
  S      2.118801   -3.184130    0.081419
  O      3.127928   -0.585955   -1.111584
  C      4.502268   -1.000738   -0.956993
  C      5.034998   -0.689545    0.425356
  S      0.327816   -0.712357   -1.520702
  C      0.523816    1.095092   -1.467791
  S     -0.077565    1.847992    0.068935
  P     -2.050950    1.110445   -0.044426
  S     -2.837574    0.998074   -1.841956
  O     -2.815076    1.995163    1.030480
  C     -3.053241    3.408596    0.866047
  C     -4.361251    3.666879    0.143643
  O     -1.971722   -0.252877    0.760721
  C     -2.730001   -1.434320    0.422869
  C     -1.953028   -2.652532    0.877832
  H      1.729511    1.145733    3.138954
  H      1.290367   -0.153070    4.261838
  H      2.864120   -0.175986    3.450573
  H      0.134859   -0.460836    2.089806
  H      1.300887   -1.785471    2.349499
  H      4.563087   -2.073878   -1.162380
  H      5.029305   -0.443482   -1.732564
  H      4.878020    0.359389    0.662861
  H      4.519651   -1.301772    1.164254
  H      6.096359   -0.914694    0.460427
  H     -0.063324    1.472824   -2.304111
  H      1.573937    1.355306   -1.564953
  H     -3.080463    3.795406    1.886437
  H     -2.211306    3.854787    0.329207
  H     -5.181763    3.193385    0.675571
  H     -4.536050    4.736708    0.092590
  H     -4.322939    3.264742   -0.866236
  H     -3.692041   -1.365997    0.935528
  H     -2.897938   -1.447217   -0.659403
  H     -2.530005   -3.543697    0.653940
  H     -0.998403   -2.716276    0.358675
  H     -1.768808   -2.603347    1.947266

 Total Charge           Charge          ....    0
 Multiplicity           Mult            ....    1
 Number of Electrons    NEL             ....  202
 Basis Dimension        Dim             ....  539

ORBITAL ENERGIES
----------------

  NO   OCC          E(Eh)            E(eV)
   0   2.0000     -88.578870     -2410.3536
   1   2.0000     -88.574834     -2410.2438
   2   2.0000     -88.523529     -2408.8477
   3   2.0000     -88.523067     -2408.8351
   4   2.0000     -76.917326     -2093.0268
   5   2.0000     -76.914493     -2092.9497
   6   2.0000     -18.994690      -516.8718
   7   2.0000     -18.992631      -516.8158
   8   2.0000     -18.990113      -516.7473
   9   2.0000     -18.989624      -516.7339
  10   2.0000     -10.110675      -275.1255
  11   2.0000     -10.103459      -274.9291
  12   2.0000     -10.101175      -274.8670
  13   2.0000     -10.093676      -274.6629
  14   2.0000     -10.091995      -274.6172
  15   2.0000     -10.031868      -272.9810
  16   2.0000     -10.030345      -272.9396
  17   2.0000     -10.027249      -272.8553
  18   2.0000     -10.023101      -272.7424
  19   2.0000      -7.873401      -214.2461
  20   2.0000      -7.868836      -214.1219
  21   2.0000      -7.818264      -212.7458
  22   2.0000      -7.817692      -212.7302
  23   2.0000      -6.595553      -179.4741
  24   2.0000      -6.592907      -179.4021
  25   2.0000      -5.820250      -158.3771
  26   2.0000      -5.817143      -158.2925
  27   2.0000      -5.816171      -158.2661
  28   2.0000      -5.812385      -158.1630
  29   2.0000      -5.810616      -158.1149
  30   2.0000      -5.805844      -157.9850
  31   2.0000      -5.765870      -156.8973
  32   2.0000      -5.765303      -156.8819
  33   2.0000      -5.758483      -156.6963
  34   2.0000      -5.758380      -156.6935
  35   2.0000      -5.758092      -156.6857
  36   2.0000      -5.757634      -156.6732
  37   2.0000      -4.740949      -129.0078
  38   2.0000      -4.740578      -128.9977
  39   2.0000      -4.739320      -128.9635
  40   2.0000      -4.738205      -128.9331
  41   2.0000      -4.738001      -128.9276
  42   2.0000      -4.736688      -128.8918
  43   2.0000      -1.050833       -28.5946
  44   2.0000      -1.050356       -28.5816
  45   2.0000      -1.011142       -27.5146
  46   2.0000      -1.010234       -27.4899
  47   2.0000      -0.803876       -21.8746
  48   2.0000      -0.761621       -20.7248
  49   2.0000      -0.750343       -20.4179
  50   2.0000      -0.733283       -19.9536
  51   2.0000      -0.729255       -19.8440
  52   2.0000      -0.709627       -19.3099
  53   2.0000      -0.689299       -18.7568
  54   2.0000      -0.671152       -18.2630
  55   2.0000      -0.630613       -17.1598
  56   2.0000      -0.625055       -17.0086
  57   2.0000      -0.606396       -16.5009
  58   2.0000      -0.599021       -16.3002
  59   2.0000      -0.591223       -16.0880
  60   2.0000      -0.533482       -14.5168
  61   2.0000      -0.524771       -14.2798
  62   2.0000      -0.498764       -13.5721
  63   2.0000      -0.497945       -13.5498
  64   2.0000      -0.480429       -13.0731
  65   2.0000      -0.461546       -12.5593
  66   2.0000      -0.452037       -12.3006
  67   2.0000      -0.451286       -12.2801
  68   2.0000      -0.443839       -12.0775
  69   2.0000      -0.433678       -11.8010
  70   2.0000      -0.429058       -11.6753
  71   2.0000      -0.419641       -11.4190
  72   2.0000      -0.416779       -11.3411
  73   2.0000      -0.402688       -10.9577
  74   2.0000      -0.396500       -10.7893
  75   2.0000      -0.388106       -10.5609
  76   2.0000      -0.380807       -10.3623
  77   2.0000      -0.372603       -10.1391
  78   2.0000      -0.368821       -10.0361
  79   2.0000      -0.366330        -9.9684
  80   2.0000      -0.364187        -9.9100
  81   2.0000      -0.359040        -9.7700
  82   2.0000      -0.355132        -9.6636
  83   2.0000      -0.350347        -9.5334
  84   2.0000      -0.346857        -9.4385
  85   2.0000      -0.336399        -9.1539
  86   2.0000      -0.327532        -8.9126
  87   2.0000      -0.314116        -8.5475
  88   2.0000      -0.311126        -8.4662
  89   2.0000      -0.307302        -8.3621
  90   2.0000      -0.303008        -8.2453
  91   2.0000      -0.292796        -7.9674
  92   2.0000      -0.288446        -7.8490
  93   2.0000      -0.282748        -7.6940
  94   2.0000      -0.270587        -7.3630
  95   2.0000      -0.246005        -6.6941
  96   2.0000      -0.231072        -6.2878
  97   2.0000      -0.223810        -6.0902
  98   2.0000      -0.221712        -6.0331
  99   2.0000      -0.218008        -5.9323
 100   2.0000      -0.216408        -5.8888
 101   0.0000      -0.047185        -1.2840
 102   0.0000      -0.018825        -0.5122
 103   0.0000      -0.012384        -0.3370
 104   0.0000       0.002537         0.0690
 105   0.0000       0.003299         0.0898

MULLIKEN ATOMIC CHARGES
-----------------------
   0 C :   -0.472640
   1 C :   -0.127987
   2 O :   -0.255485
   3 P :    0.673273
   4 S :   -0.471197
   5 O :   -0.305549
   6 C :   -0.157451
   7 C :   -0.437405
   8 S :   -0.121757
   9 C :   -0.246244
  10 S :   -0.128161
  11 P :    0.676341
  12 S :   -0.475548
  13 O :   -0.306832
  14 C :   -0.134945
  15 C :   -0.444634
  16 O :   -0.263840
  17 C :   -0.118220
  18 C :   -0.464597
  19 H :    0.158928
  20 H :    0.147577
  21 H :    0.150193
  22 H :    0.176792
  23 H :    0.168122
  24 H :    0.173021
  25 H :    0.149126
  26 H :    0.154999
  27 H :    0.168845
  28 H :    0.148698
  29 H :    0.213794
  30 H :    0.201119
  31 H :    0.150648
  32 H :    0.151074
  33 H :    0.152409
  34 H :    0.144788
  35 H :    0.179297
  36 H :    0.145119
  37 H :    0.172746
  38 H :    0.147233
  39 H :    0.181408
  40 H :    0.146942
Sum of atomic charges:    0.0000000

LOEWDIN ATOMIC CHARGES
----------------------
   0 C :   -0.386531
   1 C :    0.010765
   2 O :   -0.686143
   3 P :    0.367615
   4 S :   -0.115905
   5 O :   -0.681267
   6 C :    0.024517
   7 C :   -0.400780
   8 S :    0.188526
   9 C :   -0.407891
  10 S :    0.172960
  11 P :    0.373422
  12 S :   -0.125329
  13 O :   -0.656439
  14 C :    0.022473
  15 C :   -0.401436
  16 O :   -0.681403
  17 C :    0.018597
  18 C :   -0.394711
  19 H :    0.160897
  20 H :    0.159704
  21 H :    0.157691
  22 H :    0.188030
  23 H :    0.180895
  24 H :    0.180529
  25 H :    0.179949
  26 H :    0.161002
  27 H :    0.165352
  28 H :    0.159881
  29 H :    0.192724
  30 H :    0.190434
  31 H :    0.179299
  32 H :    0.174479
  33 H :    0.159430
  34 H :    0.157718
  35 H :    0.169063
  36 H :    0.171416
  37 H :    0.184096
  38 H :    0.160676
  39 H :    0.168928
  40 H :    0.156765

  Mayer bond orders larger than 0.100000
B(  0-C ,  1-C ) :   0.9366 B(  0-C , 19-H ) :   0.9786 B(  0-C , 20-H ) :   0.9679
B(  0-C , 21-H ) :   0.9732 B(  1-C ,  2-O ) :   0.7417 B(  1-C , 22-H ) :   0.9361
B(  1-C , 23-H ) :   0.9373 B(  2-O ,  3-P ) :   1.0567 B(  3-P ,  4-S ) :   1.7830
B(  3-P ,  5-O ) :   1.1456 B(  3-P ,  8-S ) :   1.0815 B(  5-O ,  6-C ) :   0.8088
B(  6-C ,  7-C ) :   0.9256 B(  6-C , 24-H ) :   0.9663 B(  6-C , 25-H ) :   0.9614
B(  7-C , 26-H ) :   0.9698 B(  7-C , 27-H ) :   0.9597 B(  7-C , 28-H ) :   0.9603
B(  8-S ,  9-C ) :   0.9031 B(  9-C , 10-S ) :   0.9084 B(  9-C , 29-H ) :   0.9151
B(  9-C , 30-H ) :   0.9160 B( 10-S , 11-P ) :   1.0882 B( 11-P , 12-S ) :   1.7407
B( 11-P , 13-O ) :   1.1003 B( 11-P , 16-O ) :   1.1599 B( 13-O , 14-C ) :   0.7819
B( 14-C , 15-C ) :   0.9590 B( 14-C , 31-H ) :   0.9633 B( 14-C , 32-H ) :   0.9600
B( 15-C , 33-H ) :   0.9735 B( 15-C , 34-H ) :   0.9653 B( 15-C , 35-H ) :   0.9548
B( 16-O , 17-C ) :   0.7737 B( 17-C , 18-C ) :   0.9397 B( 17-C , 36-H ) :   0.9432
B( 17-C , 37-H ) :   0.9575 B( 18-C , 38-H ) :   0.9630 B( 18-C , 39-H ) :   0.9623
B( 18-C , 40-H ) :   0.9681

Dispersion correction           -0.021872457
FINAL SINGLE POINT ENERGY     -2932.464717639219

DIPOLE MOMENT
-------------

Method             : SCF
Type of density    : Electron Density
Multiplicity       :   1
Irrep              :   0
Energy             : -2932.4893547103392848 Eh
Relativity type    :
Basis              : AO
                                X                 Y                 Z
Electronic contribution:     -2.161090324      -2.965115469     -14.565862614
Nuclear contribution   :      2.631142513       4.118209854      15.586570011
                        -----------------------------------------
Total Dipole Moment    :      0.470052189       1.153094385       1.020707397
                        -----------------------------------------
Magnitude (a.u.)       :      1.610099162
Magnitude (Debye)      :      4.092546830

Rotational constants in cm-1:             0.013486             0.004804             0.004665
Rotational constants in MHz :           404.309193           144.025922           139.838625

                             ****ORCA TERMINATED NORMALLY****
TOTAL RUN TIME: 0 days 0 hours 1 minutes 25 seconds 165 msec
