                         Program Version 6.0.0  -   RELEASE  -
|  1> ! r2scan-3c def2/J RI DEFGRID2 scfconv6 printgap
|  2> %output
|  3>     printlevel normal
|  4> end
|  5> %cpcm
|  6>     smd true
|  7>     smdsolvent "water"
|  8> end
|  9> * xyz 0 1
| 10> C 1.8144621102 0.0816076944 3.3412867086
| 11> C 1.1949259223 -0.7049310857 2.2038231875
| 12> O 1.8794055572 -0.336078036 0.9939224675
| 13> P 1.9569321753 -1.2697248141 -0.2920517133
| 14> S 2.1188010257 -3.184130464 0.0814190229
| 15> O 3.1279280654 -0.5859553161 -1.1115843904
| 16> C 4.5022678232 -1.000737673 -0.956992974
| 17> C 5.0349983007 -0.6895446856 0.4253562299
| 18> S 0.3278157184 -0.7123572634 -1.5207019354
| 19> C 0.5238156156 1.0950920973 -1.467790951
| 20> S -0.0775648585 1.8479915357 0.0689351759
| 21> P -2.0509503611 1.1104451625 -0.0444257932
| 22> S -2.8375737069 0.9980741826 -1.8419556709
| 23> O -2.8150758755 1.9951632101 1.0304801223
| 24> C -3.0532411653 3.4085960326 0.866047406
| 25> C -4.3612511082 3.6668794331 0.1436426229
| 26> O -1.9717217568 -0.2528769788 0.7607208645
| 27> C -2.7300005257 -1.4343195786 0.4228693934
| 28> C -1.9530277403 -2.652532483 0.8778317251
| 29> H 1.7295112353 1.1457333233 3.1389542594
| 30> H 1.2903673578 -0.1530704346 4.2618379401
| 31> H 2.8641200185 -0.1759855777 3.4505732325
| 32> H 0.1348586272 -0.4608358218 2.089805544
| 33> H 1.300887398 -1.7854712598 2.3494990504
| 34> H 4.5630865339 -2.0738780276 -1.162379628
| 35> H 5.0293051228 -0.4434820836 -1.7325644441
| 36> H 4.8780204016 0.3593890935 0.6628609825
| 37> H 4.5196508134 -1.3017723315 1.1642537112
| 38> H 6.0963587929 -0.9146935937 0.4604266422
| 39> H -0.0633239166 1.4728240471 -2.3041113613
| 40> H 1.5739365442 1.3553056266 -1.5649526358
| 41> H -3.0804632503 3.7954056748 1.8864367387
| 42> H -2.2113056486 3.8547867197 0.3292068564
| 43> H -5.1817629656 3.1933849901 0.675570831
| 44> H -4.5360500694 4.7367081404 0.0925899793
| 45> H -4.3229391468 3.2647420624 -0.8662363693
| 46> H -3.6920409509 -1.3659965586 0.9355277536
| 47> H -2.8979384348 -1.4472174965 -0.6594027354
| 48> H -2.5300053311 -3.543697391 0.6539397081
| 49> H -0.9984027791 -2.7162760064 0.3586753054
| 50> H -1.76880759 -2.6033471163 1.9472660893
| 51> *
| 52>
| 53>                          ****END OF INPUT****

CARTESIAN COORDINATES (ANGSTROEM)
---------------------------------
  C      1.814462    0.081608    3.341287
  C      1.194926   -0.704931    2.203823
  O      1.879406   -0.336078    0.993922
  P      1.956932   -1.269725   -0.292052
  S      2.118801   -3.184130    0.081419
  O      3.127928   -0.585955   -1.111584
  C      4.502268   -1.000738   -0.956993
  C      5.034998   -0.689545    0.425356
  S      0.327816   -0.712357   -1.520702
  C      0.523816    1.095092   -1.467791
  S     -0.077565    1.847992    0.068935
  P     -2.050950    1.110445   -0.044426
  S     -2.837574    0.998074   -1.841956
  O     -2.815076    1.995163    1.030480
  C     -3.053241    3.408596    0.866047
  C     -4.361251    3.666879    0.143643
  O     -1.971722   -0.252877    0.760721
  C     -2.730001   -1.434320    0.422869
  C     -1.953028   -2.652532    0.877832
  H      1.729511    1.145733    3.138954
  H      1.290367   -0.153070    4.261838
  H      2.864120   -0.175986    3.450573
  H      0.134859   -0.460836    2.089806
  H      1.300887   -1.785471    2.349499
  H      4.563087   -2.073878   -1.162380
  H      5.029305   -0.443482   -1.732564
  H      4.878020    0.359389    0.662861
  H      4.519651   -1.301772    1.164254
  H      6.096359   -0.914694    0.460427
  H     -0.063324    1.472824   -2.304111
  H      1.573937    1.355306   -1.564953
  H     -3.080463    3.795406    1.886437
  H     -2.211306    3.854787    0.329207
  H     -5.181763    3.193385    0.675571
  H     -4.536050    4.736708    0.092590
  H     -4.322939    3.264742   -0.866236
  H     -3.692041   -1.365997    0.935528
  H     -2.897938   -1.447217   -0.659403
  H     -2.530005   -3.543697    0.653940
  H     -0.998403   -2.716276    0.358675
  H     -1.768808   -2.603347    1.947266

 Total Charge           Charge          ....    0
 Multiplicity           Mult            ....    1
 Number of Electrons    NEL             ....  202
 Basis Dimension        Dim             ....  539

ORBITAL ENERGIES
----------------

  NO   OCC          E(Eh)            E(eV)
   0   2.0000     -88.579641     -2410.3746
   1   2.0000     -88.578619     -2410.3468
   2   2.0000     -88.530741     -2409.0439
   3   2.0000     -88.529116     -2408.9997
   4   2.0000     -76.920356     -2093.1093
   5   2.0000     -76.919240     -2093.0789
   6   2.0000     -18.995604      -516.8967
   7   2.0000     -18.993122      -516.8291
   8   2.0000     -18.992237      -516.8051
   9   2.0000     -18.991516      -516.7854
  10   2.0000     -10.107189      -275.0306
  11   2.0000     -10.091688      -274.6088
  12   2.0000     -10.090039      -274.5639
  13   2.0000     -10.088376      -274.5187
  14   2.0000     -10.086224      -274.4601
  15   2.0000     -10.018801      -272.6254
  16   2.0000     -10.018419      -272.6150
  17   2.0000     -10.017255      -272.5834
  18   2.0000     -10.016661      -272.5672
  19   2.0000      -7.874089      -214.2649
  20   2.0000      -7.872754      -214.2285
  21   2.0000      -7.825710      -212.9484
  22   2.0000      -7.824147      -212.9059
  23   2.0000      -6.598652      -179.5584
  24   2.0000      -6.597685      -179.5321
  25   2.0000      -5.820960      -158.3964
  26   2.0000      -5.820015      -158.3707
  27   2.0000      -5.817844      -158.3116
  28   2.0000      -5.816241      -158.2680
  29   2.0000      -5.811290      -158.1332
  30   2.0000      -5.809891      -158.0952
  31   2.0000      -5.773234      -157.0977
  32   2.0000      -5.771678      -157.0554
  33   2.0000      -5.766067      -156.9027
  34   2.0000      -5.765720      -156.8932
  35   2.0000      -5.764384      -156.8569
  36   2.0000      -5.764266      -156.8536
  37   2.0000      -4.744029      -129.0916
  38   2.0000      -4.743665      -129.0817
  39   2.0000      -4.742922      -129.0615
  40   2.0000      -4.742762      -129.0571
  41   2.0000      -4.742474      -129.0493
  42   2.0000      -4.741579      -129.0249
  43   2.0000      -1.051941       -28.6248
  44   2.0000      -1.051339       -28.6084
  45   2.0000      -1.011636       -27.5280
  46   2.0000      -1.010842       -27.5064
  47   2.0000      -0.803669       -21.8689
  48   2.0000      -0.758488       -20.6395
  49   2.0000      -0.744647       -20.2629
  50   2.0000      -0.723976       -19.7004
  51   2.0000      -0.721703       -19.6385
  52   2.0000      -0.708247       -19.2724
  53   2.0000      -0.692421       -18.8417
  54   2.0000      -0.675886       -18.3918
  55   2.0000      -0.627249       -17.0683
  56   2.0000      -0.621076       -16.9003
  57   2.0000      -0.601304       -16.3623
  58   2.0000      -0.591336       -16.0911
  59   2.0000      -0.587898       -15.9975
  60   2.0000      -0.530051       -14.4234
  61   2.0000      -0.520841       -14.1728
  62   2.0000      -0.495525       -13.4839
  63   2.0000      -0.493932       -13.4406
  64   2.0000      -0.477711       -12.9992
  65   2.0000      -0.457330       -12.4446
  66   2.0000      -0.448726       -12.2105
  67   2.0000      -0.445073       -12.1110
  68   2.0000      -0.437899       -11.9158
  69   2.0000      -0.433147       -11.7865
  70   2.0000      -0.426940       -11.6176
  71   2.0000      -0.413909       -11.2630
  72   2.0000      -0.412428       -11.2227
  73   2.0000      -0.399413       -10.8686
  74   2.0000      -0.393141       -10.6979
  75   2.0000      -0.384623       -10.4661
  76   2.0000      -0.377864       -10.2822
  77   2.0000      -0.363378        -9.8880
  78   2.0000      -0.362614        -9.8672
  79   2.0000      -0.358163        -9.7461
  80   2.0000      -0.355593        -9.6762
  81   2.0000      -0.350885        -9.5481
  82   2.0000      -0.349517        -9.5108
  83   2.0000      -0.346546        -9.4300
  84   2.0000      -0.343178        -9.3384
  85   2.0000      -0.332908        -9.0589
  86   2.0000      -0.324213        -8.8223
  87   2.0000      -0.308555        -8.3962
  88   2.0000      -0.307455        -8.3663
  89   2.0000      -0.304456        -8.2847
  90   2.0000      -0.301353        -8.2002
  91   2.0000      -0.290494        -7.9047
  92   2.0000      -0.286380        -7.7928
  93   2.0000      -0.282447        -7.6858
  94   2.0000      -0.270562        -7.3624
  95   2.0000      -0.248232        -6.7547
  96   2.0000      -0.236425        -6.4335
  97   2.0000      -0.232203        -6.3186
  98   2.0000      -0.228547        -6.2191
  99   2.0000      -0.223110        -6.0711
 100   2.0000      -0.222478        -6.0539
 101   0.0000      -0.049201        -1.3388
 102   0.0000      -0.024375        -0.6633
 103   0.0000      -0.015508        -0.4220
 104   0.0000      -0.000720        -0.0196
 105   0.0000       0.002172         0.0591

MULLIKEN ATOMIC CHARGES
-----------------------
   0 C :   -0.512215
   1 C :   -0.109707
   2 O :   -0.272997
   3 P :    0.701403
   4 S :   -0.524183
   5 O :   -0.327459
   6 C :   -0.149136
   7 C :   -0.478256
   8 S :   -0.158133
   9 C :   -0.252461
  10 S :   -0.126026
  11 P :    0.703298
  12 S :   -0.523615
  13 O :   -0.338473
  14 C :   -0.121995
  15 C :   -0.488918
  16 O :   -0.282176
  17 C :   -0.114801
  18 C :   -0.504496
  19 H :    0.167422
  20 H :    0.170276
  21 H :    0.165222
  22 H :    0.178544
  23 H :    0.169811
  24 H :    0.176383
  25 H :    0.175640
  26 H :    0.169517
  27 H :    0.169390
  28 H :    0.173039
  29 H :    0.234074
  30 H :    0.235194
  31 H :    0.176966
  32 H :    0.162573
  33 H :    0.167266
  34 H :    0.169804
  35 H :    0.169799
  36 H :    0.170760
  37 H :    0.172258
  38 H :    0.169844
  39 H :    0.168244
  40 H :    0.168320
Sum of atomic charges:    0.0000000

LOEWDIN ATOMIC CHARGES
----------------------
   0 C :   -0.390066
   1 C :    0.016169
   2 O :   -0.692103
   3 P :    0.371962
   4 S :   -0.152719
   5 O :   -0.689025
   6 C :    0.029266
   7 C :   -0.403493
   8 S :    0.168523
   9 C :   -0.399025
  10 S :    0.179301
  11 P :    0.377664
  12 S :   -0.157525
  13 O :   -0.671137
  14 C :    0.028860
  15 C :   -0.406364
  16 O :   -0.689870
  17 C :    0.022129
  18 C :   -0.400088
  19 H :    0.162914
  20 H :    0.168278
  21 H :    0.162163
  22 H :    0.188763
  23 H :    0.182478
  24 H :    0.181384
  25 H :    0.191180
  26 H :    0.164545
  27 H :    0.163046
  28 H :    0.169033
  29 H :    0.199570
  30 H :    0.202926
  31 H :    0.190698
  32 H :    0.179705
  33 H :    0.162546
  34 H :    0.167325
  35 H :    0.162783
  36 H :    0.181309
  37 H :    0.183444
  38 H :    0.168297
  39 H :    0.162238
  40 H :    0.162918

  Mayer bond orders larger than 0.100000
B(  0-C ,  1-C ) :   0.9341 B(  0-C , 19-H ) :   0.9750 B(  0-C , 20-H ) :   0.9618
B(  0-C , 21-H ) :   0.9699 B(  1-C ,  2-O ) :   0.7374 B(  1-C , 22-H ) :   0.9322
B(  1-C , 23-H ) :   0.9350 B(  2-O ,  3-P ) :   1.0641 B(  3-P ,  4-S ) :   1.7498
B(  3-P ,  5-O ) :   1.1544 B(  3-P ,  8-S ) :   1.0925 B(  5-O ,  6-C ) :   0.7970
B(  6-C ,  7-C ) :   0.9131 B(  6-C , 24-H ) :   0.9625 B(  6-C , 25-H ) :   0.9509
B(  7-C , 26-H ) :   0.9690 B(  7-C , 27-H ) :   0.9588 B(  7-C , 28-H ) :   0.9544
B(  8-S ,  9-C ) :   0.8952 B(  9-C , 10-S ) :   0.9050 B(  9-C , 29-H ) :   0.9072
B(  9-C , 30-H ) :   0.9046 B( 10-S , 11-P ) :   1.1047 B( 11-P , 12-S ) :   1.7038
B( 11-P , 13-O ) :   1.1021 B( 11-P , 16-O ) :   1.1631 B( 13-O , 14-C ) :   0.7721
B( 14-C , 15-C ) :   0.9447 B( 14-C , 31-H ) :   0.9535 B( 14-C , 32-H ) :   0.9526
B( 15-C , 33-H ) :   0.9724 B( 15-C , 34-H ) :   0.9596 B( 15-C , 35-H ) :   0.9597
B( 16-O , 17-C ) :   0.7654 B( 17-C , 18-C ) :   0.9348 B( 17-C , 36-H ) :   0.9354
B( 17-C , 37-H ) :   0.9571 B( 18-C , 38-H ) :   0.9581 B( 18-C , 39-H ) :   0.9666
B( 18-C , 40-H ) :   0.9639

Dispersion correction           -0.021872457
FINAL SINGLE POINT ENERGY     -2932.472500180359

DIPOLE MOMENT
-------------

Method             : SCF
Type of density    : Electron Density
Multiplicity       :   1
Irrep              :   0
Energy             : -2932.4971372514801260 Eh
Relativity type    :
Basis              : AO
                                X                 Y                 Z
Electronic contribution:     -1.925335763      -2.426410580     -14.197094442
Nuclear contribution   :      2.631142513       4.118209854      15.586570011
                        -----------------------------------------
Total Dipole Moment    :      0.705806750       1.691799274       1.389475569
                        -----------------------------------------
Magnitude (a.u.)       :      2.300215274
Magnitude (Debye)      :      5.846682584

Rotational constants in cm-1:             0.013486             0.004804             0.004665
Rotational constants in MHz :           404.309193           144.025922           139.838625

                             ****ORCA TERMINATED NORMALLY****
TOTAL RUN TIME: 0 days 0 hours 1 minutes 57 seconds 615 msec
