                         Program Version 6.0.0  -   RELEASE  -
|  1> ! pbe def2-sv(p) def2/J RI DEFGRID1 loosescf d4 GCP(DFT/SV(P)) printgap
|  2> %output
|  3>     printlevel normal
|  4> end
|  5> * xyz 0 1
|  6> C 2.4357380453 -0.0944523755 -3.2228958901
|  7> C 2.0513622128 -1.2182875505 -2.2825025883
|  8> O 2.8274311997 -1.191818921 -1.0729740979
|  9> P 2.563485628 -0.2486012166 0.180240862
| 10> S 2.7767729075 1.6861882318 -0.0074554007
| 11> O 3.6409760055 -0.7936782739 1.1900325228
| 12> C 3.7344576081 -2.1827745523 1.6019952253
| 13> C 3.2845360592 -2.3283398259 3.0421817129
| 14> S 0.6750285188 -0.9327438904 0.8956161919
| 15> C 0.0889246321 0.6356706427 1.6189268648
| 16> S -1.7060154784 0.7016348852 1.6927106423
| 17> P -2.1553350488 0.841064673 -0.3954322266
| 18> S -0.6558263926 1.2071238471 -1.6011156994
| 19> O -3.2642538559 1.9466324741 -0.5082901813
| 20> C -4.3157905271 2.2242456966 0.4515028144
| 21> C -5.1262652023 0.9985168767 0.8098287213
| 22> O -2.9557627402 -0.4904738151 -0.7354909294
| 23> C -2.3009059089 -1.751966545 -0.9578134011
| 24> C -3.3342754105 -2.7184334582 -1.4996023897
| 25> H 1.9168990608 -0.2248025925 -4.1669684712
| 26> H 2.1462374953 0.8656094678 -2.7989288024
| 27> H 3.5089318689 -0.0955187733 -3.393188279
| 28> H 2.2752010593 -2.1948947618 -2.715811541
| 29> H 0.9893064044 -1.1570855884 -2.0303005672
| 30> H 3.1320842967 -2.7984719902 0.9309577938
| 31> H 4.7890066808 -2.4369211009 1.4863998119
| 32> H 2.2223066708 -2.1156513071 3.1337359279
| 33> H 3.4708804056 -3.3460635275 3.3699017496
| 34> H 3.8389959089 -1.6406576489 3.6746891844
| 35> H 0.4761263987 1.4545558078 1.0061830164
| 36> H 0.4373921851 0.7148616813 2.6460098512
| 37> H -3.8542600087 2.6603989891 1.3408386584
| 38> H -4.9206280451 2.9752290196 -0.0590050431
| 39> H -4.506859342 0.2835119672 1.347960183
| 40> H -5.9536400684 1.2967563619 1.4463421812
| 41> H -5.5139835964 0.5274039165 -0.089348214
| 42> H -1.4832623681 -1.5977962989 -1.6700142127
| 43> H -1.8813505315 -2.101630177 -0.0093567126
| 44> H -2.8627408315 -3.6786602812 -1.6799990068
| 45> H -4.139476157 -2.8417333611 -0.7816776801
| 46> H -3.7460977764 -2.3391981587 -2.4304546318
| 47> *
| 48>
| 49>                          ****END OF INPUT****

CARTESIAN COORDINATES (ANGSTROEM)
---------------------------------
  C      2.435738   -0.094452   -3.222896
  C      2.051362   -1.218288   -2.282503
  O      2.827431   -1.191819   -1.072974
  P      2.563486   -0.248601    0.180241
  S      2.776773    1.686188   -0.007455
  O      3.640976   -0.793678    1.190033
  C      3.734458   -2.182775    1.601995
  C      3.284536   -2.328340    3.042182
  S      0.675029   -0.932744    0.895616
  C      0.088925    0.635671    1.618927
  S     -1.706015    0.701635    1.692711
  P     -2.155335    0.841065   -0.395432
  S     -0.655826    1.207124   -1.601116
  O     -3.264254    1.946632   -0.508290
  C     -4.315791    2.224246    0.451503
  C     -5.126265    0.998517    0.809829
  O     -2.955763   -0.490474   -0.735491
  C     -2.300906   -1.751967   -0.957813
  C     -3.334275   -2.718433   -1.499602
  H      1.916899   -0.224803   -4.166968
  H      2.146237    0.865609   -2.798929
  H      3.508932   -0.095519   -3.393188
  H      2.275201   -2.194895   -2.715812
  H      0.989306   -1.157086   -2.030301
  H      3.132084   -2.798472    0.930958
  H      4.789007   -2.436921    1.486400
  H      2.222307   -2.115651    3.133736
  H      3.470880   -3.346064    3.369902
  H      3.838996   -1.640658    3.674689
  H      0.476126    1.454556    1.006183
  H      0.437392    0.714862    2.646010
  H     -3.854260    2.660399    1.340839
  H     -4.920628    2.975229   -0.059005
  H     -4.506859    0.283512    1.347960
  H     -5.953640    1.296756    1.446342
  H     -5.513984    0.527404   -0.089348
  H     -1.483262   -1.597796   -1.670014
  H     -1.881351   -2.101630   -0.009357
  H     -2.862741   -3.678660   -1.679999
  H     -4.139476   -2.841733   -0.781678
  H     -3.746098   -2.339198   -2.430455

 Total Charge           Charge          ....    0
 Multiplicity           Mult            ....    1
 Number of Electrons    NEL             ....  202
 Basis Dimension        Dim             ....  334

ORBITAL ENERGIES
----------------

  NO   OCC          E(Eh)            E(eV)
   0   2.0000     -88.049178     -2395.9399
   1   2.0000     -88.041521     -2395.7316
   2   2.0000     -87.981942     -2394.1104
   3   2.0000     -87.979964     -2394.0565
   4   2.0000     -76.426848     -2079.6803
   5   2.0000     -76.422513     -2079.5623
   6   2.0000     -18.795096      -511.4406
   7   2.0000     -18.790932      -511.3273
   8   2.0000     -18.790311      -511.3103
   9   2.0000     -18.785727      -511.1856
  10   2.0000      -9.962295      -271.0878
  11   2.0000      -9.955159      -270.8937
  12   2.0000      -9.953853      -270.8581
  13   2.0000      -9.953190      -270.8401
  14   2.0000      -9.948525      -270.7131
  15   2.0000      -9.893779      -269.2234
  16   2.0000      -9.890293      -269.1286
  17   2.0000      -9.885907      -269.0092
  18   2.0000      -9.872687      -268.6495
  19   2.0000      -7.693993      -209.3642
  20   2.0000      -7.685942      -209.1451
  21   2.0000      -7.626909      -207.5387
  22   2.0000      -7.625209      -207.4925
  23   2.0000      -6.424299      -174.8141
  24   2.0000      -6.419853      -174.6931
  25   2.0000      -5.721887      -155.7005
  26   2.0000      -5.718267      -155.6020
  27   2.0000      -5.713709      -155.4779
  28   2.0000      -5.711266      -155.4114
  29   2.0000      -5.710600      -155.3933
  30   2.0000      -5.702966      -155.1856
  31   2.0000      -5.655999      -153.9076
  32   2.0000      -5.654322      -153.8619
  33   2.0000      -5.647372      -153.6728
  34   2.0000      -5.647021      -153.6633
  35   2.0000      -5.645703      -153.6274
  36   2.0000      -5.645235      -153.6147
  37   2.0000      -4.646990      -126.4510
  38   2.0000      -4.646164      -126.4286
  39   2.0000      -4.644551      -126.3847
  40   2.0000      -4.642560      -126.3305
  41   2.0000      -4.641790      -126.3095
  42   2.0000      -4.640076      -126.2629
  43   2.0000      -0.988882       -26.9088
  44   2.0000      -0.984579       -26.7918
  45   2.0000      -0.947201       -25.7746
  46   2.0000      -0.940164       -25.5832
  47   2.0000      -0.763086       -20.7646
  48   2.0000      -0.722911       -19.6714
  49   2.0000      -0.713731       -19.4216
  50   2.0000      -0.696445       -18.9512
  51   2.0000      -0.685260       -18.6469
  52   2.0000      -0.675961       -18.3938
  53   2.0000      -0.648814       -17.6551
  54   2.0000      -0.634218       -17.2580
  55   2.0000      -0.597747       -16.2655
  56   2.0000      -0.584080       -15.8936
  57   2.0000      -0.572979       -15.5915
  58   2.0000      -0.570825       -15.5329
  59   2.0000      -0.566307       -15.4100
  60   2.0000      -0.507596       -13.8124
  61   2.0000      -0.499768       -13.5994
  62   2.0000      -0.481681       -13.1072
  63   2.0000      -0.473003       -12.8711
  64   2.0000      -0.455673       -12.3995
  65   2.0000      -0.446316       -12.1449
  66   2.0000      -0.438721       -11.9382
  67   2.0000      -0.437598       -11.9076
  68   2.0000      -0.433810       -11.8046
  69   2.0000      -0.418713       -11.3938
  70   2.0000      -0.412623       -11.2280
  71   2.0000      -0.401609       -10.9283
  72   2.0000      -0.396264       -10.7829
  73   2.0000      -0.386021       -10.5042
  74   2.0000      -0.383003       -10.4220
  75   2.0000      -0.364944        -9.9306
  76   2.0000      -0.359556        -9.7840
  77   2.0000      -0.357431        -9.7262
  78   2.0000      -0.356076        -9.6893
  79   2.0000      -0.353548        -9.6205
  80   2.0000      -0.350483        -9.5371
  81   2.0000      -0.348945        -9.4953
  82   2.0000      -0.344589        -9.3768
  83   2.0000      -0.338833        -9.2201
  84   2.0000      -0.327684        -8.9167
  85   2.0000      -0.316161        -8.6032
  86   2.0000      -0.312110        -8.4930
  87   2.0000      -0.299714        -8.1556
  88   2.0000      -0.293822        -7.9953
  89   2.0000      -0.293483        -7.9861
  90   2.0000      -0.288990        -7.8638
  91   2.0000      -0.278958        -7.5908
  92   2.0000      -0.272762        -7.4222
  93   2.0000      -0.262933        -7.1548
  94   2.0000      -0.257508        -7.0072
  95   2.0000      -0.239723        -6.5232
  96   2.0000      -0.222499        -6.0545
  97   2.0000      -0.207986        -5.6596
  98   2.0000      -0.196655        -5.3513
  99   2.0000      -0.192917        -5.2495
 100   2.0000      -0.188677        -5.1342
 101   0.0000      -0.047585        -1.2948
 102   0.0000      -0.033599        -0.9143
 103   0.0000      -0.011835        -0.3220
 104   0.0000       0.006966         0.1896
 105   0.0000       0.013790         0.3753

MULLIKEN ATOMIC CHARGES
-----------------------
   0 C :   -0.302894
   1 C :   -0.040877
   2 O :   -0.378596
   3 P :    0.612069
   4 S :   -0.291369
   5 O :   -0.356952
   6 C :   -0.007727
   7 C :   -0.287752
   8 S :   -0.140626
   9 C :   -0.326564
  10 S :   -0.137063
  11 P :    0.600664
  12 S :   -0.304464
  13 O :   -0.355427
  14 C :   -0.007429
  15 C :   -0.318128
  16 O :   -0.375807
  17 C :   -0.037979
  18 C :   -0.272477
  19 H :    0.106295
  20 H :    0.144562
  21 H :    0.113274
  22 H :    0.098096
  23 H :    0.140133
  24 H :    0.099799
  25 H :    0.111563
  26 H :    0.116413
  27 H :    0.107551
  28 H :    0.120058
  29 H :    0.212875
  30 H :    0.180118
  31 H :    0.117178
  32 H :    0.116126
  33 H :    0.126406
  34 H :    0.117347
  35 H :    0.127549
  36 H :    0.125320
  37 H :    0.105408
  38 H :    0.109864
  39 H :    0.114424
  40 H :    0.119039
Sum of atomic charges:   -0.0000000

LOEWDIN ATOMIC CHARGES
----------------------
   0 C :   -0.363841
   1 C :   -0.120878
   2 O :   -0.243652
   3 P :    0.564071
   4 S :   -0.282264
   5 O :   -0.239789
   6 C :   -0.112677
   7 C :   -0.360583
   8 S :    0.054188
   9 C :   -0.478463
  10 S :    0.064141
  11 P :    0.565755
  12 S :   -0.292466
  13 O :   -0.231763
  14 C :   -0.112257
  15 C :   -0.367947
  16 O :   -0.246649
  17 C :   -0.123850
  18 C :   -0.350186
  19 H :    0.129062
  20 H :    0.125879
  21 H :    0.125671
  22 H :    0.114764
  23 H :    0.104601
  24 H :    0.106000
  25 H :    0.122090
  26 H :    0.118741
  27 H :    0.128556
  28 H :    0.129059
  29 H :    0.124882
  30 H :    0.134588
  31 H :    0.112700
  32 H :    0.125586
  33 H :    0.118068
  34 H :    0.133329
  35 H :    0.131054
  36 H :    0.107865
  37 H :    0.102321
  38 H :    0.130059
  39 H :    0.125774
  40 H :    0.128459

  Mayer bond orders larger than 0.100000
B(  0-C ,  1-C ) :   1.1728 B(  0-C , 19-H ) :   0.9380 B(  0-C , 20-H ) :   0.9300
B(  0-C , 21-H ) :   0.9465 B(  1-C ,  2-O ) :   0.9048 B(  1-C , 22-H ) :   0.9345
B(  1-C , 23-H ) :   0.8992 B(  2-O ,  3-P ) :   1.0972 B(  3-P ,  4-S ) :   1.6651
B(  3-P ,  5-O ) :   1.1355 B(  3-P ,  8-S ) :   0.9272 B(  4-S ,  8-S ) :   0.1172
B(  5-O ,  6-C ) :   0.8927 B(  6-C ,  7-C ) :   1.1629 B(  6-C , 24-H ) :   0.9183
B(  6-C , 25-H ) :   0.9349 B(  7-C , 26-H ) :   0.9382 B(  7-C , 27-H ) :   0.9404
B(  7-C , 28-H ) :   0.9464 B(  8-S ,  9-C ) :   0.9842 B(  9-C , 10-S ) :   1.0136
B(  9-C , 29-H ) :   0.8463 B(  9-C , 30-H ) :   0.9079 B( 10-S , 11-P ) :   0.9200
B( 10-S , 12-S ) :   0.1123 B( 11-P , 12-S ) :   1.6570 B( 11-P , 13-O ) :   1.1582
B( 11-P , 16-O ) :   1.0803 B( 13-O , 14-C ) :   0.8983 B( 14-C , 15-C ) :   1.1684
B( 14-C , 31-H ) :   0.9236 B( 14-C , 32-H ) :   0.9340 B( 15-C , 33-H ) :   0.9372
B( 15-C , 34-H ) :   0.9341 B( 15-C , 35-H ) :   0.9417 B( 16-O , 17-C ) :   0.9069
B( 17-C , 18-C ) :   1.1563 B( 17-C , 36-H ) :   0.9088 B( 17-C , 37-H ) :   0.9199
B( 18-C , 38-H ) :   0.9421 B( 18-C , 39-H ) :   0.9509 B( 18-C , 40-H ) :   0.9500

Dispersion correction           -0.064632661
FINAL SINGLE POINT ENERGY     -2929.514038871319

DIPOLE MOMENT
-------------

Method             : SCF
Type of density    : Electron Density
Multiplicity       :   1
Irrep              :   0
Energy             : -2929.6336088191169438 Eh
Relativity type    :
Basis              : AO
                                X                 Y                 Z
Electronic contribution:      8.223623508      15.578350637       1.827478205
Nuclear contribution   :     -9.454293353     -17.305060066      -1.205649986
                        -----------------------------------------
Total Dipole Moment    :     -1.230669845      -1.726709429       0.621828219
                        -----------------------------------------
Magnitude (a.u.)       :      2.209693203
Magnitude (Debye)      :      5.616593764

Rotational constants in cm-1:             0.012012             0.004769             0.004587
Rotational constants in MHz :           360.103423           142.972682           137.507870

                             ****ORCA TERMINATED NORMALLY****
TOTAL RUN TIME: 0 days 0 hours 0 minutes 20 seconds 861 msec
