                         Program Version 6.0.0  -   RELEASE  -
|  1> ! pbe def2-sv(p) def2/J RI DEFGRID1 loosescf d4 GCP(DFT/SV(P)) printgap
|  2> %output
|  3>     printlevel normal
|  4> end
|  5> * xyz 0 1
|  6> C 1.7348331199 2.7038432909 0.7334105791
|  7> C 2.6766891183 1.8906601648 1.5974822647
|  8> O 3.0814131092 0.6728404105 0.9497565575
|  9> P 2.0754512527 -0.5327912403 0.7065935882
| 10> S 0.8144203769 -0.8750792859 2.1741419859
| 11> O 3.047243691 -1.7396920579 0.3700340901
| 12> C 3.6007194702 -2.5999833059 1.3867006218
| 13> C 4.6031588763 -1.8740803297 2.2590242858
| 14> S 1.3164415617 -0.2085674135 -1.2292408229
| 15> C 0.064627598 -1.5368156005 -1.1955075323
| 16> S -1.4445206302 -1.1173694331 -2.110063443
| 17> P -2.2884106012 0.3638708276 -0.8738178379
| 18> S -4.1064076053 0.940224925 -1.3189149937
| 19> O -1.2496423012 1.5759568779 -0.7627551687
| 20> C -1.2927719207 2.6840040413 -1.6775521394
| 21> C -0.855016112 2.27967044 -3.0706916537
| 22> O -2.0950334424 -0.3407615057 0.5318477661
| 23> C -2.6638275209 0.2286995165 1.7327218054
| 24> C -2.9295856784 -0.8978596692 2.7083250806
| 25> H 2.1793156936 2.880144851 -0.2430715493
| 26> H 0.7962062685 2.1665772074 0.5993436045
| 27> H 1.5318764672 3.6543732091 1.2169666523
| 28> H 2.2020657298 1.6360428572 2.5512380349
| 29> H 3.614360959 2.4178131561 1.7787123453
| 30> H 2.7779662533 -2.9962439993 1.9908053075
| 31> H 4.0669683937 -3.4063163531 0.819164923
| 32> H 5.0798173215 -2.5846260622 2.9271366455
| 33> H 5.3579844735 -1.393506387 1.6422303865
| 34> H 4.0981110746 -1.1141039539 2.8536509188
| 35> H -0.1919618956 -1.7518905874 -0.1574686722
| 36> H 0.4639092213 -2.4134237924 -1.6997859042
| 37> H -2.3151044138 3.0755257943 -1.6929218008
| 38> H -0.6173312996 3.4192863816 -1.2386171048
| 39> H -0.8107662329 3.160119906 -3.7032696368
| 40> H 0.1235893837 1.8059568376 -3.0373555347
| 41> H -1.5718100914 1.5760342943 -3.4938766067
| 42> H -1.9403042204 0.9396236143 2.1382385094
| 43> H -3.5851470083 0.7569882713 1.4643998348
| 44> H -3.3601525446 -0.4873538329 3.6155904014
| 45> H -3.6191896402 -1.6158379923 2.2732689323
| 46> H -1.9962485121 -1.4006018745 2.9499707389
| 47> *
| 48>
| 49>                          ****END OF INPUT****

CARTESIAN COORDINATES (ANGSTROEM)
---------------------------------
  C      1.734833    2.703843    0.733411
  C      2.676689    1.890660    1.597482
  O      3.081413    0.672840    0.949757
  P      2.075451   -0.532791    0.706594
  S      0.814420   -0.875079    2.174142
  O      3.047244   -1.739692    0.370034
  C      3.600719   -2.599983    1.386701
  C      4.603159   -1.874080    2.259024
  S      1.316442   -0.208567   -1.229241
  C      0.064628   -1.536816   -1.195508
  S     -1.444521   -1.117369   -2.110063
  P     -2.288411    0.363871   -0.873818
  S     -4.106408    0.940225   -1.318915
  O     -1.249642    1.575957   -0.762755
  C     -1.292772    2.684004   -1.677552
  C     -0.855016    2.279670   -3.070692
  O     -2.095033   -0.340762    0.531848
  C     -2.663828    0.228700    1.732722
  C     -2.929586   -0.897860    2.708325
  H      2.179316    2.880145   -0.243072
  H      0.796206    2.166577    0.599344
  H      1.531876    3.654373    1.216967
  H      2.202066    1.636043    2.551238
  H      3.614361    2.417813    1.778712
  H      2.777966   -2.996244    1.990805
  H      4.066968   -3.406316    0.819165
  H      5.079817   -2.584626    2.927137
  H      5.357984   -1.393506    1.642230
  H      4.098111   -1.114104    2.853651
  H     -0.191962   -1.751891   -0.157469
  H      0.463909   -2.413424   -1.699786
  H     -2.315104    3.075526   -1.692922
  H     -0.617331    3.419286   -1.238617
  H     -0.810766    3.160120   -3.703270
  H      0.123589    1.805957   -3.037356
  H     -1.571810    1.576034   -3.493877
  H     -1.940304    0.939624    2.138239
  H     -3.585147    0.756988    1.464400
  H     -3.360153   -0.487354    3.615590
  H     -3.619190   -1.615838    2.273269
  H     -1.996249   -1.400602    2.949971

 Total Charge           Charge          ....    0
 Multiplicity           Mult            ....    1
 Number of Electrons    NEL             ....  202
 Basis Dimension        Dim             ....  334

ORBITAL ENERGIES
----------------

  NO   OCC          E(Eh)            E(eV)
   0   2.0000     -88.046782     -2395.8747
   1   2.0000     -88.045146     -2395.8302
   2   2.0000     -87.996090     -2394.4953
   3   2.0000     -87.984441     -2394.1783
   4   2.0000     -76.432508     -2079.8343
   5   2.0000     -76.423195     -2079.5809
   6   2.0000     -18.801802      -511.6230
   7   2.0000     -18.794655      -511.4286
   8   2.0000     -18.788075      -511.2495
   9   2.0000     -18.787078      -511.2224
  10   2.0000      -9.958698      -270.9900
  11   2.0000      -9.958340      -270.9802
  12   2.0000      -9.955607      -270.9058
  13   2.0000      -9.947792      -270.6932
  14   2.0000      -9.944994      -270.6170
  15   2.0000      -9.888570      -269.0817
  16   2.0000      -9.888329      -269.0751
  17   2.0000      -9.880261      -268.8556
  18   2.0000      -9.878333      -268.8031
  19   2.0000      -7.692138      -209.3137
  20   2.0000      -7.690350      -209.2650
  21   2.0000      -7.640728      -207.9148
  22   2.0000      -7.629629      -207.6128
  23   2.0000      -6.430185      -174.9742
  24   2.0000      -6.421213      -174.7301
  25   2.0000      -5.720477      -155.6621
  26   2.0000      -5.718324      -155.6035
  27   2.0000      -5.716325      -155.5491
  28   2.0000      -5.715104      -155.5159
  29   2.0000      -5.708940      -155.3482
  30   2.0000      -5.706918      -155.2931
  31   2.0000      -5.669371      -154.2714
  32   2.0000      -5.661465      -154.0563
  33   2.0000      -5.661061      -154.0453
  34   2.0000      -5.658578      -153.9777
  35   2.0000      -5.650447      -153.7565
  36   2.0000      -5.649567      -153.7325
  37   2.0000      -4.652731      -126.6072
  38   2.0000      -4.651869      -126.5838
  39   2.0000      -4.650730      -126.5528
  40   2.0000      -4.643643      -126.3600
  41   2.0000      -4.643152      -126.3466
  42   2.0000      -4.641594      -126.3042
  43   2.0000      -0.993046       -27.0221
  44   2.0000      -0.982463       -26.7342
  45   2.0000      -0.952665       -25.9233
  46   2.0000      -0.940679       -25.5972
  47   2.0000      -0.765271       -20.8241
  48   2.0000      -0.725585       -19.7442
  49   2.0000      -0.707990       -19.2654
  50   2.0000      -0.692670       -18.8485
  51   2.0000      -0.682740       -18.5783
  52   2.0000      -0.676578       -18.4106
  53   2.0000      -0.655552       -17.8385
  54   2.0000      -0.640188       -17.4204
  55   2.0000      -0.606327       -16.4990
  56   2.0000      -0.590185       -16.0597
  57   2.0000      -0.578358       -15.7379
  58   2.0000      -0.567130       -15.4324
  59   2.0000      -0.558937       -15.2095
  60   2.0000      -0.499562       -13.5938
  61   2.0000      -0.499322       -13.5873
  62   2.0000      -0.479517       -13.0483
  63   2.0000      -0.469002       -12.7622
  64   2.0000      -0.456152       -12.4125
  65   2.0000      -0.446119       -12.1395
  66   2.0000      -0.444652       -12.0996
  67   2.0000      -0.439804       -11.9677
  68   2.0000      -0.426464       -11.6047
  69   2.0000      -0.422608       -11.4998
  70   2.0000      -0.409726       -11.1492
  71   2.0000      -0.399849       -10.8805
  72   2.0000      -0.397667       -10.8211
  73   2.0000      -0.391617       -10.6565
  74   2.0000      -0.383599       -10.4383
  75   2.0000      -0.382235       -10.4011
  76   2.0000      -0.363841        -9.9006
  77   2.0000      -0.359082        -9.7711
  78   2.0000      -0.354096        -9.6354
  79   2.0000      -0.349825        -9.5192
  80   2.0000      -0.348762        -9.4903
  81   2.0000      -0.346069        -9.4170
  82   2.0000      -0.341390        -9.2897
  83   2.0000      -0.333731        -9.0813
  84   2.0000      -0.326724        -8.8906
  85   2.0000      -0.319343        -8.6898
  86   2.0000      -0.316010        -8.5991
  87   2.0000      -0.301627        -8.2077
  88   2.0000      -0.293645        -7.9905
  89   2.0000      -0.288383        -7.8473
  90   2.0000      -0.287854        -7.8329
  91   2.0000      -0.278513        -7.5787
  92   2.0000      -0.270319        -7.3558
  93   2.0000      -0.268244        -7.2993
  94   2.0000      -0.265793        -7.2326
  95   2.0000      -0.229716        -6.2509
  96   2.0000      -0.224013        -6.0957
  97   2.0000      -0.215071        -5.8524
  98   2.0000      -0.209100        -5.6899
  99   2.0000      -0.205038        -5.5794
 100   2.0000      -0.199389        -5.4257
 101   0.0000      -0.043466        -1.1828
 102   0.0000      -0.030385        -0.8268
 103   0.0000      -0.024107        -0.6560
 104   0.0000       0.002531         0.0689
 105   0.0000       0.017499         0.4762

MULLIKEN ATOMIC CHARGES
-----------------------
   0 C :   -0.368554
   1 C :    0.005115
   2 O :   -0.370834
   3 P :    0.609044
   4 S :   -0.330592
   5 O :   -0.368248
   6 C :   -0.004210
   7 C :   -0.308352
   8 S :   -0.075758
   9 C :   -0.357770
  10 S :   -0.075970
  11 P :    0.622101
  12 S :   -0.322132
  13 O :   -0.373960
  14 C :   -0.007080
  15 C :   -0.323064
  16 O :   -0.376025
  17 C :   -0.002330
  18 C :   -0.287583
  19 H :    0.117896
  20 H :    0.168153
  21 H :    0.114269
  22 H :    0.109776
  23 H :    0.106556
  24 H :    0.110005
  25 H :    0.106726
  26 H :    0.113515
  27 H :    0.119431
  28 H :    0.121363
  29 H :    0.207054
  30 H :    0.186699
  31 H :    0.111932
  32 H :    0.105146
  33 H :    0.110809
  34 H :    0.125588
  35 H :    0.124278
  36 H :    0.103580
  37 H :    0.102852
  38 H :    0.106545
  39 H :    0.116577
  40 H :    0.127450
Sum of atomic charges:   -0.0000000

LOEWDIN ATOMIC CHARGES
----------------------
   0 C :   -0.377517
   1 C :   -0.118244
   2 O :   -0.240030
   3 P :    0.574526
   4 S :   -0.309449
   5 O :   -0.245149
   6 C :   -0.118043
   7 C :   -0.364154
   8 S :    0.096496
   9 C :   -0.476606
  10 S :    0.101144
  11 P :    0.567553
  12 S :   -0.319847
  13 O :   -0.245181
  14 C :   -0.122833
  15 C :   -0.370502
  16 O :   -0.241095
  17 C :   -0.117526
  18 C :   -0.352695
  19 H :    0.124330
  20 H :    0.127457
  21 H :    0.131526
  22 H :    0.109886
  23 H :    0.119357
  24 H :    0.110125
  25 H :    0.119687
  26 H :    0.131004
  27 H :    0.127698
  28 H :    0.122500
  29 H :    0.127391
  30 H :    0.137490
  31 H :    0.108879
  32 H :    0.115050
  33 H :    0.129841
  34 H :    0.119088
  35 H :    0.120416
  36 H :    0.110830
  37 H :    0.106276
  38 H :    0.128953
  39 H :    0.127672
  40 H :    0.123696

  Mayer bond orders larger than 0.100000
B(  0-C ,  1-C ) :   1.1631 B(  0-C , 19-H ) :   0.9438 B(  0-C , 20-H ) :   0.9167
B(  0-C , 21-H ) :   0.9369 B(  1-C ,  2-O ) :   0.9048 B(  1-C , 22-H ) :   0.9148
B(  1-C , 23-H ) :   0.9321 B(  2-O ,  3-P ) :   1.1115 B(  3-P ,  4-S ) :   1.5822
B(  3-P ,  5-O ) :   1.1210 B(  3-P ,  8-S ) :   0.9820 B(  4-S ,  8-S ) :   0.1142
B(  5-O ,  6-C ) :   0.9094 B(  6-C ,  7-C ) :   1.1645 B(  6-C , 24-H ) :   0.9165
B(  6-C , 25-H ) :   0.9347 B(  7-C , 26-H ) :   0.9387 B(  7-C , 27-H ) :   0.9460
B(  7-C , 28-H ) :   0.9388 B(  8-S ,  9-C ) :   0.9814 B(  9-C , 10-S ) :   1.0015
B(  9-C , 29-H ) :   0.8580 B(  9-C , 30-H ) :   0.9092 B( 10-S , 11-P ) :   0.9690
B( 11-P , 12-S ) :   1.6559 B( 11-P , 13-O ) :   1.0676 B( 11-P , 16-O ) :   1.1192
B( 13-O , 14-C ) :   0.9090 B( 14-C , 15-C ) :   1.1635 B( 14-C , 31-H ) :   0.9126
B( 14-C , 32-H ) :   0.9279 B( 15-C , 33-H ) :   0.9383 B( 15-C , 34-H ) :   0.9406
B( 15-C , 35-H ) :   0.9354 B( 16-O , 17-C ) :   0.8897 B( 17-C , 18-C ) :   1.1679
B( 17-C , 36-H ) :   0.9250 B( 17-C , 37-H ) :   0.9079 B( 18-C , 38-H ) :   0.9407
B( 18-C , 39-H ) :   0.9494 B( 18-C , 40-H ) :   0.9451

Dispersion correction           -0.065821828
FINAL SINGLE POINT ENERGY     -2929.521808256403

DIPOLE MOMENT
-------------

Method             : SCF
Type of density    : Electron Density
Multiplicity       :   1
Irrep              :   0
Energy             : -2929.6425791469064279 Eh
Relativity type    :
Basis              : AO
                                X                 Y                 Z
Electronic contribution:    -10.175790540      -7.661501589     -12.237583960
Nuclear contribution   :     11.855161154       7.999808671      12.953758764
                        -----------------------------------------
Total Dipole Moment    :      1.679370615       0.338307082       0.716174803
                        -----------------------------------------
Magnitude (a.u.)       :      1.856783157
Magnitude (Debye)      :      4.719567715

Rotational constants in cm-1:             0.012265             0.005172             0.004844
Rotational constants in MHz :           367.685863           155.045217           145.216086

                             ****ORCA TERMINATED NORMALLY****
TOTAL RUN TIME: 0 days 0 hours 0 minutes 21 seconds 688 msec
