                         Program Version 6.0.0  -   RELEASE  -
|  1> ! wb97x-v def2-tzvp def2/J RIJCOSX DEFGRID2 scfconv7 GCP(DFT/TZ) printgap
|  2> %output
|  3>     printlevel normal
|  4> end
|  5> * xyz 0 1
|  6> C -2.125155304319341 -1.2662839379477064 -0.14491851625465688
|  7> C -1.5253658827995853 4.746602650067544e-05 0.41524068758316557
|  8> C -2.124661824975389 1.2667027914447857 -0.14471590749464025
|  9> I 0.6785400539098518 -0.00037429101338091466 -0.008329602927951516
| 10> H -2.0469772191245843 -1.297010604822618 -1.23550929204457
| 11> H -1.6610994811521866 -2.1625877483391336 0.27216121771455476
| 12> H -3.1911127007000597 -1.2792873741963673 0.11943350416526625
| 13> H -1.5211095946921267 -4.680251143724464e-05 1.5053259927280358
| 14> H -3.190746821361776 1.2798125100690163 0.11911175117380424
| 15> H -2.045951525904991 1.297837792572198 -1.2352556460279265
| 16> H -1.6606174093086068 2.162748660788146 0.27292754858918833
| 17> *
| 18>
| 19>                          ****END OF INPUT****

CARTESIAN COORDINATES (ANGSTROEM)
---------------------------------
  C     -2.125155   -1.266284   -0.144919
  C     -1.525366    0.000047    0.415241
  C     -2.124662    1.266703   -0.144716
  I      0.678540   -0.000374   -0.008330
  H     -2.046977   -1.297011   -1.235509
  H     -1.661099   -2.162588    0.272161
  H     -3.191113   -1.279287    0.119434
  H     -1.521110   -0.000047    1.505326
  H     -3.190747    1.279813    0.119112
  H     -2.045952    1.297838   -1.235256
  H     -1.660617    2.162749    0.272928

 Total Charge           Charge          ....    0
 Multiplicity           Mult            ....    1
 Number of Electrons    NEL             ....   50
 Basis Dimension        Dim             ....  185

ORBITAL ENERGIES
----------------

  NO   OCC          E(Eh)            E(eV)
   0   2.0000     -12.113503      -329.6252
   1   2.0000     -12.055180      -328.0381
   2   2.0000     -12.054886      -328.0301
   3   2.0000      -8.107585      -220.6186
   4   2.0000      -6.078155      -165.3950
   5   2.0000      -6.068889      -165.1429
   6   2.0000      -6.068833      -165.1413
   7   2.0000      -2.998345       -81.5891
   8   2.0000      -2.995783       -81.5194
   9   2.0000      -2.995743       -81.5183
  10   2.0000      -2.987077       -81.2825
  11   2.0000      -2.987065       -81.2822
  12   2.0000      -1.320489       -35.9323
  13   2.0000      -1.202489       -32.7214
  14   2.0000      -1.156603       -31.4728
  15   2.0000      -1.055915       -28.7329
  16   2.0000      -0.909073       -24.7371
  17   2.0000      -0.872282       -23.7360
  18   2.0000      -0.872118       -23.7316
  19   2.0000      -0.829483       -22.5714
  20   2.0000      -0.811503       -22.0821
  21   2.0000      -0.798025       -21.7154
  22   2.0000      -0.706057       -19.2128
  23   2.0000      -0.617375       -16.7996
  24   2.0000      -0.615838       -16.7578
  25   0.0000      -0.275268        -7.4904
  26   0.0000      -0.029045        -0.7904
  27   0.0000      -0.021623        -0.5884
  28   0.0000      -0.014714        -0.4004
  29   0.0000       0.007866         0.2141

MULLIKEN ATOMIC CHARGES
-----------------------
   0 C :   -0.331905
   1 C :   -0.069522
   2 C :   -0.331906
   3 I :   -0.143557
   4 H :    0.126411
   5 H :    0.137237
   6 H :    0.111878
   7 H :    0.125831
   8 H :    0.111875
   9 H :    0.126432
  10 H :    0.137226
Sum of atomic charges:   -0.0000000

LOEWDIN ATOMIC CHARGES
----------------------
   0 C :   -0.314194
   1 C :   -0.429143
   2 C :   -0.314193
   3 I :    0.171639
   4 H :    0.124590
   5 H :    0.123825
   6 H :    0.125759
   7 H :    0.137541
   8 H :    0.125760
   9 H :    0.124590
  10 H :    0.123825

  Mayer bond orders larger than 0.100000
B(  0-C ,  1-C ) :   0.9957 B(  0-C ,  4-H ) :   0.9707 B(  0-C ,  5-H ) :   0.9761
B(  0-C ,  6-H ) :   0.9583 B(  1-C ,  2-C ) :   0.9957 B(  1-C ,  3-I ) :   1.0144
B(  1-C ,  7-H ) :   0.9612 B(  2-C ,  8-H ) :   0.9583 B(  2-C ,  9-H ) :   0.9707
B(  2-C , 10-H ) :   0.9761

FINAL SINGLE POINT ENERGY      -416.235801264073

DIPOLE MOMENT
-------------

Method             : SCF
Type of density    : Electron Density
Multiplicity       :   1
Irrep              :   0
Energy             :  -416.2441872059732191 Eh
Relativity type    :
Basis              : AO
                                X                 Y                 Z
Electronic contribution:     62.136261369      -0.012665299      -0.410113741
Nuclear contribution   :    -63.093874477       0.012841841       0.537919752
                        -----------------------------------------
Total Dipole Moment    :     -0.957613108       0.000176542       0.127806010
                        -----------------------------------------
Magnitude (a.u.)       :      0.966104173
Magnitude (Debye)      :      2.455641654

Rotational constants in cm-1:             0.268532             0.070295             0.058871
Rotational constants in MHz :          8050.377065          2107.378889          1764.921853

                             ****ORCA TERMINATED NORMALLY****
TOTAL RUN TIME: 0 days 0 hours 1 minutes 2 seconds 132 msec
