                         Program Version 6.0.0  -   RELEASE  -
|  1> ! wb97x-v def2-tzvp def2/J RIJCOSX DEFGRID2 scfconv7 GCP(DFT/TZ) printgap
|  2> %output
|  3>     printlevel normal
|  4> end
|  5> %cpcm
|  6>     smd true
|  7>     smdsolvent "water"
|  8> end
|  9> * xyz 0 1
| 10> C -2.125155304319341 -1.2662839379477064 -0.14491851625465688
| 11> C -1.5253658827995853 4.746602650067544e-05 0.41524068758316557
| 12> C -2.124661824975389 1.2667027914447857 -0.14471590749464025
| 13> I 0.6785400539098518 -0.00037429101338091466 -0.008329602927951516
| 14> H -2.0469772191245843 -1.297010604822618 -1.23550929204457
| 15> H -1.6610994811521866 -2.1625877483391336 0.27216121771455476
| 16> H -3.1911127007000597 -1.2792873741963673 0.11943350416526625
| 17> H -1.5211095946921267 -4.680251143724464e-05 1.5053259927280358
| 18> H -3.190746821361776 1.2798125100690163 0.11911175117380424
| 19> H -2.045951525904991 1.297837792572198 -1.2352556460279265
| 20> H -1.6606174093086068 2.162748660788146 0.27292754858918833
| 21> *
| 22>
| 23>                          ****END OF INPUT****

CARTESIAN COORDINATES (ANGSTROEM)
---------------------------------
  C     -2.125155   -1.266284   -0.144919
  C     -1.525366    0.000047    0.415241
  C     -2.124662    1.266703   -0.144716
  I      0.678540   -0.000374   -0.008330
  H     -2.046977   -1.297011   -1.235509
  H     -1.661099   -2.162588    0.272161
  H     -3.191113   -1.279287    0.119434
  H     -1.521110   -0.000047    1.505326
  H     -3.190747    1.279813    0.119112
  H     -2.045952    1.297838   -1.235256
  H     -1.660617    2.162749    0.272928

 Total Charge           Charge          ....    0
 Multiplicity           Mult            ....    1
 Number of Electrons    NEL             ....   50
 Basis Dimension        Dim             ....  185

ORBITAL ENERGIES
----------------

  NO   OCC          E(Eh)            E(eV)
   0   2.0000     -12.100691      -329.2765
   1   2.0000     -12.037070      -327.5453
   2   2.0000     -12.036778      -327.5374
   3   2.0000      -8.106055      -220.5770
   4   2.0000      -6.076039      -165.3374
   5   2.0000      -6.067705      -165.1106
   6   2.0000      -6.067625      -165.1085
   7   2.0000      -2.996231       -81.5316
   8   2.0000      -2.994017       -81.4713
   9   2.0000      -2.993958       -81.4697
  10   2.0000      -2.986116       -81.2563
  11   2.0000      -2.986105       -81.2560
  12   2.0000      -1.304732       -35.5036
  13   2.0000      -1.185180       -32.2504
  14   2.0000      -1.153521       -31.3889
  15   2.0000      -1.040612       -28.3165
  16   2.0000      -0.892214       -24.2784
  17   2.0000      -0.855574       -23.2814
  18   2.0000      -0.855530       -23.2801
  19   2.0000      -0.810995       -22.0683
  20   2.0000      -0.793993       -21.6056
  21   2.0000      -0.780683       -21.2435
  22   2.0000      -0.696049       -18.9405
  23   2.0000      -0.618665       -16.8347
  24   2.0000      -0.617140       -16.7932
  25   0.0000      -0.266164        -7.2427
  26   0.0000      -0.011433        -0.3111
  27   0.0000      -0.002903        -0.0790
  28   0.0000       0.000343         0.0093
  29   0.0000       0.026694         0.7264

MULLIKEN ATOMIC CHARGES
-----------------------
   0 C :   -0.381873
   1 C :   -0.013624
   2 C :   -0.381875
   3 I :   -0.221030
   4 H :    0.139002
   5 H :    0.147440
   6 H :    0.138472
   7 H :    0.148567
   8 H :    0.138470
   9 H :    0.139017
  10 H :    0.147435
Sum of atomic charges:   -0.0000000

LOEWDIN ATOMIC CHARGES
----------------------
   0 C :   -0.314930
   1 C :   -0.410731
   2 C :   -0.314929
   3 I :    0.124245
   4 H :    0.126445
   5 H :    0.124903
   6 H :    0.133911
   7 H :    0.145826
   8 H :    0.133912
   9 H :    0.126443
  10 H :    0.124905

  Mayer bond orders larger than 0.100000
B(  0-C ,  1-C ) :   0.9953 B(  0-C ,  4-H ) :   0.9681 B(  0-C ,  5-H ) :   0.9730
B(  0-C ,  6-H ) :   0.9551 B(  1-C ,  2-C ) :   0.9953 B(  1-C ,  3-I ) :   0.9484
B(  1-C ,  7-H ) :   0.9562 B(  2-C ,  8-H ) :   0.9551 B(  2-C ,  9-H ) :   0.9681
B(  2-C , 10-H ) :   0.9730

FINAL SINGLE POINT ENERGY      -416.238139341080

DIPOLE MOMENT
-------------

Method             : SCF
Type of density    : Electron Density
Multiplicity       :   1
Irrep              :   0
Energy             :  -416.2465252829798033 Eh
Relativity type    :
Basis              : AO
                                X                 Y                 Z
Electronic contribution:     61.756189469      -0.012608850      -0.320867454
Nuclear contribution   :    -63.093874477       0.012841841       0.537919752
                        -----------------------------------------
Total Dipole Moment    :     -1.337685008       0.000232991       0.217052297
                        -----------------------------------------
Magnitude (a.u.)       :      1.355180038
Magnitude (Debye)      :      3.444593910

Rotational constants in cm-1:             0.268532             0.070295             0.058871
Rotational constants in MHz :          8050.377065          2107.378889          1764.921853

                             ****ORCA TERMINATED NORMALLY****
TOTAL RUN TIME: 0 days 0 hours 1 minutes 12 seconds 108 msec
