                         Program Version 6.0.0  -   RELEASE  -
|  1> ! pbe def2-sv(p) def2/J RI DEFGRID1 loosescf d4 GCP(DFT/SV(P)) printgap
|  2> %output
|  3>     printlevel normal
|  4> end
|  5> * xyz 0 1
|  6> C 4.1417115314 1.9334116133 -1.5508439535
|  7> C 4.4547642348 0.5247709323 -1.0892687111
|  8> O 3.2671839433 -0.2770006927 -0.9519827859
|  9> P 2.1830847528 -0.00509453 0.1754559361
| 10> S 2.9083396897 0.5156052097 1.9240856138
| 11> O 1.3309021187 -1.3397804039 0.1354540522
| 12> C 1.5968222476 -2.459877282 0.9991711288
| 13> C 2.9299981953 -3.107000308 0.6904378335
| 14> S 0.8092911497 1.3082286661 -0.7280493507
| 15> C -0.0376793903 1.8128680581 0.7959080832
| 16> S -0.87682602 0.4412724802 1.6471674642
| 17> P -2.1431277984 -0.2134449408 0.0927552678
| 18> S -1.5648907168 -1.4509203914 -1.3170922897
| 19> O -2.7721590137 1.151156378 -0.4313574455
| 20> C -2.9196829945 1.5322761717 -1.8148456075
| 21> C -2.1761830757 2.8240427474 -2.0888583684
| 22> O -3.2144737795 -0.8324123424 1.0922924722
| 23> C -4.1831220342 -1.8096126433 0.6689234488
| 24> C -5.2162116705 -1.2074896623 -0.2621152093
| 25> H 3.5300557219 1.9088757649 -2.4493127184
| 26> H 3.6002906861 2.4690447396 -0.7721086357
| 27> H 5.069350969 2.4569070441 -1.7588347121
| 28> H 4.9718115607 0.5420922793 -0.124408889
| 29> H 5.0522409867 -0.0180881284 -1.8228029975
| 30> H 1.5609174015 -2.1101617716 2.0367317416
| 31> H 0.7616656267 -3.1367711697 0.8090621431
| 32> H 3.0441055671 -4.001568315 1.2945918287
| 33> H 2.9822239144 -3.3693637938 -0.3632073928
| 34> H 3.7387874502 -2.4150407231 0.9237018211
| 35> H -0.762164822 2.575647379 0.522285418
| 36> H 0.6938534482 2.1963671699 1.5074470145
| 37> H -2.5472840181 0.7185603518 -2.4467259868
| 38> H -3.9930356916 1.6570361339 -1.9737211761
| 39> H -2.3897979511 3.1402819634 -3.1047039111
| 40> H -2.5035738233 3.5974560605 -1.3995597724
| 41> H -1.1025990261 2.6775528252 -1.9843675906
| 42> H -3.6553026707 -2.6331449344 0.1765493343
| 43> H -4.6298636805 -2.158315122 1.6009630509
| 44> H -5.6604753442 -0.32571452 0.1924047249
| 45> H -4.7433976261 -0.9257383833 -1.2024981763
| 46> H -5.991325678 -1.9402213955 -0.4633241107
| 47> *
| 48>
| 49>                          ****END OF INPUT****

CARTESIAN COORDINATES (ANGSTROEM)
---------------------------------
  C      4.141712    1.933412   -1.550844
  C      4.454764    0.524771   -1.089269
  O      3.267184   -0.277001   -0.951983
  P      2.183085   -0.005095    0.175456
  S      2.908340    0.515605    1.924086
  O      1.330902   -1.339780    0.135454
  C      1.596822   -2.459877    0.999171
  C      2.929998   -3.107000    0.690438
  S      0.809291    1.308229   -0.728049
  C     -0.037679    1.812868    0.795908
  S     -0.876826    0.441272    1.647167
  P     -2.143128   -0.213445    0.092755
  S     -1.564891   -1.450920   -1.317092
  O     -2.772159    1.151156   -0.431357
  C     -2.919683    1.532276   -1.814846
  C     -2.176183    2.824043   -2.088858
  O     -3.214474   -0.832412    1.092292
  C     -4.183122   -1.809613    0.668923
  C     -5.216212   -1.207490   -0.262115
  H      3.530056    1.908876   -2.449313
  H      3.600291    2.469045   -0.772109
  H      5.069351    2.456907   -1.758835
  H      4.971812    0.542092   -0.124409
  H      5.052241   -0.018088   -1.822803
  H      1.560917   -2.110162    2.036732
  H      0.761666   -3.136771    0.809062
  H      3.044106   -4.001568    1.294592
  H      2.982224   -3.369364   -0.363207
  H      3.738787   -2.415041    0.923702
  H     -0.762165    2.575647    0.522285
  H      0.693853    2.196367    1.507447
  H     -2.547284    0.718560   -2.446726
  H     -3.993036    1.657036   -1.973721
  H     -2.389798    3.140282   -3.104704
  H     -2.503574    3.597456   -1.399560
  H     -1.102599    2.677553   -1.984368
  H     -3.655303   -2.633145    0.176549
  H     -4.629864   -2.158315    1.600963
  H     -5.660475   -0.325715    0.192405
  H     -4.743398   -0.925738   -1.202498
  H     -5.991326   -1.940221   -0.463324

 Total Charge           Charge          ....    0
 Multiplicity           Mult            ....    1
 Number of Electrons    NEL             ....  202
 Basis Dimension        Dim             ....  334

ORBITAL ENERGIES
----------------

  NO   OCC          E(Eh)            E(eV)
   0   2.0000     -88.043730     -2395.7917
   1   2.0000     -88.037595     -2395.6247
   2   2.0000     -87.987720     -2394.2676
   3   2.0000     -87.982114     -2394.1150
   4   2.0000     -76.424794     -2079.6244
   5   2.0000     -76.422555     -2079.5635
   6   2.0000     -18.793583      -511.3994
   7   2.0000     -18.792987      -511.3832
   8   2.0000     -18.786718      -511.2126
   9   2.0000     -18.781085      -511.0593
  10   2.0000      -9.956670      -270.9348
  11   2.0000      -9.953322      -270.8437
  12   2.0000      -9.952597      -270.8239
  13   2.0000      -9.949544      -270.7409
  14   2.0000      -9.941565      -270.5237
  15   2.0000      -9.890644      -269.1381
  16   2.0000      -9.885939      -269.0101
  17   2.0000      -9.884756      -268.9779
  18   2.0000      -9.877067      -268.7687
  19   2.0000      -7.688477      -209.2141
  20   2.0000      -7.682815      -209.0600
  21   2.0000      -7.632646      -207.6949
  22   2.0000      -7.627091      -207.5437
  23   2.0000      -6.422287      -174.7593
  24   2.0000      -6.420067      -174.6989
  25   2.0000      -5.716300      -155.5484
  26   2.0000      -5.713135      -155.4623
  27   2.0000      -5.710986      -155.4038
  28   2.0000      -5.707365      -155.3053
  29   2.0000      -5.705351      -155.2505
  30   2.0000      -5.699396      -155.0885
  31   2.0000      -5.661407      -154.0547
  32   2.0000      -5.655918      -153.9054
  33   2.0000      -5.653390      -153.8366
  34   2.0000      -5.652880      -153.8227
  35   2.0000      -5.647593      -153.6788
  36   2.0000      -5.647456      -153.6751
  37   2.0000      -4.644631      -126.3868
  38   2.0000      -4.643968      -126.3688
  39   2.0000      -4.643053      -126.3439
  40   2.0000      -4.642783      -126.3366
  41   2.0000      -4.641683      -126.3066
  42   2.0000      -4.640539      -126.2755
  43   2.0000      -0.983524       -26.7630
  44   2.0000      -0.981928       -26.7196
  45   2.0000      -0.944561       -25.7028
  46   2.0000      -0.941459       -25.6184
  47   2.0000      -0.764035       -20.7905
  48   2.0000      -0.721910       -19.6442
  49   2.0000      -0.706436       -19.2231
  50   2.0000      -0.689750       -18.7690
  51   2.0000      -0.683668       -18.6035
  52   2.0000      -0.669191       -18.2096
  53   2.0000      -0.649513       -17.6741
  54   2.0000      -0.638767       -17.3817
  55   2.0000      -0.601822       -16.3764
  56   2.0000      -0.593087       -16.1387
  57   2.0000      -0.574688       -15.6381
  58   2.0000      -0.568573       -15.4717
  59   2.0000      -0.559449       -15.2234
  60   2.0000      -0.497881       -13.5480
  61   2.0000      -0.489514       -13.3203
  62   2.0000      -0.477404       -12.9908
  63   2.0000      -0.469376       -12.7724
  64   2.0000      -0.456203       -12.4139
  65   2.0000      -0.439863       -11.9693
  66   2.0000      -0.438640       -11.9360
  67   2.0000      -0.435747       -11.8573
  68   2.0000      -0.427068       -11.6211
  69   2.0000      -0.411349       -11.1934
  70   2.0000      -0.399492       -10.8707
  71   2.0000      -0.396269       -10.7830
  72   2.0000      -0.391621       -10.6565
  73   2.0000      -0.388003       -10.5581
  74   2.0000      -0.382738       -10.4148
  75   2.0000      -0.377353       -10.2683
  76   2.0000      -0.371717       -10.1149
  77   2.0000      -0.360403        -9.8071
  78   2.0000      -0.355608        -9.6766
  79   2.0000      -0.352577        -9.5941
  80   2.0000      -0.345414        -9.3992
  81   2.0000      -0.344698        -9.3797
  82   2.0000      -0.340312        -9.2604
  83   2.0000      -0.337845        -9.1932
  84   2.0000      -0.331872        -9.0307
  85   2.0000      -0.321200        -8.7403
  86   2.0000      -0.309659        -8.4262
  87   2.0000      -0.295566        -8.0428
  88   2.0000      -0.293533        -7.9874
  89   2.0000      -0.280552        -7.6342
  90   2.0000      -0.278010        -7.5650
  91   2.0000      -0.275057        -7.4847
  92   2.0000      -0.268820        -7.3150
  93   2.0000      -0.264216        -7.1897
  94   2.0000      -0.260524        -7.0892
  95   2.0000      -0.234888        -6.3916
  96   2.0000      -0.215432        -5.8622
  97   2.0000      -0.208886        -5.6841
  98   2.0000      -0.204645        -5.5687
  99   2.0000      -0.195641        -5.3237
 100   2.0000      -0.193337        -5.2610
 101   0.0000      -0.048437        -1.3180
 102   0.0000      -0.025235        -0.6867
 103   0.0000      -0.000989        -0.0269
 104   0.0000       0.004236         0.1153
 105   0.0000       0.020303         0.5525

MULLIKEN ATOMIC CHARGES
-----------------------
   0 C :   -0.315422
   1 C :   -0.004981
   2 O :   -0.367553
   3 P :    0.629890
   4 S :   -0.340187
   5 O :   -0.344823
   6 C :    0.003392
   7 C :   -0.310636
   8 S :   -0.097782
   9 C :   -0.367196
  10 S :   -0.065467
  11 P :    0.626363
  12 S :   -0.311537
  13 O :   -0.385298
  14 C :   -0.018782
  15 C :   -0.305263
  16 O :   -0.377516
  17 C :   -0.002494
  18 C :   -0.317100
  19 H :    0.118830
  20 H :    0.124728
  21 H :    0.113458
  22 H :    0.111572
  23 H :    0.107026
  24 H :    0.109461
  25 H :    0.105029
  26 H :    0.109882
  27 H :    0.118467
  28 H :    0.118735
  29 H :    0.188751
  30 H :    0.191855
  31 H :    0.116151
  32 H :    0.104289
  33 H :    0.114139
  34 H :    0.118746
  35 H :    0.132208
  36 H :    0.110818
  37 H :    0.105239
  38 H :    0.117815
  39 H :    0.121726
  40 H :    0.113467
Sum of atomic charges:   -0.0000000

LOEWDIN ATOMIC CHARGES
----------------------
   0 C :   -0.369689
   1 C :   -0.118817
   2 O :   -0.240351
   3 P :    0.576313
   4 S :   -0.327036
   5 O :   -0.227858
   6 C :   -0.116712
   7 C :   -0.365835
   8 S :    0.097547
   9 C :   -0.478493
  10 S :    0.102834
  11 P :    0.563619
  12 S :   -0.304659
  13 O :   -0.251322
  14 C :   -0.121301
  15 C :   -0.359872
  16 O :   -0.249979
  17 C :   -0.119886
  18 C :   -0.365893
  19 H :    0.124681
  20 H :    0.120320
  21 H :    0.131287
  22 H :    0.110709
  23 H :    0.119625
  24 H :    0.109607
  25 H :    0.118535
  26 H :    0.129253
  27 H :    0.126942
  28 H :    0.119863
  29 H :    0.131537
  30 H :    0.131603
  31 H :    0.107957
  32 H :    0.114728
  33 H :    0.133401
  34 H :    0.125260
  35 H :    0.115803
  36 H :    0.109403
  37 H :    0.118893
  38 H :    0.126174
  39 H :    0.120563
  40 H :    0.131247

  Mayer bond orders larger than 0.100000
B(  0-C ,  1-C ) :   1.1664 B(  0-C , 19-H ) :   0.9446 B(  0-C , 20-H ) :   0.9352
B(  0-C , 21-H ) :   0.9377 B(  1-C ,  2-O ) :   0.9076 B(  1-C , 22-H ) :   0.9157
B(  1-C , 23-H ) :   0.9337 B(  2-O ,  3-P ) :   1.1145 B(  3-P ,  4-S ) :   1.5844
B(  3-P ,  5-O ) :   1.1472 B(  3-P ,  8-S ) :   0.9464 B(  4-S ,  8-S ) :   0.1058
B(  5-O ,  6-C ) :   0.9064 B(  6-C ,  7-C ) :   1.1637 B(  6-C , 24-H ) :   0.9196
B(  6-C , 25-H ) :   0.9296 B(  7-C , 26-H ) :   0.9398 B(  7-C , 27-H ) :   0.9456
B(  7-C , 28-H ) :   0.9367 B(  8-S ,  9-C ) :   1.0068 B(  9-C , 10-S ) :   1.0025
B(  9-C , 29-H ) :   0.8981 B(  9-C , 30-H ) :   0.8854 B( 10-S , 11-P ) :   0.9640
B( 10-S , 12-S ) :   0.1051 B( 11-P , 12-S ) :   1.6220 B( 11-P , 13-O ) :   1.0896
B( 11-P , 16-O ) :   1.1127 B( 13-O , 14-C ) :   0.9084 B( 14-C , 15-C ) :   1.1674
B( 14-C , 31-H ) :   0.8963 B( 14-C , 32-H ) :   0.9305 B( 15-C , 33-H ) :   0.9374
B( 15-C , 34-H ) :   0.9438 B( 15-C , 35-H ) :   0.9309 B( 16-O , 17-C ) :   0.9160
B( 17-C , 18-C ) :   1.1604 B( 17-C , 36-H ) :   0.9136 B( 17-C , 37-H ) :   0.9341
B( 18-C , 38-H ) :   0.9465 B( 18-C , 39-H ) :   0.9329 B( 18-C , 40-H ) :   0.9390

Dispersion correction           -0.067377804
FINAL SINGLE POINT ENERGY     -2929.522104895583

DIPOLE MOMENT
-------------

Method             : SCF
Type of density    : Electron Density
Multiplicity       :   1
Irrep              :   0
Energy             : -2929.6394036572664845 Eh
Relativity type    :
Basis              : AO
                                X                 Y                 Z
Electronic contribution:      2.396829064      -0.651973222       9.696035605
Nuclear contribution   :     -2.882870307       1.002169525     -10.420109963
                        -----------------------------------------
Total Dipole Moment    :     -0.486041243       0.350196303      -0.724074357
                        -----------------------------------------
Magnitude (a.u.)       :      0.939764447
Magnitude (Debye)      :      2.388691392

Rotational constants in cm-1:             0.012890             0.005282             0.004637
Rotational constants in MHz :           386.425554           158.349812           139.009333

                             ****ORCA TERMINATED NORMALLY****
TOTAL RUN TIME: 0 days 0 hours 0 minutes 20 seconds 967 msec
