                         Program Version 6.0.0  -   RELEASE  -
|  1> ! pbe def2-sv(p) def2/J RI DEFGRID1 loosescf d4 GCP(DFT/SV(P)) printgap
|  2> %output
|  3>     printlevel normal
|  4> end
|  5> * xyz 0 1
|  6> C 5.3553427135 -1.4888584282 -1.35968717
|  7> C 4.1725123654 -0.6610322713 -1.8192205249
|  8> O 3.7444791279 0.2437386984 -0.7720417807
|  9> P 2.549088255 -0.0471329166 0.2136713402
| 10> S 2.4273715136 1.4260721997 1.4924136085
| 11> O 2.8993141333 -1.498920488 0.756911796
| 12> C 1.9804274753 -2.3899379555 1.4146037674
| 13> C 1.2211701678 -1.7274362368 2.5453837399
| 14> S 0.8612685329 -0.4245962423 -1.0526590063
| 15> C 0.2584922847 1.2766035504 -1.1631969265
| 16> S -0.8042264076 1.75904644 0.2299592041
| 17> P -2.3102948041 0.3214203792 -0.129489092
| 18> S -2.7232919311 -0.1069733796 -2.0012197983
| 19> O -3.5460360425 0.8192537509 0.7361607057
| 20> C -4.5603005558 1.6886237435 0.2047543722
| 21> C -4.030194906 3.0795867178 -0.0780142097
| 22> O -1.7572051671 -0.867634179 0.7591085761
| 23> C -2.1496412792 -2.2386111265 0.5369394516
| 24> C -3.6079875798 -2.4680724744 0.8730957466
| 25> H 5.0718574264 -2.1197464883 -0.5217306752
| 26> H 5.6938540545 -2.1120080206 -2.1815309136
| 27> H 6.1651883601 -0.8359134303 -1.046221339
| 28> H 3.3293743962 -1.2951372324 -2.1080844084
| 29> H 4.4445441326 -0.0083094009 -2.6507046235
| 30> H 1.2919300093 -2.7818141197 0.6601454097
| 31> H 2.6210045538 -3.1926911421 1.7846735479
| 32> H 0.649155173 -2.4752746493 3.0858522838
| 33> H 1.9120986203 -1.2415808013 3.2306922828
| 34> H 0.5379864435 -0.9721522437 2.1568467491
| 35> H -0.3124125667 1.3396179428 -2.0888203419
| 36> H 1.0993721471 1.9673338605 -1.1619400709
| 37> H -4.9578383909 1.2368512032 -0.7099854608
| 38> H -5.328349246 1.6997747222 0.9792276234
| 39> H -3.3115136974 3.0453382655 -0.8960120058
| 40> H -4.8531485326 3.7287826052 -0.3593520636
| 41> H -3.5359372041 3.4822038381 0.802840563
| 42> H -1.946598771 -2.4889953075 -0.509389004
| 43> H -1.4893927414 -2.8087216094 1.1917215589
| 44> H -3.817715048 -2.1284796322 1.8840313982
| 45> H -4.2392937307 -1.9153440091 0.1782906712
| 46> H -3.8349677868 -3.5263020197 0.7903134729
| 47> *
| 48>
| 49>                          ****END OF INPUT****

CARTESIAN COORDINATES (ANGSTROEM)
---------------------------------
  C      5.355343   -1.488858   -1.359687
  C      4.172512   -0.661032   -1.819221
  O      3.744479    0.243739   -0.772042
  P      2.549088   -0.047133    0.213671
  S      2.427372    1.426072    1.492414
  O      2.899314   -1.498920    0.756912
  C      1.980427   -2.389938    1.414604
  C      1.221170   -1.727436    2.545384
  S      0.861269   -0.424596   -1.052659
  C      0.258492    1.276604   -1.163197
  S     -0.804226    1.759046    0.229959
  P     -2.310295    0.321420   -0.129489
  S     -2.723292   -0.106973   -2.001220
  O     -3.546036    0.819254    0.736161
  C     -4.560301    1.688624    0.204754
  C     -4.030195    3.079587   -0.078014
  O     -1.757205   -0.867634    0.759109
  C     -2.149641   -2.238611    0.536939
  C     -3.607988   -2.468072    0.873096
  H      5.071857   -2.119746   -0.521731
  H      5.693854   -2.112008   -2.181531
  H      6.165188   -0.835913   -1.046221
  H      3.329374   -1.295137   -2.108084
  H      4.444544   -0.008309   -2.650705
  H      1.291930   -2.781814    0.660145
  H      2.621005   -3.192691    1.784674
  H      0.649155   -2.475275    3.085852
  H      1.912099   -1.241581    3.230692
  H      0.537986   -0.972152    2.156847
  H     -0.312413    1.339618   -2.088820
  H      1.099372    1.967334   -1.161940
  H     -4.957838    1.236851   -0.709985
  H     -5.328349    1.699775    0.979228
  H     -3.311514    3.045338   -0.896012
  H     -4.853149    3.728783   -0.359352
  H     -3.535937    3.482204    0.802841
  H     -1.946599   -2.488995   -0.509389
  H     -1.489393   -2.808722    1.191722
  H     -3.817715   -2.128480    1.884031
  H     -4.239294   -1.915344    0.178291
  H     -3.834968   -3.526302    0.790313

 Total Charge           Charge          ....    0
 Multiplicity           Mult            ....    1
 Number of Electrons    NEL             ....  202
 Basis Dimension        Dim             ....  334

ORBITAL ENERGIES
----------------

  NO   OCC          E(Eh)            E(eV)
   0   2.0000     -88.042615     -2395.7614
   1   2.0000     -88.040117     -2395.6934
   2   2.0000     -87.991405     -2394.3679
   3   2.0000     -87.980365     -2394.0675
   4   2.0000     -76.427003     -2079.6845
   5   2.0000     -76.424639     -2079.6202
   6   2.0000     -18.796522      -511.4794
   7   2.0000     -18.794450      -511.4230
   8   2.0000     -18.791256      -511.3361
   9   2.0000     -18.788990      -511.2744
  10   2.0000      -9.959923      -271.0233
  11   2.0000      -9.955859      -270.9127
  12   2.0000      -9.954697      -270.8811
  13   2.0000      -9.954245      -270.8688
  14   2.0000      -9.953869      -270.8585
  15   2.0000      -9.886161      -269.0161
  16   2.0000      -9.885736      -269.0046
  17   2.0000      -9.884362      -268.9672
  18   2.0000      -9.880730      -268.8683
  19   2.0000      -7.687085      -209.1762
  20   2.0000      -7.685061      -209.1211
  21   2.0000      -7.636296      -207.7942
  22   2.0000      -7.625643      -207.5043
  23   2.0000      -6.424622      -174.8228
  24   2.0000      -6.421847      -174.7473
  25   2.0000      -5.714784      -155.5072
  26   2.0000      -5.712940      -155.4570
  27   2.0000      -5.711630      -155.4213
  28   2.0000      -5.709774      -155.3708
  29   2.0000      -5.704286      -155.2215
  30   2.0000      -5.701839      -155.1549
  31   2.0000      -5.665005      -154.1526
  32   2.0000      -5.656944      -153.9333
  33   2.0000      -5.656680      -153.9261
  34   2.0000      -5.654810      -153.8752
  35   2.0000      -5.646227      -153.6417
  36   2.0000      -5.645583      -153.6241
  37   2.0000      -4.647019      -126.4518
  38   2.0000      -4.646383      -126.4345
  39   2.0000      -4.645220      -126.4029
  40   2.0000      -4.644753      -126.3902
  41   2.0000      -4.643868      -126.3661
  42   2.0000      -4.641793      -126.3096
  43   2.0000      -0.988652       -26.9026
  44   2.0000      -0.988420       -26.8963
  45   2.0000      -0.947686       -25.7878
  46   2.0000      -0.945451       -25.7270
  47   2.0000      -0.763538       -20.7769
  48   2.0000      -0.721120       -19.6227
  49   2.0000      -0.710433       -19.3319
  50   2.0000      -0.690926       -18.8010
  51   2.0000      -0.688522       -18.7356
  52   2.0000      -0.674690       -18.3592
  53   2.0000      -0.650953       -17.7133
  54   2.0000      -0.640130       -17.4188
  55   2.0000      -0.602751       -16.4017
  56   2.0000      -0.588888       -16.0245
  57   2.0000      -0.575125       -15.6499
  58   2.0000      -0.574012       -15.6197
  59   2.0000      -0.563908       -15.3447
  60   2.0000      -0.504434       -13.7263
  61   2.0000      -0.493680       -13.4337
  62   2.0000      -0.474811       -12.9203
  63   2.0000      -0.473204       -12.8765
  64   2.0000      -0.458881       -12.4868
  65   2.0000      -0.447767       -12.1844
  66   2.0000      -0.441580       -12.0160
  67   2.0000      -0.438441       -11.9306
  68   2.0000      -0.432314       -11.7639
  69   2.0000      -0.417007       -11.3473
  70   2.0000      -0.411216       -11.1898
  71   2.0000      -0.399699       -10.8764
  72   2.0000      -0.395513       -10.7625
  73   2.0000      -0.388801       -10.5798
  74   2.0000      -0.384521       -10.4634
  75   2.0000      -0.373810       -10.1719
  76   2.0000      -0.364889        -9.9291
  77   2.0000      -0.355819        -9.6823
  78   2.0000      -0.354935        -9.6583
  79   2.0000      -0.351434        -9.5630
  80   2.0000      -0.349458        -9.5092
  81   2.0000      -0.345175        -9.3927
  82   2.0000      -0.343444        -9.3456
  83   2.0000      -0.336987        -9.1699
  84   2.0000      -0.335767        -9.1367
  85   2.0000      -0.321751        -8.7553
  86   2.0000      -0.315554        -8.5867
  87   2.0000      -0.297469        -8.0945
  88   2.0000      -0.296776        -8.0757
  89   2.0000      -0.288484        -7.8501
  90   2.0000      -0.285485        -7.7684
  91   2.0000      -0.277905        -7.5622
  92   2.0000      -0.275710        -7.5024
  93   2.0000      -0.265260        -7.2181
  94   2.0000      -0.259937        -7.0732
  95   2.0000      -0.235783        -6.4160
  96   2.0000      -0.217497        -5.9184
  97   2.0000      -0.211435        -5.7535
  98   2.0000      -0.207720        -5.6524
  99   2.0000      -0.197922        -5.3857
 100   2.0000      -0.190248        -5.1769
 101   0.0000      -0.042483        -1.1560
 102   0.0000      -0.027883        -0.7587
 103   0.0000      -0.005811        -0.1581
 104   0.0000       0.007496         0.2040
 105   0.0000       0.010566         0.2875

MULLIKEN ATOMIC CHARGES
-----------------------
   0 C :   -0.288250
   1 C :   -0.009679
   2 O :   -0.353196
   3 P :    0.584356
   4 S :   -0.301366
   5 O :   -0.382789
   6 C :   -0.011436
   7 C :   -0.336103
   8 S :   -0.103114
   9 C :   -0.353008
  10 S :   -0.041453
  11 P :    0.602579
  12 S :   -0.342360
  13 O :   -0.369436
  14 C :   -0.005280
  15 C :   -0.315606
  16 O :   -0.354823
  17 C :   -0.013165
  18 C :   -0.302516
  19 H :    0.120618
  20 H :    0.108413
  21 H :    0.120586
  22 H :    0.097347
  23 H :    0.108391
  24 H :    0.112360
  25 H :    0.107317
  26 H :    0.109506
  27 H :    0.128528
  28 H :    0.154200
  29 H :    0.192468
  30 H :    0.187974
  31 H :    0.110605
  32 H :    0.106556
  33 H :    0.126095
  34 H :    0.113531
  35 H :    0.121683
  36 H :    0.112182
  37 H :    0.105215
  38 H :    0.118629
  39 H :    0.123339
  40 H :    0.111104
Sum of atomic charges:    0.0000000

LOEWDIN ATOMIC CHARGES
----------------------
   0 C :   -0.358824
   1 C :   -0.116274
   2 O :   -0.238723
   3 P :    0.564050
   4 S :   -0.303076
   5 O :   -0.245210
   6 C :   -0.113520
   7 C :   -0.375687
   8 S :    0.069124
   9 C :   -0.478355
  10 S :    0.110145
  11 P :    0.569798
  12 S :   -0.329893
  13 O :   -0.242406
  14 C :   -0.119094
  15 C :   -0.369355
  16 O :   -0.236248
  17 C :   -0.118066
  18 C :   -0.364526
  19 H :    0.125932
  20 H :    0.128589
  21 H :    0.129173
  22 H :    0.101659
  23 H :    0.120551
  24 H :    0.106826
  25 H :    0.120018
  26 H :    0.127321
  27 H :    0.130897
  28 H :    0.127297
  29 H :    0.130636
  30 H :    0.133909
  31 H :    0.110132
  32 H :    0.119340
  33 H :    0.120958
  34 H :    0.131300
  35 H :    0.126163
  36 H :    0.110317
  37 H :    0.114754
  38 H :    0.127479
  39 H :    0.122780
  40 H :    0.130109

  Mayer bond orders larger than 0.100000
B(  0-C ,  1-C ) :   1.1640 B(  0-C , 19-H ) :   0.9431 B(  0-C , 20-H ) :   0.9403
B(  0-C , 21-H ) :   0.9470 B(  1-C ,  2-O ) :   0.8960 B(  1-C , 22-H ) :   0.9126
B(  1-C , 23-H ) :   0.9364 B(  2-O ,  3-P ) :   1.1297 B(  3-P ,  4-S ) :   1.6605
B(  3-P ,  5-O ) :   1.0805 B(  3-P ,  8-S ) :   0.9368 B(  4-S ,  8-S ) :   0.1141
B(  5-O ,  6-C ) :   0.9101 B(  6-C ,  7-C ) :   1.1704 B(  6-C , 24-H ) :   0.9269
B(  6-C , 25-H ) :   0.9328 B(  7-C , 26-H ) :   0.9307 B(  7-C , 27-H ) :   0.9383
B(  7-C , 28-H ) :   0.9208 B(  8-S ,  9-C ) :   0.9984 B(  9-C , 10-S ) :   1.0041
B(  9-C , 29-H ) :   0.8837 B(  9-C , 30-H ) :   0.8928 B( 10-S , 11-P ) :   0.9740
B( 10-S , 12-S ) :   0.1100 B( 11-P , 12-S ) :   1.5737 B( 11-P , 13-O ) :   1.1120
B( 11-P , 16-O ) :   1.1204 B( 13-O , 14-C ) :   0.9081 B( 14-C , 15-C ) :   1.1662
B( 14-C , 31-H ) :   0.9163 B( 14-C , 32-H ) :   0.9338 B( 15-C , 33-H ) :   0.9356
B( 15-C , 34-H ) :   0.9377 B( 15-C , 35-H ) :   0.9443 B( 16-O , 17-C ) :   0.9075
B( 17-C , 18-C ) :   1.1647 B( 17-C , 36-H ) :   0.9169 B( 17-C , 37-H ) :   0.9275
B( 18-C , 38-H ) :   0.9452 B( 18-C , 39-H ) :   0.9356 B( 18-C , 40-H ) :   0.9389

Dispersion correction           -0.065850518
FINAL SINGLE POINT ENERGY     -2929.520449535088

DIPOLE MOMENT
-------------

Method             : SCF
Type of density    : Electron Density
Multiplicity       :   1
Irrep              :   0
Energy             : -2929.6395000065567729 Eh
Relativity type    :
Basis              : AO
                                X                 Y                 Z
Electronic contribution:      4.304184889      11.702868758      -2.541894408
Nuclear contribution   :     -4.699953727     -12.915107314       2.340869703
                        -----------------------------------------
Total Dipole Moment    :     -0.395768838      -1.212238557      -0.201024705
                        -----------------------------------------
Magnitude (a.u.)       :      1.290955547
Magnitude (Debye)      :      3.281348227

Rotational constants in cm-1:             0.013446             0.004684             0.004406
Rotational constants in MHz :           403.107353           140.414696           132.073774

                             ****ORCA TERMINATED NORMALLY****
TOTAL RUN TIME: 0 days 0 hours 0 minutes 21 seconds 189 msec
