                         Program Version 6.0.0  -   RELEASE  -
|  1> ! r2scan-3c def2/J RI DEFGRID2 scfconv6 printgap
|  2> %output
|  3>     printlevel normal
|  4> end
|  5> %cpcm
|  6>     smd true
|  7>     smdsolvent "water"
|  8> end
|  9> * xyz 0 1
| 10> C -1.2611525128 0.2721997588 5.816e-07
| 11> C 2.2103e-06 -0.5838212332 -1.956e-06
| 12> C 1.2611473178 0.2722058221 5.29e-08
| 13> H -1.2880304178 0.9085760606 -0.8818198448
| 14> H -2.1502667906 -0.3537318645 -3.64521e-05
| 15> H -1.2880771331 0.908534782 0.8818505575
| 16> H -3.685e-07 -1.228527821 0.8816341025
| 17> H 3.06575e-05 -1.2285105321 -0.881646927
| 18> H 2.1502353391 -0.3537514961 5.38119e-05
| 19> H 1.2880421363 0.9085552922 0.8818383019
| 20> H 1.2881021425 0.9085369462 -0.8818578027
| 21> *
| 22>
| 23>                          ****END OF INPUT****

CARTESIAN COORDINATES (ANGSTROEM)
---------------------------------
  C     -1.261153    0.272200    0.000001
  C      0.000002   -0.583821   -0.000002
  C      1.261147    0.272206    0.000000
  H     -1.288030    0.908576   -0.881820
  H     -2.150267   -0.353732   -0.000036
  H     -1.288077    0.908535    0.881851
  H     -0.000000   -1.228528    0.881634
  H      0.000031   -1.228511   -0.881647
  H      2.150235   -0.353751    0.000054
  H      1.288042    0.908555    0.881838
  H      1.288102    0.908537   -0.881858

 Total Charge           Charge          ....    0
 Multiplicity           Mult            ....    1
 Number of Electrons    NEL             ....   26
 Basis Dimension        Dim             ....   97

ORBITAL ENERGIES
----------------

  NO   OCC          E(Eh)            E(eV)
   0   2.0000     -10.016499      -272.5628
   1   2.0000     -10.006555      -272.2922
   2   2.0000     -10.006547      -272.2920
   3   2.0000      -0.740577       -20.1521
   4   2.0000      -0.639825       -17.4105
   5   2.0000      -0.542664       -14.7666
   6   2.0000      -0.419547       -11.4165
   7   2.0000      -0.398018       -10.8306
   8   2.0000      -0.359928        -9.7941
   9   2.0000      -0.342116        -9.3094
  10   2.0000      -0.297862        -8.1052
  11   2.0000      -0.297101        -8.0845
  12   2.0000      -0.288572        -7.8525
  13   0.0000       0.107683         2.9302
  14   0.0000       0.135215         3.6794
  15   0.0000       0.142230         3.8703
  16   0.0000       0.162540         4.4229
  17   0.0000       0.168566         4.5869

MULLIKEN ATOMIC CHARGES
-----------------------
   0 C :   -0.477626
   1 C :   -0.216505
   2 C :   -0.477627
   3 H :    0.147864
   4 H :    0.151849
   5 H :    0.147867
   6 H :    0.138300
   7 H :    0.138300
   8 H :    0.151849
   9 H :    0.147864
  10 H :    0.147867
Sum of atomic charges:    0.0000000

LOEWDIN ATOMIC CHARGES
----------------------
   0 C :   -0.438118
   1 C :   -0.329326
   2 C :   -0.438116
   3 H :    0.150974
   4 H :    0.151751
   5 H :    0.150975
   6 H :    0.149081
   7 H :    0.149080
   8 H :    0.151750
   9 H :    0.150974
  10 H :    0.150976

  Mayer bond orders larger than 0.100000
B(  0-C ,  1-C ) :   0.9118 B(  0-C ,  3-H ) :   0.9768 B(  0-C ,  4-H ) :   0.9696
B(  0-C ,  5-H ) :   0.9768 B(  1-C ,  2-C ) :   0.9118 B(  1-C ,  6-H ) :   0.9682
B(  1-C ,  7-H ) :   0.9682 B(  2-C ,  8-H ) :   0.9696 B(  2-C ,  9-H ) :   0.9768
B(  2-C , 10-H ) :   0.9768

Dispersion correction           -0.001708760
FINAL SINGLE POINT ENERGY      -119.087102949803

DIPOLE MOMENT
-------------

Method             : SCF
Type of density    : Electron Density
Multiplicity       :   1
Irrep              :   0
Energy             :  -119.0906854743557801 Eh
Relativity type    :
Basis              : AO
                                X                 Y                 Z
Electronic contribution:     -0.000021980      -0.473503310      -0.000010822
Nuclear contribution   :      0.000033367       0.440641017       0.000014774
                        -----------------------------------------
Total Dipole Moment    :      0.000011387      -0.032862293       0.000003951
                        -----------------------------------------
Magnitude (a.u.)       :      0.032862295
Magnitude (Debye)      :      0.083529316

Rotational constants in cm-1:             0.980124             0.286110             0.252683
Rotational constants in MHz :         29383.383882          8577.369371          7575.240901

                             ****ORCA TERMINATED NORMALLY****
TOTAL RUN TIME: 0 days 0 hours 0 minutes 9 seconds 329 msec
