                         Program Version 6.0.1  -  RELEASE   -
|  1> ! pbe def2-sv(p) def2/J RI DEFGRID1 loosescf d4 GCP(DFT/SV(P)) printgap
|  2> %output
|  3>     printlevel normal
|  4> end
|  5> * xyz 0 1
|  6> C 4.3438391619 -3.4168493044 -1.4419646652
|  7> C 2.9357956527 -3.0085422 -1.84521709
|  8> O 2.5904947429 -1.7262453317 -1.2875414804
|  9> C 2.0870190073 -1.686585283 -0.0697538668
| 10> O 1.8882348272 -2.6558221495 0.6266815784
| 11> C 1.7647389015 -0.2641218417 0.3538154696
| 12> C 0.9141500785 0.4298644075 -0.7095805319
| 13> H 1.4922528063 0.5502363807 -1.6295157998
| 14> C 0.418079029 1.7805479927 -0.2346306876
| 15> O -0.7651604001 2.0550318648 -0.1727003143
| 16> O 1.3876157136 2.5816672164 0.0941683365
| 17> C 1.0356643242 3.8833583972 0.6179838575
| 18> C 2.3205250384 4.6102312553 0.9576016851
| 19> S -0.5360834148 -0.5583313591 -1.1974134603
| 20> P -1.8674069014 -0.1952071924 0.4366384014
| 21> S -1.2600683091 0.3794618262 2.2089200802
| 22> O -3.1726479852 0.5037556288 -0.1632990832
| 23> C -3.5188469741 1.8881348905 -0.1362418421
| 24> O -2.4482513502 -1.667906949 0.6263192645
| 25> C -3.0713143564 -2.418418679 -0.4278592742
| 26> H 4.5994992845 -4.3511655436 -1.9305638119
| 27> H 5.0555122959 -2.6509500293 -1.7373194366
| 28> H 4.3981423139 -3.556439456 -0.3646142436
| 29> H 2.2044823937 -3.7453701772 -1.5015125149
| 30> H 2.8542075224 -2.8658061149 -2.9226794532
| 31> H 2.6951242794 0.2921474684 0.4796478114
| 32> H 1.2399937576 -0.3063510803 1.3110041294
| 33> H 0.4554754325 4.4122047382 -0.1435464957
| 34> H 0.4024134663 3.7329080968 1.4976264583
| 35> H 2.8709089447 4.0626823733 1.7164020026
| 36> H 2.9404145042 4.7061271001 0.0714921937
| 37> H 2.0805307284 5.5981645341 1.335880188
| 38> H -3.1598187254 2.3497230238 0.7832604665
| 39> H -4.6055729144 1.9145565602 -0.1800469994
| 40> H -3.0808589428 2.3938170428 -0.9943267863
| 41> H -3.2739812846 -3.3964900437 0.001129786
| 42> H -2.3923722907 -2.5056115907 -1.2769304178
| 43> H -3.9942994517 -1.9301285691 -0.7352464583
| 44> *
| 45>
| 46>                          ****END OF INPUT****

CARTESIAN COORDINATES (ANGSTROEM)
---------------------------------
  C      4.343839   -3.416849   -1.441965
  C      2.935796   -3.008542   -1.845217
  O      2.590495   -1.726245   -1.287541
  C      2.087019   -1.686585   -0.069754
  O      1.888235   -2.655822    0.626682
  C      1.764739   -0.264122    0.353815
  C      0.914150    0.429864   -0.709581
  H      1.492253    0.550236   -1.629516
  C      0.418079    1.780548   -0.234631
  O     -0.765160    2.055032   -0.172700
  O      1.387616    2.581667    0.094168
  C      1.035664    3.883358    0.617984
  C      2.320525    4.610231    0.957602
  S     -0.536083   -0.558331   -1.197413
  P     -1.867407   -0.195207    0.436638
  S     -1.260068    0.379462    2.208920
  O     -3.172648    0.503756   -0.163299
  C     -3.518847    1.888135   -0.136242
  O     -2.448251   -1.667907    0.626319
  C     -3.071314   -2.418419   -0.427859
  H      4.599499   -4.351166   -1.930564
  H      5.055512   -2.650950   -1.737319
  H      4.398142   -3.556439   -0.364614
  H      2.204482   -3.745370   -1.501513
  H      2.854208   -2.865806   -2.922679
  H      2.695124    0.292147    0.479648
  H      1.239994   -0.306351    1.311004
  H      0.455475    4.412205   -0.143546
  H      0.402413    3.732908    1.497626
  H      2.870909    4.062682    1.716402
  H      2.940415    4.706127    0.071492
  H      2.080531    5.598165    1.335880
  H     -3.159819    2.349723    0.783260
  H     -4.605573    1.914557   -0.180047
  H     -3.080859    2.393817   -0.994327
  H     -3.273981   -3.396490    0.001130
  H     -2.392372   -2.505612   -1.276930
  H     -3.994299   -1.930129   -0.735246

 Total Charge           Charge          ....    0
 Multiplicity           Mult            ....    1
 Number of Electrons    NEL             ....  174
 Basis Dimension        Dim             ....  316

ORBITAL ENERGIES
----------------

  NO   OCC          E(Eh)            E(eV)
   0   2.0000     -88.033103     -2395.5025
   1   2.0000     -87.969016     -2393.7586
   2   2.0000     -76.417840     -2079.4351
   3   2.0000     -18.826334      -512.2906
   4   2.0000     -18.802184      -511.6334
   5   2.0000     -18.781260      -511.0641
   6   2.0000     -18.771193      -510.7901
   7   2.0000     -18.757900      -510.4284
   8   2.0000     -18.732826      -509.7461
   9   2.0000     -10.029507      -272.9168
  10   2.0000     -10.006391      -272.2877
  11   2.0000      -9.961674      -271.0709
  12   2.0000      -9.952925      -270.8328
  13   2.0000      -9.948076      -270.7009
  14   2.0000      -9.936490      -270.3856
  15   2.0000      -9.933541      -270.3054
  16   2.0000      -9.904279      -269.5091
  17   2.0000      -9.899027      -269.3662
  18   2.0000      -9.887346      -269.0484
  19   2.0000      -7.677899      -208.9263
  20   2.0000      -7.614392      -207.1982
  21   2.0000      -6.413604      -174.5230
  22   2.0000      -5.705971      -155.2674
  23   2.0000      -5.702567      -155.1747
  24   2.0000      -5.694518      -154.9557
  25   2.0000      -5.643826      -153.5763
  26   2.0000      -5.635159      -153.3405
  27   2.0000      -5.633805      -153.3036
  28   2.0000      -4.636444      -126.1641
  29   2.0000      -4.635532      -126.1392
  30   2.0000      -4.634110      -126.1006
  31   2.0000      -1.035759       -28.1844
  32   2.0000      -1.008941       -27.4547
  33   2.0000      -0.970453       -26.4074
  34   2.0000      -0.938251       -25.5311
  35   2.0000      -0.924839       -25.1661
  36   2.0000      -0.910732       -24.7823
  37   2.0000      -0.767502       -20.8848
  38   2.0000      -0.721519       -19.6335
  39   2.0000      -0.707178       -19.2433
  40   2.0000      -0.687025       -18.6949
  41   2.0000      -0.652918       -17.7668
  42   2.0000      -0.627924       -17.0867
  43   2.0000      -0.626312       -17.0428
  44   2.0000      -0.606269       -16.4974
  45   2.0000      -0.593293       -16.1443
  46   2.0000      -0.566630       -15.4188
  47   2.0000      -0.524590       -14.2748
  48   2.0000      -0.506114       -13.7721
  49   2.0000      -0.498743       -13.5715
  50   2.0000      -0.483435       -13.1549
  51   2.0000      -0.466695       -12.6994
  52   2.0000      -0.462726       -12.5914
  53   2.0000      -0.449516       -12.2319
  54   2.0000      -0.444007       -12.0821
  55   2.0000      -0.435343       -11.8463
  56   2.0000      -0.422638       -11.5006
  57   2.0000      -0.415251       -11.2995
  58   2.0000      -0.411435       -11.1957
  59   2.0000      -0.404494       -11.0069
  60   2.0000      -0.401689       -10.9305
  61   2.0000      -0.390247       -10.6192
  62   2.0000      -0.385493       -10.4898
  63   2.0000      -0.381418       -10.3789
  64   2.0000      -0.379869       -10.3368
  65   2.0000      -0.372168       -10.1272
  66   2.0000      -0.369498       -10.0546
  67   2.0000      -0.355966        -9.6863
  68   2.0000      -0.343850        -9.3566
  69   2.0000      -0.341473        -9.2920
  70   2.0000      -0.332938        -9.0597
  71   2.0000      -0.329556        -8.9677
  72   2.0000      -0.325131        -8.8473
  73   2.0000      -0.317579        -8.6418
  74   2.0000      -0.305014        -8.2999
  75   2.0000      -0.294714        -8.0196
  76   2.0000      -0.290265        -7.8985
  77   2.0000      -0.286892        -7.8067
  78   2.0000      -0.282685        -7.6923
  79   2.0000      -0.259588        -7.0638
  80   2.0000      -0.258695        -7.0395
  81   2.0000      -0.250230        -6.8091
  82   2.0000      -0.245691        -6.6856
  83   2.0000      -0.215422        -5.8619
  84   2.0000      -0.210732        -5.7343
  85   2.0000      -0.190058        -5.1717
  86   2.0000      -0.181496        -4.9388
  87   0.0000      -0.046538        -1.2664
  88   0.0000      -0.036588        -0.9956
  89   0.0000      -0.013706        -0.3730
  90   0.0000      -0.000791        -0.0215
  91   0.0000       0.031921         0.8686

MULLIKEN ATOMIC CHARGES
-----------------------
   0 C :   -0.305175
   1 C :   -0.008124
   2 O :   -0.243561
   3 C :    0.125699
   4 O :   -0.181775
   5 C :   -0.079854
   6 C :   -0.304053
   7 H :    0.151282
   8 C :    0.219156
   9 O :   -0.195377
  10 O :   -0.219129
  11 C :   -0.032712
  12 C :   -0.274239
  13 S :   -0.115041
  14 P :    0.640018
  15 S :   -0.327432
  16 O :   -0.398455
  17 C :   -0.078049
  18 O :   -0.366497
  19 C :   -0.110843
  20 H :    0.113205
  21 H :    0.111175
  22 H :    0.129418
  23 H :    0.111399
  24 H :    0.100395
  25 H :    0.116634
  26 H :    0.123851
  27 H :    0.108813
  28 H :    0.124354
  29 H :    0.123094
  30 H :    0.117014
  31 H :    0.116947
  32 H :    0.114538
  33 H :    0.115131
  34 H :    0.113163
  35 H :    0.129615
  36 H :    0.118536
  37 H :    0.116876
Sum of atomic charges:    0.0000000

LOEWDIN ATOMIC CHARGES
----------------------
   0 C :   -0.356347
   1 C :   -0.110176
   2 O :   -0.067127
   3 C :    0.022810
   4 O :   -0.152476
   5 C :   -0.255862
   6 C :   -0.261480
   7 H :    0.150204
   8 C :    0.021849
   9 O :   -0.155677
  10 O :   -0.037975
  11 C :   -0.102698
  12 C :   -0.350165
  13 S :    0.093379
  14 P :    0.588385
  15 S :   -0.321324
  16 O :   -0.254198
  17 C :   -0.206025
  18 O :   -0.251876
  19 C :   -0.213855
  20 H :    0.130837
  21 H :    0.123502
  22 H :    0.131715
  23 H :    0.122078
  24 H :    0.116567
  25 H :    0.142763
  26 H :    0.136567
  27 H :    0.118662
  28 H :    0.126182
  29 H :    0.130502
  30 H :    0.127767
  31 H :    0.134258
  32 H :    0.111473
  33 H :    0.115408
  34 H :    0.111686
  35 H :    0.125092
  36 H :    0.103570
  37 H :    0.112003

  Mayer bond orders larger than 0.100000
B(  0-C ,  1-C ) :   1.1748 B(  0-C , 20-H ) :   0.9443 B(  0-C , 21-H ) :   0.9488
B(  0-C , 22-H ) :   0.9458 B(  1-C ,  2-O ) :   0.9154 B(  1-C , 23-H ) :   0.9137
B(  1-C , 24-H ) :   0.9375 B(  2-O ,  3-C ) :   1.1971 B(  3-C ,  4-O ) :   2.0817
B(  3-C ,  5-C ) :   1.0222 B(  5-C ,  6-C ) :   1.0456 B(  5-C , 25-H ) :   0.8718
B(  5-C , 26-H ) :   0.8770 B(  6-C ,  7-H ) :   0.8553 B(  6-C ,  8-C ) :   0.9260
B(  6-C , 13-S ) :   1.0452 B(  8-C ,  9-O ) :   1.9413 B(  8-C , 10-O ) :   1.2817
B( 10-O , 11-C ) :   0.8867 B( 11-C , 12-C ) :   1.1550 B( 11-C , 27-H ) :   0.9317
B( 11-C , 28-H ) :   0.9279 B( 12-C , 29-H ) :   0.9492 B( 12-C , 30-H ) :   0.9495
B( 12-C , 31-H ) :   0.9420 B( 13-S , 14-P ) :   0.9129 B( 13-S , 15-S ) :   0.1109
B( 14-P , 15-S ) :   1.5849 B( 14-P , 16-O ) :   1.0879 B( 14-P , 18-O ) :   1.1069
B( 16-O , 17-C ) :   0.9292 B( 17-C , 32-H ) :   0.9421 B( 17-C , 33-H ) :   0.9540
B( 17-C , 34-H ) :   0.9526 B( 18-O , 19-C ) :   0.9351 B( 19-C , 35-H ) :   0.9605
B( 19-C , 36-H ) :   0.9363 B( 19-C , 37-H ) :   0.9462

Dispersion correction           -0.051011529
FINAL SINGLE POINT ENERGY     -1979.008979983883

DIPOLE MOMENT
-------------

Method             : SCF
Type of density    : Electron Density
Multiplicity       :   1
Irrep              :   0
Energy             : -1979.1398807427058273 Eh
Relativity type    :
Basis              : AO
                                X                 Y                 Z
Electronic contribution:    -12.955677239      -3.402794229       4.607149474
Nuclear contribution   :     13.704596087       4.579523809      -6.258807949
                        -----------------------------------------
Total Dipole Moment    :      0.748918848       1.176729580      -1.651658475
                        -----------------------------------------
Magnitude (a.u.)       :      2.161838954
Magnitude (Debye)      :      5.494957930

Rotational constants in cm-1:             0.010701             0.007892             0.005330
Rotational constants in MHz :           320.794063           236.600800           159.795511

                             ****ORCA TERMINATED NORMALLY****
TOTAL RUN TIME: 0 days 0 hours 0 minutes 29 seconds 55 msec
