                         Program Version 6.0.0  -   RELEASE  -
|  1> ! pbe def2-sv(p) def2/J RI DEFGRID1 loosescf d4 GCP(DFT/SV(P)) printgap
|  2> %output
|  3>     printlevel normal
|  4> end
|  5> * xyz 0 1
|  6> C 0.546317368 1.4249246008 0.4923514665
|  7> C 1.4642676822 0.3587901693 -0.114656342
|  8> H 1.6309522273 0.6108400705 -1.1746169947
|  9> C 0.7573382267 -1.0108566156 -0.0586642123
| 10> H 1.1155074467 -1.5302248779 0.8412949639
| 11> C -0.7627793973 -0.862519637 0.092641146
| 12> H -1.227833643 -1.7397443 -0.3819888062
| 13> C -1.288902382 0.3790963623 -0.6433924563
| 14> H -1.173924222 0.2169940042 -1.7312259739
| 15> O -0.6115909042 1.5720499999 -0.3116191235
| 16> O -2.6349698721 0.5081092297 -0.3107649119
| 17> O -1.0848166434 -0.8179146426 1.4580773283
| 18> O 0.9969035127 -1.7723237848 -1.2161313363
| 19> O 2.6861272703 0.2339977702 0.5692131461
| 20> H 1.0157059016 2.4097352598 0.4821844821
| 21> H 0.2880303059 1.1449202957 1.5201610297
| 22> H -2.9643218561 1.3647054079 -0.6227495676
| 23> H -2.0278866787 -0.5975994463 1.5328855868
| 24> H 1.9328174195 -2.0197599366 -1.2450287305
| 25> H 3.1674572689 1.0734948198 0.5438477018
| 26> *
| 27>
| 28>                          ****END OF INPUT****

CARTESIAN COORDINATES (ANGSTROEM)
---------------------------------
  C      0.546317    1.424925    0.492351
  C      1.464268    0.358790   -0.114656
  H      1.630952    0.610840   -1.174617
  C      0.757338   -1.010857   -0.058664
  H      1.115507   -1.530225    0.841295
  C     -0.762779   -0.862520    0.092641
  H     -1.227834   -1.739744   -0.381989
  C     -1.288902    0.379096   -0.643392
  H     -1.173924    0.216994   -1.731226
  O     -0.611591    1.572050   -0.311619
  O     -2.634970    0.508109   -0.310765
  O     -1.084817   -0.817915    1.458077
  O      0.996904   -1.772324   -1.216131
  O      2.686127    0.233998    0.569213
  H      1.015706    2.409735    0.482184
  H      0.288030    1.144920    1.520161
  H     -2.964322    1.364705   -0.622750
  H     -2.027887   -0.597599    1.532886
  H      1.932817   -2.019760   -1.245029
  H      3.167457    1.073495    0.543848

 Total Charge           Charge          ....    0
 Multiplicity           Mult            ....    1
 Number of Electrons    NEL             ....   80
 Basis Dimension        Dim             ....  160

ORBITAL ENERGIES
----------------

  NO   OCC          E(Eh)            E(eV)
   0   2.0000     -18.762958      -510.5661
   1   2.0000     -18.761488      -510.5260
   2   2.0000     -18.757355      -510.4136
   3   2.0000     -18.750900      -510.2379
   4   2.0000     -18.748504      -510.1727
   5   2.0000      -9.981730      -271.6167
   6   2.0000      -9.939327      -270.4628
   7   2.0000      -9.939036      -270.4549
   8   2.0000      -9.938525      -270.4410
   9   2.0000      -9.929689      -270.2006
  10   2.0000      -0.978289       -26.6206
  11   2.0000      -0.940261       -25.5858
  12   2.0000      -0.926782       -25.2190
  13   2.0000      -0.918742       -25.0002
  14   2.0000      -0.909970       -24.7615
  15   2.0000      -0.697997       -18.9935
  16   2.0000      -0.671552       -18.2739
  17   2.0000      -0.588385       -16.0108
  18   2.0000      -0.582488       -15.8503
  19   2.0000      -0.509494       -13.8640
  20   2.0000      -0.498279       -13.5589
  21   2.0000      -0.486029       -13.2255
  22   2.0000      -0.465205       -12.6589
  23   2.0000      -0.454349       -12.3635
  24   2.0000      -0.441088       -12.0026
  25   2.0000      -0.407536       -11.0896
  26   2.0000      -0.386091       -10.5061
  27   2.0000      -0.373155       -10.1541
  28   2.0000      -0.362892        -9.8748
  29   2.0000      -0.354378        -9.6431
  30   2.0000      -0.326694        -8.8898
  31   2.0000      -0.319939        -8.7060
  32   2.0000      -0.301117        -8.1938
  33   2.0000      -0.277252        -7.5444
  34   2.0000      -0.273720        -7.4483
  35   2.0000      -0.243159        -6.6167
  36   2.0000      -0.236746        -6.4422
  37   2.0000      -0.225129        -6.1261
  38   2.0000      -0.211401        -5.7525
  39   2.0000      -0.204674        -5.5695
  40   0.0000       0.017080         0.4648
  41   0.0000       0.024264         0.6603
  42   0.0000       0.040069         1.0903
  43   0.0000       0.062006         1.6873
  44   0.0000       0.073936         2.0119

MULLIKEN ATOMIC CHARGES
-----------------------
   0 C :    0.094097
   1 C :   -0.063824
   2 H :    0.057279
   3 C :    0.130868
   4 H :    0.080624
   5 C :    0.002328
   6 H :    0.079504
   7 C :    0.170178
   8 H :    0.062874
   9 O :   -0.336874
  10 O :   -0.400625
  11 O :   -0.423902
  12 O :   -0.417944
  13 O :   -0.416905
  14 H :    0.074696
  15 H :    0.082323
  16 H :    0.308070
  17 H :    0.308359
  18 H :    0.307560
  19 H :    0.301314
Sum of atomic charges:   -0.0000000

LOEWDIN ATOMIC CHARGES
----------------------
   0 C :   -0.130504
   1 C :   -0.091950
   2 H :    0.099242
   3 C :   -0.056171
   4 H :    0.118515
   5 C :   -0.075670
   6 H :    0.115265
   7 C :   -0.003630
   8 H :    0.092165
   9 O :   -0.169301
  10 O :   -0.314053
  11 O :   -0.313370
  12 O :   -0.320114
  13 O :   -0.320708
  14 H :    0.107011
  15 H :    0.109880
  16 H :    0.290152
  17 H :    0.285294
  18 H :    0.291521
  19 H :    0.286425

  Mayer bond orders larger than 0.100000
B(  0-C ,  1-C ) :   1.1265 B(  0-C ,  9-O ) :   1.0008 B(  0-C , 14-H ) :   0.9199
B(  0-C , 15-H ) :   0.8716 B(  1-C ,  2-H ) :   0.8665 B(  1-C ,  3-C ) :   1.0228
B(  1-C , 13-O ) :   1.0692 B(  3-C ,  4-H ) :   0.8725 B(  3-C ,  5-C ) :   1.0115
B(  3-C , 12-O ) :   1.0909 B(  5-C ,  6-H ) :   0.8741 B(  5-C ,  7-C ) :   1.0151
B(  5-C , 11-O ) :   1.0243 B(  7-C ,  8-H ) :   0.9150 B(  7-C ,  9-O ) :   1.0417
B(  7-C , 10-O ) :   1.1491 B( 10-O , 16-H ) :   0.8401 B( 11-O , 17-H ) :   0.8249
B( 12-O , 18-H ) :   0.8478 B( 13-O , 19-H ) :   0.8479

Dispersion correction           -0.019143002
FINAL SINGLE POINT ENERGY      -571.408836806162

DIPOLE MOMENT
-------------

Method             : SCF
Type of density    : Electron Density
Multiplicity       :   1
Irrep              :   0
Energy             :  -571.5169570454895620 Eh
Relativity type    :
Basis              : AO
                                X                 Y                 Z
Electronic contribution:     -1.296802343      -0.180690092      -0.096634544
Nuclear contribution   :      1.638294799       0.871561672      -0.217895068
                        -----------------------------------------
Total Dipole Moment    :      0.341492456       0.690871580      -0.314529612
                        -----------------------------------------
Magnitude (a.u.)       :      0.832375825
Magnitude (Debye)      :      2.115731208

Rotational constants in cm-1:             0.065773             0.037109             0.031051
Rotational constants in MHz :          1971.829916          1112.491848           930.875739

                             ****ORCA TERMINATED NORMALLY****
TOTAL RUN TIME: 0 days 0 hours 0 minutes 11 seconds 302 msec
