                         Program Version 6.0.0  -   RELEASE  -
|  1> ! pbe def2-sv(p) def2/J RI DEFGRID1 loosescf d4 GCP(DFT/SV(P)) printgap
|  2> %output
|  3>     printlevel normal
|  4> end
|  5> * xyz 0 1
|  6> C 0.5877350779 1.4498045892 0.0595272397
|  7> C 1.5336263264 0.2297119072 0.0423999684
|  8> H 2.3429385035 0.3951727935 -0.6755382973
|  9> C 0.7528555723 -1.0419335924 -0.3737148232
| 10> H 1.2331852015 -1.9002449643 0.1196172875
| 11> C -0.6856881907 -0.9350306191 0.1427938294
| 12> H -1.239753533 -1.8431075626 -0.1345593215
| 13> C -1.3686552783 0.266311603 -0.5493856296
| 14> H -1.7760520327 -0.0598062211 -1.5167111897
| 15> O -0.4740757433 1.2990683733 -0.8682683173
| 16> O -2.3831837037 0.7088842832 0.3037475832
| 17> O -0.6405936878 -0.7963650984 1.5385802941
| 18> O 0.6842352614 -1.2344632724 -1.7623890693
| 19> O 2.162203056 0.0498090236 1.2852066239
| 20> H 1.1084454562 2.358400622 -0.2402274453
| 21> H 0.1900715401 1.5787392742 1.0733669869
| 22> H -2.8325056746 1.4719631734 -0.0880753522
| 23> H -1.5149261752 -0.49653907 1.8367782355
| 24> H 1.5750880336 -1.3725395055 -2.116227194
| 25> H 1.4837493101 -0.1885331793 1.9383016093
| 26> *
| 27>
| 28>                          ****END OF INPUT****

CARTESIAN COORDINATES (ANGSTROEM)
---------------------------------
  C      0.587735    1.449805    0.059527
  C      1.533626    0.229712    0.042400
  H      2.342939    0.395173   -0.675538
  C      0.752856   -1.041934   -0.373715
  H      1.233185   -1.900245    0.119617
  C     -0.685688   -0.935031    0.142794
  H     -1.239754   -1.843108   -0.134559
  C     -1.368655    0.266312   -0.549386
  H     -1.776052   -0.059806   -1.516711
  O     -0.474076    1.299068   -0.868268
  O     -2.383184    0.708884    0.303748
  O     -0.640594   -0.796365    1.538580
  O      0.684235   -1.234463   -1.762389
  O      2.162203    0.049809    1.285207
  H      1.108445    2.358401   -0.240227
  H      0.190072    1.578739    1.073367
  H     -2.832506    1.471963   -0.088075
  H     -1.514926   -0.496539    1.836778
  H      1.575088   -1.372540   -2.116227
  H      1.483749   -0.188533    1.938302

 Total Charge           Charge          ....    0
 Multiplicity           Mult            ....    1
 Number of Electrons    NEL             ....   80
 Basis Dimension        Dim             ....  160

ORBITAL ENERGIES
----------------

  NO   OCC          E(Eh)            E(eV)
   0   2.0000     -18.770240      -510.7642
   1   2.0000     -18.764102      -510.5972
   2   2.0000     -18.761014      -510.5132
   3   2.0000     -18.755710      -510.3688
   4   2.0000     -18.737892      -509.8840
   5   2.0000      -9.983929      -271.6765
   6   2.0000      -9.946094      -270.6470
   7   2.0000      -9.941156      -270.5126
   8   2.0000      -9.934627      -270.3349
   9   2.0000      -9.926312      -270.1087
  10   2.0000      -0.983171       -26.7534
  11   2.0000      -0.939892       -25.5758
  12   2.0000      -0.932450       -25.3732
  13   2.0000      -0.917683       -24.9714
  14   2.0000      -0.909119       -24.7384
  15   2.0000      -0.692887       -18.8544
  16   2.0000      -0.673292       -18.3212
  17   2.0000      -0.589923       -16.0526
  18   2.0000      -0.579288       -15.7632
  19   2.0000      -0.520005       -14.1501
  20   2.0000      -0.499809       -13.6005
  21   2.0000      -0.489810       -13.3284
  22   2.0000      -0.468890       -12.7591
  23   2.0000      -0.451623       -12.2893
  24   2.0000      -0.437605       -11.9078
  25   2.0000      -0.400914       -10.9094
  26   2.0000      -0.388197       -10.5634
  27   2.0000      -0.374934       -10.2025
  28   2.0000      -0.360177        -9.8009
  29   2.0000      -0.351975        -9.5777
  30   2.0000      -0.333087        -9.0638
  31   2.0000      -0.311202        -8.4682
  32   2.0000      -0.308118        -8.3843
  33   2.0000      -0.301018        -8.1911
  34   2.0000      -0.256245        -6.9728
  35   2.0000      -0.251167        -6.8346
  36   2.0000      -0.237814        -6.4713
  37   2.0000      -0.229863        -6.2549
  38   2.0000      -0.223596        -6.0844
  39   2.0000      -0.194986        -5.3058
  40   0.0000       0.011819         0.3216
  41   0.0000       0.024618         0.6699
  42   0.0000       0.051054         1.3893
  43   0.0000       0.069218         1.8835
  44   0.0000       0.070218         1.9107

MULLIKEN ATOMIC CHARGES
-----------------------
   0 C :    0.084177
   1 C :    0.032301
   2 H :    0.051547
   3 C :    0.044362
   4 H :    0.075237
   5 C :   -0.016398
   6 H :    0.076276
   7 C :    0.201144
   8 H :    0.072217
   9 O :   -0.315808
  10 O :   -0.412143
  11 O :   -0.433004
  12 O :   -0.412771
  13 O :   -0.432878
  14 H :    0.092273
  15 H :    0.054664
  16 H :    0.309725
  17 H :    0.318380
  18 H :    0.305972
  19 H :    0.304727
Sum of atomic charges:   -0.0000000

LOEWDIN ATOMIC CHARGES
----------------------
   0 C :   -0.126653
   1 C :   -0.080195
   2 H :    0.109075
   3 C :   -0.074931
   4 H :    0.105761
   5 C :   -0.074766
   6 H :    0.110090
   7 C :   -0.008278
   8 H :    0.102939
   9 O :   -0.154284
  10 O :   -0.320365
  11 O :   -0.314092
  12 O :   -0.316404
  13 O :   -0.319579
  14 H :    0.116440
  15 H :    0.098903
  16 H :    0.291577
  17 H :    0.288913
  18 H :    0.289345
  19 H :    0.276504

  Mayer bond orders larger than 0.100000
B(  0-C ,  1-C ) :   1.0508 B(  0-C ,  9-O ) :   1.0194 B(  0-C , 14-H ) :   0.9262
B(  0-C , 15-H ) :   0.8875 B(  1-C ,  2-H ) :   0.8909 B(  1-C ,  3-C ) :   0.9704
B(  1-C , 13-O ) :   1.0475 B(  3-C ,  4-H ) :   0.8999 B(  3-C ,  5-C ) :   1.0394
B(  3-C , 12-O ) :   1.0655 B(  5-C ,  6-H ) :   0.8849 B(  5-C ,  7-C ) :   0.9834
B(  5-C , 11-O ) :   1.0623 B(  7-C ,  8-H ) :   0.9062 B(  7-C ,  9-O ) :   1.0706
B(  7-C , 10-O ) :   1.1364 B( 10-O , 16-H ) :   0.8382 B( 11-O , 17-H ) :   0.8162
B( 12-O , 18-H ) :   0.8463 B( 13-O , 19-H ) :   0.8280

Dispersion correction           -0.019936561
FINAL SINGLE POINT ENERGY      -571.414617384823

DIPOLE MOMENT
-------------

Method             : SCF
Type of density    : Electron Density
Multiplicity       :   1
Irrep              :   0
Energy             :  -571.5240383697457673 Eh
Relativity type    :
Basis              : AO
                                X                 Y                 Z
Electronic contribution:     -1.073719567       0.114228777      -0.381723839
Nuclear contribution   :      0.525332339      -0.052602579       0.191922798
                        -----------------------------------------
Total Dipole Moment    :     -0.548387227       0.061626197      -0.189801042
                        -----------------------------------------
Magnitude (a.u.)       :      0.583567284
Magnitude (Debye)      :      1.483310155

Rotational constants in cm-1:             0.060156             0.040585             0.038394
Rotational constants in MHz :          1803.446280          1216.693098          1151.036768

                             ****ORCA TERMINATED NORMALLY****
TOTAL RUN TIME: 0 days 0 hours 0 minutes 11 seconds 936 msec
