                         Program Version 6.0.0  -   RELEASE  -
|  1> ! wb97x-v def2-tzvp def2/J RIJCOSX DEFGRID2 scfconv7 GCP(DFT/TZ) printgap
|  2> %output
|  3>     printlevel normal
|  4> end
|  5> * xyz 0 1
|  6> C 1.4804063165121921 0.5794815664779133 2.3234294175492063e-05
|  7> C 0.6695718302041737 -0.7040774422373155 -0.00010284844865173946
|  8> C -0.8072590399499578 -0.5151118763794871 0.00019262209141116264
|  9> O -1.3696379009322852 0.5695117606346219 0.00024008386387211684
| 10> H 2.5500014585073365 0.35415438878805156 -0.0008496662415782599
| 11> H 1.2599189798268697 1.1832442258635585 0.8852292415289422
| 12> H 1.2586716959629718 1.184201634085124 -0.8842184872766523
| 13> H 0.8970880984867676 -1.3409902912315543 -0.8685337945148431
| 14> H 0.8974175446174334 -1.3413905109972926 0.8679391682628683
| 15> H -1.4065911127419126 -1.448215669229559 0.00012198634420326449
| 16> *
| 17>
| 18>                          ****END OF INPUT****

CARTESIAN COORDINATES (ANGSTROEM)
---------------------------------
  C      1.480406    0.579482    0.000023
  C      0.669572   -0.704077   -0.000103
  C     -0.807259   -0.515112    0.000193
  O     -1.369638    0.569512    0.000240
  H      2.550001    0.354154   -0.000850
  H      1.259919    1.183244    0.885229
  H      1.258672    1.184202   -0.884218
  H      0.897088   -1.340990   -0.868534
  H      0.897418   -1.341391    0.867939
  H     -1.406591   -1.448216    0.000122

 Total Charge           Charge          ....    0
 Multiplicity           Mult            ....    1
 Number of Electrons    NEL             ....   32
 Basis Dimension        Dim             ....  160

ORBITAL ENERGIES
----------------

  NO   OCC          E(Eh)            E(eV)
   0   2.0000     -21.672242      -589.7317
   1   2.0000     -12.140121      -330.3495
   2   2.0000     -12.065701      -328.3244
   3   2.0000     -12.044585      -327.7498
   4   2.0000      -1.713717       -46.6326
   5   2.0000      -1.305914       -35.5357
   6   2.0000      -1.176346       -32.0100
   7   2.0000      -1.090120       -29.6637
   8   2.0000      -0.997695       -27.1487
   9   2.0000      -0.963878       -26.2285
  10   2.0000      -0.915758       -24.9190
  11   2.0000      -0.866955       -23.5911
  12   2.0000      -0.852622       -23.2010
  13   2.0000      -0.818338       -22.2681
  14   2.0000      -0.784689       -21.3525
  15   2.0000      -0.778941       -21.1961
  16   0.0000      -0.312115        -8.4931
  17   0.0000      -0.040974        -1.1150
  18   0.0000      -0.028911        -0.7867
  19   0.0000      -0.013843        -0.3767
  20   0.0000       0.014240         0.3875

MULLIKEN ATOMIC CHARGES
-----------------------
   0 C :   -0.334171
   1 C :   -0.124137
   2 C :    0.098049
   3 O :   -0.298423
   4 H :    0.114598
   5 H :    0.120101
   6 H :    0.120141
   7 H :    0.112373
   8 H :    0.112370
   9 H :    0.079098
Sum of atomic charges:   -0.0000000

LOEWDIN ATOMIC CHARGES
----------------------
   0 C :   -0.296478
   1 C :   -0.293111
   2 C :   -0.282058
   3 O :    0.093211
   4 H :    0.118137
   5 H :    0.124447
   6 H :    0.124457
   7 H :    0.150446
   8 H :    0.150436
   9 H :    0.110512

  Mayer bond orders larger than 0.100000
B(  0-C ,  1-C ) :   0.9885 B(  0-C ,  4-H ) :   0.9768 B(  0-C ,  5-H ) :   0.9743
B(  0-C ,  6-H ) :   0.9743 B(  1-C ,  2-C ) :   0.9498 B(  1-C ,  7-H ) :   0.9455
B(  1-C ,  8-H ) :   0.9456 B(  2-C ,  3-O ) :   2.1324 B(  2-C ,  9-H ) :   0.9839

FINAL SINGLE POINT ENERGY      -193.152909095738

DIPOLE MOMENT
-------------

Method             : SCF
Type of density    : Electron Density
Multiplicity       :   1
Irrep              :   0
Energy             :  -193.1590622783380695 Eh
Relativity type    :
Basis              : AO
                                X                 Y                 Z
Electronic contribution:     -4.403627622       0.442678385       0.000618722
Nuclear contribution   :      5.126631485      -1.314224310      -0.000763375
                        -----------------------------------------
Total Dipole Moment    :      0.723003863      -0.871545925      -0.000144653
                        -----------------------------------------
Magnitude (a.u.)       :      1.132398739
Magnitude (Debye)      :      2.878328851

Rotational constants in cm-1:             0.559231             0.195969             0.153292
Rotational constants in MHz :         16765.338312          5875.004028          4595.577626

                             ****ORCA TERMINATED NORMALLY****
TOTAL RUN TIME: 0 days 0 hours 0 minutes 35 seconds 424 msec
