                         Program Version 6.0.0  -   RELEASE  -
|  1> ! pbe def2-sv(p) def2/J RI DEFGRID1 loosescf d4 GCP(DFT/SV(P)) printgap
|  2> %output
|  3>     printlevel normal
|  4> end
|  5> * xyz 0 1
|  6> C 5.7357599043 0.4324149637 0.1241598891
|  7> C 4.8359165254 0.1234707124 -1.0541270356
|  8> O 3.6201068311 0.9159477393 -1.0077082263
|  9> P 2.286354104 0.444835141 -0.3276828666
| 10> S 0.8394265869 1.730619741 -0.6111384477
| 11> O 2.7311342348 0.2566112674 1.190877942
| 12> C 1.8243890607 -0.0592594465 2.2625798174
| 13> C 1.9080602065 -1.5308900879 2.6202169658
| 14> S 1.9754316593 -1.5197026584 -1.1161404521
| 15> C 0.1939066265 -1.4838655505 -1.378780857
| 16> S -0.7542781934 -1.6864923286 0.1729034003
| 17> P -2.1286000664 -0.0995402629 0.0243273347
| 18> S -2.3886307215 0.6174231997 -1.7893583482
| 19> O -1.6257645059 0.8148969162 1.2132586455
| 20> C -2.4201044935 1.8409204446 1.8470257939
| 21> C -2.720259155 2.9903953803 0.9078264828
| 22> O -3.4636120691 -0.6869763449 0.6623311003
| 23> C -4.4232720568 -1.4466273547 -0.0964364291
| 24> C -5.8026856052 -1.1699297921 0.4682671018
| 25> H 6.6623922416 -0.1224369604 0.015247197
| 26> H 5.9557492651 1.4960978394 0.1553585692
| 27> H 5.2533990731 0.1478720731 1.0548107378
| 28> H 4.5649262907 -0.9352057727 -1.083818407
| 29> H 5.3023349782 0.4113994791 -1.9978556912
| 30> H 2.1484444547 0.5684853798 3.09521488
| 31> H 0.8077011584 0.2286922567 1.9745545214
| 32> H 2.9331677764 -1.795773431 2.862413798
| 33> H 1.2743293766 -1.7212433808 3.4801927841
| 34> H 1.5678817569 -2.1500692506 1.7933611329
| 35> H -0.0264921578 -2.3285117432 -2.0263208173
| 36> H -0.1043324198 -0.5399555203 -1.842655491
| 37> H -3.3385664213 1.3837653801 2.2219048317
| 38> H -1.7946288939 2.1639270749 2.681028813
| 39> H -3.3746372552 2.6617646056 0.1018999245
| 40> H -3.2047867891 3.7918500081 1.4561550836
| 41> H -1.7961105709 3.3596003894 0.4663006649
| 42> H -4.3550906817 -1.1468945212 -1.147924808
| 43> H -4.158113231 -2.502260474 -0.0021503145
| 44> H -6.0526547132 -0.1188119178 0.3513132227
| 45> H -6.5314711996 -1.7703735243 -0.0660362563
| 46> H -5.8300656885 -1.425040515 1.5237420775
| 47> *
| 48>
| 49>                          ****END OF INPUT****

CARTESIAN COORDINATES (ANGSTROEM)
---------------------------------
  C      5.735760    0.432415    0.124160
  C      4.835917    0.123471   -1.054127
  O      3.620107    0.915948   -1.007708
  P      2.286354    0.444835   -0.327683
  S      0.839427    1.730620   -0.611138
  O      2.731134    0.256611    1.190878
  C      1.824389   -0.059259    2.262580
  C      1.908060   -1.530890    2.620217
  S      1.975432   -1.519703   -1.116140
  C      0.193907   -1.483866   -1.378781
  S     -0.754278   -1.686492    0.172903
  P     -2.128600   -0.099540    0.024327
  S     -2.388631    0.617423   -1.789358
  O     -1.625765    0.814897    1.213259
  C     -2.420104    1.840920    1.847026
  C     -2.720259    2.990395    0.907826
  O     -3.463612   -0.686976    0.662331
  C     -4.423272   -1.446627   -0.096436
  C     -5.802686   -1.169930    0.468267
  H      6.662392   -0.122437    0.015247
  H      5.955749    1.496098    0.155359
  H      5.253399    0.147872    1.054811
  H      4.564926   -0.935206   -1.083818
  H      5.302335    0.411399   -1.997856
  H      2.148444    0.568485    3.095215
  H      0.807701    0.228692    1.974555
  H      2.933168   -1.795773    2.862414
  H      1.274329   -1.721243    3.480193
  H      1.567882   -2.150069    1.793361
  H     -0.026492   -2.328512   -2.026321
  H     -0.104332   -0.539956   -1.842655
  H     -3.338566    1.383765    2.221905
  H     -1.794629    2.163927    2.681029
  H     -3.374637    2.661765    0.101900
  H     -3.204787    3.791850    1.456155
  H     -1.796111    3.359600    0.466301
  H     -4.355091   -1.146895   -1.147925
  H     -4.158113   -2.502260   -0.002150
  H     -6.052655   -0.118812    0.351313
  H     -6.531471   -1.770374   -0.066036
  H     -5.830066   -1.425041    1.523742

 Total Charge           Charge          ....    0
 Multiplicity           Mult            ....    1
 Number of Electrons    NEL             ....  202
 Basis Dimension        Dim             ....  334

ORBITAL ENERGIES
----------------

  NO   OCC          E(Eh)            E(eV)
   0   2.0000     -88.042078     -2395.7467
   1   2.0000     -88.040597     -2395.7064
   2   2.0000     -87.983443     -2394.1512
   3   2.0000     -87.976947     -2393.9744
   4   2.0000     -76.425349     -2079.6395
   5   2.0000     -76.421063     -2079.5228
   6   2.0000     -18.791329      -511.3381
   7   2.0000     -18.790310      -511.3103
   8   2.0000     -18.788678      -511.2659
   9   2.0000     -18.785090      -511.1683
  10   2.0000      -9.958929      -270.9962
  11   2.0000      -9.952660      -270.8256
  12   2.0000      -9.952530      -270.8221
  13   2.0000      -9.950610      -270.7699
  14   2.0000      -9.945053      -270.6186
  15   2.0000      -9.888534      -269.0807
  16   2.0000      -9.886381      -269.0221
  17   2.0000      -9.878110      -268.7970
  18   2.0000      -9.877475      -268.7797
  19   2.0000      -7.687026      -209.1746
  20   2.0000      -7.685664      -209.1375
  21   2.0000      -7.628319      -207.5771
  22   2.0000      -7.621956      -207.4040
  23   2.0000      -6.422520      -174.7656
  24   2.0000      -6.418654      -174.6605
  25   2.0000      -5.714969      -155.5122
  26   2.0000      -5.713492      -155.4720
  27   2.0000      -5.711342      -155.4135
  28   2.0000      -5.710154      -155.3812
  29   2.0000      -5.704156      -155.2180
  30   2.0000      -5.702669      -155.1775
  31   2.0000      -5.657241      -153.9414
  32   2.0000      -5.651009      -153.7718
  33   2.0000      -5.649038      -153.7182
  34   2.0000      -5.648380      -153.7002
  35   2.0000      -5.642505      -153.5404
  36   2.0000      -5.642012      -153.5269
  37   2.0000      -4.645233      -126.4032
  38   2.0000      -4.644113      -126.3727
  39   2.0000      -4.643045      -126.3437
  40   2.0000      -4.641371      -126.2981
  41   2.0000      -4.640456      -126.2732
  42   2.0000      -4.638921      -126.2315
  43   2.0000      -0.986456       -26.8428
  44   2.0000      -0.984257       -26.7830
  45   2.0000      -0.941921       -25.6310
  46   2.0000      -0.940612       -25.5954
  47   2.0000      -0.759666       -20.6716
  48   2.0000      -0.721106       -19.6223
  49   2.0000      -0.710343       -19.3294
  50   2.0000      -0.688155       -18.7257
  51   2.0000      -0.686397       -18.6778
  52   2.0000      -0.672290       -18.2939
  53   2.0000      -0.646415       -17.5898
  54   2.0000      -0.631703       -17.1895
  55   2.0000      -0.594105       -16.1664
  56   2.0000      -0.587281       -15.9807
  57   2.0000      -0.573410       -15.6033
  58   2.0000      -0.570779       -15.5317
  59   2.0000      -0.559318       -15.2198
  60   2.0000      -0.504954       -13.7405
  61   2.0000      -0.497480       -13.5371
  62   2.0000      -0.476762       -12.9734
  63   2.0000      -0.471648       -12.8342
  64   2.0000      -0.451113       -12.2754
  65   2.0000      -0.444150       -12.0859
  66   2.0000      -0.443017       -12.0551
  67   2.0000      -0.436941       -11.8898
  68   2.0000      -0.427201       -11.6247
  69   2.0000      -0.411187       -11.1890
  70   2.0000      -0.404223       -10.9995
  71   2.0000      -0.402683       -10.9576
  72   2.0000      -0.391448       -10.6519
  73   2.0000      -0.383888       -10.4461
  74   2.0000      -0.379804       -10.3350
  75   2.0000      -0.369957       -10.0670
  76   2.0000      -0.363131        -9.8813
  77   2.0000      -0.355626        -9.6771
  78   2.0000      -0.352059        -9.5800
  79   2.0000      -0.348658        -9.4875
  80   2.0000      -0.343169        -9.3381
  81   2.0000      -0.341598        -9.2954
  82   2.0000      -0.339568        -9.2401
  83   2.0000      -0.335889        -9.1400
  84   2.0000      -0.333249        -9.0682
  85   2.0000      -0.316156        -8.6030
  86   2.0000      -0.312329        -8.4989
  87   2.0000      -0.298453        -8.1213
  88   2.0000      -0.292331        -7.9547
  89   2.0000      -0.289707        -7.8833
  90   2.0000      -0.284067        -7.7298
  91   2.0000      -0.274806        -7.4778
  92   2.0000      -0.272424        -7.4130
  93   2.0000      -0.260760        -7.0956
  94   2.0000      -0.255778        -6.9601
  95   2.0000      -0.235041        -6.3958
  96   2.0000      -0.216886        -5.9018
  97   2.0000      -0.212025        -5.7695
  98   2.0000      -0.196747        -5.3538
  99   2.0000      -0.192922        -5.2497
 100   2.0000      -0.184521        -5.0211
 101   0.0000      -0.040921        -1.1135
 102   0.0000      -0.033486        -0.9112
 103   0.0000      -0.010600        -0.2884
 104   0.0000       0.009388         0.2555
 105   0.0000       0.016865         0.4589

MULLIKEN ATOMIC CHARGES
-----------------------
   0 C :   -0.291329
   1 C :   -0.023475
   2 O :   -0.352932
   3 P :    0.599884
   4 S :   -0.292222
   5 O :   -0.380916
   6 C :   -0.026999
   7 C :   -0.294234
   8 S :   -0.141745
   9 C :   -0.331073
  10 S :   -0.119496
  11 P :    0.642091
  12 S :   -0.312651
  13 O :   -0.356888
  14 C :    0.001012
  15 C :   -0.319479
  16 O :   -0.386585
  17 C :   -0.005720
  18 C :   -0.285713
  19 H :    0.109275
  20 H :    0.121628
  21 H :    0.125492
  22 H :    0.113251
  23 H :    0.114996
  24 H :    0.101230
  25 H :    0.130487
  26 H :    0.105593
  27 H :    0.105064
  28 H :    0.126877
  29 H :    0.180081
  30 H :    0.214997
  31 H :    0.105696
  32 H :    0.105337
  33 H :    0.126075
  34 H :    0.107527
  35 H :    0.135992
  36 H :    0.105005
  37 H :    0.099598
  38 H :    0.116788
  39 H :    0.112415
  40 H :    0.115068
Sum of atomic charges:   -0.0000000

LOEWDIN ATOMIC CHARGES
----------------------
   0 C :   -0.360719
   1 C :   -0.111491
   2 O :   -0.233740
   3 P :    0.560432
   4 S :   -0.289673
   5 O :   -0.249317
   6 C :   -0.122362
   7 C :   -0.363457
   8 S :    0.059255
   9 C :   -0.476267
  10 S :    0.077007
  11 P :    0.569942
  12 S :   -0.298553
  13 O :   -0.233377
  14 C :   -0.109321
  15 C :   -0.368217
  16 O :   -0.251942
  17 C :   -0.122383
  18 C :   -0.351772
  19 H :    0.129219
  20 H :    0.130234
  21 H :    0.126475
  22 H :    0.104949
  23 H :    0.123806
  24 H :    0.116609
  25 H :    0.109170
  26 H :    0.120864
  27 H :    0.128394
  28 H :    0.112417
  29 H :    0.135770
  30 H :    0.126781
  31 H :    0.110335
  32 H :    0.119331
  33 H :    0.120837
  34 H :    0.127956
  35 H :    0.133059
  36 H :    0.105285
  37 H :    0.111481
  38 H :    0.126570
  39 H :    0.130999
  40 H :    0.125413

  Mayer bond orders larger than 0.100000
B(  0-C ,  1-C ) :   1.1638 B(  0-C , 19-H ) :   0.9387 B(  0-C , 20-H ) :   0.9465
B(  0-C , 21-H ) :   0.9388 B(  1-C ,  2-O ) :   0.8957 B(  1-C , 22-H ) :   0.9151
B(  1-C , 23-H ) :   0.9360 B(  2-O ,  3-P ) :   1.1476 B(  3-P ,  4-S ) :   1.6815
B(  3-P ,  5-O ) :   1.0786 B(  3-P ,  8-S ) :   0.9194 B(  4-S ,  8-S ) :   0.1097
B(  5-O ,  6-C ) :   0.8976 B(  6-C ,  7-C ) :   1.1683 B(  6-C , 24-H ) :   0.9356
B(  6-C , 25-H ) :   0.8951 B(  7-C , 26-H ) :   0.9473 B(  7-C , 27-H ) :   0.9411
B(  7-C , 28-H ) :   0.9300 B(  8-S ,  9-C ) :   1.0209 B(  9-C , 10-S ) :   0.9844
B(  9-C , 29-H ) :   0.9095 B(  9-C , 30-H ) :   0.8454 B( 10-S , 11-P ) :   0.9667
B( 10-S , 12-S ) :   0.1203 B( 11-P , 12-S ) :   1.6146 B( 11-P , 13-O ) :   1.1246
B( 11-P , 16-O ) :   1.0818 B( 13-O , 14-C ) :   0.9044 B( 14-C , 15-C ) :   1.1652
B( 14-C , 31-H ) :   0.9282 B( 14-C , 32-H ) :   0.9342 B( 15-C , 33-H ) :   0.9349
B( 15-C , 34-H ) :   0.9366 B( 15-C , 35-H ) :   0.9427 B( 16-O , 17-C ) :   0.9076
B( 17-C , 18-C ) :   1.1600 B( 17-C , 36-H ) :   0.9003 B( 17-C , 37-H ) :   0.9313
B( 18-C , 38-H ) :   0.9509 B( 18-C , 39-H ) :   0.9421 B( 18-C , 40-H ) :   0.9511

Dispersion correction           -0.065344548
FINAL SINGLE POINT ENERGY     -2929.516023145179

DIPOLE MOMENT
-------------

Method             : SCF
Type of density    : Electron Density
Multiplicity       :   1
Irrep              :   0
Energy             : -2929.6355373873125245 Eh
Relativity type    :
Basis              : AO
                                X                 Y                 Z
Electronic contribution:      3.963609100      -0.315445200     -13.405987298
Nuclear contribution   :     -3.956106189      -0.586329205      14.533519515
                        -----------------------------------------
Total Dipole Moment    :      0.007502911      -0.901774405       1.127532217
                        -----------------------------------------
Magnitude (a.u.)       :      1.443808253
Magnitude (Debye)      :      3.669868930

Rotational constants in cm-1:             0.014570             0.004597             0.004457
Rotational constants in MHz :           436.789617           137.800890           133.618074

                             ****ORCA TERMINATED NORMALLY****
TOTAL RUN TIME: 0 days 0 hours 0 minutes 21 seconds 79 msec
