                         Program Version 6.0.0  -   RELEASE  -
|  1> ! pbe def2-sv(p) def2/J RI DEFGRID1 loosescf d4 GCP(DFT/SV(P)) printgap
|  2> %output
|  3>     printlevel normal
|  4> end
|  5> * xyz 0 1
|  6> C 4.9707252801 1.1342146133 0.132612184
|  7> C 3.7052795324 1.4330017178 -0.6426007758
|  8> O 2.911878671 0.2436759741 -0.8418088198
|  9> P 2.1401179684 -0.4512222021 0.3515316044
| 10> S 1.561687578 0.7173007164 1.8209588554
| 11> O 3.1699209867 -1.5715726414 0.8191552734
| 12> C 3.0102984338 -2.2821636899 2.0562079063
| 13> C 1.818660725 -3.2171882605 2.0113632842
| 14> S 0.7272624458 -1.5637669098 -0.7826190633
| 15> C 0.298546884 -0.3390975408 -2.0524070363
| 16> S -0.2515191872 1.2465992881 -1.3679830762
| 17> P -2.0069426218 0.5122198152 -0.4460578839
| 18> S -2.9540996131 -0.8931239405 -1.4372469081
| 19> O -2.808720066 1.8420445156 -0.1180070545
| 20> C -3.4365447468 2.6462584028 -1.1379438603
| 21> C -4.8769839595 2.2250826303 -1.3561789412
| 22> O -1.4780564818 0.1113889574 0.9858727636
| 23> C -2.1220707969 -0.8865775553 1.8016960735
| 24> C -3.4811722066 -0.419377509 2.2754398492
| 25> H 5.586109854 2.0273157228 0.1753957513
| 26> H 4.7179859106 0.8286324135 1.1470817963
| 27> H 5.5250146817 0.3326092346 -0.348171336
| 28> H 3.9189589428 1.7780445181 -1.6549916817
| 29> H 3.0935440882 2.1747075246 -0.1187849099
| 30> H 3.9482754806 -2.825713963 2.1750406962
| 31> H 2.8961001379 -1.5506224104 2.8636024725
| 32> H 0.9027445269 -2.6377167386 1.8875028388
| 33> H 1.9069152985 -3.9042129862 1.1737048752
| 34> H 1.7596343902 -3.7788886861 2.9379452477
| 35> H -0.5125999198 -0.7863947847 -2.6288891867
| 36> H 1.1648098195 -0.1342640996 -2.6753290096
| 37> H -3.373838135 3.6664656818 -0.7545664758
| 38> H -2.8589214639 2.56963498 -2.0638928406
| 39> H -4.9203715426 1.2035877918 -1.7275122192
| 40> H -5.4286287537 2.283004388 -0.4219932045
| 41> H -5.3348250081 2.8859940278 -2.0850095457
| 42> H -2.2054812787 -1.8102254537 1.2188576876
| 43> H -1.4274884345 -1.0292866228 2.6315375866
| 44> H -4.142755247 -0.2930112495 1.4187642145
| 45> H -3.9050688373 -1.1600796595 2.9460498733
| 46> H -3.3891470198 0.5321617463 2.7926464576
| 47> *
| 48>
| 49>                          ****END OF INPUT****

CARTESIAN COORDINATES (ANGSTROEM)
---------------------------------
  C      4.970725    1.134215    0.132612
  C      3.705280    1.433002   -0.642601
  O      2.911879    0.243676   -0.841809
  P      2.140118   -0.451222    0.351532
  S      1.561688    0.717301    1.820959
  O      3.169921   -1.571573    0.819155
  C      3.010298   -2.282164    2.056208
  C      1.818661   -3.217188    2.011363
  S      0.727262   -1.563767   -0.782619
  C      0.298547   -0.339098   -2.052407
  S     -0.251519    1.246599   -1.367983
  P     -2.006943    0.512220   -0.446058
  S     -2.954100   -0.893124   -1.437247
  O     -2.808720    1.842045   -0.118007
  C     -3.436545    2.646258   -1.137944
  C     -4.876984    2.225083   -1.356179
  O     -1.478056    0.111389    0.985873
  C     -2.122071   -0.886578    1.801696
  C     -3.481172   -0.419378    2.275440
  H      5.586110    2.027316    0.175396
  H      4.717986    0.828632    1.147082
  H      5.525015    0.332609   -0.348171
  H      3.918959    1.778045   -1.654992
  H      3.093544    2.174708   -0.118785
  H      3.948275   -2.825714    2.175041
  H      2.896100   -1.550622    2.863602
  H      0.902745   -2.637717    1.887503
  H      1.906915   -3.904213    1.173705
  H      1.759634   -3.778889    2.937945
  H     -0.512600   -0.786395   -2.628889
  H      1.164810   -0.134264   -2.675329
  H     -3.373838    3.666466   -0.754566
  H     -2.858921    2.569635   -2.063893
  H     -4.920372    1.203588   -1.727512
  H     -5.428629    2.283004   -0.421993
  H     -5.334825    2.885994   -2.085010
  H     -2.205481   -1.810225    1.218858
  H     -1.427488   -1.029287    2.631538
  H     -4.142755   -0.293011    1.418764
  H     -3.905069   -1.160080    2.946050
  H     -3.389147    0.532162    2.792646

 Total Charge           Charge          ....    0
 Multiplicity           Mult            ....    1
 Number of Electrons    NEL             ....  202
 Basis Dimension        Dim             ....  334

ORBITAL ENERGIES
----------------

  NO   OCC          E(Eh)            E(eV)
   0   2.0000     -88.040986     -2395.7170
   1   2.0000     -88.037724     -2395.6283
   2   2.0000     -87.986648     -2394.2384
   3   2.0000     -87.981566     -2394.1001
   4   2.0000     -76.424698     -2079.6218
   5   2.0000     -76.423605     -2079.5920
   6   2.0000     -18.793680      -511.4020
   7   2.0000     -18.792375      -511.3665
   8   2.0000     -18.789235      -511.2811
   9   2.0000     -18.783308      -511.1198
  10   2.0000      -9.954733      -270.8821
  11   2.0000      -9.954212      -270.8679
  12   2.0000      -9.952253      -270.8146
  13   2.0000      -9.951170      -270.7851
  14   2.0000      -9.944500      -270.6036
  15   2.0000      -9.886881      -269.0357
  16   2.0000      -9.883479      -268.9431
  17   2.0000      -9.880783      -268.8698
  18   2.0000      -9.878279      -268.8016
  19   2.0000      -7.686136      -209.1504
  20   2.0000      -7.682684      -209.0564
  21   2.0000      -7.631599      -207.6664
  22   2.0000      -7.626526      -207.5283
  23   2.0000      -6.422172      -174.7562
  24   2.0000      -6.421126      -174.7277
  25   2.0000      -5.713964      -155.4849
  26   2.0000      -5.710838      -155.3998
  27   2.0000      -5.710673      -155.3953
  28   2.0000      -5.707206      -155.3010
  29   2.0000      -5.703079      -155.1887
  30   2.0000      -5.699382      -155.0881
  31   2.0000      -5.660326      -154.0253
  32   2.0000      -5.655350      -153.8899
  33   2.0000      -5.652282      -153.8064
  34   2.0000      -5.651890      -153.7958
  35   2.0000      -5.647327      -153.6716
  36   2.0000      -5.646630      -153.6526
  37   2.0000      -4.644558      -126.3849
  38   2.0000      -4.643960      -126.3686
  39   2.0000      -4.643795      -126.3641
  40   2.0000      -4.642927      -126.3405
  41   2.0000      -4.642807      -126.3372
  42   2.0000      -4.641445      -126.3001
  43   2.0000      -0.986735       -26.8504
  44   2.0000      -0.984306       -26.7843
  45   2.0000      -0.946990       -25.7689
  46   2.0000      -0.942526       -25.6474
  47   2.0000      -0.762351       -20.7446
  48   2.0000      -0.718573       -19.5534
  49   2.0000      -0.705791       -19.2055
  50   2.0000      -0.687575       -18.7099
  51   2.0000      -0.683167       -18.5899
  52   2.0000      -0.670460       -18.2441
  53   2.0000      -0.650519       -17.7015
  54   2.0000      -0.637656       -17.3515
  55   2.0000      -0.598908       -16.2971
  56   2.0000      -0.592679       -16.1276
  57   2.0000      -0.573056       -15.5936
  58   2.0000      -0.568244       -15.4627
  59   2.0000      -0.559653       -15.2289
  60   2.0000      -0.499645       -13.5960
  61   2.0000      -0.491568       -13.3763
  62   2.0000      -0.473988       -12.8979
  63   2.0000      -0.470826       -12.8118
  64   2.0000      -0.456545       -12.4232
  65   2.0000      -0.439625       -11.9628
  66   2.0000      -0.438013       -11.9190
  67   2.0000      -0.436559       -11.8794
  68   2.0000      -0.423398       -11.5212
  69   2.0000      -0.414526       -11.2798
  70   2.0000      -0.402809       -10.9610
  71   2.0000      -0.395503       -10.7622
  72   2.0000      -0.391958       -10.6657
  73   2.0000      -0.388210       -10.5637
  74   2.0000      -0.384989       -10.4761
  75   2.0000      -0.374997       -10.2042
  76   2.0000      -0.368599       -10.0301
  77   2.0000      -0.357292        -9.7224
  78   2.0000      -0.351538        -9.5658
  79   2.0000      -0.349252        -9.5036
  80   2.0000      -0.347942        -9.4680
  81   2.0000      -0.345441        -9.3999
  82   2.0000      -0.341228        -9.2853
  83   2.0000      -0.333075        -9.0634
  84   2.0000      -0.330345        -8.9891
  85   2.0000      -0.321116        -8.7380
  86   2.0000      -0.306507        -8.3405
  87   2.0000      -0.296381        -8.0649
  88   2.0000      -0.294911        -8.0249
  89   2.0000      -0.284771        -7.7490
  90   2.0000      -0.281741        -7.6666
  91   2.0000      -0.273645        -7.4463
  92   2.0000      -0.270287        -7.3549
  93   2.0000      -0.262510        -7.1433
  94   2.0000      -0.260176        -7.0798
  95   2.0000      -0.234730        -6.3873
  96   2.0000      -0.217068        -5.9067
  97   2.0000      -0.207508        -5.6466
  98   2.0000      -0.202582        -5.5125
  99   2.0000      -0.195886        -5.3303
 100   2.0000      -0.190527        -5.1845
 101   0.0000      -0.046057        -1.2533
 102   0.0000      -0.020884        -0.5683
 103   0.0000      -0.015843        -0.4311
 104   0.0000       0.003649         0.0993
 105   0.0000       0.023299         0.6340

MULLIKEN ATOMIC CHARGES
-----------------------
   0 C :   -0.303805
   1 C :   -0.005641
   2 O :   -0.376947
   3 P :    0.615334
   4 S :   -0.313147
   5 O :   -0.368739
   6 C :   -0.001815
   7 C :   -0.338125
   8 S :   -0.098276
   9 C :   -0.342404
  10 S :   -0.088090
  11 P :    0.618835
  12 S :   -0.341462
  13 O :   -0.367936
  14 C :   -0.011145
  15 C :   -0.295533
  16 O :   -0.341841
  17 C :   -0.015147
  18 C :   -0.301851
  19 H :    0.111866
  20 H :    0.122875
  21 H :    0.116952
  22 H :    0.102199
  23 H :    0.115955
  24 H :    0.105613
  25 H :    0.107835
  26 H :    0.138963
  27 H :    0.124552
  28 H :    0.115610
  29 H :    0.192235
  30 H :    0.186325
  31 H :    0.109349
  32 H :    0.101672
  33 H :    0.130370
  34 H :    0.114801
  35 H :    0.107288
  36 H :    0.112605
  37 H :    0.112018
  38 H :    0.121876
  39 H :    0.108990
  40 H :    0.117785
Sum of atomic charges:   -0.0000000

LOEWDIN ATOMIC CHARGES
----------------------
   0 C :   -0.364091
   1 C :   -0.117840
   2 O :   -0.241495
   3 P :    0.570442
   4 S :   -0.309248
   5 O :   -0.244940
   6 C :   -0.122367
   7 C :   -0.370971
   8 S :    0.083459
   9 C :   -0.477702
  10 S :    0.084941
  11 P :    0.573667
  12 S :   -0.323557
  13 O :   -0.242089
  14 C :   -0.115353
  15 C :   -0.364271
  16 O :   -0.224007
  17 C :   -0.118315
  18 C :   -0.365240
  19 H :    0.130488
  20 H :    0.123277
  21 H :    0.126749
  22 H :    0.116964
  23 H :    0.112407
  24 H :    0.118983
  25 H :    0.107732
  26 H :    0.120321
  27 H :    0.127306
  28 H :    0.132339
  29 H :    0.129598
  30 H :    0.133534
  31 H :    0.119885
  32 H :    0.106423
  33 H :    0.124392
  34 H :    0.125774
  35 H :    0.128683
  36 H :    0.109257
  37 H :    0.117649
  38 H :    0.120920
  39 H :    0.129213
  40 H :    0.127085

  Mayer bond orders larger than 0.100000
B(  0-C ,  1-C ) :   1.1657 B(  0-C , 19-H ) :   0.9390 B(  0-C , 20-H ) :   0.9357
B(  0-C , 21-H ) :   0.9460 B(  1-C ,  2-O ) :   0.9006 B(  1-C , 22-H ) :   0.9343
B(  1-C , 23-H ) :   0.9147 B(  2-O ,  3-P ) :   1.1107 B(  3-P ,  4-S ) :   1.6255
B(  3-P ,  5-O ) :   1.0955 B(  3-P ,  8-S ) :   0.9478 B(  4-S ,  8-S ) :   0.1075
B(  5-O ,  6-C ) :   0.9147 B(  6-C ,  7-C ) :   1.1628 B(  6-C , 24-H ) :   0.9323
B(  6-C , 25-H ) :   0.9110 B(  7-C , 26-H ) :   0.9291 B(  7-C , 27-H ) :   0.9430
B(  7-C , 28-H ) :   0.9386 B(  8-S ,  9-C ) :   1.0018 B(  9-C , 10-S ) :   1.0106
B(  9-C , 29-H ) :   0.8784 B(  9-C , 30-H ) :   0.9017 B( 10-S , 11-P ) :   0.9515
B( 10-S , 12-S ) :   0.1108 B( 11-P , 12-S ) :   1.5875 B( 11-P , 13-O ) :   1.1162
B( 11-P , 16-O ) :   1.1521 B( 13-O , 14-C ) :   0.9053 B( 14-C , 15-C ) :   1.1670
B( 14-C , 31-H ) :   0.9358 B( 14-C , 32-H ) :   0.9158 B( 15-C , 33-H ) :   0.9312
B( 15-C , 34-H ) :   0.9467 B( 15-C , 35-H ) :   0.9393 B( 16-O , 17-C ) :   0.9041
B( 17-C , 18-C ) :   1.1625 B( 17-C , 36-H ) :   0.9169 B( 17-C , 37-H ) :   0.9254
B( 18-C , 38-H ) :   0.9336 B( 18-C , 39-H ) :   0.9394 B( 18-C , 40-H ) :   0.9453

Dispersion correction           -0.067084685
FINAL SINGLE POINT ENERGY     -2929.521609842653

DIPOLE MOMENT
-------------

Method             : SCF
Type of density    : Electron Density
Multiplicity       :   1
Irrep              :   0
Energy             : -2929.6389002230271217 Eh
Relativity type    :
Basis              : AO
                                X                 Y                 Z
Electronic contribution:      2.486027651      -0.061690871      -8.431678805
Nuclear contribution   :     -2.016362900       0.317790671       8.487523022
                        -----------------------------------------
Total Dipole Moment    :      0.469664751       0.256099800       0.055844217
                        -----------------------------------------
Magnitude (a.u.)       :      0.537857474
Magnitude (Debye)      :      1.367125051

Rotational constants in cm-1:             0.013132             0.005184             0.004649
Rotational constants in MHz :           393.684299           155.422082           139.383203

                             ****ORCA TERMINATED NORMALLY****
TOTAL RUN TIME: 0 days 0 hours 0 minutes 21 seconds 384 msec
