                         Program Version 6.0.1  -  RELEASE   -
|  1> ! pbe def2-sv(p) def2/J RI DEFGRID1 loosescf d4 GCP(DFT/SV(P)) printgap
|  2> %output
|  3>     printlevel normal
|  4> end
|  5> * xyz 0 1
|  6> C 5.2645520661 -3.184399727 -0.2566886599
|  7> C 4.3828099555 -2.1601184611 0.4321962172
|  8> O 3.1137547728 -2.1205458854 -0.2539787021
|  9> C 2.4421167909 -0.9955203775 -0.2894213077
| 10> O 2.8120432767 0.0492495266 0.2128021479
| 11> C 1.1259706679 -1.1460204178 -1.0160214115
| 12> C 0.566892863 0.2275443985 -1.3618665713
| 13> H 1.0350162543 0.6496652963 -2.2519584974
| 14> C 0.7021434043 1.2085296825 -0.2138645802
| 15> O 0.1815739901 1.0107356892 0.8682295862
| 16> O 1.3085789952 2.3084072216 -0.5716764804
| 17> C 1.4123217467 3.3741524917 0.3955868579
| 18> C 0.1737644733 4.2548556852 0.3474274898
| 19> S -1.223325147 0.1780158051 -1.7219512207
| 20> P -2.0943182482 -0.1695203762 0.1695754784
| 21> S -1.4468888023 -1.5719479962 1.3914285837
| 22> O -2.4227321763 1.2795177534 0.742891638
| 23> C -2.5235468185 1.5252405641 2.1530943905
| 24> O -3.5787221043 -0.517580593 -0.3353291076
| 25> C -3.909695455 -1.7962461285 -0.885398405
| 26> H 6.209602846 -3.2542976647 0.2714195255
| 27> H 4.776832018 -4.1542995776 -0.2501836072
| 28> H 5.4507468353 -2.8910610627 -1.2856205151
| 29> H 4.8202155603 -1.1574707248 0.4109610507
| 30> H 4.184559485 -2.4385594259 1.471057674
| 31> H 0.4563824581 -1.6693006644 -0.3228447304
| 32> H 1.2443721584 -1.7658280119 -1.9029572997
| 33> H 1.5462981915 2.9291200228 1.3851302015
| 34> H 2.3079664237 3.920864124 0.1019287463
| 35> H -0.7109620714 3.6669890359 0.5843381351
| 36> H 0.2725801645 5.0545334984 1.0737399927
| 37> H 0.0559176051 4.6804557003 -0.645187765
| 38> H -1.5783968286 1.2762027365 2.6368009759
| 39> H -3.3296253786 0.9326738666 2.5841764272
| 40> H -2.7358823356 2.5873588991 2.2460402166
| 41> H -3.545455599 -1.8647561772 -1.9098481648
| 42> H -4.9947158214 -1.855599062 -0.8594640286
| 43> H -3.4693177533 -2.5887334202 -0.2770517995
| 44> *
| 45>
| 46>                          ****END OF INPUT****

CARTESIAN COORDINATES (ANGSTROEM)
---------------------------------
  C      5.264552   -3.184400   -0.256689
  C      4.382810   -2.160118    0.432196
  O      3.113755   -2.120546   -0.253979
  C      2.442117   -0.995520   -0.289421
  O      2.812043    0.049250    0.212802
  C      1.125971   -1.146020   -1.016021
  C      0.566893    0.227544   -1.361867
  H      1.035016    0.649665   -2.251958
  C      0.702143    1.208530   -0.213865
  O      0.181574    1.010736    0.868230
  O      1.308579    2.308407   -0.571676
  C      1.412322    3.374152    0.395587
  C      0.173764    4.254856    0.347427
  S     -1.223325    0.178016   -1.721951
  P     -2.094318   -0.169520    0.169575
  S     -1.446889   -1.571948    1.391429
  O     -2.422732    1.279518    0.742892
  C     -2.523547    1.525241    2.153094
  O     -3.578722   -0.517581   -0.335329
  C     -3.909695   -1.796246   -0.885398
  H      6.209603   -3.254298    0.271420
  H      4.776832   -4.154300   -0.250184
  H      5.450747   -2.891061   -1.285621
  H      4.820216   -1.157471    0.410961
  H      4.184559   -2.438559    1.471058
  H      0.456382   -1.669301   -0.322845
  H      1.244372   -1.765828   -1.902957
  H      1.546298    2.929120    1.385130
  H      2.307966    3.920864    0.101929
  H     -0.710962    3.666989    0.584338
  H      0.272580    5.054533    1.073740
  H      0.055918    4.680456   -0.645188
  H     -1.578397    1.276203    2.636801
  H     -3.329625    0.932674    2.584176
  H     -2.735882    2.587359    2.246040
  H     -3.545456   -1.864756   -1.909848
  H     -4.994716   -1.855599   -0.859464
  H     -3.469318   -2.588733   -0.277052

 Total Charge           Charge          ....    0
 Multiplicity           Mult            ....    1
 Number of Electrons    NEL             ....  174
 Basis Dimension        Dim             ....  316

ORBITAL ENERGIES
----------------

  NO   OCC          E(Eh)            E(eV)
   0   2.0000     -88.040265     -2395.6974
   1   2.0000     -87.972269     -2393.8471
   2   2.0000     -76.419215     -2079.4726
   3   2.0000     -18.808355      -511.8013
   4   2.0000     -18.802392      -511.6391
   5   2.0000     -18.780633      -511.0470
   6   2.0000     -18.777874      -510.9719
   7   2.0000     -18.746034      -510.1055
   8   2.0000     -18.733667      -509.7690
   9   2.0000     -10.015508      -272.5358
  10   2.0000     -10.014391      -272.5054
  11   2.0000      -9.952162      -270.8121
  12   2.0000      -9.945547      -270.6321
  13   2.0000      -9.945280      -270.6248
  14   2.0000      -9.933559      -270.3059
  15   2.0000      -9.933055      -270.2922
  16   2.0000      -9.905722      -269.5484
  17   2.0000      -9.893130      -269.2058
  18   2.0000      -9.884405      -268.9683
  19   2.0000      -7.685230      -209.1257
  20   2.0000      -7.617370      -207.2792
  21   2.0000      -6.415369      -174.5711
  22   2.0000      -5.713195      -155.4639
  23   2.0000      -5.709684      -155.3684
  24   2.0000      -5.702159      -155.1636
  25   2.0000      -5.646492      -153.6488
  26   2.0000      -5.638333      -153.4268
  27   2.0000      -5.636949      -153.3892
  28   2.0000      -4.637753      -126.1997
  29   2.0000      -4.637282      -126.1869
  30   2.0000      -4.636163      -126.1564
  31   2.0000      -1.018054       -27.7027
  32   2.0000      -1.011605       -27.5272
  33   2.0000      -0.972417       -26.4608
  34   2.0000      -0.929880       -25.3033
  35   2.0000      -0.923387       -25.1266
  36   2.0000      -0.914289       -24.8791
  37   2.0000      -0.762842       -20.7580
  38   2.0000      -0.718317       -19.5464
  39   2.0000      -0.702864       -19.1259
  40   2.0000      -0.687720       -18.7138
  41   2.0000      -0.656026       -17.8514
  42   2.0000      -0.623370       -16.9628
  43   2.0000      -0.617594       -16.8056
  44   2.0000      -0.612643       -16.6709
  45   2.0000      -0.594295       -16.1716
  46   2.0000      -0.557915       -15.1816
  47   2.0000      -0.513361       -13.9693
  48   2.0000      -0.506680       -13.7875
  49   2.0000      -0.493337       -13.4244
  50   2.0000      -0.480322       -13.0702
  51   2.0000      -0.460811       -12.5393
  52   2.0000      -0.451150       -12.2764
  53   2.0000      -0.449293       -12.2259
  54   2.0000      -0.435930       -11.8623
  55   2.0000      -0.428901       -11.6710
  56   2.0000      -0.425212       -11.5706
  57   2.0000      -0.417573       -11.3628
  58   2.0000      -0.414760       -11.2862
  59   2.0000      -0.404641       -11.0108
  60   2.0000      -0.401652       -10.9295
  61   2.0000      -0.393340       -10.7033
  62   2.0000      -0.382422       -10.4062
  63   2.0000      -0.381501       -10.3812
  64   2.0000      -0.371773       -10.1165
  65   2.0000      -0.366081        -9.9616
  66   2.0000      -0.363368        -9.8878
  67   2.0000      -0.352697        -9.5974
  68   2.0000      -0.347326        -9.4512
  69   2.0000      -0.340489        -9.2652
  70   2.0000      -0.337059        -9.1718
  71   2.0000      -0.327036        -8.8991
  72   2.0000      -0.319805        -8.7023
  73   2.0000      -0.305555        -8.3146
  74   2.0000      -0.298174        -8.1137
  75   2.0000      -0.294605        -8.0166
  76   2.0000      -0.290233        -7.8977
  77   2.0000      -0.279553        -7.6070
  78   2.0000      -0.270519        -7.3612
  79   2.0000      -0.265025        -7.2117
  80   2.0000      -0.252592        -6.8734
  81   2.0000      -0.245752        -6.6872
  82   2.0000      -0.236995        -6.4490
  83   2.0000      -0.232325        -6.3219
  84   2.0000      -0.220886        -6.0106
  85   2.0000      -0.192404        -5.2356
  86   2.0000      -0.181114        -4.9284
  87   0.0000      -0.047351        -1.2885
  88   0.0000      -0.026000        -0.7075
  89   0.0000      -0.013884        -0.3778
  90   0.0000       0.016710         0.4547
  91   0.0000       0.033850         0.9211

MULLIKEN ATOMIC CHARGES
-----------------------
   0 C :   -0.282135
   1 C :   -0.029678
   2 O :   -0.225891
   3 C :    0.130346
   4 O :   -0.209018
   5 C :   -0.068938
   6 C :   -0.298192
   7 H :    0.127739
   8 C :    0.208325
   9 O :   -0.211112
  10 O :   -0.212621
  11 C :   -0.009047
  12 C :   -0.317241
  13 S :   -0.078550
  14 P :    0.615244
  15 S :   -0.329530
  16 O :   -0.373981
  17 C :   -0.097202
  18 O :   -0.379451
  19 C :   -0.099642
  20 H :    0.114078
  21 H :    0.119130
  22 H :    0.114513
  23 H :    0.116467
  24 H :    0.113338
  25 H :    0.146970
  26 H :    0.115670
  27 H :    0.114892
  28 H :    0.103952
  29 H :    0.138716
  30 H :    0.110453
  31 H :    0.114164
  32 H :    0.137861
  33 H :    0.118114
  34 H :    0.118955
  35 H :    0.109128
  36 H :    0.120832
  37 H :    0.113343
Sum of atomic charges:   -0.0000000

LOEWDIN ATOMIC CHARGES
----------------------
   0 C :   -0.350741
   1 C :   -0.107005
   2 O :   -0.053709
   3 C :    0.044905
   4 O :   -0.155748
   5 C :   -0.265028
   6 C :   -0.256855
   7 H :    0.140018
   8 C :    0.011348
   9 O :   -0.174006
  10 O :   -0.039046
  11 C :   -0.105091
  12 C :   -0.358132
  13 S :    0.119403
  14 P :    0.584133
  15 S :   -0.318072
  16 O :   -0.246474
  17 C :   -0.209458
  18 O :   -0.263691
  19 C :   -0.220677
  20 H :    0.131590
  21 H :    0.128305
  22 H :    0.126435
  23 H :    0.120297
  24 H :    0.121061
  25 H :    0.143113
  26 H :    0.141693
  27 H :    0.123340
  28 H :    0.119035
  29 H :    0.132113
  30 H :    0.129273
  31 H :    0.125652
  32 H :    0.119304
  33 H :    0.112024
  34 H :    0.117260
  35 H :    0.106866
  36 H :    0.120174
  37 H :    0.106390

  Mayer bond orders larger than 0.100000
B(  0-C ,  1-C ) :   1.1609 B(  0-C , 20-H ) :   0.9440 B(  0-C , 21-H ) :   0.9483
B(  0-C , 22-H ) :   0.9522 B(  1-C ,  2-O ) :   0.8995 B(  1-C , 23-H ) :   0.9173
B(  1-C , 24-H ) :   0.9352 B(  2-O ,  3-C ) :   1.2524 B(  3-C ,  4-O ) :   1.9801
B(  3-C ,  5-C ) :   1.0146 B(  4-O ,  8-C ) :   0.1166 B(  5-C ,  6-C ) :   1.0070
B(  5-C , 25-H ) :   0.8311 B(  5-C , 26-H ) :   0.9006 B(  6-C ,  7-H ) :   0.8832
B(  6-C ,  8-C ) :   0.8993 B(  6-C , 13-S ) :   1.0122 B(  8-C ,  9-O ) :   1.9235
B(  8-C , 10-O ) :   1.2727 B(  9-O , 14-P ) :   0.1013 B( 10-O , 11-C ) :   0.9090
B( 11-C , 12-C ) :   1.1712 B( 11-C , 27-H ) :   0.9150 B( 11-C , 28-H ) :   0.9378
B( 12-C , 29-H ) :   0.9375 B( 12-C , 30-H ) :   0.9438 B( 12-C , 31-H ) :   0.9473
B( 13-S , 14-P ) :   0.9664 B( 13-S , 15-S ) :   0.1182 B( 14-P , 15-S ) :   1.5746
B( 14-P , 16-O ) :   1.1093 B( 14-P , 18-O ) :   1.0801 B( 15-S , 25-H ) :   0.1101
B( 16-O , 17-C ) :   0.9140 B( 17-C , 32-H ) :   0.9394 B( 17-C , 33-H ) :   0.9512
B( 17-C , 34-H ) :   0.9541 B( 18-O , 19-C ) :   0.9386 B( 19-C , 35-H ) :   0.9496
B( 19-C , 36-H ) :   0.9596 B( 19-C , 37-H ) :   0.9278

Dispersion correction           -0.051594633
FINAL SINGLE POINT ENERGY     -1979.013699522286

DIPOLE MOMENT
-------------

Method             : SCF
Type of density    : Electron Density
Multiplicity       :   1
Irrep              :   0
Energy             : -1979.1455749687534080 Eh
Relativity type    :
Basis              : AO
                                X                 Y                 Z
Electronic contribution:    -12.321773924      -1.970359944      -3.176498913
Nuclear contribution   :     13.223964101       2.152301904       2.739120864
                        -----------------------------------------
Total Dipole Moment    :      0.902190177       0.181941960      -0.437378048
                        -----------------------------------------
Magnitude (a.u.)       :      1.018994381
Magnitude (Debye)      :      2.590077880

Rotational constants in cm-1:             0.012610             0.006926             0.005410
Rotational constants in MHz :           378.024018           207.645308           162.188935

                             ****ORCA TERMINATED NORMALLY****
TOTAL RUN TIME: 0 days 0 hours 0 minutes 36 seconds 742 msec
