                         Program Version 6.0.1  -  RELEASE   -
|  1> ! pbe def2-sv(p) def2/J RI DEFGRID1 loosescf d4 GCP(DFT/SV(P)) printgap
|  2> %output
|  3>     printlevel normal
|  4> end
|  5> * xyz 0 1
|  6> C 3.2482578249 -3.2194689697 0.5443246159
|  7> C 2.9282428211 -1.7938921126 0.9635761437
|  8> O 2.734556492 -0.946513002 -0.1863011243
|  9> C 1.5692198498 -0.946173679 -0.7824977275
| 10> O 0.612556266 -1.6174425339 -0.431425893
| 11> C 1.5163796133 0.001074859 -1.9589756918
| 12> C 0.3038703123 0.9219672517 -1.8386677718
| 13> H 0.2214963443 1.5488677112 -2.7317795878
| 14> C 0.3354830943 1.8375977723 -0.6254838387
| 15> O -0.668493401 2.3283074032 -0.1498662121
| 16> O 1.5507756969 2.0444693817 -0.1921297921
| 17> C 1.7240318766 2.8819932261 0.9707072801
| 18> C 3.2059447589 3.154423621 1.1276412251
| 19> S -1.284737048 0.0154419118 -1.8064860097
| 20> P -1.5429699122 -0.3972367069 0.2497382132
| 21> S -0.4205826931 -0.0272467075 1.8140555235
| 22> O -2.9399492485 0.4228652884 0.3177802154
| 23> C -3.6392491711 0.5888948722 1.5505806949
| 24> O -2.0064891268 -1.9224547371 0.3425052647
| 25> C -2.7691944538 -2.556578658 -0.6960234431
| 26> H 4.1111730036 -3.2303665652 -0.1158259723
| 27> H 3.4641253576 -3.8101410291 1.4283336806
| 28> H 2.3970783353 -3.6581040666 0.0284508187
| 29> H 3.7631676283 -1.3374755221 1.4946635364
| 30> H 2.0253352067 -1.7571498619 1.5806974242
| 31> H 1.4121681118 -0.5895880933 -2.8706287004
| 32> H 2.4346210421 0.585680857 -1.9898067566
| 33> H 1.1450441072 3.7985657305 0.8237797261
| 34> H 1.3103113001 2.3442459084 1.8304686858
| 35> H 3.3633232708 3.7568021687 2.0157348674
| 36> H 3.7436960623 2.2169321465 1.2306104094
| 37> H 3.5835880929 3.686778481 0.2599843289
| 38> H -3.0109999971 1.1220550856 2.2662926358
| 39> H -3.9192688973 -0.3811928497 1.9653661541
| 40> H -4.5211429071 1.1758926756 1.3077341286
| 41> H -2.0967367042 -2.8692564496 -1.4937561443
| 42> H -3.5240042206 -1.8746625992 -1.0904492085
| 43> H -3.2351485712 -3.4193942995 -0.226182089
| 44> *
| 45>
| 46>                          ****END OF INPUT****

CARTESIAN COORDINATES (ANGSTROEM)
---------------------------------
  C      3.248258   -3.219469    0.544325
  C      2.928243   -1.793892    0.963576
  O      2.734556   -0.946513   -0.186301
  C      1.569220   -0.946174   -0.782498
  O      0.612556   -1.617443   -0.431426
  C      1.516380    0.001075   -1.958976
  C      0.303870    0.921967   -1.838668
  H      0.221496    1.548868   -2.731780
  C      0.335483    1.837598   -0.625484
  O     -0.668493    2.328307   -0.149866
  O      1.550776    2.044469   -0.192130
  C      1.724032    2.881993    0.970707
  C      3.205945    3.154424    1.127641
  S     -1.284737    0.015442   -1.806486
  P     -1.542970   -0.397237    0.249738
  S     -0.420583   -0.027247    1.814056
  O     -2.939949    0.422865    0.317780
  C     -3.639249    0.588895    1.550581
  O     -2.006489   -1.922455    0.342505
  C     -2.769194   -2.556579   -0.696023
  H      4.111173   -3.230367   -0.115826
  H      3.464125   -3.810141    1.428334
  H      2.397078   -3.658104    0.028451
  H      3.763168   -1.337476    1.494664
  H      2.025335   -1.757150    1.580697
  H      1.412168   -0.589588   -2.870629
  H      2.434621    0.585681   -1.989807
  H      1.145044    3.798566    0.823780
  H      1.310311    2.344246    1.830469
  H      3.363323    3.756802    2.015735
  H      3.743696    2.216932    1.230610
  H      3.583588    3.686778    0.259984
  H     -3.011000    1.122055    2.266293
  H     -3.919269   -0.381193    1.965366
  H     -4.521143    1.175893    1.307734
  H     -2.096737   -2.869256   -1.493756
  H     -3.524004   -1.874663   -1.090449
  H     -3.235149   -3.419394   -0.226182

 Total Charge           Charge          ....    0
 Multiplicity           Mult            ....    1
 Number of Electrons    NEL             ....  174
 Basis Dimension        Dim             ....  316

ORBITAL ENERGIES
----------------

  NO   OCC          E(Eh)            E(eV)
   0   2.0000     -88.029160     -2395.3952
   1   2.0000     -87.968769     -2393.7519
   2   2.0000     -76.411962     -2079.2752
   3   2.0000     -18.810420      -511.8576
   4   2.0000     -18.808199      -511.7971
   5   2.0000     -18.775481      -510.9068
   6   2.0000     -18.763550      -510.5822
   7   2.0000     -18.740747      -509.9617
   8   2.0000     -18.733683      -509.7694
   9   2.0000     -10.012493      -272.4538
  10   2.0000     -10.011984      -272.4399
  11   2.0000      -9.950871      -270.7770
  12   2.0000      -9.945073      -270.6192
  13   2.0000      -9.943883      -270.5868
  14   2.0000      -9.937279      -270.4071
  15   2.0000      -9.923631      -270.0357
  16   2.0000      -9.911483      -269.7052
  17   2.0000      -9.888211      -269.0719
  18   2.0000      -9.884583      -268.9732
  19   2.0000      -7.674326      -208.8290
  20   2.0000      -7.613861      -207.1837
  21   2.0000      -6.407944      -174.3690
  22   2.0000      -5.702746      -155.1796
  23   2.0000      -5.699372      -155.0878
  24   2.0000      -5.690118      -154.8360
  25   2.0000      -5.643357      -153.5636
  26   2.0000      -5.634718      -153.3285
  27   2.0000      -5.633071      -153.2837
  28   2.0000      -4.630835      -126.0114
  29   2.0000      -4.629848      -125.9846
  30   2.0000      -4.628411      -125.9455
  31   2.0000      -1.017313       -27.6825
  32   2.0000      -1.013578       -27.5809
  33   2.0000      -0.962595       -26.1935
  34   2.0000      -0.919647       -25.0249
  35   2.0000      -0.917622       -24.9698
  36   2.0000      -0.913956       -24.8700
  37   2.0000      -0.762999       -20.7623
  38   2.0000      -0.709958       -19.3189
  39   2.0000      -0.707104       -19.2413
  40   2.0000      -0.684395       -18.6233
  41   2.0000      -0.653046       -17.7703
  42   2.0000      -0.626021       -17.0349
  43   2.0000      -0.609386       -16.5822
  44   2.0000      -0.605731       -16.4828
  45   2.0000      -0.593813       -16.1585
  46   2.0000      -0.562612       -15.3094
  47   2.0000      -0.511910       -13.9298
  48   2.0000      -0.500453       -13.6180
  49   2.0000      -0.495059       -13.4712
  50   2.0000      -0.479514       -13.0482
  51   2.0000      -0.459664       -12.5081
  52   2.0000      -0.451442       -12.2843
  53   2.0000      -0.448443       -12.2027
  54   2.0000      -0.434134       -11.8134
  55   2.0000      -0.430938       -11.7264
  56   2.0000      -0.417549       -11.3621
  57   2.0000      -0.411491       -11.1972
  58   2.0000      -0.407333       -11.0841
  59   2.0000      -0.396458       -10.7882
  60   2.0000      -0.394574       -10.7369
  61   2.0000      -0.388532       -10.5725
  62   2.0000      -0.385698       -10.4954
  63   2.0000      -0.380312       -10.3488
  64   2.0000      -0.371344       -10.1048
  65   2.0000      -0.362580        -9.8663
  66   2.0000      -0.359389        -9.7795
  67   2.0000      -0.354413        -9.6441
  68   2.0000      -0.349473        -9.5096
  69   2.0000      -0.337904        -9.1948
  70   2.0000      -0.335425        -9.1274
  71   2.0000      -0.321314        -8.7434
  72   2.0000      -0.314971        -8.5708
  73   2.0000      -0.306787        -8.3481
  74   2.0000      -0.303875        -8.2688
  75   2.0000      -0.296246        -8.0613
  76   2.0000      -0.293455        -7.9853
  77   2.0000      -0.270164        -7.3515
  78   2.0000      -0.263877        -7.1805
  79   2.0000      -0.261361        -7.1120
  80   2.0000      -0.254282        -6.9194
  81   2.0000      -0.242092        -6.5876
  82   2.0000      -0.234298        -6.3756
  83   2.0000      -0.221680        -6.0322
  84   2.0000      -0.193023        -5.2524
  85   2.0000      -0.189096        -5.1456
  86   2.0000      -0.175588        -4.7780
  87   0.0000      -0.046049        -1.2531
  88   0.0000      -0.035951        -0.9783
  89   0.0000      -0.029207        -0.7948
  90   0.0000       0.008692         0.2365
  91   0.0000       0.032728         0.8906

MULLIKEN ATOMIC CHARGES
-----------------------
   0 C :   -0.308885
   1 C :   -0.026435
   2 O :   -0.212583
   3 C :    0.105131
   4 O :   -0.212001
   5 C :    0.014917
   6 C :   -0.329941
   7 H :    0.155631
   8 C :    0.170876
   9 O :   -0.177097
  10 O :   -0.221478
  11 C :   -0.029719
  12 C :   -0.277072
  13 S :   -0.063424
  14 P :    0.627784
  15 S :   -0.336665
  16 O :   -0.384447
  17 C :   -0.098815
  18 O :   -0.371192
  19 C :   -0.113435
  20 H :    0.109378
  21 H :    0.114361
  22 H :    0.129186
  23 H :    0.099677
  24 H :    0.133212
  25 H :    0.115111
  26 H :    0.108648
  27 H :    0.107632
  28 H :    0.124638
  29 H :    0.112550
  30 H :    0.117673
  31 H :    0.111125
  32 H :    0.121036
  33 H :    0.101670
  34 H :    0.116165
  35 H :    0.124920
  36 H :    0.115782
  37 H :    0.126081
Sum of atomic charges:   -0.0000000

LOEWDIN ATOMIC CHARGES
----------------------
   0 C :   -0.357180
   1 C :   -0.113728
   2 O :   -0.039300
   3 C :    0.032098
   4 O :   -0.176722
   5 C :   -0.252998
   6 C :   -0.257546
   7 H :    0.153906
   8 C :   -0.011019
   9 O :   -0.156521
  10 O :   -0.043747
  11 C :   -0.106798
  12 C :   -0.351211
  13 S :    0.128296
  14 P :    0.602883
  15 S :   -0.302279
  16 O :   -0.269270
  17 C :   -0.217893
  18 O :   -0.250069
  19 C :   -0.217726
  20 H :    0.122308
  21 H :    0.131784
  22 H :    0.130920
  23 H :    0.116491
  24 H :    0.123729
  25 H :    0.144937
  26 H :    0.138772
  27 H :    0.118347
  28 H :    0.119695
  29 H :    0.131586
  30 H :    0.127258
  31 H :    0.124346
  32 H :    0.110810
  33 H :    0.104553
  34 H :    0.117373
  35 H :    0.114207
  36 H :    0.107066
  37 H :    0.122642

  Mayer bond orders larger than 0.100000
B(  0-C ,  1-C ) :   1.1687 B(  0-C , 20-H ) :   0.9480 B(  0-C , 21-H ) :   0.9443
B(  0-C , 22-H ) :   0.9454 B(  1-C ,  2-O ) :   0.9068 B(  1-C , 23-H ) :   0.9374
B(  1-C , 24-H ) :   0.9060 B(  2-O ,  3-C ) :   1.2725 B(  3-C ,  4-O ) :   1.9213
B(  3-C ,  5-C ) :   1.0074 B(  5-C ,  6-C ) :   1.0220 B(  5-C , 25-H ) :   0.8788
B(  5-C , 26-H ) :   0.8806 B(  6-C ,  7-H ) :   0.8705 B(  6-C ,  8-C ) :   0.8909
B(  6-C , 13-S ) :   1.0503 B(  8-C ,  9-O ) :   2.0556 B(  8-C , 10-O ) :   1.2659
B( 10-O , 11-C ) :   0.8889 B( 11-C , 12-C ) :   1.1525 B( 11-C , 27-H ) :   0.9271
B( 11-C , 28-H ) :   0.9199 B( 12-C , 29-H ) :   0.9435 B( 12-C , 30-H ) :   0.9477
B( 12-C , 31-H ) :   0.9511 B( 13-S , 14-P ) :   0.9326 B( 13-S , 15-S ) :   0.1151
B( 14-P , 15-S ) :   1.5435 B( 14-P , 16-O ) :   1.0570 B( 14-P , 18-O ) :   1.0944
B( 16-O , 17-C ) :   0.9451 B( 17-C , 32-H ) :   0.9396 B( 17-C , 33-H ) :   0.9481
B( 17-C , 34-H ) :   0.9582 B( 18-O , 19-C ) :   0.9341 B( 19-C , 35-H ) :   0.9464
B( 19-C , 36-H ) :   0.9398 B( 19-C , 37-H ) :   0.9580

Dispersion correction           -0.055838256
FINAL SINGLE POINT ENERGY     -1978.996418082686

DIPOLE MOMENT
-------------

Method             : SCF
Type of density    : Electron Density
Multiplicity       :   1
Irrep              :   0
Energy             : -1979.1240248057847566 Eh
Relativity type    :
Basis              : AO
                                X                 Y                 Z
Electronic contribution:    -12.378716059       1.989258836      -5.668336843
Nuclear contribution   :     13.301992693      -2.165243057       5.132621544
                        -----------------------------------------
Total Dipole Moment    :      0.923276634      -0.175984221      -0.535715298
                        -----------------------------------------
Magnitude (a.u.)       :      1.081850761
Magnitude (Debye)      :      2.749846101

Rotational constants in cm-1:             0.012420             0.009160             0.007281
Rotational constants in MHz :           372.350948           274.600127           218.276998

                             ****ORCA TERMINATED NORMALLY****
TOTAL RUN TIME: 0 days 0 hours 0 minutes 38 seconds 809 msec
