                         Program Version 6.0.0  -   RELEASE  -
|  1> ! pbe def2-sv(p) def2/J RI DEFGRID1 loosescf d4 GCP(DFT/SV(P)) printgap
|  2> %output
|  3>     printlevel normal
|  4> end
|  5> * xyz 0 1
|  6> C 5.8185932313 -0.2993752642 0.3798824924
|  7> C 4.5116210479 -0.6488943853 -0.3025464801
|  8> O 3.4530226282 0.0503658306 0.3814317882
|  9> P 2.0136234593 0.2207011378 -0.2719459354
| 10> S 2.0411731874 0.8565026241 -2.1302961319
| 11> O 1.2939002618 1.109892272 0.818236429
| 12> C 1.3057457686 2.5506721863 0.7716127834
| 13> C 2.6983942009 3.1115043031 0.9587757181
| 14> S 1.1766664975 -1.6815480001 0.0561029098
| 15> C 0.0004182906 -1.7901393 -1.3359292176
| 16> S -1.7049974036 -2.0060657183 -0.7874578879
| 17> P -1.9879732262 -0.068745052 0.0455817782
| 18> S -1.403514482 1.417317749 -1.0849669361
| 19> O -1.2970016857 -0.0582631243 1.4571354785
| 20> C -1.5530195205 -1.0469508405 2.4891939833
| 21> C -2.6039395597 -0.5499559803 3.459142931
| 22> O -3.5337756896 -0.0839565121 0.4019124488
| 23> C -4.5394851225 -0.0446694686 -0.6325894154
| 24> C -5.8657389423 0.2819982832 0.0228111095
| 25> H 6.0073096977 0.7678196175 0.3056604058
| 26> H 5.772985699 -0.5772385127 1.4287671826
| 27> H 6.6263010926 -0.8402423197 -0.1019784859
| 28> H 4.3055672234 -1.7212562749 -0.2445580972
| 29> H 4.5088492701 -0.3407100066 -1.353624283
| 30> H 0.8780672864 2.8692481161 -0.1851555355
| 31> H 0.6325452796 2.8382650021 1.5806958509
| 32> H 3.3239447912 2.8322989898 0.1115204373
| 33> H 2.6433942452 4.1941748839 1.0152637509
| 34> H 3.1413379687 2.7189334944 1.8703302284
| 35> H 0.2474810648 -2.6750182404 -1.9165468409
| 36> H 0.0888229049 -0.8832390371 -1.9411160965
| 37> H -1.8606279417 -1.9829862802 2.0145557995
| 38> H -0.584995709 -1.1827833749 2.9756158736
| 39> H -2.2941342586 0.3963005928 3.8939069984
| 40> H -3.5512781979 -0.4068675777 2.9465638339
| 41> H -2.729574618 -1.2838106201 4.2490720925
| 42> H -4.2534819612 0.7161261973 -1.3661189805
| 43> H -4.5628805591 -1.0221929237 -1.1212740671
| 44> H -6.1197610854 -0.4824073301 0.7512542648
| 45> H -5.807313823 1.2440617169 0.5240904174
| 46> H -6.637266349 0.3221471566 -0.7388993431
| 47> *
| 48>
| 49>                          ****END OF INPUT****

CARTESIAN COORDINATES (ANGSTROEM)
---------------------------------
  C      5.818593   -0.299375    0.379882
  C      4.511621   -0.648894   -0.302546
  O      3.453023    0.050366    0.381432
  P      2.013623    0.220701   -0.271946
  S      2.041173    0.856503   -2.130296
  O      1.293900    1.109892    0.818236
  C      1.305746    2.550672    0.771613
  C      2.698394    3.111504    0.958776
  S      1.176666   -1.681548    0.056103
  C      0.000418   -1.790139   -1.335929
  S     -1.704997   -2.006066   -0.787458
  P     -1.987973   -0.068745    0.045582
  S     -1.403514    1.417318   -1.084967
  O     -1.297002   -0.058263    1.457135
  C     -1.553020   -1.046951    2.489194
  C     -2.603940   -0.549956    3.459143
  O     -3.533776   -0.083957    0.401912
  C     -4.539485   -0.044669   -0.632589
  C     -5.865739    0.281998    0.022811
  H      6.007310    0.767820    0.305660
  H      5.772986   -0.577239    1.428767
  H      6.626301   -0.840242   -0.101978
  H      4.305567   -1.721256   -0.244558
  H      4.508849   -0.340710   -1.353624
  H      0.878067    2.869248   -0.185156
  H      0.632545    2.838265    1.580696
  H      3.323945    2.832299    0.111520
  H      2.643394    4.194175    1.015264
  H      3.141338    2.718933    1.870330
  H      0.247481   -2.675018   -1.916547
  H      0.088823   -0.883239   -1.941116
  H     -1.860628   -1.982986    2.014556
  H     -0.584996   -1.182783    2.975616
  H     -2.294134    0.396301    3.893907
  H     -3.551278   -0.406868    2.946564
  H     -2.729575   -1.283811    4.249072
  H     -4.253482    0.716126   -1.366119
  H     -4.562881   -1.022193   -1.121274
  H     -6.119761   -0.482407    0.751254
  H     -5.807314    1.244062    0.524090
  H     -6.637266    0.322147   -0.738899

 Total Charge           Charge          ....    0
 Multiplicity           Mult            ....    1
 Number of Electrons    NEL             ....  202
 Basis Dimension        Dim             ....  334

ORBITAL ENERGIES
----------------

  NO   OCC          E(Eh)            E(eV)
   0   2.0000     -88.042482     -2395.7577
   1   2.0000     -88.039483     -2395.6761
   2   2.0000     -87.979209     -2394.0360
   3   2.0000     -87.979180     -2394.0352
   4   2.0000     -76.423158     -2079.5798
   5   2.0000     -76.419056     -2079.4682
   6   2.0000     -18.796143      -511.4691
   7   2.0000     -18.790243      -511.3085
   8   2.0000     -18.787456      -511.2327
   9   2.0000     -18.779525      -511.0168
  10   2.0000      -9.955460      -270.9018
  11   2.0000      -9.953355      -270.8446
  12   2.0000      -9.952539      -270.8224
  13   2.0000      -9.947389      -270.6822
  14   2.0000      -9.938389      -270.4373
  15   2.0000      -9.891175      -269.1526
  16   2.0000      -9.885417      -268.9959
  17   2.0000      -9.885319      -268.9932
  18   2.0000      -9.875046      -268.7137
  19   2.0000      -7.687766      -209.1948
  20   2.0000      -7.684775      -209.1134
  21   2.0000      -7.624200      -207.4650
  22   2.0000      -7.624160      -207.4639
  23   2.0000      -6.420850      -174.7202
  24   2.0000      -6.416718      -174.6078
  25   2.0000      -5.715490      -155.5264
  26   2.0000      -5.712604      -155.4478
  27   2.0000      -5.712110      -155.4344
  28   2.0000      -5.709270      -155.3571
  29   2.0000      -5.705042      -155.2421
  30   2.0000      -5.701738      -155.1522
  31   2.0000      -5.653175      -153.8307
  32   2.0000      -5.653057      -153.8275
  33   2.0000      -5.644956      -153.6071
  34   2.0000      -5.644700      -153.6001
  35   2.0000      -5.644374      -153.5912
  36   2.0000      -5.644183      -153.5860
  37   2.0000      -4.643725      -126.3622
  38   2.0000      -4.642740      -126.3354
  39   2.0000      -4.640852      -126.2840
  40   2.0000      -4.638967      -126.2327
  41   2.0000      -4.638395      -126.2172
  42   2.0000      -4.637523      -126.1934
  43   2.0000      -0.989095       -26.9146
  44   2.0000      -0.979764       -26.6607
  45   2.0000      -0.946106       -25.7448
  46   2.0000      -0.937174       -25.5018
  47   2.0000      -0.760875       -20.7045
  48   2.0000      -0.720274       -19.5997
  49   2.0000      -0.708396       -19.2764
  50   2.0000      -0.693068       -18.8593
  51   2.0000      -0.682417       -18.5695
  52   2.0000      -0.670787       -18.2530
  53   2.0000      -0.645681       -17.5699
  54   2.0000      -0.629969       -17.1423
  55   2.0000      -0.593784       -16.1577
  56   2.0000      -0.587167       -15.9776
  57   2.0000      -0.570332       -15.5195
  58   2.0000      -0.565178       -15.3793
  59   2.0000      -0.557291       -15.1647
  60   2.0000      -0.509178       -13.8554
  61   2.0000      -0.496803       -13.5187
  62   2.0000      -0.481143       -13.0926
  63   2.0000      -0.467197       -12.7131
  64   2.0000      -0.447941       -12.1891
  65   2.0000      -0.446488       -12.1496
  66   2.0000      -0.439690       -11.9646
  67   2.0000      -0.432441       -11.7673
  68   2.0000      -0.427284       -11.6270
  69   2.0000      -0.415372       -11.3029
  70   2.0000      -0.405740       -11.0407
  71   2.0000      -0.392651       -10.6846
  72   2.0000      -0.387307       -10.5391
  73   2.0000      -0.382815       -10.4169
  74   2.0000      -0.379299       -10.3213
  75   2.0000      -0.369126       -10.0444
  76   2.0000      -0.363704        -9.8969
  77   2.0000      -0.357262        -9.7216
  78   2.0000      -0.353567        -9.6210
  79   2.0000      -0.352887        -9.6025
  80   2.0000      -0.345547        -9.4028
  81   2.0000      -0.341645        -9.2966
  82   2.0000      -0.338216        -9.2033
  83   2.0000      -0.336530        -9.1575
  84   2.0000      -0.330786        -9.0011
  85   2.0000      -0.317650        -8.6437
  86   2.0000      -0.307883        -8.3779
  87   2.0000      -0.301311        -8.1991
  88   2.0000      -0.295661        -8.0453
  89   2.0000      -0.291363        -7.9284
  90   2.0000      -0.276495        -7.5238
  91   2.0000      -0.271882        -7.3983
  92   2.0000      -0.263318        -7.1653
  93   2.0000      -0.260371        -7.0851
  94   2.0000      -0.255593        -6.9550
  95   2.0000      -0.236669        -6.4401
  96   2.0000      -0.220409        -5.9976
  97   2.0000      -0.212486        -5.7820
  98   2.0000      -0.200742        -5.4625
  99   2.0000      -0.190619        -5.1870
 100   2.0000      -0.183047        -4.9810
 101   0.0000      -0.037669        -1.0250
 102   0.0000      -0.027283        -0.7424
 103   0.0000      -0.005746        -0.1564
 104   0.0000       0.015526         0.4225
 105   0.0000       0.023187         0.6309

MULLIKEN ATOMIC CHARGES
-----------------------
   0 C :   -0.280650
   1 C :   -0.008605
   2 O :   -0.379266
   3 P :    0.612402
   4 S :   -0.320699
   5 O :   -0.351554
   6 C :   -0.001175
   7 C :   -0.303989
   8 S :   -0.104558
   9 C :   -0.357478
  10 S :   -0.111606
  11 P :    0.591761
  12 S :   -0.298638
  13 O :   -0.339976
  14 C :   -0.009227
  15 C :   -0.290094
  16 O :   -0.383341
  17 C :   -0.013797
  18 C :   -0.283257
  19 H :    0.119601
  20 H :    0.115062
  21 H :    0.110570
  22 H :    0.097759
  23 H :    0.103210
  24 H :    0.123915
  25 H :    0.100858
  26 H :    0.120948
  27 H :    0.108815
  28 H :    0.111835
  29 H :    0.182127
  30 H :    0.212535
  31 H :    0.099881
  32 H :    0.110528
  33 H :    0.117620
  34 H :    0.121761
  35 H :    0.108724
  36 H :    0.108576
  37 H :    0.105780
  38 H :    0.116246
  39 H :    0.123012
  40 H :    0.114383
Sum of atomic charges:    0.0000000

LOEWDIN ATOMIC CHARGES
----------------------
   0 C :   -0.350332
   1 C :   -0.123101
   2 O :   -0.249177
   3 P :    0.568680
   4 S :   -0.313914
   5 O :   -0.228965
   6 C :   -0.117288
   7 C :   -0.366786
   8 S :    0.073500
   9 C :   -0.478240
  10 S :    0.062079
  11 P :    0.560107
  12 S :   -0.291222
  13 O :   -0.223719
  14 C :   -0.116037
  15 C :   -0.360201
  16 O :   -0.250235
  17 C :   -0.120166
  18 C :   -0.350574
  19 H :    0.127759
  20 H :    0.126232
  21 H :    0.130074
  22 H :    0.106934
  23 H :    0.106754
  24 H :    0.110019
  25 H :    0.118111
  26 H :    0.120449
  27 H :    0.129036
  28 H :    0.123584
  29 H :    0.137060
  30 H :    0.127183
  31 H :    0.102366
  32 H :    0.120169
  33 H :    0.127661
  34 H :    0.125012
  35 H :    0.129136
  36 H :    0.111372
  37 H :    0.109067
  38 H :    0.125595
  39 H :    0.129921
  40 H :    0.132097

  Mayer bond orders larger than 0.100000
B(  0-C ,  1-C ) :   1.1593 B(  0-C , 19-H ) :   0.9519 B(  0-C , 20-H ) :   0.9505
B(  0-C , 21-H ) :   0.9423 B(  1-C ,  2-O ) :   0.9080 B(  1-C , 22-H ) :   0.9269
B(  1-C , 23-H ) :   0.9082 B(  2-O ,  3-P ) :   1.0922 B(  3-P ,  4-S ) :   1.6062
B(  3-P ,  5-O ) :   1.1563 B(  3-P ,  8-S ) :   0.9611 B(  4-S ,  8-S ) :   0.1168
B(  5-O ,  6-C ) :   0.8997 B(  6-C ,  7-C ) :   1.1586 B(  6-C , 24-H ) :   0.9128
B(  6-C , 25-H ) :   0.9361 B(  7-C , 26-H ) :   0.9349 B(  7-C , 27-H ) :   0.9388
B(  7-C , 28-H ) :   0.9447 B(  8-S ,  9-C ) :   0.9933 B(  9-C , 10-S ) :   1.0025
B(  9-C , 29-H ) :   0.9120 B(  9-C , 30-H ) :   0.8465 B( 10-S , 11-P ) :   0.9454
B( 10-S , 12-S ) :   0.1054 B( 11-P , 12-S ) :   1.6614 B( 11-P , 13-O ) :   1.1537
B( 11-P , 16-O ) :   1.0766 B( 13-O , 14-C ) :   0.8884 B( 14-C , 15-C ) :   1.1638
B( 14-C , 31-H ) :   0.9105 B( 14-C , 32-H ) :   0.9328 B( 15-C , 33-H ) :   0.9472
B( 15-C , 34-H ) :   0.9408 B( 15-C , 35-H ) :   0.9400 B( 16-O , 17-C ) :   0.9036
B( 17-C , 18-C ) :   1.1596 B( 17-C , 36-H ) :   0.9103 B( 17-C , 37-H ) :   0.9282
B( 18-C , 38-H ) :   0.9508 B( 18-C , 39-H ) :   0.9508 B( 18-C , 40-H ) :   0.9417

Dispersion correction           -0.065665944
FINAL SINGLE POINT ENERGY     -2929.521422494816

DIPOLE MOMENT
-------------

Method             : SCF
Type of density    : Electron Density
Multiplicity       :   1
Irrep              :   0
Energy             : -2929.6406818177333662 Eh
Relativity type    :
Basis              : AO
                                X                 Y                 Z
Electronic contribution:     -0.166216557      -5.844502954     -13.074593532
Nuclear contribution   :     -0.238140003       5.080758781      14.151074352
                        -----------------------------------------
Total Dipole Moment    :     -0.404356560      -0.763744173       1.076480820
                        -----------------------------------------
Magnitude (a.u.)       :      1.380442083
Magnitude (Debye)      :      3.508804926

Rotational constants in cm-1:             0.013745             0.004760             0.004686
Rotational constants in MHz :           412.078999           142.692821           140.493680

                             ****ORCA TERMINATED NORMALLY****
TOTAL RUN TIME: 0 days 0 hours 0 minutes 21 seconds 175 msec
