                         Program Version 6.0.1  -  RELEASE   -
|  1> ! pbe def2-sv(p) def2/J RI DEFGRID1 loosescf d4 GCP(DFT/SV(P)) printgap
|  2> %output
|  3>     printlevel normal
|  4> end
|  5> * xyz 0 1
|  6> C 2.2704151804 -3.8736963396 -0.9579586518
|  7> C 2.53548934 -3.5308420991 0.4995051957
|  8> O 2.7042612642 -2.1079998554 0.66128572
|  9> C 1.6384775847 -1.3627877106 0.8304762436
| 10> O 0.5063839261 -1.8043881491 0.9116789438
| 11> C 1.9783227861 0.1056081281 0.918580259
| 12> C 0.8856311969 0.9370643729 0.264508824
| 13> H 0.6798122728 0.5780492596 -0.7529922193
| 14> C 1.2417607448 2.4147135811 0.1925202816
| 15> O 2.2546773224 2.88200557 0.6552238838
| 16> O 0.3058912723 3.0932994458 -0.4354343522
| 17> C 0.492419858 4.5149372313 -0.6012592937
| 18> C 1.3013775494 4.8134493731 -1.8530802469
| 19> S -0.7077730029 0.8102338419 1.1708612227
| 20> P -1.6769868412 -0.6467446862 -0.0396654477
| 21> S -0.8217107136 -1.1945125499 -1.7242275222
| 22> O -2.299272686 -1.7574635775 0.8963189867
| 23> C -1.9456230305 -3.1423954513 0.9028026242
| 24> O -3.0794586603 0.0865705539 -0.3012376185
| 25> C -3.1324223236 1.2714458021 -1.0988463598
| 26> H 1.3578561465 -3.3889375005 -1.301524652
| 27> H 3.0953153449 -3.5360114331 -1.5787952658
| 28> H 2.1589605354 -4.947727461 -1.0617920164
| 29> H 3.4762347472 -3.9585332411 0.8453822816
| 30> H 1.7081945885 -3.8611145488 1.1335094197
| 31> H 2.9356047106 0.2860391534 0.4290453197
| 32> H 2.0735035085 0.3867012939 1.9701052892
| 33> H -0.5186483341 4.9149115331 -0.6753294137
| 34> H 0.9942127386 4.9041550069 0.2885360975
| 35> H 2.3085005958 4.415994053 -1.7519693464
| 36> H 0.8279886006 4.3634989472 -2.7214054524
| 37> H 1.3589910515 5.8877193431 -1.9931516935
| 38> H -1.29322632 -3.3368700125 1.7516834364
| 39> H -1.4365239397 -3.4123656963 -0.0234896719
| 40> H -2.8799239952 -3.6920104121 0.9964683398
| 41> H -2.540677327 2.0660331022 -0.6404173938
| 42> H -4.1818783343 1.5507417336 -1.1378063914
| 43> H -2.7542783449 1.0638387565 -2.1017645236
| 44> *
| 45>
| 46>                          ****END OF INPUT****

CARTESIAN COORDINATES (ANGSTROEM)
---------------------------------
  C      2.270415   -3.873696   -0.957959
  C      2.535489   -3.530842    0.499505
  O      2.704261   -2.108000    0.661286
  C      1.638478   -1.362788    0.830476
  O      0.506384   -1.804388    0.911679
  C      1.978323    0.105608    0.918580
  C      0.885631    0.937064    0.264509
  H      0.679812    0.578049   -0.752992
  C      1.241761    2.414714    0.192520
  O      2.254677    2.882006    0.655224
  O      0.305891    3.093299   -0.435434
  C      0.492420    4.514937   -0.601259
  C      1.301378    4.813449   -1.853080
  S     -0.707773    0.810234    1.170861
  P     -1.676987   -0.646745   -0.039665
  S     -0.821711   -1.194513   -1.724228
  O     -2.299273   -1.757464    0.896319
  C     -1.945623   -3.142395    0.902803
  O     -3.079459    0.086571   -0.301238
  C     -3.132422    1.271446   -1.098846
  H      1.357856   -3.388938   -1.301525
  H      3.095315   -3.536011   -1.578795
  H      2.158961   -4.947727   -1.061792
  H      3.476235   -3.958533    0.845382
  H      1.708195   -3.861115    1.133509
  H      2.935605    0.286039    0.429045
  H      2.073504    0.386701    1.970105
  H     -0.518648    4.914912   -0.675329
  H      0.994213    4.904155    0.288536
  H      2.308501    4.415994   -1.751969
  H      0.827989    4.363499   -2.721405
  H      1.358991    5.887719   -1.993152
  H     -1.293226   -3.336870    1.751683
  H     -1.436524   -3.412366   -0.023490
  H     -2.879924   -3.692010    0.996468
  H     -2.540677    2.066033   -0.640417
  H     -4.181878    1.550742   -1.137806
  H     -2.754278    1.063839   -2.101765

 Total Charge           Charge          ....    0
 Multiplicity           Mult            ....    1
 Number of Electrons    NEL             ....  174
 Basis Dimension        Dim             ....  316

ORBITAL ENERGIES
----------------

  NO   OCC          E(Eh)            E(eV)
   0   2.0000     -88.033881     -2395.5237
   1   2.0000     -87.981162     -2394.0891
   2   2.0000     -76.420617     -2079.5107
   3   2.0000     -18.812333      -511.9096
   4   2.0000     -18.810496      -511.8596
   5   2.0000     -18.785110      -511.1688
   6   2.0000     -18.774699      -510.8855
   7   2.0000     -18.749652      -510.2040
   8   2.0000     -18.747426      -510.1434
   9   2.0000     -10.020041      -272.6592
  10   2.0000     -10.019797      -272.6525
  11   2.0000      -9.953814      -270.8570
  12   2.0000      -9.953588      -270.8509
  13   2.0000      -9.942838      -270.5584
  14   2.0000      -9.936269      -270.3796
  15   2.0000      -9.931146      -270.2402
  16   2.0000      -9.910244      -269.6714
  17   2.0000      -9.891333      -269.1569
  18   2.0000      -9.886555      -269.0268
  19   2.0000      -7.678356      -208.9387
  20   2.0000      -7.626101      -207.5168
  21   2.0000      -6.416815      -174.6104
  22   2.0000      -5.706455      -155.2805
  23   2.0000      -5.703300      -155.1947
  24   2.0000      -5.694790      -154.9631
  25   2.0000      -5.654954      -153.8791
  26   2.0000      -5.647227      -153.6689
  27   2.0000      -5.645761      -153.6290
  28   2.0000      -4.639121      -126.2369
  29   2.0000      -4.638921      -126.2315
  30   2.0000      -4.637427      -126.1908
  31   2.0000      -1.021480       -27.7959
  32   2.0000      -1.019438       -27.7403
  33   2.0000      -0.976004       -26.5584
  34   2.0000      -0.930882       -25.3306
  35   2.0000      -0.926495       -25.2112
  36   2.0000      -0.925240       -25.1771
  37   2.0000      -0.761760       -20.7285
  38   2.0000      -0.717618       -19.5274
  39   2.0000      -0.706100       -19.2140
  40   2.0000      -0.689622       -18.7656
  41   2.0000      -0.655360       -17.8332
  42   2.0000      -0.629306       -17.1243
  43   2.0000      -0.619520       -16.8580
  44   2.0000      -0.612440       -16.6653
  45   2.0000      -0.601435       -16.3659
  46   2.0000      -0.564580       -15.3630
  47   2.0000      -0.507944       -13.8219
  48   2.0000      -0.505916       -13.7667
  49   2.0000      -0.499738       -13.5986
  50   2.0000      -0.480044       -13.0627
  51   2.0000      -0.464320       -12.6348
  52   2.0000      -0.456021       -12.4090
  53   2.0000      -0.455500       -12.3948
  54   2.0000      -0.437866       -11.9149
  55   2.0000      -0.428286       -11.6543
  56   2.0000      -0.425104       -11.5677
  57   2.0000      -0.416659       -11.3379
  58   2.0000      -0.414421       -11.2770
  59   2.0000      -0.406216       -11.0537
  60   2.0000      -0.399783       -10.8787
  61   2.0000      -0.397131       -10.8065
  62   2.0000      -0.385332       -10.4854
  63   2.0000      -0.383672       -10.4402
  64   2.0000      -0.379927       -10.3383
  65   2.0000      -0.372904       -10.1472
  66   2.0000      -0.367519       -10.0007
  67   2.0000      -0.354428        -9.6445
  68   2.0000      -0.349809        -9.5188
  69   2.0000      -0.341794        -9.3007
  70   2.0000      -0.338133        -9.2011
  71   2.0000      -0.335598        -9.1321
  72   2.0000      -0.325985        -8.8705
  73   2.0000      -0.304635        -8.2895
  74   2.0000      -0.300683        -8.1820
  75   2.0000      -0.296746        -8.0749
  76   2.0000      -0.294612        -8.0168
  77   2.0000      -0.284679        -7.7465
  78   2.0000      -0.271159        -7.3786
  79   2.0000      -0.268798        -7.3144
  80   2.0000      -0.261970        -7.1286
  81   2.0000      -0.254548        -6.9266
  82   2.0000      -0.239621        -6.5204
  83   2.0000      -0.232270        -6.3204
  84   2.0000      -0.208411        -5.6711
  85   2.0000      -0.199686        -5.4337
  86   2.0000      -0.191923        -5.2225
  87   0.0000      -0.046126        -1.2551
  88   0.0000      -0.037361        -1.0166
  89   0.0000      -0.032654        -0.8886
  90   0.0000       0.020731         0.5641
  91   0.0000       0.034211         0.9309

MULLIKEN ATOMIC CHARGES
-----------------------
   0 C :   -0.320172
   1 C :   -0.017644
   2 O :   -0.215094
   3 C :    0.143780
   4 O :   -0.216018
   5 C :   -0.037162
   6 C :   -0.381320
   7 H :    0.156104
   8 C :    0.222577
   9 O :   -0.191858
  10 O :   -0.219975
  11 C :   -0.009773
  12 C :   -0.305811
  13 S :   -0.089531
  14 P :    0.637025
  15 S :   -0.339352
  16 O :   -0.367642
  17 C :   -0.089865
  18 O :   -0.368063
  19 C :   -0.104949
  20 H :    0.146746
  21 H :    0.114459
  22 H :    0.111317
  23 H :    0.106494
  24 H :    0.107644
  25 H :    0.117605
  26 H :    0.129674
  27 H :    0.106742
  28 H :    0.110797
  29 H :    0.127113
  30 H :    0.118532
  31 H :    0.115421
  32 H :    0.120867
  33 H :    0.119784
  34 H :    0.118901
  35 H :    0.112658
  36 H :    0.120114
  37 H :    0.109873
Sum of atomic charges:   -0.0000000

LOEWDIN ATOMIC CHARGES
----------------------
   0 C :   -0.360447
   1 C :   -0.109679
   2 O :   -0.045059
   3 C :    0.047429
   4 O :   -0.171943
   5 C :   -0.247216
   6 C :   -0.273339
   7 H :    0.133469
   8 C :    0.016991
   9 O :   -0.155094
  10 O :   -0.052546
  11 C :   -0.107811
  12 C :   -0.355948
  13 S :    0.107476
  14 P :    0.596432
  15 S :   -0.320479
  16 O :   -0.233464
  17 C :   -0.206397
  18 O :   -0.256792
  19 C :   -0.224704
  20 H :    0.129917
  21 H :    0.125917
  22 H :    0.130337
  23 H :    0.119535
  24 H :    0.117996
  25 H :    0.144400
  26 H :    0.151396
  27 H :    0.119178
  28 H :    0.121443
  29 H :    0.130719
  30 H :    0.126958
  31 H :    0.131953
  32 H :    0.113842
  33 H :    0.109152
  34 H :    0.117048
  35 H :    0.102678
  36 H :    0.119632
  37 H :    0.107021

  Mayer bond orders larger than 0.100000
B(  0-C ,  1-C ) :   1.1749 B(  0-C , 20-H ) :   0.9301 B(  0-C , 21-H ) :   0.9478
B(  0-C , 22-H ) :   0.9424 B(  1-C ,  2-O ) :   0.9055 B(  1-C , 23-H ) :   0.9364
B(  1-C , 24-H ) :   0.9144 B(  2-O ,  3-C ) :   1.2750 B(  3-C ,  4-O ) :   1.9235
B(  3-C ,  5-C ) :   1.0085 B(  5-C ,  6-C ) :   1.0208 B(  5-C , 25-H ) :   0.8937
B(  5-C , 26-H ) :   0.8755 B(  6-C ,  7-H ) :   0.8290 B(  6-C ,  8-C ) :   0.9036
B(  6-C , 13-S ) :   1.0170 B(  7-H , 15-S ) :   0.1180 B(  8-C ,  9-O ) :   2.0567
B(  8-C , 10-O ) :   1.2521 B( 10-O , 11-C ) :   0.9114 B( 11-C , 12-C ) :   1.1770
B( 11-C , 27-H ) :   0.9358 B( 11-C , 28-H ) :   0.9145 B( 12-C , 29-H ) :   0.9460
B( 12-C , 30-H ) :   0.9480 B( 12-C , 31-H ) :   0.9438 B( 13-S , 14-P ) :   0.9283
B( 13-S , 15-S ) :   0.1199 B( 14-P , 15-S ) :   1.5496 B( 14-P , 16-O ) :   1.1514
B( 14-P , 18-O ) :   1.0917 B( 16-O , 17-C ) :   0.9230 B( 17-C , 32-H ) :   0.9527
B( 17-C , 33-H ) :   0.9359 B( 17-C , 34-H ) :   0.9526 B( 18-O , 19-C ) :   0.9452
B( 19-C , 35-H ) :   0.9335 B( 19-C , 36-H ) :   0.9588 B( 19-C , 37-H ) :   0.9391

Dispersion correction           -0.051864013
FINAL SINGLE POINT ENERGY     -1979.018630812464

DIPOLE MOMENT
-------------

Method             : SCF
Type of density    : Electron Density
Multiplicity       :   1
Irrep              :   0
Energy             : -1979.1497261738159068 Eh
Relativity type    :
Basis              : AO
                                X                 Y                 Z
Electronic contribution:     -8.053582215      -0.895450839       7.617825502
Nuclear contribution   :      8.462827598       0.861346375      -7.724115684
                        -----------------------------------------
Total Dipole Moment    :      0.409245384      -0.034104464      -0.106290183
                        -----------------------------------------
Magnitude (a.u.)       :      0.424196301
Magnitude (Debye)      :      1.078221308

Rotational constants in cm-1:             0.012050             0.007673             0.005610
Rotational constants in MHz :           361.260266           230.039144           168.173715

                             ****ORCA TERMINATED NORMALLY****
TOTAL RUN TIME: 0 days 0 hours 0 minutes 32 seconds 888 msec
