                         Program Version 6.0.0  -   RELEASE  -
|  1> ! pbe def2-sv(p) def2/J RI DEFGRID1 loosescf d4 GCP(DFT/SV(P)) printgap
|  2> %output
|  3>     printlevel normal
|  4> end
|  5> * xyz 0 1
|  6> C 4.9998057885 -2.6782552147 -1.2822852995
|  7> C 4.0807327298 -1.4885747183 -1.4738889838
|  8> O 3.0544248582 -1.5547492678 -0.4636832436
|  9> P 2.2143809631 -0.2792860429 -0.0352823207
| 10> S 3.258066225 1.3454369328 0.3238691944
| 11> O 1.3562823867 -0.8450043426 1.1645649802
| 12> C 1.7670519544 -0.6741091481 2.5388847532
| 13> C 3.0047237445 -1.4867317727 2.8523669484
| 14> S 0.7622658349 -0.117784869 -1.5683237094
| 15> C 0.1781942813 1.5312338621 -1.0969062905
| 16> S -0.7785977175 1.5167516787 0.4359272016
| 17> P -2.4689771848 0.4861768451 -0.37150493
| 18> S -2.9479989873 1.000175265 -2.1945628086
| 19> O -3.5744015205 0.7284036969 0.7424918464
| 20> C -4.1945672473 2.0208351637 0.9162128338
| 21> C -5.4154518139 1.8323546298 1.7931922947
| 22> O -2.1955990042 -1.0551640609 -0.2344249032
| 23> C -1.9503089149 -1.7103810493 1.037839423
| 24> C -1.1941259771 -2.9919388427 0.758439087
| 25> H 5.4783839206 -2.630169272 -0.3083135157
| 26> H 4.4296771733 -3.6000859638 -1.3502134016
| 27> H 5.7607977353 -2.6678485793 -2.0556115769
| 28> H 3.5961793452 -1.5108339531 -2.4537223483
| 29> H 4.6201546095 -0.5416793112 -1.3633196142
| 30> H 1.9437717119 0.3911379535 2.7180557781
| 31> H 0.9041757747 -1.0089798106 3.1156954037
| 32> H 2.8448641122 -2.5305268494 2.596198655
| 33> H 3.8479959301 -1.1074075619 2.276273463
| 34> H 3.233957544 -1.4023691434 3.9099687402
| 35> H -0.4534384581 1.8874758931 -1.9111625818
| 36> H 1.0334090386 2.1878087083 -0.934387955
| 37> H -3.4648099336 2.6889682002 1.3813274328
| 38> H -4.461966884 2.4127049195 -0.0703203841
| 39> H -6.1149174846 1.1512371954 1.3168507469
| 40> H -5.1224737244 1.4224021879 2.7552088638
| 41> H -5.8968308737 2.7930426527 1.9430184476
| 42> H -1.3742118917 -1.0316861076 1.6735280287
| 43> H -2.9204302402 -1.9037425224 1.4987969443
| 44> H -0.222348877 -2.7680161911 0.3250183039
| 45> H -1.0560122365 -3.5347582272 1.6879684345
| 46> H -1.754420646 -3.6067794178 0.0599436831
| 47> *
| 48>
| 49>                          ****END OF INPUT****

CARTESIAN COORDINATES (ANGSTROEM)
---------------------------------
  C      4.999806   -2.678255   -1.282285
  C      4.080733   -1.488575   -1.473889
  O      3.054425   -1.554749   -0.463683
  P      2.214381   -0.279286   -0.035282
  S      3.258066    1.345437    0.323869
  O      1.356282   -0.845004    1.164565
  C      1.767052   -0.674109    2.538885
  C      3.004724   -1.486732    2.852367
  S      0.762266   -0.117785   -1.568324
  C      0.178194    1.531234   -1.096906
  S     -0.778598    1.516752    0.435927
  P     -2.468977    0.486177   -0.371505
  S     -2.947999    1.000175   -2.194563
  O     -3.574402    0.728404    0.742492
  C     -4.194567    2.020835    0.916213
  C     -5.415452    1.832355    1.793192
  O     -2.195599   -1.055164   -0.234425
  C     -1.950309   -1.710381    1.037839
  C     -1.194126   -2.991939    0.758439
  H      5.478384   -2.630169   -0.308314
  H      4.429677   -3.600086   -1.350213
  H      5.760798   -2.667849   -2.055612
  H      3.596179   -1.510834   -2.453722
  H      4.620155   -0.541679   -1.363320
  H      1.943772    0.391138    2.718056
  H      0.904176   -1.008980    3.115695
  H      2.844864   -2.530527    2.596199
  H      3.847996   -1.107408    2.276273
  H      3.233958   -1.402369    3.909969
  H     -0.453438    1.887476   -1.911163
  H      1.033409    2.187809   -0.934388
  H     -3.464810    2.688968    1.381327
  H     -4.461967    2.412705   -0.070320
  H     -6.114917    1.151237    1.316851
  H     -5.122474    1.422402    2.755209
  H     -5.896831    2.793043    1.943018
  H     -1.374212   -1.031686    1.673528
  H     -2.920430   -1.903743    1.498797
  H     -0.222349   -2.768016    0.325018
  H     -1.056012   -3.534758    1.687968
  H     -1.754421   -3.606779    0.059944

 Total Charge           Charge          ....    0
 Multiplicity           Mult            ....    1
 Number of Electrons    NEL             ....  202
 Basis Dimension        Dim             ....  334

ORBITAL ENERGIES
----------------

  NO   OCC          E(Eh)            E(eV)
   0   2.0000     -88.041179     -2395.7223
   1   2.0000     -88.039133     -2395.6666
   2   2.0000     -87.991902     -2394.3814
   3   2.0000     -87.982654     -2394.1297
   4   2.0000     -76.429854     -2079.7621
   5   2.0000     -76.423518     -2079.5896
   6   2.0000     -18.799054      -511.5483
   7   2.0000     -18.797573      -511.5080
   8   2.0000     -18.795117      -511.4411
   9   2.0000     -18.790098      -511.3046
  10   2.0000      -9.957420      -270.9552
  11   2.0000      -9.957017      -270.9442
  12   2.0000      -9.954578      -270.8778
  13   2.0000      -9.952662      -270.8257
  14   2.0000      -9.949768      -270.7469
  15   2.0000      -9.891948      -269.1736
  16   2.0000      -9.890189      -269.1257
  17   2.0000      -9.888895      -269.0905
  18   2.0000      -9.882233      -268.9092
  19   2.0000      -7.686450      -209.1589
  20   2.0000      -7.684091      -209.0947
  21   2.0000      -7.636809      -207.8081
  22   2.0000      -7.628040      -207.5695
  23   2.0000      -6.427608      -174.9041
  24   2.0000      -6.421212      -174.7301
  25   2.0000      -5.714247      -155.4926
  26   2.0000      -5.711752      -155.4247
  27   2.0000      -5.711133      -155.4078
  28   2.0000      -5.708661      -155.3406
  29   2.0000      -5.703313      -155.1950
  30   2.0000      -5.701264      -155.1393
  31   2.0000      -5.665609      -154.1691
  32   2.0000      -5.657441      -153.9468
  33   2.0000      -5.657095      -153.9374
  34   2.0000      -5.657031      -153.9356
  35   2.0000      -5.648585      -153.7058
  36   2.0000      -5.648151      -153.6940
  37   2.0000      -4.650058      -126.5345
  38   2.0000      -4.649369      -126.5158
  39   2.0000      -4.648097      -126.4811
  40   2.0000      -4.644107      -126.3726
  41   2.0000      -4.642973      -126.3417
  42   2.0000      -4.641352      -126.2976
  43   2.0000      -0.993656       -27.0388
  44   2.0000      -0.988535       -26.8994
  45   2.0000      -0.952752       -25.9257
  46   2.0000      -0.944492       -25.7009
  47   2.0000      -0.763755       -20.7828
  48   2.0000      -0.724629       -19.7182
  49   2.0000      -0.713140       -19.4055
  50   2.0000      -0.693705       -18.8767
  51   2.0000      -0.691323       -18.8119
  52   2.0000      -0.674644       -18.3580
  53   2.0000      -0.648969       -17.6594
  54   2.0000      -0.636720       -17.3260
  55   2.0000      -0.603150       -16.4126
  56   2.0000      -0.584032       -15.8923
  57   2.0000      -0.570617       -15.5273
  58   2.0000      -0.568253       -15.4629
  59   2.0000      -0.563972       -15.3465
  60   2.0000      -0.513369       -13.9695
  61   2.0000      -0.505156       -13.7460
  62   2.0000      -0.483565       -13.1585
  63   2.0000      -0.482347       -13.1253
  64   2.0000      -0.460440       -12.5292
  65   2.0000      -0.449039       -12.2190
  66   2.0000      -0.441330       -12.0092
  67   2.0000      -0.439439       -11.9578
  68   2.0000      -0.430385       -11.7114
  69   2.0000      -0.415693       -11.3116
  70   2.0000      -0.407672       -11.0933
  71   2.0000      -0.399797       -10.8790
  72   2.0000      -0.390055       -10.6139
  73   2.0000      -0.384599       -10.4655
  74   2.0000      -0.376836       -10.2542
  75   2.0000      -0.375805       -10.2262
  76   2.0000      -0.366440        -9.9713
  77   2.0000      -0.361952        -9.8492
  78   2.0000      -0.359359        -9.7786
  79   2.0000      -0.352837        -9.6012
  80   2.0000      -0.349554        -9.5119
  81   2.0000      -0.348743        -9.4898
  82   2.0000      -0.347607        -9.4589
  83   2.0000      -0.337475        -9.1832
  84   2.0000      -0.335721        -9.1354
  85   2.0000      -0.321719        -8.7544
  86   2.0000      -0.312011        -8.4903
  87   2.0000      -0.304660        -8.2902
  88   2.0000      -0.302494        -8.2313
  89   2.0000      -0.298224        -8.1151
  90   2.0000      -0.291391        -7.9292
  91   2.0000      -0.280730        -7.6391
  92   2.0000      -0.271436        -7.3861
  93   2.0000      -0.266000        -7.2382
  94   2.0000      -0.256955        -6.9921
  95   2.0000      -0.235208        -6.4003
  96   2.0000      -0.220205        -5.9921
  97   2.0000      -0.214264        -5.8304
  98   2.0000      -0.204694        -5.5700
  99   2.0000      -0.202003        -5.4968
 100   2.0000      -0.197358        -5.3704
 101   0.0000      -0.043972        -1.1966
 102   0.0000      -0.021918        -0.5964
 103   0.0000       0.000255         0.0069
 104   0.0000       0.003023         0.0823
 105   0.0000       0.013774         0.3748

MULLIKEN ATOMIC CHARGES
-----------------------
   0 C :   -0.282665
   1 C :   -0.014014
   2 O :   -0.378822
   3 P :    0.616150
   4 S :   -0.334598
   5 O :   -0.360315
   6 C :   -0.007469
   7 C :   -0.306139
   8 S :   -0.065635
   9 C :   -0.379119
  10 S :   -0.103839
  11 P :    0.603844
  12 S :   -0.314738
  13 O :   -0.389533
  14 C :   -0.011424
  15 C :   -0.279856
  16 O :   -0.351414
  17 C :   -0.015116
  18 C :   -0.284656
  19 H :    0.119241
  20 H :    0.118597
  21 H :    0.114439
  22 H :    0.107628
  23 H :    0.108573
  24 H :    0.115660
  25 H :    0.105306
  26 H :    0.116803
  27 H :    0.125013
  28 H :    0.113508
  29 H :    0.196571
  30 H :    0.193116
  31 H :    0.104689
  32 H :    0.108005
  33 H :    0.121768
  34 H :    0.113530
  35 H :    0.113610
  36 H :    0.109230
  37 H :    0.105515
  38 H :    0.129522
  39 H :    0.101085
  40 H :    0.117950
Sum of atomic charges:    0.0000000

LOEWDIN ATOMIC CHARGES
----------------------
   0 C :   -0.350156
   1 C :   -0.119333
   2 O :   -0.245976
   3 P :    0.571038
   4 S :   -0.322600
   5 O :   -0.231869
   6 C :   -0.116778
   7 C :   -0.364914
   8 S :    0.091055
   9 C :   -0.488416
  10 S :    0.061348
  11 P :    0.566757
  12 S :   -0.311283
  13 O :   -0.252958
  14 C :   -0.118857
  15 C :   -0.350249
  16 O :   -0.231066
  17 C :   -0.112066
  18 C :   -0.353775
  19 H :    0.127698
  20 H :    0.127829
  21 H :    0.132126
  22 H :    0.112947
  23 H :    0.109412
  24 H :    0.112725
  25 H :    0.115233
  26 H :    0.126353
  27 H :    0.122597
  28 H :    0.131354
  29 H :    0.129004
  30 H :    0.127850
  31 H :    0.108915
  32 H :    0.111306
  33 H :    0.129581
  34 H :    0.125508
  35 H :    0.131688
  36 H :    0.104435
  37 H :    0.113831
  38 H :    0.125064
  39 H :    0.126076
  40 H :    0.128568

  Mayer bond orders larger than 0.100000
B(  0-C ,  1-C ) :   1.1609 B(  0-C , 19-H ) :   0.9515 B(  0-C , 20-H ) :   0.9503
B(  0-C , 21-H ) :   0.9416 B(  1-C ,  2-O ) :   0.9011 B(  1-C , 22-H ) :   0.9298
B(  1-C , 23-H ) :   0.9099 B(  2-O ,  3-P ) :   1.1073 B(  3-P ,  4-S ) :   1.5965
B(  3-P ,  5-O ) :   1.1150 B(  3-P ,  8-S ) :   0.9711 B(  4-S ,  8-S ) :   0.1089
B(  5-O ,  6-C ) :   0.8990 B(  6-C ,  7-C ) :   1.1659 B(  6-C , 24-H ) :   0.9156
B(  6-C , 25-H ) :   0.9297 B(  7-C , 26-H ) :   0.9464 B(  7-C , 27-H ) :   0.9334
B(  7-C , 28-H ) :   0.9383 B(  8-S ,  9-C ) :   1.0038 B(  9-C , 10-S ) :   1.0060
B(  9-C , 29-H ) :   0.8705 B(  9-C , 30-H ) :   0.8727 B( 10-S , 11-P ) :   0.9445
B( 10-S , 12-S ) :   0.1095 B( 11-P , 12-S ) :   1.6542 B( 11-P , 13-O ) :   1.0828
B( 11-P , 16-O ) :   1.1498 B( 13-O , 14-C ) :   0.9035 B( 14-C , 15-C ) :   1.1599
B( 14-C , 31-H ) :   0.9278 B( 14-C , 32-H ) :   0.9127 B( 15-C , 33-H ) :   0.9507
B( 15-C , 34-H ) :   0.9511 B( 15-C , 35-H ) :   0.9418 B( 16-O , 17-C ) :   0.8847
B( 17-C , 18-C ) :   1.1688 B( 17-C , 36-H ) :   0.9089 B( 17-C , 37-H ) :   0.9317
B( 18-C , 38-H ) :   0.9386 B( 18-C , 39-H ) :   0.9406 B( 18-C , 40-H ) :   0.9476

Dispersion correction           -0.063698800
FINAL SINGLE POINT ENERGY     -2929.526517717309

DIPOLE MOMENT
-------------

Method             : SCF
Type of density    : Electron Density
Multiplicity       :   1
Irrep              :   0
Energy             : -2929.6474658184752116 Eh
Relativity type    :
Basis              : AO
                                X                 Y                 Z
Electronic contribution:     -4.447946067      13.518932257     -14.805745170
Nuclear contribution   :      4.750394611     -14.321873610      16.239722439
                        -----------------------------------------
Total Dipole Moment    :      0.302448544      -0.802941353       1.433977269
                        -----------------------------------------
Magnitude (a.u.)       :      1.671071736
Magnitude (Debye)      :      4.247526796

Rotational constants in cm-1:             0.013530             0.004461             0.004297
Rotational constants in MHz :           405.604206           133.743753           128.810152

                             ****ORCA TERMINATED NORMALLY****
TOTAL RUN TIME: 0 days 0 hours 0 minutes 21 seconds 0 msec
