                         Program Version 6.0.1  -  RELEASE   -
|  1> ! r2scan-3c def2/J RI DEFGRID2 scfconv6 printgap
|  2> %output
|  3>     printlevel normal
|  4> end
|  5> * xyz 0 1
|  6> C 4.3125644909 -3.8063555912 -1.299003985
|  7> C 4.0564448138 -2.5248031433 -0.528614252
|  8> O 3.227375587 -1.6667381221 -1.339177928
|  9> C 2.3664947917 -0.869848902 -0.7553555334
| 10> O 2.2070217446 -0.7802459736 0.4468159331
| 11> C 1.5858498987 -0.0436593575 -1.7558572405
| 12> C 0.326709293 0.4927774402 -1.0922023035
| 13> H -0.1642376634 1.2428030724 -1.7194795769
| 14> C 0.6263308194 1.1305387368 0.2532085642
| 15> O -0.0478839665 0.9075757408 1.240592265
| 16> O 1.5890437112 2.009893458 0.171962855
| 17> C 1.9729644841 2.7241500216 1.3662843837
| 18> C 3.1631893045 2.0472396785 2.0252239973
| 19> S -0.8678755979 -0.8564252659 -0.7993230218
| 20> P -2.3444452956 0.2323040508 0.2651500552
| 21> S -2.5033159784 2.1443189323 -0.1236742366
| 22> O -3.6524917834 -0.5811822485 -0.2124447406
| 23> C -4.134932006 -0.5005075467 -1.555915192
| 24> O -2.4092495176 -0.1499553134 1.797969705
| 25> C -2.1117376576 -1.4720716211 2.2802426056
| 26> H 4.7844112323 -3.5777481165 -2.2496559329
| 27> H 4.9672210635 -4.4479219707 -0.7186147754
| 28> H 3.3778423179 -4.3265738535 -1.4868523704
| 29> H 4.9882618598 -1.9878562798 -0.330541168
| 30> H 3.5435954882 -2.7106082421 0.4196969484
| 31> H 1.3443795336 -0.6519322024 -2.6265228075
| 32> H 2.2139679659 0.792614157 -2.0700774095
| 33> H 2.2207897905 3.7277421823 1.0187332693
| 34> H 1.1128473765 2.7578287994 2.0407507046
| 35> H 4.0206217898 2.0627523218 1.358646693
| 36> H 3.4104628664 2.5689696174 2.9436034387
| 37> H 2.9166752321 1.0126430868 2.2552438176
| 38> H -5.1297251969 -0.9379647737 -1.5367650363
| 39> H -3.4778366646 -1.0621626249 -2.2198121175
| 40> H -4.1833942705 0.5429714949 -1.8723154413
| 41> H -2.4214526112 -1.4692987303 3.3220305087
| 42> H -1.0388783183 -1.6513179192 2.2015431072
| 43> H -2.6662817339 -2.2167056238 1.7108299348
| 44> *
| 45>
| 46>                          ****END OF INPUT****

CARTESIAN COORDINATES (ANGSTROEM)
---------------------------------
  C      4.312564   -3.806356   -1.299004
  C      4.056445   -2.524803   -0.528614
  O      3.227376   -1.666738   -1.339178
  C      2.366495   -0.869849   -0.755356
  O      2.207022   -0.780246    0.446816
  C      1.585850   -0.043659   -1.755857
  C      0.326709    0.492777   -1.092202
  H     -0.164238    1.242803   -1.719480
  C      0.626331    1.130539    0.253209
  O     -0.047884    0.907576    1.240592
  O      1.589044    2.009893    0.171963
  C      1.972964    2.724150    1.366284
  C      3.163189    2.047240    2.025224
  S     -0.867876   -0.856425   -0.799323
  P     -2.344445    0.232304    0.265150
  S     -2.503316    2.144319   -0.123674
  O     -3.652492   -0.581182   -0.212445
  C     -4.134932   -0.500508   -1.555915
  O     -2.409250   -0.149955    1.797970
  C     -2.111738   -1.472072    2.280243
  H      4.784411   -3.577748   -2.249656
  H      4.967221   -4.447922   -0.718615
  H      3.377842   -4.326574   -1.486852
  H      4.988262   -1.987856   -0.330541
  H      3.543595   -2.710608    0.419697
  H      1.344380   -0.651932   -2.626523
  H      2.213968    0.792614   -2.070077
  H      2.220790    3.727742    1.018733
  H      1.112847    2.757829    2.040751
  H      4.020622    2.062752    1.358647
  H      3.410463    2.568970    2.943603
  H      2.916675    1.012643    2.255244
  H     -5.129725   -0.937965   -1.536765
  H     -3.477837   -1.062163   -2.219812
  H     -4.183394    0.542971   -1.872315
  H     -2.421453   -1.469299    3.322031
  H     -1.038878   -1.651318    2.201543
  H     -2.666282   -2.216706    1.710830

 Total Charge           Charge          ....    0
 Multiplicity           Mult            ....    1
 Number of Electrons    NEL             ....  174
 Basis Dimension        Dim             ....  510

ORBITAL ENERGIES
----------------

  NO   OCC          E(Eh)            E(eV)
   0   2.0000     -88.566792     -2410.0249
   1   2.0000     -88.499704     -2408.1994
   2   2.0000     -76.900667     -2092.5735
   3   2.0000     -19.017157      -517.4831
   4   2.0000     -19.002811      -517.0928
   5   2.0000     -18.973960      -516.3077
   6   2.0000     -18.970443      -516.2120
   7   2.0000     -18.947913      -515.5989
   8   2.0000     -18.927819      -515.0521
   9   2.0000     -10.173509      -276.8352
  10   2.0000     -10.160226      -276.4738
  11   2.0000     -10.106033      -274.9991
  12   2.0000     -10.093776      -274.6656
  13   2.0000     -10.090494      -274.5763
  14   2.0000     -10.082071      -274.3471
  15   2.0000     -10.075501      -274.1683
  16   2.0000     -10.071629      -274.0630
  17   2.0000     -10.042874      -273.2805
  18   2.0000     -10.025602      -272.8105
  19   2.0000      -7.861209      -213.9144
  20   2.0000      -7.794719      -212.1051
  21   2.0000      -6.578110      -178.9995
  22   2.0000      -5.808084      -158.0460
  23   2.0000      -5.805142      -157.9659
  24   2.0000      -5.798242      -157.7782
  25   2.0000      -5.742645      -156.2653
  26   2.0000      -5.735201      -156.0628
  27   2.0000      -5.734192      -156.0353
  28   2.0000      -4.723706      -128.5386
  29   2.0000      -4.723464      -128.5320
  30   2.0000      -4.721555      -128.4800
  31   2.0000      -1.094569       -29.7847
  32   2.0000      -1.080044       -29.3895
  33   2.0000      -1.031342       -28.0642
  34   2.0000      -0.997393       -27.1404
  35   2.0000      -0.988815       -26.9070
  36   2.0000      -0.980852       -26.6903
  37   2.0000      -0.812014       -22.0960
  38   2.0000      -0.765832       -20.8394
  39   2.0000      -0.743259       -20.2251
  40   2.0000      -0.725088       -19.7307
  41   2.0000      -0.695306       -18.9202
  42   2.0000      -0.659143       -17.9362
  43   2.0000      -0.655287       -17.8313
  44   2.0000      -0.639836       -17.4108
  45   2.0000      -0.630062       -17.1449
  46   2.0000      -0.594985       -16.1904
  47   2.0000      -0.549879       -14.9630
  48   2.0000      -0.530631       -14.4392
  49   2.0000      -0.519404       -14.1337
  50   2.0000      -0.508064       -13.8251
  51   2.0000      -0.487697       -13.2709
  52   2.0000      -0.476554       -12.9677
  53   2.0000      -0.473270       -12.8783
  54   2.0000      -0.460667       -12.5354
  55   2.0000      -0.450949       -12.2709
  56   2.0000      -0.442475       -12.0404
  57   2.0000      -0.441211       -12.0060
  58   2.0000      -0.431927       -11.7533
  59   2.0000      -0.425169       -11.5694
  60   2.0000      -0.416830       -11.3425
  61   2.0000      -0.407625       -11.0920
  62   2.0000      -0.406253       -11.0547
  63   2.0000      -0.400655       -10.9024
  64   2.0000      -0.389918       -10.6102
  65   2.0000      -0.388284       -10.5657
  66   2.0000      -0.382514       -10.4087
  67   2.0000      -0.372047       -10.1239
  68   2.0000      -0.364098        -9.9076
  69   2.0000      -0.354105        -9.6357
  70   2.0000      -0.347265        -9.4496
  71   2.0000      -0.343679        -9.3520
  72   2.0000      -0.339725        -9.2444
  73   2.0000      -0.326778        -8.8921
  74   2.0000      -0.321016        -8.7353
  75   2.0000      -0.309398        -8.4192
  76   2.0000      -0.301468        -8.2034
  77   2.0000      -0.298396        -8.1198
  78   2.0000      -0.290762        -7.9120
  79   2.0000      -0.276657        -7.5282
  80   2.0000      -0.270903        -7.3716
  81   2.0000      -0.260441        -7.0870
  82   2.0000      -0.256200        -6.9716
  83   2.0000      -0.242108        -6.5881
  84   2.0000      -0.228157        -6.2085
  85   2.0000      -0.202176        -5.5015
  86   2.0000      -0.193500        -5.2654
  87   0.0000      -0.040029        -1.0892
  88   0.0000      -0.026921        -0.7325
  89   0.0000      -0.013747        -0.3741
  90   0.0000       0.012268         0.3338
  91   0.0000       0.034998         0.9523

MULLIKEN ATOMIC CHARGES
-----------------------
   0 C :   -0.440411
   1 C :   -0.161483
   2 O :   -0.146984
   3 C :    0.390326
   4 O :   -0.387225
   5 C :   -0.428618
   6 C :   -0.021863
   7 H :    0.237215
   8 C :    0.314268
   9 O :   -0.397278
  10 O :   -0.133489
  11 C :   -0.155891
  12 C :   -0.475233
  13 S :   -0.213486
  14 P :    0.802380
  15 S :   -0.466890
  16 O :   -0.367641
  17 C :   -0.302435
  18 O :   -0.296457
  19 C :   -0.301215
  20 H :    0.154653
  21 H :    0.150475
  22 H :    0.155139
  23 H :    0.147773
  24 H :    0.181167
  25 H :    0.188140
  26 H :    0.197461
  27 H :    0.149003
  28 H :    0.187802
  29 H :    0.145031
  30 H :    0.146768
  31 H :    0.186771
  32 H :    0.147703
  33 H :    0.151314
  34 H :    0.175112
  35 H :    0.152205
  36 H :    0.178671
  37 H :    0.157223
Sum of atomic charges:   -0.0000000

LOEWDIN ATOMIC CHARGES
----------------------
   0 C :   -0.383490
   1 C :    0.036896
   2 O :   -0.574422
   3 C :    0.368498
   4 O :   -0.432376
   5 C :   -0.206991
   6 C :   -0.198854
   7 H :    0.205513
   8 C :    0.351826
   9 O :   -0.455148
  10 O :   -0.569641
  11 C :    0.037369
  12 C :   -0.389149
  13 S :    0.208629
  14 P :    0.408779
  15 S :   -0.095174
  16 O :   -0.695140
  17 C :   -0.069586
  18 O :   -0.638561
  19 C :   -0.052808
  20 H :    0.160082
  21 H :    0.161167
  22 H :    0.160285
  23 H :    0.176731
  24 H :    0.192131
  25 H :    0.190096
  26 H :    0.201145
  27 H :    0.178244
  28 H :    0.196425
  29 H :    0.154867
  30 H :    0.158420
  31 H :    0.174060
  32 H :    0.174378
  33 H :    0.165012
  34 H :    0.175808
  35 H :    0.179506
  36 H :    0.177261
  37 H :    0.168212

  Mayer bond orders larger than 0.100000
B(  0-C ,  1-C ) :   0.9556 B(  0-C , 20-H ) :   0.9687 B(  0-C , 21-H ) :   0.9666
B(  0-C , 22-H ) :   0.9727 B(  1-C ,  2-O ) :   0.7588 B(  1-C , 23-H ) :   0.9433
B(  1-C , 24-H ) :   0.9648 B(  2-O ,  3-C ) :   1.1717 B(  3-C ,  4-O ) :   1.7445
B(  3-C ,  5-C ) :   0.9746 B(  4-O ,  8-C ) :   0.1486 B(  5-C ,  6-C ) :   0.8871
B(  5-C , 10-O ) :   0.1249 B(  5-C , 25-H ) :   0.9683 B(  5-C , 26-H ) :   0.9276
B(  6-C ,  7-H ) :   0.9109 B(  6-C ,  8-C ) :   0.8861 B(  6-C , 13-S ) :   0.9333
B(  8-C ,  9-O ) :   1.7633 B(  8-C , 10-O ) :   1.1645 B(  9-O , 14-P ) :   0.1135
B( 10-O , 11-C ) :   0.7822 B( 11-C , 12-C ) :   0.9309 B( 11-C , 27-H ) :   0.9604
B( 11-C , 28-H ) :   0.9720 B( 12-C , 29-H ) :   0.9713 B( 12-C , 30-H ) :   0.9659
B( 12-C , 31-H ) :   0.9674 B( 13-S , 14-P ) :   0.9688 B( 14-P , 15-S ) :   1.7801
B( 14-P , 16-O ) :   1.0025 B( 14-P , 18-O ) :   1.2039 B( 16-O , 17-C ) :   0.8408
B( 17-C , 32-H ) :   0.9699 B( 17-C , 33-H ) :   0.9578 B( 17-C , 34-H ) :   0.9588
B( 18-O , 19-C ) :   0.7962 B( 19-C , 35-H ) :   0.9656 B( 19-C , 36-H ) :   0.9563
B( 19-C , 37-H ) :   0.9652

Dispersion correction           -0.017073397
FINAL SINGLE POINT ENERGY     -1981.445071810202

DIPOLE MOMENT
-------------

Method             : SCF
Type of density    : Electron Density
Multiplicity       :   1
Irrep              :   0
Energy             : -1981.4660074805078693 Eh
Relativity type    :
Basis              : AO
                                X                 Y                 Z
Electronic contribution:    -18.738124842       8.565845817      -0.950063564
Nuclear contribution   :     20.799773328      -9.941674677       0.234202055
                        -----------------------------------------
Total Dipole Moment    :      2.061648485      -1.375828860      -0.715861509
                        -----------------------------------------
Magnitude (a.u.)       :      2.579875429
Magnitude (Debye)      :      6.557522206

Rotational constants in cm-1:             0.013828             0.006492             0.005381
Rotational constants in MHz :           414.542789           194.633909           161.316640

                             ****ORCA TERMINATED NORMALLY****
TOTAL RUN TIME: 0 days 0 hours 1 minutes 17 seconds 479 msec
