                         Program Version 6.0.1  -  RELEASE   -
|  1> ! r2scan-3c def2/J RI DEFGRID2 scfconv6 printgap
|  2> %output
|  3>     printlevel normal
|  4> end
|  5> %cpcm
|  6>     smd true
|  7>     smdsolvent "water"
|  8> end
|  9> * xyz 0 1
| 10> C 4.3125644909 -3.8063555912 -1.299003985
| 11> C 4.0564448138 -2.5248031433 -0.528614252
| 12> O 3.227375587 -1.6667381221 -1.339177928
| 13> C 2.3664947917 -0.869848902 -0.7553555334
| 14> O 2.2070217446 -0.7802459736 0.4468159331
| 15> C 1.5858498987 -0.0436593575 -1.7558572405
| 16> C 0.326709293 0.4927774402 -1.0922023035
| 17> H -0.1642376634 1.2428030724 -1.7194795769
| 18> C 0.6263308194 1.1305387368 0.2532085642
| 19> O -0.0478839665 0.9075757408 1.240592265
| 20> O 1.5890437112 2.009893458 0.171962855
| 21> C 1.9729644841 2.7241500216 1.3662843837
| 22> C 3.1631893045 2.0472396785 2.0252239973
| 23> S -0.8678755979 -0.8564252659 -0.7993230218
| 24> P -2.3444452956 0.2323040508 0.2651500552
| 25> S -2.5033159784 2.1443189323 -0.1236742366
| 26> O -3.6524917834 -0.5811822485 -0.2124447406
| 27> C -4.134932006 -0.5005075467 -1.555915192
| 28> O -2.4092495176 -0.1499553134 1.797969705
| 29> C -2.1117376576 -1.4720716211 2.2802426056
| 30> H 4.7844112323 -3.5777481165 -2.2496559329
| 31> H 4.9672210635 -4.4479219707 -0.7186147754
| 32> H 3.3778423179 -4.3265738535 -1.4868523704
| 33> H 4.9882618598 -1.9878562798 -0.330541168
| 34> H 3.5435954882 -2.7106082421 0.4196969484
| 35> H 1.3443795336 -0.6519322024 -2.6265228075
| 36> H 2.2139679659 0.792614157 -2.0700774095
| 37> H 2.2207897905 3.7277421823 1.0187332693
| 38> H 1.1128473765 2.7578287994 2.0407507046
| 39> H 4.0206217898 2.0627523218 1.358646693
| 40> H 3.4104628664 2.5689696174 2.9436034387
| 41> H 2.9166752321 1.0126430868 2.2552438176
| 42> H -5.1297251969 -0.9379647737 -1.5367650363
| 43> H -3.4778366646 -1.0621626249 -2.2198121175
| 44> H -4.1833942705 0.5429714949 -1.8723154413
| 45> H -2.4214526112 -1.4692987303 3.3220305087
| 46> H -1.0388783183 -1.6513179192 2.2015431072
| 47> H -2.6662817339 -2.2167056238 1.7108299348
| 48> *
| 49>
| 50>                          ****END OF INPUT****

CARTESIAN COORDINATES (ANGSTROEM)
---------------------------------
  C      4.312564   -3.806356   -1.299004
  C      4.056445   -2.524803   -0.528614
  O      3.227376   -1.666738   -1.339178
  C      2.366495   -0.869849   -0.755356
  O      2.207022   -0.780246    0.446816
  C      1.585850   -0.043659   -1.755857
  C      0.326709    0.492777   -1.092202
  H     -0.164238    1.242803   -1.719480
  C      0.626331    1.130539    0.253209
  O     -0.047884    0.907576    1.240592
  O      1.589044    2.009893    0.171963
  C      1.972964    2.724150    1.366284
  C      3.163189    2.047240    2.025224
  S     -0.867876   -0.856425   -0.799323
  P     -2.344445    0.232304    0.265150
  S     -2.503316    2.144319   -0.123674
  O     -3.652492   -0.581182   -0.212445
  C     -4.134932   -0.500508   -1.555915
  O     -2.409250   -0.149955    1.797970
  C     -2.111738   -1.472072    2.280243
  H      4.784411   -3.577748   -2.249656
  H      4.967221   -4.447922   -0.718615
  H      3.377842   -4.326574   -1.486852
  H      4.988262   -1.987856   -0.330541
  H      3.543595   -2.710608    0.419697
  H      1.344380   -0.651932   -2.626523
  H      2.213968    0.792614   -2.070077
  H      2.220790    3.727742    1.018733
  H      1.112847    2.757829    2.040751
  H      4.020622    2.062752    1.358647
  H      3.410463    2.568970    2.943603
  H      2.916675    1.012643    2.255244
  H     -5.129725   -0.937965   -1.536765
  H     -3.477837   -1.062163   -2.219812
  H     -4.183394    0.542971   -1.872315
  H     -2.421453   -1.469299    3.322031
  H     -1.038878   -1.651318    2.201543
  H     -2.666282   -2.216706    1.710830

 Total Charge           Charge          ....    0
 Multiplicity           Mult            ....    1
 Number of Electrons    NEL             ....  174
 Basis Dimension        Dim             ....  510

ORBITAL ENERGIES
----------------

  NO   OCC          E(Eh)            E(eV)
   0   2.0000     -88.576797     -2410.2972
   1   2.0000     -88.521907     -2408.8035
   2   2.0000     -76.918419     -2093.0566
   3   2.0000     -19.011358      -517.3253
   4   2.0000     -19.010982      -517.3151
   5   2.0000     -18.992465      -516.8112
   6   2.0000     -18.985268      -516.6154
   7   2.0000     -18.952120      -515.7134
   8   2.0000     -18.946361      -515.5567
   9   2.0000     -10.174470      -276.8614
  10   2.0000     -10.173750      -276.8418
  11   2.0000     -10.096219      -274.7321
  12   2.0000     -10.087226      -274.4874
  13   2.0000     -10.086954      -274.4800
  14   2.0000     -10.083791      -274.3939
  15   2.0000     -10.076989      -274.2088
  16   2.0000     -10.061550      -273.7887
  17   2.0000     -10.019968      -272.6572
  18   2.0000     -10.019122      -272.6342
  19   2.0000      -7.871124      -214.1842
  20   2.0000      -7.817288      -212.7192
  21   2.0000      -6.596038      -179.4873
  22   2.0000      -5.818007      -158.3160
  23   2.0000      -5.815070      -158.2361
  24   2.0000      -5.808149      -158.0478
  25   2.0000      -5.765069      -156.8755
  26   2.0000      -5.757780      -156.6772
  27   2.0000      -5.756821      -156.6511
  28   2.0000      -4.741644      -129.0267
  29   2.0000      -4.741266      -129.0164
  30   2.0000      -4.739605      -128.9712
  31   2.0000      -1.093118       -29.7453
  32   2.0000      -1.087851       -29.6019
  33   2.0000      -1.048264       -28.5247
  34   2.0000      -1.004445       -27.3323
  35   2.0000      -0.999842       -27.2071
  36   2.0000      -0.997205       -27.1353
  37   2.0000      -0.812770       -22.1166
  38   2.0000      -0.753236       -20.4966
  39   2.0000      -0.744384       -20.2557
  40   2.0000      -0.728829       -19.8324
  41   2.0000      -0.696719       -18.9587
  42   2.0000      -0.663827       -18.0637
  43   2.0000      -0.659049       -17.9336
  44   2.0000      -0.652302       -17.7500
  45   2.0000      -0.620280       -16.8787
  46   2.0000      -0.592398       -16.1200
  47   2.0000      -0.538782       -14.6610
  48   2.0000      -0.536366       -14.5953
  49   2.0000      -0.524291       -14.2667
  50   2.0000      -0.508760       -13.8441
  51   2.0000      -0.488694       -13.2980
  52   2.0000      -0.487646       -13.2695
  53   2.0000      -0.470872       -12.8131
  54   2.0000      -0.463935       -12.6243
  55   2.0000      -0.455474       -12.3941
  56   2.0000      -0.449353       -12.2275
  57   2.0000      -0.445202       -12.1146
  58   2.0000      -0.440194       -11.9783
  59   2.0000      -0.425194       -11.5701
  60   2.0000      -0.422269       -11.4905
  61   2.0000      -0.410015       -11.1571
  62   2.0000      -0.405346       -11.0300
  63   2.0000      -0.402392       -10.9497
  64   2.0000      -0.388609       -10.5746
  65   2.0000      -0.382919       -10.4198
  66   2.0000      -0.371430       -10.1071
  67   2.0000      -0.365445        -9.9443
  68   2.0000      -0.357206        -9.7201
  69   2.0000      -0.351686        -9.5699
  70   2.0000      -0.351249        -9.5580
  71   2.0000      -0.345800        -9.4097
  72   2.0000      -0.337022        -9.1708
  73   2.0000      -0.326295        -8.8789
  74   2.0000      -0.315147        -8.5756
  75   2.0000      -0.314323        -8.5532
  76   2.0000      -0.309935        -8.4338
  77   2.0000      -0.307671        -8.3722
  78   2.0000      -0.290576        -7.9070
  79   2.0000      -0.286855        -7.8057
  80   2.0000      -0.279309        -7.6004
  81   2.0000      -0.273577        -7.4444
  82   2.0000      -0.263520        -7.1707
  83   2.0000      -0.257398        -7.0042
  84   2.0000      -0.240915        -6.5556
  85   2.0000      -0.224051        -6.0967
  86   2.0000      -0.217146        -5.9088
  87   0.0000      -0.048127        -1.3096
  88   0.0000      -0.031052        -0.8450
  89   0.0000      -0.024700        -0.6721
  90   0.0000       0.003403         0.0926
  91   0.0000       0.020528         0.5586

MULLIKEN ATOMIC CHARGES
-----------------------
   0 C :   -0.486715
   1 C :   -0.153738
   2 O :   -0.155049
   3 C :    0.419607
   4 O :   -0.452108
   5 C :   -0.454682
   6 C :   -0.005300
   7 H :    0.264636
   8 C :    0.298442
   9 O :   -0.452349
  10 O :   -0.146148
  11 C :   -0.139769
  12 C :   -0.510585
  13 S :   -0.205083
  14 P :    0.803789
  15 S :   -0.518114
  16 O :   -0.402338
  17 C :   -0.308839
  18 O :   -0.349367
  19 C :   -0.304743
  20 H :    0.166150
  21 H :    0.170638
  22 H :    0.166132
  23 H :    0.175039
  24 H :    0.181257
  25 H :    0.220796
  26 H :    0.237490
  27 H :    0.177065
  28 H :    0.183125
  29 H :    0.169969
  30 H :    0.171491
  31 H :    0.174370
  32 H :    0.175885
  33 H :    0.171484
  34 H :    0.174919
  35 H :    0.181109
  36 H :    0.180413
  37 H :    0.181123
Sum of atomic charges:   -0.0000000

LOEWDIN ATOMIC CHARGES
----------------------
   0 C :   -0.387640
   1 C :    0.042322
   2 O :   -0.571962
   3 C :    0.377692
   4 O :   -0.478666
   5 C :   -0.195891
   6 C :   -0.189839
   7 H :    0.215675
   8 C :    0.352585
   9 O :   -0.505245
  10 O :   -0.568432
  11 C :    0.042241
  12 C :   -0.390698
  13 S :    0.221454
  14 P :    0.404414
  15 S :   -0.137479
  16 O :   -0.711723
  17 C :   -0.063932
  18 O :   -0.672757
  19 C :   -0.046007
  20 H :    0.163045
  21 H :    0.168997
  22 H :    0.162395
  23 H :    0.187107
  24 H :    0.192873
  25 H :    0.203530
  26 H :    0.216631
  27 H :    0.190592
  28 H :    0.194264
  29 H :    0.162755
  30 H :    0.168096
  31 H :    0.167280
  32 H :    0.186368
  33 H :    0.173870
  34 H :    0.175999
  35 H :    0.191522
  36 H :    0.179482
  37 H :    0.179081

  Mayer bond orders larger than 0.100000
B(  0-C ,  1-C ) :   0.9462 B(  0-C , 20-H ) :   0.9664 B(  0-C , 21-H ) :   0.9610
B(  0-C , 22-H ) :   0.9717 B(  1-C ,  2-O ) :   0.7493 B(  1-C , 23-H ) :   0.9351
B(  1-C , 24-H ) :   0.9606 B(  2-O ,  3-C ) :   1.1907 B(  3-C ,  4-O ) :   1.6945
B(  3-C ,  5-C ) :   0.9571 B(  4-O ,  8-C ) :   0.1488 B(  5-C ,  6-C ) :   0.8803
B(  5-C , 10-O ) :   0.1112 B(  5-C , 25-H ) :   0.9641 B(  5-C , 26-H ) :   0.9221
B(  6-C ,  7-H ) :   0.8928 B(  6-C ,  8-C ) :   0.8840 B(  6-C , 13-S ) :   0.9178
B(  8-C ,  9-O ) :   1.7254 B(  8-C , 10-O ) :   1.1696 B(  9-O , 14-P ) :   0.1143
B( 10-O , 11-C ) :   0.7685 B( 11-C , 12-C ) :   0.9210 B( 11-C , 27-H ) :   0.9492
B( 11-C , 28-H ) :   0.9664 B( 12-C , 29-H ) :   0.9679 B( 12-C , 30-H ) :   0.9593
B( 12-C , 31-H ) :   0.9690 B( 13-S , 14-P ) :   1.0000 B( 14-P , 15-S ) :   1.7749
B( 14-P , 16-O ) :   1.0015 B( 14-P , 18-O ) :   1.1899 B( 16-O , 17-C ) :   0.8328
B( 17-C , 32-H ) :   0.9594 B( 17-C , 33-H ) :   0.9507 B( 17-C , 34-H ) :   0.9554
B( 18-O , 19-C ) :   0.7903 B( 19-C , 35-H ) :   0.9543 B( 19-C , 36-H ) :   0.9493
B( 19-C , 37-H ) :   0.9544

Dispersion correction           -0.017073397
FINAL SINGLE POINT ENERGY     -1981.461674891484

DIPOLE MOMENT
-------------

Method             : SCF
Type of density    : Electron Density
Multiplicity       :   1
Irrep              :   0
Energy             : -1981.4826105617894427 Eh
Relativity type    :
Basis              : AO
                                X                 Y                 Z
Electronic contribution:    -18.075260950       8.166837328      -1.712372434
Nuclear contribution   :     20.799773328      -9.941674677       0.234202055
                        -----------------------------------------
Total Dipole Moment    :      2.724512378      -1.774837350      -1.478170379
                        -----------------------------------------
Magnitude (a.u.)       :      3.571834680
Magnitude (Debye)      :      9.078882246

Rotational constants in cm-1:             0.013828             0.006492             0.005381
Rotational constants in MHz :           414.542789           194.633909           161.316640

                             ****ORCA TERMINATED NORMALLY****
TOTAL RUN TIME: 0 days 0 hours 1 minutes 43 seconds 563 msec
