                         Program Version 6.0.0  -   RELEASE  -
|  1> ! pbe def2-sv(p) def2/J RI DEFGRID1 loosescf d4 GCP(DFT/SV(P)) printgap
|  2> %output
|  3>     printlevel normal
|  4> end
|  5> * xyz 0 1
|  6> C 4.919017196 1.4682985691 0.3711970083
|  7> C 3.6453949802 1.7170175943 -0.4080663176
|  8> O 2.9691526966 0.4819029342 -0.7315301063
|  9> P 2.2556602901 -0.3892089579 0.378838125
| 10> S 1.5432459678 0.5887219654 1.9243881108
| 11> O 3.3828028489 -1.4425331336 0.7677557281
| 12> C 3.2882870019 -2.2655001413 1.9401071331
| 13> C 2.215616883 -3.3257384194 1.7935900325
| 14> S 0.945173031 -1.5147755746 -0.8582411305
| 15> C 0.3706430982 -0.1958676903 -1.9661114514
| 16> S -0.4623591965 1.159207871 -1.1099498499
| 17> P -2.2332214055 0.0815836979 -0.5747311557
| 18> S -2.7268940723 -1.3458405451 -1.813387287
| 19> O -3.2923757293 1.2513994075 -0.407640124
| 20> C -3.7942333747 1.9629662295 -1.5590308318
| 21> C -5.0037135466 2.7619275166 -1.1185641397
| 22> O -2.0424556271 -0.4365758782 0.8974912232
| 23> C -1.9256076891 0.4408194072 2.0460380299
| 24> C -3.2688265818 0.6164785679 2.7209038084
| 25> H 5.4468093611 2.4070285427 0.507046247
| 26> H 4.6789281951 1.0523408703 1.348798506
| 27> H 5.5551817842 0.7669949596 -0.1622026202
| 28> H 3.8452009307 2.1681865388 -1.3806902407
| 29> H 2.9575268903 2.349545596 0.162113586
| 30> H 4.2811682999 -2.7062978295 2.0374660185
| 31> H 3.0788081927 -1.6212796893 2.8010614452
| 32> H 2.3948775779 -3.9262562496 0.9054351654
| 33> H 2.2140571357 -3.9660020665 2.669776701
| 34> H 1.2370984957 -2.8532261383 1.6979598946
| 35> H -0.3345467263 -0.6761872192 -2.6466843447
| 36> H 1.2149120615 0.2311884012 -2.4999198956
| 37> H -2.9984049539 2.6134859963 -1.9319401511
| 38> H -4.0528179099 1.232146267 -2.3320290587
| 39> H -4.7240465141 3.4581983862 -0.3331898082
| 40> H -5.3915701003 3.3152520406 -1.9674091491
| 41> H -5.7753468916 2.0958054164 -0.7430149762
| 42> H -1.2081268604 -0.056022394 2.7018894534
| 43> H -1.5075778066 1.3984049819 1.7245869018
| 44> H -3.1355349801 1.2124594876 3.6182014562
| 45> H -3.9637323232 1.1187698636 2.053420096
| 46> H -3.6774284456 -0.3536483402 2.9900493421
| 47> *
| 48>
| 49>                          ****END OF INPUT****

CARTESIAN COORDINATES (ANGSTROEM)
---------------------------------
  C      4.919017    1.468299    0.371197
  C      3.645395    1.717018   -0.408066
  O      2.969153    0.481903   -0.731530
  P      2.255660   -0.389209    0.378838
  S      1.543246    0.588722    1.924388
  O      3.382803   -1.442533    0.767756
  C      3.288287   -2.265500    1.940107
  C      2.215617   -3.325738    1.793590
  S      0.945173   -1.514776   -0.858241
  C      0.370643   -0.195868   -1.966111
  S     -0.462359    1.159208   -1.109950
  P     -2.233221    0.081584   -0.574731
  S     -2.726894   -1.345841   -1.813387
  O     -3.292376    1.251399   -0.407640
  C     -3.794233    1.962966   -1.559031
  C     -5.003714    2.761928   -1.118564
  O     -2.042456   -0.436576    0.897491
  C     -1.925608    0.440819    2.046038
  C     -3.268827    0.616479    2.720904
  H      5.446809    2.407029    0.507046
  H      4.678928    1.052341    1.348799
  H      5.555182    0.766995   -0.162203
  H      3.845201    2.168187   -1.380690
  H      2.957527    2.349546    0.162114
  H      4.281168   -2.706298    2.037466
  H      3.078808   -1.621280    2.801061
  H      2.394878   -3.926256    0.905435
  H      2.214057   -3.966002    2.669777
  H      1.237098   -2.853226    1.697960
  H     -0.334547   -0.676187   -2.646684
  H      1.214912    0.231188   -2.499920
  H     -2.998405    2.613486   -1.931940
  H     -4.052818    1.232146   -2.332029
  H     -4.724047    3.458198   -0.333190
  H     -5.391570    3.315252   -1.967409
  H     -5.775347    2.095805   -0.743015
  H     -1.208127   -0.056022    2.701889
  H     -1.507578    1.398405    1.724587
  H     -3.135535    1.212459    3.618201
  H     -3.963732    1.118770    2.053420
  H     -3.677428   -0.353648    2.990049

 Total Charge           Charge          ....    0
 Multiplicity           Mult            ....    1
 Number of Electrons    NEL             ....  202
 Basis Dimension        Dim             ....  334

ORBITAL ENERGIES
----------------

  NO   OCC          E(Eh)            E(eV)
   0   2.0000     -88.037956     -2395.6346
   1   2.0000     -88.037407     -2395.6196
   2   2.0000     -87.987011     -2394.2483
   3   2.0000     -87.982441     -2394.1239
   4   2.0000     -76.426999     -2079.6844
   5   2.0000     -76.423012     -2079.5759
   6   2.0000     -18.796725      -511.4849
   7   2.0000     -18.795434      -511.4498
   8   2.0000     -18.791962      -511.3553
   9   2.0000     -18.787038      -511.2213
  10   2.0000      -9.955345      -270.8987
  11   2.0000      -9.954245      -270.8688
  12   2.0000      -9.952256      -270.8146
  13   2.0000      -9.951670      -270.7987
  14   2.0000      -9.945183      -270.6222
  15   2.0000      -9.890319      -269.1293
  16   2.0000      -9.886168      -269.0163
  17   2.0000      -9.885163      -268.9890
  18   2.0000      -9.879266      -268.8285
  19   2.0000      -7.682907      -209.0625
  20   2.0000      -7.682528      -209.0522
  21   2.0000      -7.631910      -207.6748
  22   2.0000      -7.627796      -207.5629
  23   2.0000      -6.424647      -174.8235
  24   2.0000      -6.420717      -174.7166
  25   2.0000      -5.710661      -155.3950
  26   2.0000      -5.710653      -155.3948
  27   2.0000      -5.707440      -155.3073
  28   2.0000      -5.707087      -155.2977
  29   2.0000      -5.700016      -155.1053
  30   2.0000      -5.699198      -155.0831
  31   2.0000      -5.660604      -154.0329
  32   2.0000      -5.656768      -153.9285
  33   2.0000      -5.652669      -153.8169
  34   2.0000      -5.652149      -153.8028
  35   2.0000      -5.648266      -153.6971
  36   2.0000      -5.647989      -153.6896
  37   2.0000      -4.647319      -126.4600
  38   2.0000      -4.646452      -126.4364
  39   2.0000      -4.644960      -126.3958
  40   2.0000      -4.643631      -126.3596
  41   2.0000      -4.642417      -126.3266
  42   2.0000      -4.640885      -126.2849
  43   2.0000      -0.989675       -26.9304
  44   2.0000      -0.987688       -26.8764
  45   2.0000      -0.949743       -25.8438
  46   2.0000      -0.943311       -25.6688
  47   2.0000      -0.760274       -20.6881
  48   2.0000      -0.720187       -19.5973
  49   2.0000      -0.708729       -19.2855
  50   2.0000      -0.690098       -18.7785
  51   2.0000      -0.688777       -18.7426
  52   2.0000      -0.670508       -18.2454
  53   2.0000      -0.650342       -17.6967
  54   2.0000      -0.636429       -17.3181
  55   2.0000      -0.600220       -16.3328
  56   2.0000      -0.586542       -15.9606
  57   2.0000      -0.574756       -15.6399
  58   2.0000      -0.565816       -15.3966
  59   2.0000      -0.562092       -15.2953
  60   2.0000      -0.508509       -13.8372
  61   2.0000      -0.494980       -13.4691
  62   2.0000      -0.477406       -12.9909
  63   2.0000      -0.475859       -12.9488
  64   2.0000      -0.458715       -12.4823
  65   2.0000      -0.443946       -12.0804
  66   2.0000      -0.440778       -11.9942
  67   2.0000      -0.436611       -11.8808
  68   2.0000      -0.426656       -11.6099
  69   2.0000      -0.414272       -11.2729
  70   2.0000      -0.405342       -11.0299
  71   2.0000      -0.395362       -10.7583
  72   2.0000      -0.390683       -10.6310
  73   2.0000      -0.386455       -10.5160
  74   2.0000      -0.379837       -10.3359
  75   2.0000      -0.373909       -10.1746
  76   2.0000      -0.366369        -9.9694
  77   2.0000      -0.358171        -9.7463
  78   2.0000      -0.356244        -9.6939
  79   2.0000      -0.351730        -9.5710
  80   2.0000      -0.349264        -9.5040
  81   2.0000      -0.347337        -9.4515
  82   2.0000      -0.342026        -9.3070
  83   2.0000      -0.340341        -9.2612
  84   2.0000      -0.331115        -9.0101
  85   2.0000      -0.320048        -8.7089
  86   2.0000      -0.309121        -8.4116
  87   2.0000      -0.300874        -8.1872
  88   2.0000      -0.296624        -8.0715
  89   2.0000      -0.288503        -7.8506
  90   2.0000      -0.286996        -7.8095
  91   2.0000      -0.276551        -7.5253
  92   2.0000      -0.270428        -7.3587
  93   2.0000      -0.262991        -7.1563
  94   2.0000      -0.257008        -6.9935
  95   2.0000      -0.238833        -6.4990
  96   2.0000      -0.218095        -5.9347
  97   2.0000      -0.206079        -5.6077
  98   2.0000      -0.203303        -5.5321
  99   2.0000      -0.197895        -5.3850
 100   2.0000      -0.192596        -5.2408
 101   0.0000      -0.044973        -1.2238
 102   0.0000      -0.020530        -0.5586
 103   0.0000      -0.015090        -0.4106
 104   0.0000       0.005278         0.1436
 105   0.0000       0.016302         0.4436

MULLIKEN ATOMIC CHARGES
-----------------------
   0 C :   -0.304794
   1 C :   -0.006144
   2 O :   -0.374719
   3 P :    0.616207
   4 S :   -0.331037
   5 O :   -0.367709
   6 C :   -0.006249
   7 C :   -0.327185
   8 S :   -0.076774
   9 C :   -0.352701
  10 S :   -0.109657
  11 P :    0.612597
  12 S :   -0.317889
  13 O :   -0.385681
  14 C :   -0.010692
  15 C :   -0.282950
  16 O :   -0.348601
  17 C :   -0.018266
  18 C :   -0.284886
  19 H :    0.112877
  20 H :    0.123323
  21 H :    0.118637
  22 H :    0.104317
  23 H :    0.114611
  24 H :    0.106075
  25 H :    0.108582
  26 H :    0.124428
  27 H :    0.116086
  28 H :    0.135591
  29 H :    0.193465
  30 H :    0.187180
  31 H :    0.103624
  32 H :    0.106407
  33 H :    0.116495
  34 H :    0.113571
  35 H :    0.123187
  36 H :    0.119681
  37 H :    0.105488
  38 H :    0.107964
  39 H :    0.118737
  40 H :    0.116807
Sum of atomic charges:    0.0000000

LOEWDIN ATOMIC CHARGES
----------------------
   0 C :   -0.364146
   1 C :   -0.117425
   2 O :   -0.240093
   3 P :    0.572685
   4 S :   -0.314539
   5 O :   -0.242542
   6 C :   -0.122552
   7 C :   -0.369521
   8 S :    0.090599
   9 C :   -0.482555
  10 S :    0.058923
  11 P :    0.572170
  12 S :   -0.309918
  13 O :   -0.247865
  14 C :   -0.120637
  15 C :   -0.350651
  16 O :   -0.227639
  17 C :   -0.115879
  18 C :   -0.360476
  19 H :    0.131022
  20 H :    0.123266
  21 H :    0.127583
  22 H :    0.117971
  23 H :    0.111927
  24 H :    0.119212
  25 H :    0.107681
  26 H :    0.127582
  27 H :    0.132799
  28 H :    0.123097
  29 H :    0.128222
  30 H :    0.132921
  31 H :    0.107932
  32 H :    0.110443
  33 H :    0.126141
  34 H :    0.131698
  35 H :    0.129426
  36 H :    0.117319
  37 H :    0.105857
  38 H :    0.128944
  39 H :    0.123393
  40 H :    0.127624

  Mayer bond orders larger than 0.100000
B(  0-C ,  1-C ) :   1.1658 B(  0-C , 19-H ) :   0.9387 B(  0-C , 20-H ) :   0.9359
B(  0-C , 21-H ) :   0.9458 B(  1-C ,  2-O ) :   0.8999 B(  1-C , 22-H ) :   0.9340
B(  1-C , 23-H ) :   0.9151 B(  2-O ,  3-P ) :   1.1139 B(  3-P ,  4-S ) :   1.6014
B(  3-P ,  5-O ) :   1.1024 B(  3-P ,  8-S ) :   0.9661 B(  4-S ,  8-S ) :   0.1062
B(  5-O ,  6-C ) :   0.9117 B(  6-C ,  7-C ) :   1.1625 B(  6-C , 24-H ) :   0.9321
B(  6-C , 25-H ) :   0.9120 B(  7-C , 26-H ) :   0.9445 B(  7-C , 27-H ) :   0.9387
B(  7-C , 28-H ) :   0.9323 B(  8-S ,  9-C ) :   1.0004 B(  9-C , 10-S ) :   1.0143
B(  9-C , 29-H ) :   0.8700 B(  9-C , 30-H ) :   0.8982 B( 10-S , 11-P ) :   0.9378
B( 10-S , 12-S ) :   0.1120 B( 11-P , 12-S ) :   1.6460 B( 11-P , 13-O ) :   1.0747
B( 11-P , 16-O ) :   1.1617 B( 13-O , 14-C ) :   0.9045 B( 14-C , 15-C ) :   1.1591
B( 14-C , 31-H ) :   0.9256 B( 14-C , 32-H ) :   0.9116 B( 15-C , 33-H ) :   0.9506
B( 15-C , 34-H ) :   0.9418 B( 15-C , 35-H ) :   0.9506 B( 16-O , 17-C ) :   0.8835
B( 17-C , 18-C ) :   1.1562 B( 17-C , 36-H ) :   0.9262 B( 17-C , 37-H ) :   0.9194
B( 18-C , 38-H ) :   0.9407 B( 18-C , 39-H ) :   0.9412 B( 18-C , 40-H ) :   0.9461

Dispersion correction           -0.064547701
FINAL SINGLE POINT ENERGY     -2929.521579404506

DIPOLE MOMENT
-------------

Method             : SCF
Type of density    : Electron Density
Multiplicity       :   1
Irrep              :   0
Energy             : -2929.6415394444361482 Eh
Relativity type    :
Basis              : AO
                                X                 Y                 Z
Electronic contribution:      0.500277124      -7.919844357     -10.497887006
Nuclear contribution   :      0.142363459       8.993218005      10.763550706
                        -----------------------------------------
Total Dipole Moment    :      0.642640584       1.073373649       0.265663699
                        -----------------------------------------
Magnitude (a.u.)       :      1.278942966
Magnitude (Debye)      :      3.250814674

Rotational constants in cm-1:             0.012669             0.004659             0.004551
Rotational constants in MHz :           379.797314           139.683921           136.441259

                             ****ORCA TERMINATED NORMALLY****
TOTAL RUN TIME: 0 days 0 hours 0 minutes 20 seconds 986 msec
