                         Program Version 6.0.0  -   RELEASE  -
|  1> ! r2scan-3c def2/J RI DEFGRID2 scfconv6 printgap
|  2> %output
|  3>     printlevel normal
|  4> end
|  5> * xyz 0 1
|  6> C 2.9836844543 1.3360458238 3.0224243211
|  7> C 1.6129748092 0.829663182 2.6265110778
|  8> O 1.4491077838 0.7913555795 1.1919483936
|  9> P 2.2599665882 -0.2270615396 0.287904371
| 10> S 2.7065536449 -1.9510908118 1.1143736877
| 11> O 3.5014715417 0.6577047388 -0.157812765
| 12> C 4.6888901168 0.0870255967 -0.7341409679
| 13> C 4.4404128919 -0.4658042636 -2.1227222699
| 14> S 1.0083740161 -0.278364515 -1.4161810056
| 15> C -0.0743355747 -1.6034558286 -0.8132146274
| 16> S -1.1278153122 -1.0890562943 0.5593450842
| 17> P -2.351625836 0.2378569068 -0.5898472026
| 18> S -2.7237156525 -0.3318274749 -2.4219822341
| 19> O -1.6269389308 1.6371692753 -0.6117740637
| 20> C -1.3182943528 2.4012224575 0.577613753
| 21> C -2.3070891004 3.5369140537 0.7410556162
| 22> O -3.5705383465 0.5169796426 0.3899228008
| 23> C -4.3505256348 -0.4943913359 1.0562536489
| 24> C -4.9373491151 -1.5091293639 0.0982629778
| 25> H 3.1817838194 2.2945784005 2.5501364471
| 26> H 3.0288250827 1.4463370933 4.1013028371
| 27> H 3.7461637377 0.6244282463 2.7078789157
| 28> H 0.8214617428 1.4997167323 2.9642323289
| 29> H 1.4413741482 -0.177350056 3.0199004386
| 30> H 5.3969414931 0.9166069964 -0.7514540754
| 31> H 5.0526391818 -0.7012735869 -0.0670682275
| 32> H 3.7769055616 -1.3281441126 -2.0684598803
| 33> H 3.9780064714 0.2893834262 -2.7536862838
| 34> H 5.383648587 -0.7747433117 -2.5617452846
| 35> H 0.5315954499 -2.434187863 -0.4513321038
| 36> H -0.7002511106 -1.8982359083 -1.6560659103
| 37> H -1.3334351273 1.732697049 1.4430177067
| 38> H -0.3025831835 2.7693226982 0.4178211873
| 39> H -3.3101133967 3.1419044302 0.8803441516
| 40> H -2.0296069043 4.1317768961 1.605561485
| 41> H -2.2992431859 4.1646129744 -0.1456643366
| 42> H -3.7117185334 -0.9853366212 1.7957606245
| 43> H -5.1324584601 0.0762601767 1.5604055243
| 44> H -5.5863337131 -2.1866104871 0.6437594574
| 45> H -5.5090036321 -1.009779839 -0.6803744073
| 46> H -4.1424186843 -2.0831533348 -0.3756446169
| 47> *
| 48>
| 49>                          ****END OF INPUT****

CARTESIAN COORDINATES (ANGSTROEM)
---------------------------------
  C      2.983684    1.336046    3.022424
  C      1.612975    0.829663    2.626511
  O      1.449108    0.791356    1.191948
  P      2.259967   -0.227062    0.287904
  S      2.706554   -1.951091    1.114374
  O      3.501472    0.657705   -0.157813
  C      4.688890    0.087026   -0.734141
  C      4.440413   -0.465804   -2.122722
  S      1.008374   -0.278365   -1.416181
  C     -0.074336   -1.603456   -0.813215
  S     -1.127815   -1.089056    0.559345
  P     -2.351626    0.237857   -0.589847
  S     -2.723716   -0.331827   -2.421982
  O     -1.626939    1.637169   -0.611774
  C     -1.318294    2.401222    0.577614
  C     -2.307089    3.536914    0.741056
  O     -3.570538    0.516980    0.389923
  C     -4.350526   -0.494391    1.056254
  C     -4.937349   -1.509129    0.098263
  H      3.181784    2.294578    2.550136
  H      3.028825    1.446337    4.101303
  H      3.746164    0.624428    2.707879
  H      0.821462    1.499717    2.964232
  H      1.441374   -0.177350    3.019900
  H      5.396941    0.916607   -0.751454
  H      5.052639   -0.701274   -0.067068
  H      3.776906   -1.328144   -2.068460
  H      3.978006    0.289383   -2.753686
  H      5.383649   -0.774743   -2.561745
  H      0.531595   -2.434188   -0.451332
  H     -0.700251   -1.898236   -1.656066
  H     -1.333435    1.732697    1.443018
  H     -0.302583    2.769323    0.417821
  H     -3.310113    3.141904    0.880344
  H     -2.029607    4.131777    1.605561
  H     -2.299243    4.164613   -0.145664
  H     -3.711719   -0.985337    1.795761
  H     -5.132458    0.076260    1.560406
  H     -5.586334   -2.186610    0.643759
  H     -5.509004   -1.009780   -0.680374
  H     -4.142419   -2.083153   -0.375645

 Total Charge           Charge          ....    0
 Multiplicity           Mult            ....    1
 Number of Electrons    NEL             ....  202
 Basis Dimension        Dim             ....  539

ORBITAL ENERGIES
----------------

  NO   OCC          E(Eh)            E(eV)
   0   2.0000     -88.574099     -2410.2238
   1   2.0000     -88.574057     -2410.2226
   2   2.0000     -88.524243     -2408.8671
   3   2.0000     -88.515288     -2408.6234
   4   2.0000     -76.915565     -2092.9789
   5   2.0000     -76.912704     -2092.9011
   6   2.0000     -18.996237      -516.9139
   7   2.0000     -18.995957      -516.9063
   8   2.0000     -18.992246      -516.8053
   9   2.0000     -18.986569      -516.6508
  10   2.0000     -10.106546      -275.0131
  11   2.0000     -10.102544      -274.9042
  12   2.0000     -10.101571      -274.8777
  13   2.0000     -10.100987      -274.8618
  14   2.0000     -10.098159      -274.7849
  15   2.0000     -10.032512      -272.9985
  16   2.0000     -10.029913      -272.9278
  17   2.0000     -10.029574      -272.9186
  18   2.0000     -10.028293      -272.8837
  19   2.0000      -7.868431      -214.1109
  20   2.0000      -7.868201      -214.1046
  21   2.0000      -7.819040      -212.7669
  22   2.0000      -7.810153      -212.5251
  23   2.0000      -6.594244      -179.4385
  24   2.0000      -6.590960      -179.3491
  25   2.0000      -5.815171      -158.2389
  26   2.0000      -5.815100      -158.2369
  27   2.0000      -5.812217      -158.1585
  28   2.0000      -5.812158      -158.1569
  29   2.0000      -5.805765      -157.9829
  30   2.0000      -5.805224      -157.9682
  31   2.0000      -5.766571      -156.9164
  32   2.0000      -5.759331      -156.7194
  33   2.0000      -5.759140      -156.7142
  34   2.0000      -5.757965      -156.6822
  35   2.0000      -5.750400      -156.4763
  36   2.0000      -5.750014      -156.4658
  37   2.0000      -4.739644      -128.9723
  38   2.0000      -4.739102      -128.9575
  39   2.0000      -4.738104      -128.9304
  40   2.0000      -4.736828      -128.8957
  41   2.0000      -4.736146      -128.8771
  42   2.0000      -4.734147      -128.8227
  43   2.0000      -1.052904       -28.6510
  44   2.0000      -1.051544       -28.6140
  45   2.0000      -1.014238       -27.5988
  46   2.0000      -1.009385       -27.4668
  47   2.0000      -0.801506       -21.8101
  48   2.0000      -0.759086       -20.6558
  49   2.0000      -0.750742       -20.4287
  50   2.0000      -0.735555       -20.0155
  51   2.0000      -0.734086       -19.9755
  52   2.0000      -0.712204       -19.3801
  53   2.0000      -0.686692       -18.6858
  54   2.0000      -0.669550       -18.2194
  55   2.0000      -0.634818       -17.2743
  56   2.0000      -0.621363       -16.9082
  57   2.0000      -0.608501       -16.5582
  58   2.0000      -0.606409       -16.5012
  59   2.0000      -0.594373       -16.1737
  60   2.0000      -0.529596       -14.4110
  61   2.0000      -0.518540       -14.1102
  62   2.0000      -0.495547       -13.4845
  63   2.0000      -0.493833       -13.4379
  64   2.0000      -0.478099       -13.0097
  65   2.0000      -0.466907       -12.7052
  66   2.0000      -0.460707       -12.5365
  67   2.0000      -0.452810       -12.3216
  68   2.0000      -0.450113       -12.2482
  69   2.0000      -0.432927       -11.7805
  70   2.0000      -0.428756       -11.6671
  71   2.0000      -0.415640       -11.3101
  72   2.0000      -0.415007       -11.2929
  73   2.0000      -0.405645       -11.0382
  74   2.0000      -0.399707       -10.8766
  75   2.0000      -0.388958       -10.5841
  76   2.0000      -0.380273       -10.3478
  77   2.0000      -0.373595       -10.1660
  78   2.0000      -0.371748       -10.1158
  79   2.0000      -0.366203        -9.9649
  80   2.0000      -0.363641        -9.8952
  81   2.0000      -0.360517        -9.8102
  82   2.0000      -0.359110        -9.7719
  83   2.0000      -0.353427        -9.6172
  84   2.0000      -0.351766        -9.5720
  85   2.0000      -0.337654        -9.1880
  86   2.0000      -0.326435        -8.8827
  87   2.0000      -0.312941        -8.5155
  88   2.0000      -0.312197        -8.4953
  89   2.0000      -0.305288        -8.3073
  90   2.0000      -0.301175        -8.1954
  91   2.0000      -0.294685        -8.0188
  92   2.0000      -0.290062        -7.8930
  93   2.0000      -0.281530        -7.6608
  94   2.0000      -0.271580        -7.3901
  95   2.0000      -0.245683        -6.6854
  96   2.0000      -0.231218        -6.2918
  97   2.0000      -0.227289        -6.1848
  98   2.0000      -0.218045        -5.9333
  99   2.0000      -0.212398        -5.7796
 100   2.0000      -0.210201        -5.7198
 101   0.0000      -0.045462        -1.2371
 102   0.0000      -0.024191        -0.6583
 103   0.0000      -0.003661        -0.0996
 104   0.0000      -0.000343        -0.0093
 105   0.0000       0.014720         0.4006

MULLIKEN ATOMIC CHARGES
-----------------------
   0 C :   -0.440160
   1 C :   -0.156862
   2 O :   -0.259209
   3 P :    0.676319
   4 S :   -0.489656
   5 O :   -0.307143
   6 C :   -0.149026
   7 C :   -0.453507
   8 S :   -0.096455
   9 C :   -0.242570
  10 S :   -0.179209
  11 P :    0.651414
  12 S :   -0.429922
  13 O :   -0.252715
  14 C :   -0.102587
  15 C :   -0.486153
  16 O :   -0.296141
  17 C :   -0.162833
  18 C :   -0.425813
  19 H :    0.156229
  20 H :    0.147569
  21 H :    0.169653
  22 H :    0.145435
  23 H :    0.176298
  24 H :    0.148692
  25 H :    0.170685
  26 H :    0.177482
  27 H :    0.158102
  28 H :    0.148319
  29 H :    0.214363
  30 H :    0.217613
  31 H :    0.150225
  32 H :    0.170147
  33 H :    0.164456
  34 H :    0.143570
  35 H :    0.160314
  36 H :    0.152335
  37 H :    0.149182
  38 H :    0.146328
  39 H :    0.164810
  40 H :    0.170420
Sum of atomic charges:    0.0000000

LOEWDIN ATOMIC CHARGES
----------------------
   0 C :   -0.399065
   1 C :    0.014938
   2 O :   -0.682780
   3 P :    0.378079
   4 S :   -0.135947
   5 O :   -0.660415
   6 C :    0.020196
   7 C :   -0.405865
   8 S :    0.187754
   9 C :   -0.424550
  10 S :    0.136117
  11 P :    0.381456
  12 S :   -0.099491
  13 O :   -0.651343
  14 C :    0.019618
  15 C :   -0.391975
  16 O :   -0.669937
  17 C :    0.023119
  18 C :   -0.405465
  19 H :    0.160902
  20 H :    0.159586
  21 H :    0.165713
  22 H :    0.177145
  23 H :    0.181811
  24 H :    0.179730
  25 H :    0.179340
  26 H :    0.165988
  27 H :    0.161302
  28 H :    0.159734
  29 H :    0.190895
  30 H :    0.193643
  31 H :    0.174023
  32 H :    0.186532
  33 H :    0.164667
  34 H :    0.157357
  35 H :    0.162815
  36 H :    0.171916
  37 H :    0.180718
  38 H :    0.158404
  39 H :    0.165965
  40 H :    0.167369

  Mayer bond orders larger than 0.100000
B(  0-C ,  1-C ) :   0.9218 B(  0-C , 19-H ) :   0.9721 B(  0-C , 20-H ) :   0.9620
B(  0-C , 21-H ) :   0.9596 B(  1-C ,  2-O ) :   0.7838 B(  1-C , 22-H ) :   0.9616
B(  1-C , 23-H ) :   0.9628 B(  2-O ,  3-P ) :   1.1273 B(  3-P ,  4-S ) :   1.7384
B(  3-P ,  5-O ) :   1.0695 B(  3-P ,  8-S ) :   1.1100 B(  5-O ,  6-C ) :   0.8105
B(  6-C ,  7-C ) :   0.9250 B(  6-C , 24-H ) :   0.9580 B(  6-C , 25-H ) :   0.9659
B(  7-C , 26-H ) :   0.9616 B(  7-C , 27-H ) :   0.9685 B(  7-C , 28-H ) :   0.9586
B(  8-S ,  9-C ) :   0.9173 B(  9-C , 10-S ) :   0.9119 B(  9-C , 29-H ) :   0.9072
B(  9-C , 30-H ) :   0.9038 B( 10-S , 11-P ) :   0.9912 B( 11-P , 12-S ) :   1.8630
B( 11-P , 13-O ) :   1.1377 B( 11-P , 16-O ) :   1.0348 B( 13-O , 14-C ) :   0.7374
B( 14-C , 15-C ) :   0.9347 B( 14-C , 31-H ) :   0.9697 B( 14-C , 32-H ) :   0.9538
B( 15-C , 33-H ) :   0.9716 B( 15-C , 34-H ) :   0.9670 B( 15-C , 35-H ) :   0.9734
B( 16-O , 17-C ) :   0.8051 B( 17-C , 18-C ) :   0.9437 B( 17-C , 36-H ) :   0.9607
B( 17-C , 37-H ) :   0.9586 B( 18-C , 38-H ) :   0.9617 B( 18-C , 39-H ) :   0.9655
B( 18-C , 40-H ) :   0.9542

Dispersion correction           -0.021642650
FINAL SINGLE POINT ENERGY     -2932.461566209020

DIPOLE MOMENT
-------------

Method             : SCF
Type of density    : Electron Density
Multiplicity       :   1
Irrep              :   0
Energy             : -2932.4863881723927079 Eh
Relativity type    :
Basis              : AO
                                X                 Y                 Z
Electronic contribution:     -1.921874598      -8.299046472     -10.284430558
Nuclear contribution   :      2.223272021       9.070283108      11.770115817
                        -----------------------------------------
Total Dipole Moment    :      0.301397423       0.771236636       1.485685259
                        -----------------------------------------
Magnitude (a.u.)       :      1.700854798
Magnitude (Debye)      :      4.323229323

Rotational constants in cm-1:             0.012714             0.004897             0.004537
Rotational constants in MHz :           381.148469           146.797399           136.007068

                             ****ORCA TERMINATED NORMALLY****
TOTAL RUN TIME: 0 days 0 hours 1 minutes 20 seconds 129 msec
