                         Program Version 6.0.0  -   RELEASE  -
|  1> ! r2scan-3c def2/J RI DEFGRID2 scfconv6 printgap
|  2> %output
|  3>     printlevel normal
|  4> end
|  5> %cpcm
|  6>     smd true
|  7>     smdsolvent "water"
|  8> end
|  9> * xyz 0 1
| 10> C 2.9836844543 1.3360458238 3.0224243211
| 11> C 1.6129748092 0.829663182 2.6265110778
| 12> O 1.4491077838 0.7913555795 1.1919483936
| 13> P 2.2599665882 -0.2270615396 0.287904371
| 14> S 2.7065536449 -1.9510908118 1.1143736877
| 15> O 3.5014715417 0.6577047388 -0.157812765
| 16> C 4.6888901168 0.0870255967 -0.7341409679
| 17> C 4.4404128919 -0.4658042636 -2.1227222699
| 18> S 1.0083740161 -0.278364515 -1.4161810056
| 19> C -0.0743355747 -1.6034558286 -0.8132146274
| 20> S -1.1278153122 -1.0890562943 0.5593450842
| 21> P -2.351625836 0.2378569068 -0.5898472026
| 22> S -2.7237156525 -0.3318274749 -2.4219822341
| 23> O -1.6269389308 1.6371692753 -0.6117740637
| 24> C -1.3182943528 2.4012224575 0.577613753
| 25> C -2.3070891004 3.5369140537 0.7410556162
| 26> O -3.5705383465 0.5169796426 0.3899228008
| 27> C -4.3505256348 -0.4943913359 1.0562536489
| 28> C -4.9373491151 -1.5091293639 0.0982629778
| 29> H 3.1817838194 2.2945784005 2.5501364471
| 30> H 3.0288250827 1.4463370933 4.1013028371
| 31> H 3.7461637377 0.6244282463 2.7078789157
| 32> H 0.8214617428 1.4997167323 2.9642323289
| 33> H 1.4413741482 -0.177350056 3.0199004386
| 34> H 5.3969414931 0.9166069964 -0.7514540754
| 35> H 5.0526391818 -0.7012735869 -0.0670682275
| 36> H 3.7769055616 -1.3281441126 -2.0684598803
| 37> H 3.9780064714 0.2893834262 -2.7536862838
| 38> H 5.383648587 -0.7747433117 -2.5617452846
| 39> H 0.5315954499 -2.434187863 -0.4513321038
| 40> H -0.7002511106 -1.8982359083 -1.6560659103
| 41> H -1.3334351273 1.732697049 1.4430177067
| 42> H -0.3025831835 2.7693226982 0.4178211873
| 43> H -3.3101133967 3.1419044302 0.8803441516
| 44> H -2.0296069043 4.1317768961 1.605561485
| 45> H -2.2992431859 4.1646129744 -0.1456643366
| 46> H -3.7117185334 -0.9853366212 1.7957606245
| 47> H -5.1324584601 0.0762601767 1.5604055243
| 48> H -5.5863337131 -2.1866104871 0.6437594574
| 49> H -5.5090036321 -1.009779839 -0.6803744073
| 50> H -4.1424186843 -2.0831533348 -0.3756446169
| 51> *
| 52>
| 53>                          ****END OF INPUT****

CARTESIAN COORDINATES (ANGSTROEM)
---------------------------------
  C      2.983684    1.336046    3.022424
  C      1.612975    0.829663    2.626511
  O      1.449108    0.791356    1.191948
  P      2.259967   -0.227062    0.287904
  S      2.706554   -1.951091    1.114374
  O      3.501472    0.657705   -0.157813
  C      4.688890    0.087026   -0.734141
  C      4.440413   -0.465804   -2.122722
  S      1.008374   -0.278365   -1.416181
  C     -0.074336   -1.603456   -0.813215
  S     -1.127815   -1.089056    0.559345
  P     -2.351626    0.237857   -0.589847
  S     -2.723716   -0.331827   -2.421982
  O     -1.626939    1.637169   -0.611774
  C     -1.318294    2.401222    0.577614
  C     -2.307089    3.536914    0.741056
  O     -3.570538    0.516980    0.389923
  C     -4.350526   -0.494391    1.056254
  C     -4.937349   -1.509129    0.098263
  H      3.181784    2.294578    2.550136
  H      3.028825    1.446337    4.101303
  H      3.746164    0.624428    2.707879
  H      0.821462    1.499717    2.964232
  H      1.441374   -0.177350    3.019900
  H      5.396941    0.916607   -0.751454
  H      5.052639   -0.701274   -0.067068
  H      3.776906   -1.328144   -2.068460
  H      3.978006    0.289383   -2.753686
  H      5.383649   -0.774743   -2.561745
  H      0.531595   -2.434188   -0.451332
  H     -0.700251   -1.898236   -1.656066
  H     -1.333435    1.732697    1.443018
  H     -0.302583    2.769323    0.417821
  H     -3.310113    3.141904    0.880344
  H     -2.029607    4.131777    1.605561
  H     -2.299243    4.164613   -0.145664
  H     -3.711719   -0.985337    1.795761
  H     -5.132458    0.076260    1.560406
  H     -5.586334   -2.186610    0.643759
  H     -5.509004   -1.009780   -0.680374
  H     -4.142419   -2.083153   -0.375645

 Total Charge           Charge          ....    0
 Multiplicity           Mult            ....    1
 Number of Electrons    NEL             ....  202
 Basis Dimension        Dim             ....  539

ORBITAL ENERGIES
----------------

  NO   OCC          E(Eh)            E(eV)
   0   2.0000     -88.578695     -2410.3488
   1   2.0000     -88.577824     -2410.3251
   2   2.0000     -88.529261     -2409.0037
   3   2.0000     -88.527504     -2408.9559
   4   2.0000     -76.920191     -2093.1048
   5   2.0000     -76.918884     -2093.0692
   6   2.0000     -18.996936      -516.9329
   7   2.0000     -18.996597      -516.9237
   8   2.0000     -18.992685      -516.8172
   9   2.0000     -18.991857      -516.7947
  10   2.0000     -10.103550      -274.9316
  11   2.0000     -10.093669      -274.6627
  12   2.0000     -10.090292      -274.5708
  13   2.0000     -10.090137      -274.5666
  14   2.0000     -10.088938      -274.5340
  15   2.0000     -10.018805      -272.6255
  16   2.0000     -10.018777      -272.6248
  17   2.0000     -10.018618      -272.6204
  18   2.0000     -10.018194      -272.6089
  19   2.0000      -7.872971      -214.2344
  20   2.0000      -7.872100      -214.2107
  21   2.0000      -7.824325      -212.9107
  22   2.0000      -7.822769      -212.8684
  23   2.0000      -6.598481      -179.5538
  24   2.0000      -6.597586      -179.5294
  25   2.0000      -5.819818      -158.3653
  26   2.0000      -5.818870      -158.3395
  27   2.0000      -5.816908      -158.2861
  28   2.0000      -5.815918      -158.2592
  29   2.0000      -5.810061      -158.0998
  30   2.0000      -5.809380      -158.0813
  31   2.0000      -5.771817      -157.0591
  32   2.0000      -5.770442      -157.0217
  33   2.0000      -5.764607      -156.8629
  34   2.0000      -5.764424      -156.8580
  35   2.0000      -5.763024      -156.8198
  36   2.0000      -5.762683      -156.8106
  37   2.0000      -4.744267      -129.0981
  38   2.0000      -4.743637      -129.0809
  39   2.0000      -4.742912      -129.0612
  40   2.0000      -4.742446      -129.0485
  41   2.0000      -4.741825      -129.0316
  42   2.0000      -4.741549      -129.0241
  43   2.0000      -1.054280       -28.6884
  44   2.0000      -1.052630       -28.6435
  45   2.0000      -1.013180       -27.5700
  46   2.0000      -1.011973       -27.5372
  47   2.0000      -0.804384       -21.8884
  48   2.0000      -0.755741       -20.5648
  49   2.0000      -0.744326       -20.2541
  50   2.0000      -0.726792       -19.7770
  51   2.0000      -0.723624       -19.6908
  52   2.0000      -0.710889       -19.3443
  53   2.0000      -0.689788       -18.7701
  54   2.0000      -0.675253       -18.3746
  55   2.0000      -0.631375       -17.1806
  56   2.0000      -0.618949       -16.8425
  57   2.0000      -0.601604       -16.3705
  58   2.0000      -0.599133       -16.3032
  59   2.0000      -0.593764       -16.1572
  60   2.0000      -0.525846       -14.3090
  61   2.0000      -0.512958       -13.9583
  62   2.0000      -0.490632       -13.3508
  63   2.0000      -0.489069       -13.3083
  64   2.0000      -0.476745       -12.9729
  65   2.0000      -0.462181       -12.5766
  66   2.0000      -0.454561       -12.3692
  67   2.0000      -0.448296       -12.1988
  68   2.0000      -0.444363       -12.0917
  69   2.0000      -0.428757       -11.6671
  70   2.0000      -0.423530       -11.5248
  71   2.0000      -0.413413       -11.2495
  72   2.0000      -0.407787       -11.0965
  73   2.0000      -0.402790       -10.9605
  74   2.0000      -0.396199       -10.7811
  75   2.0000      -0.387479       -10.5438
  76   2.0000      -0.379969       -10.3395
  77   2.0000      -0.368517       -10.0279
  78   2.0000      -0.365849        -9.9553
  79   2.0000      -0.359308        -9.7773
  80   2.0000      -0.353848        -9.6287
  81   2.0000      -0.352267        -9.5857
  82   2.0000      -0.351227        -9.5574
  83   2.0000      -0.348028        -9.4703
  84   2.0000      -0.346263        -9.4223
  85   2.0000      -0.334400        -9.0995
  86   2.0000      -0.322976        -8.7886
  87   2.0000      -0.308067        -8.3829
  88   2.0000      -0.305366        -8.3094
  89   2.0000      -0.302412        -8.2290
  90   2.0000      -0.297962        -8.1080
  91   2.0000      -0.292691        -7.9645
  92   2.0000      -0.287287        -7.8175
  93   2.0000      -0.280305        -7.6275
  94   2.0000      -0.273926        -7.4539
  95   2.0000      -0.249972        -6.8021
  96   2.0000      -0.237465        -6.4618
  97   2.0000      -0.234081        -6.3697
  98   2.0000      -0.225868        -6.1462
  99   2.0000      -0.222390        -6.0515
 100   2.0000      -0.221042        -6.0148
 101   0.0000      -0.051096        -1.3904
 102   0.0000      -0.031029        -0.8444
 103   0.0000      -0.007546        -0.2053
 104   0.0000      -0.004770        -0.1298
 105   0.0000       0.014328         0.3899

MULLIKEN ATOMIC CHARGES
-----------------------
   0 C :   -0.483182
   1 C :   -0.152252
   2 O :   -0.284335
   3 P :    0.716928
   4 S :   -0.531271
   5 O :   -0.331199
   6 C :   -0.149888
   7 C :   -0.489373
   8 S :   -0.127136
   9 C :   -0.249024
  10 S :   -0.174320
  11 P :    0.670509
  12 S :   -0.494320
  13 O :   -0.286751
  14 C :   -0.091660
  15 C :   -0.532234
  16 O :   -0.313499
  17 C :   -0.161372
  18 C :   -0.464640
  19 H :    0.170344
  20 H :    0.172469
  21 H :    0.168698
  22 H :    0.179805
  23 H :    0.177461
  24 H :    0.175845
  25 H :    0.177771
  26 H :    0.172582
  27 H :    0.170023
  28 H :    0.173022
  29 H :    0.235208
  30 H :    0.232474
  31 H :    0.174484
  32 H :    0.180668
  33 H :    0.169610
  34 H :    0.171208
  35 H :    0.168577
  36 H :    0.172185
  37 H :    0.177988
  38 H :    0.173476
  39 H :    0.170280
  40 H :    0.164841
Sum of atomic charges:    0.0000000

LOEWDIN ATOMIC CHARGES
----------------------
   0 C :   -0.402685
   1 C :    0.021090
   2 O :   -0.691896
   3 P :    0.383613
   4 S :   -0.160387
   5 O :   -0.671037
   6 C :    0.025927
   7 C :   -0.409494
   8 S :    0.169003
   9 C :   -0.420013
  10 S :    0.145032
  11 P :    0.384503
  12 S :   -0.147665
  13 O :   -0.676600
  14 C :    0.025837
  15 C :   -0.394186
  16 O :   -0.673951
  17 C :    0.031081
  18 C :   -0.409327
  19 H :    0.164275
  20 H :    0.168867
  21 H :    0.162712
  22 H :    0.190965
  23 H :    0.182154
  24 H :    0.191211
  25 H :    0.181719
  26 H :    0.161588
  27 H :    0.163731
  28 H :    0.168665
  29 H :    0.197056
  30 H :    0.197796
  31 H :    0.183637
  32 H :    0.191305
  33 H :    0.164854
  34 H :    0.168779
  35 H :    0.163913
  36 H :    0.179668
  37 H :    0.193144
  38 H :    0.168648
  39 H :    0.164475
  40 H :    0.161995

  Mayer bond orders larger than 0.100000
B(  0-C ,  1-C ) :   0.9086 B(  0-C , 19-H ) :   0.9715 B(  0-C , 20-H ) :   0.9559
B(  0-C , 21-H ) :   0.9594 B(  1-C ,  2-O ) :   0.7712 B(  1-C , 22-H ) :   0.9511
B(  1-C , 23-H ) :   0.9596 B(  2-O ,  3-P ) :   1.1389 B(  3-P ,  4-S ) :   1.7027
B(  3-P ,  5-O ) :   1.0787 B(  3-P ,  8-S ) :   1.1111 B(  5-O ,  6-C ) :   0.7991
B(  6-C ,  7-C ) :   0.9108 B(  6-C , 24-H ) :   0.9484 B(  6-C , 25-H ) :   0.9648
B(  7-C , 26-H ) :   0.9632 B(  7-C , 27-H ) :   0.9661 B(  7-C , 28-H ) :   0.9534
B(  8-S ,  9-C ) :   0.9035 B(  9-C , 10-S ) :   0.9002 B(  9-C , 29-H ) :   0.9034
B(  9-C , 30-H ) :   0.8999 B( 10-S , 11-P ) :   1.0042 B( 11-P , 12-S ) :   1.8268
B( 11-P , 13-O ) :   1.1444 B( 11-P , 16-O ) :   1.0564 B( 13-O , 14-C ) :   0.7244
B( 14-C , 15-C ) :   0.9311 B( 14-C , 31-H ) :   0.9556 B( 14-C , 32-H ) :   0.9456
B( 15-C , 33-H ) :   0.9704 B( 15-C , 34-H ) :   0.9595 B( 15-C , 35-H ) :   0.9723
B( 16-O , 17-C ) :   0.7934 B( 17-C , 18-C ) :   0.9214 B( 17-C , 36-H ) :   0.9570
B( 17-C , 37-H ) :   0.9488 B( 18-C , 38-H ) :   0.9558 B( 18-C , 39-H ) :   0.9667
B( 18-C , 40-H ) :   0.9579

Dispersion correction           -0.021642650
FINAL SINGLE POINT ENERGY     -2932.471812080211

DIPOLE MOMENT
-------------

Method             : SCF
Type of density    : Electron Density
Multiplicity       :   1
Irrep              :   0
Energy             : -2932.4966340435839811 Eh
Relativity type    :
Basis              : AO
                                X                 Y                 Z
Electronic contribution:     -1.814491230      -8.165609959      -9.450826779
Nuclear contribution   :      2.223272021       9.070283108      11.770115817
                        -----------------------------------------
Total Dipole Moment    :      0.408780791       0.904673149       2.319289038
                        -----------------------------------------
Magnitude (a.u.)       :      2.522823197
Magnitude (Debye)      :      6.412506956

Rotational constants in cm-1:             0.012714             0.004897             0.004537
Rotational constants in MHz :           381.148469           146.797399           136.007068

                             ****ORCA TERMINATED NORMALLY****
TOTAL RUN TIME: 0 days 0 hours 1 minutes 49 seconds 651 msec
