                         Program Version 6.0.0  -   RELEASE  -
|  1> ! pbe def2-sv(p) def2/J RI DEFGRID1 loosescf d4 GCP(DFT/SV(P)) printgap
|  2> %output
|  3>     printlevel normal
|  4> end
|  5> * xyz 0 1
|  6> C 0.947783268 1.6239457869 -1.772926596
|  7> C 2.0525816113 1.7656497503 -1.0572786793
|  8> C 2.4285552345 0.5171764082 -0.329364483
|  9> H 2.620203673 0.6621199208 0.7332848564
| 10> C 1.2825568522 -0.4612314817 -0.6200866581
| 11> H 1.6589889161 -1.4081413551 -1.0039018301
| 12> C 0.3429407086 0.2622697324 -1.6209015153
| 13> H 0.2345375618 -0.2547542917 -2.5743006719
| 14> C -1.0239156957 0.2630664781 -0.8755085515
| 15> C -0.8782345952 1.1951397661 0.3107998998
| 16> C -0.0528578735 0.5983559916 1.1811947299
| 17> C 0.347799167 -0.7365699667 0.5841640806
| 18> C -0.9672667512 -1.0974846615 -0.1459087192
| 19> Cl -2.3302979324 -1.3580252285 0.9608895726
| 20> Cl -0.8531134431 -2.4887273376 -1.2135464393
| 21> Cl 0.9470239019 -1.9203638331 1.7346519373
| 22> Cl 0.5344424023 1.1773367096 2.6592671255
| 23> Cl -1.5856194687 2.7259504862 0.3903138372
| 24> Cl -2.4302020376 0.5421924428 -1.8838733998
| 25> Cl 3.9818136489 -0.1238850654 -0.997857867
| 26> H 0.4882137991 2.3700446888 -2.3935674335
| 27> H 2.6735761506 2.6400952182 -1.0065239698
| 28> *
| 29>
| 30>                          ****END OF INPUT****

CARTESIAN COORDINATES (ANGSTROEM)
---------------------------------
  C      0.947783    1.623946   -1.772927
  C      2.052582    1.765650   -1.057279
  C      2.428555    0.517176   -0.329364
  H      2.620204    0.662120    0.733285
  C      1.282557   -0.461231   -0.620087
  H      1.658989   -1.408141   -1.003902
  C      0.342941    0.262270   -1.620902
  H      0.234538   -0.254754   -2.574301
  C     -1.023916    0.263066   -0.875509
  C     -0.878235    1.195140    0.310800
  C     -0.052858    0.598356    1.181195
  C      0.347799   -0.736570    0.584164
  C     -0.967267   -1.097485   -0.145909
  Cl    -2.330298   -1.358025    0.960890
  Cl    -0.853113   -2.488727   -1.213546
  Cl     0.947024   -1.920364    1.734652
  Cl     0.534442    1.177337    2.659267
  Cl    -1.585619    2.725950    0.390314
  Cl    -2.430202    0.542192   -1.883873
  Cl     3.981814   -0.123885   -0.997858
  H      0.488214    2.370045   -2.393567
  H      2.673576    2.640095   -1.006524

 Total Charge           Charge          ....    0
 Multiplicity           Mult            ....    1
 Number of Electrons    NEL             ....  184
 Basis Dimension        Dim             ....  276

ORBITAL ENERGIES
----------------

  NO   OCC          E(Eh)            E(eV)
   0   2.0000    -100.674798     -2739.5005
   1   2.0000    -100.673634     -2739.4689
   2   2.0000    -100.663397     -2739.1903
   3   2.0000    -100.655349     -2738.9713
   4   2.0000    -100.653603     -2738.9238
   5   2.0000    -100.651836     -2738.8757
   6   2.0000    -100.628585     -2738.2430
   7   2.0000     -10.041300      -273.2377
   8   2.0000     -10.007415      -272.3156
   9   2.0000     -10.007067      -272.3061
  10   2.0000      -9.981065      -271.5986
  11   2.0000      -9.980096      -271.5722
  12   2.0000      -9.968319      -271.2518
  13   2.0000      -9.942933      -270.5610
  14   2.0000      -9.941492      -270.5217
  15   2.0000      -9.921519      -269.9783
  16   2.0000      -9.918410      -269.8936
  17   2.0000      -9.210317      -250.6255
  18   2.0000      -9.209277      -250.5972
  19   2.0000      -9.199488      -250.3308
  20   2.0000      -9.191178      -250.1047
  21   2.0000      -9.189386      -250.0559
  22   2.0000      -9.187839      -250.0138
  23   2.0000      -9.164462      -249.3777
  24   2.0000      -7.041846      -191.6184
  25   2.0000      -7.040777      -191.5893
  26   2.0000      -7.031157      -191.3275
  27   2.0000      -7.030457      -191.3085
  28   2.0000      -7.029429      -191.2805
  29   2.0000      -7.029375      -191.2790
  30   2.0000      -7.028344      -191.2510
  31   2.0000      -7.022897      -191.1027
  32   2.0000      -7.021136      -191.0548
  33   2.0000      -7.019812      -191.0188
  34   2.0000      -7.019014      -190.9971
  35   2.0000      -7.018858      -190.9928
  36   2.0000      -7.010810      -190.7738
  37   2.0000      -7.010512      -190.7657
  38   2.0000      -7.009036      -190.7256
  39   2.0000      -7.008692      -190.7162
  40   2.0000      -7.007261      -190.6773
  41   2.0000      -7.007101      -190.6729
  42   2.0000      -6.996004      -190.3709
  43   2.0000      -6.984235      -190.0507
  44   2.0000      -6.983962      -190.0433
  45   2.0000      -0.917059       -24.9544
  46   2.0000      -0.843727       -22.9590
  47   2.0000      -0.830526       -22.5997
  48   2.0000      -0.824868       -22.4458
  49   2.0000      -0.797794       -21.7091
  50   2.0000      -0.793872       -21.6024
  51   2.0000      -0.769414       -20.9368
  52   2.0000      -0.768421       -20.9098
  53   2.0000      -0.739827       -20.1317
  54   2.0000      -0.681897       -18.5554
  55   2.0000      -0.668018       -18.1777
  56   2.0000      -0.625774       -17.0282
  57   2.0000      -0.609511       -16.5856
  58   2.0000      -0.545597       -14.8464
  59   2.0000      -0.534746       -14.5512
  60   2.0000      -0.519028       -14.1235
  61   2.0000      -0.499359       -13.5882
  62   2.0000      -0.498900       -13.5758
  63   2.0000      -0.480625       -13.0785
  64   2.0000      -0.471904       -12.8412
  65   2.0000      -0.435143       -11.8408
  66   2.0000      -0.432357       -11.7650
  67   2.0000      -0.426469       -11.6048
  68   2.0000      -0.408977       -11.1288
  69   2.0000      -0.398091       -10.8326
  70   2.0000      -0.394656       -10.7391
  71   2.0000      -0.388083       -10.5603
  72   2.0000      -0.369436       -10.0529
  73   2.0000      -0.362392        -9.8612
  74   2.0000      -0.352378        -9.5887
  75   2.0000      -0.346848        -9.4382
  76   2.0000      -0.344350        -9.3702
  77   2.0000      -0.323672        -8.8076
  78   2.0000      -0.311033        -8.4636
  79   2.0000      -0.303650        -8.2627
  80   2.0000      -0.293709        -7.9922
  81   2.0000      -0.292405        -7.9567
  82   2.0000      -0.288029        -7.8377
  83   2.0000      -0.281404        -7.6574
  84   2.0000      -0.279996        -7.6191
  85   2.0000      -0.274378        -7.4662
  86   2.0000      -0.271028        -7.3750
  87   2.0000      -0.270455        -7.3594
  88   2.0000      -0.260433        -7.0867
  89   2.0000      -0.256003        -6.9662
  90   2.0000      -0.247514        -6.7352
  91   2.0000      -0.226058        -6.1513
  92   0.0000      -0.072145        -1.9632
  93   0.0000      -0.059012        -1.6058
  94   0.0000      -0.053755        -1.4628
  95   0.0000      -0.023588        -0.6419
  96   0.0000      -0.004725        -0.1286

MULLIKEN ATOMIC CHARGES
-----------------------
   0 C :   -0.013594
   1 C :   -0.050338
   2 C :   -0.083498
   3 H :    0.133868
   4 C :   -0.001107
   5 H :    0.105756
   6 C :   -0.027730
   7 H :    0.108554
   8 C :   -0.067788
   9 C :    0.058746
  10 C :    0.037419
  11 C :   -0.079489
  12 C :   -0.142331
  13 Cl:    0.011336
  14 Cl:    0.014004
  15 Cl:   -0.020845
  16 Cl:   -0.000598
  17 Cl:   -0.005310
  18 Cl:   -0.026323
  19 Cl:   -0.114364
  20 H :    0.080694
  21 H :    0.082937
Sum of atomic charges:    0.0000000

LOEWDIN ATOMIC CHARGES
----------------------
   0 C :   -0.110556
   1 C :   -0.131628
   2 C :   -0.175615
   3 H :    0.125619
   4 C :   -0.135983
   5 H :    0.133349
   6 C :   -0.123306
   7 H :    0.136503
   8 C :   -0.167484
   9 C :   -0.200058
  10 C :   -0.208417
  11 C :   -0.165096
  12 C :   -0.228319
  13 Cl:    0.121592
  14 Cl:    0.146202
  15 Cl:    0.129983
  16 Cl:    0.205457
  17 Cl:    0.207034
  18 Cl:    0.128697
  19 Cl:    0.050171
  20 H :    0.130876
  21 H :    0.130977

  Mayer bond orders larger than 0.100000
B(  0-C ,  1-C ) :   1.7774 B(  0-C ,  6-C ) :   0.9973 B(  0-C , 20-H ) :   0.9737
B(  1-C ,  2-C ) :   1.0075 B(  1-C , 21-H ) :   0.9708 B(  2-C ,  3-H ) :   0.8850
B(  2-C ,  4-C ) :   0.9818 B(  2-C , 19-Cl) :   1.0084 B(  4-C ,  5-H ) :   0.8467
B(  4-C ,  6-C ) :   1.0385 B(  4-C , 11-C ) :   0.9600 B(  6-C ,  7-H ) :   0.8526
B(  6-C ,  8-C ) :   0.9703 B(  8-C ,  9-C ) :   0.9011 B(  8-C , 12-C ) :   0.8316
B(  8-C , 18-Cl) :   1.1333 B(  9-C , 10-C ) :   1.7622 B(  9-C , 17-Cl) :   1.1363
B( 10-C , 11-C ) :   0.9090 B( 10-C , 16-Cl) :   1.1339 B( 11-C , 12-C ) :   0.8241
B( 11-C , 15-Cl) :   1.1384 B( 12-C , 13-Cl) :   1.1495 B( 12-C , 14-Cl) :   1.1397

Dispersion correction           -0.054673161
FINAL SINGLE POINT ENERGY     -3602.300627005992

DIPOLE MOMENT
-------------

Method             : SCF
Type of density    : Electron Density
Multiplicity       :   1
Irrep              :   0
Energy             : -3602.3275022689995239 Eh
Relativity type    :
Basis              : AO
                                X                 Y                 Z
Electronic contribution:     -9.489607981      -5.072857942       7.839739941
Nuclear contribution   :      9.531010563       5.701686132      -8.073362012
                        -----------------------------------------
Total Dipole Moment    :      0.041402582       0.628828190      -0.233622071
                        -----------------------------------------
Magnitude (a.u.)       :      0.672099946
Magnitude (Debye)      :      1.708342299

Rotational constants in cm-1:             0.010422             0.008143             0.007664
Rotational constants in MHz :           312.448819           244.135795           229.771393

                             ****ORCA TERMINATED NORMALLY****
TOTAL RUN TIME: 0 days 0 hours 0 minutes 21 seconds 927 msec
