                         Program Version 6.0.0  -   RELEASE  -
|  1> ! pbe def2-sv(p) def2/J RI DEFGRID1 loosescf d4 GCP(DFT/SV(P)) printgap
|  2> %output
|  3>     printlevel normal
|  4> end
|  5> * xyz 0 1
|  6> C 0.9292622795 -2.8376959324 1.3337662264
|  7> C 1.9292821249 -1.7742901448 1.7410315238
|  8> O 1.5833267178 -0.4948852821 1.1703381289
|  9> P 2.2697501763 0.070602155 -0.1610263918
| 10> S 2.9461932946 -1.2490184631 -1.4291677016
| 11> O 3.449153146 1.0112416763 0.3320168091
| 12> C 3.2386916799 2.1037506035 1.2606465529
| 13> C 4.6002347847 2.6084822376 1.690945585
| 14> S 0.7867978919 1.4337307481 -0.8013963814
| 15> C -0.0198910163 0.3410924318 -1.9999029587
| 16> S -0.7713531931 -1.1241325479 -1.2460946218
| 17> P -2.2229168381 -0.1078275505 -0.108048241
| 18> S -3.0483353064 1.4925755427 -0.8932641888
| 19> O -1.4240760702 0.1029313821 1.2413131516
| 20> C -1.8437775914 1.037649193 2.2610505393
| 21> C -0.6396482261 1.8369838457 2.716776785
| 22> O -3.2599231721 -1.2343605121 0.3274623118
| 23> C -4.4211279718 -1.5616915607 -0.4553400232
| 24> C -4.0551121736 -2.2289932733 -1.7653212005
| 25> H -0.0813234 -2.5045315855 1.5582203863
| 26> H 1.0022643422 -3.033602004 0.2660810033
| 27> H 1.1381851855 -3.752665098 1.8786762525
| 28> H 2.9396091155 -2.0496950741 1.4236900596
| 29> H 1.9143353429 -1.6089989932 2.8200770584
| 30> H 2.6677333159 2.8799859958 0.7441556118
| 31> H 2.6576102794 1.7355925328 2.109833644
| 32> H 5.1640480792 2.938217824 0.8232464945
| 33> H 4.4711474222 3.4410585947 2.374768546
| 34> H 5.1546238837 1.8163880991 2.1861190037
| 35> H 0.7164906626 -0.0256083766 -2.7140941362
| 36> H -0.7878926401 0.9410234303 -2.4876753614
| 37> H -2.617578483 1.6928494802 1.8470046967
| 38> H -2.2661310394 0.4466150818 3.0763319478
| 39> H -0.2631263799 2.4450302838 1.8976108366
| 40> H -0.9289245072 2.4818681923 3.5400847897
| 41> H 0.1460063736 1.1612576012 3.0430298754
| 42> H -4.9936772347 -2.2279887994 0.191182435
| 43> H -4.9850602769 -0.6410512114 -0.6364539461
| 44> H -3.402450148 -3.0799362653 -1.5870214106
| 45> H -4.9593290715 -2.56474037 -2.2628077471
| 46> H -3.5382656625 -1.5215089067 -2.4124481932
| 47> *
| 48>
| 49>                          ****END OF INPUT****

CARTESIAN COORDINATES (ANGSTROEM)
---------------------------------
  C      0.929262   -2.837696    1.333766
  C      1.929282   -1.774290    1.741032
  O      1.583327   -0.494885    1.170338
  P      2.269750    0.070602   -0.161026
  S      2.946193   -1.249018   -1.429168
  O      3.449153    1.011242    0.332017
  C      3.238692    2.103751    1.260647
  C      4.600235    2.608482    1.690946
  S      0.786798    1.433731   -0.801396
  C     -0.019891    0.341092   -1.999903
  S     -0.771353   -1.124133   -1.246095
  P     -2.222917   -0.107828   -0.108048
  S     -3.048335    1.492576   -0.893264
  O     -1.424076    0.102931    1.241313
  C     -1.843778    1.037649    2.261051
  C     -0.639648    1.836984    2.716777
  O     -3.259923   -1.234361    0.327462
  C     -4.421128   -1.561692   -0.455340
  C     -4.055112   -2.228993   -1.765321
  H     -0.081323   -2.504532    1.558220
  H      1.002264   -3.033602    0.266081
  H      1.138185   -3.752665    1.878676
  H      2.939609   -2.049695    1.423690
  H      1.914335   -1.608999    2.820077
  H      2.667733    2.879986    0.744156
  H      2.657610    1.735593    2.109834
  H      5.164048    2.938218    0.823246
  H      4.471147    3.441059    2.374769
  H      5.154624    1.816388    2.186119
  H      0.716491   -0.025608   -2.714094
  H     -0.787893    0.941023   -2.487675
  H     -2.617578    1.692849    1.847005
  H     -2.266131    0.446615    3.076332
  H     -0.263126    2.445030    1.897611
  H     -0.928925    2.481868    3.540085
  H      0.146006    1.161258    3.043030
  H     -4.993677   -2.227989    0.191182
  H     -4.985060   -0.641051   -0.636454
  H     -3.402450   -3.079936   -1.587021
  H     -4.959329   -2.564740   -2.262808
  H     -3.538266   -1.521509   -2.412448

 Total Charge           Charge          ....    0
 Multiplicity           Mult            ....    1
 Number of Electrons    NEL             ....  202
 Basis Dimension        Dim             ....  334

ORBITAL ENERGIES
----------------

  NO   OCC          E(Eh)            E(eV)
   0   2.0000     -88.044521     -2395.8132
   1   2.0000     -88.042214     -2395.7504
   2   2.0000     -87.989595     -2394.3186
   3   2.0000     -87.986347     -2394.2302
   4   2.0000     -76.426783     -2079.6785
   5   2.0000     -76.424248     -2079.6095
   6   2.0000     -18.793720      -511.4031
   7   2.0000     -18.793047      -511.3848
   8   2.0000     -18.788109      -511.2504
   9   2.0000     -18.786404      -511.2040
  10   2.0000      -9.960013      -271.0257
  11   2.0000      -9.956255      -270.9235
  12   2.0000      -9.952680      -270.8262
  13   2.0000      -9.951423      -270.7920
  14   2.0000      -9.949794      -270.7477
  15   2.0000      -9.892739      -269.1951
  16   2.0000      -9.884519      -268.9714
  17   2.0000      -9.884464      -268.9699
  18   2.0000      -9.874427      -268.6968
  19   2.0000      -7.689395      -209.2391
  20   2.0000      -7.687418      -209.1853
  21   2.0000      -7.634525      -207.7460
  22   2.0000      -7.631649      -207.6677
  23   2.0000      -6.424419      -174.8173
  24   2.0000      -6.422214      -174.7573
  25   2.0000      -5.717304      -155.5758
  26   2.0000      -5.715240      -155.5196
  27   2.0000      -5.713971      -155.4851
  28   2.0000      -5.712088      -155.4338
  29   2.0000      -5.706213      -155.2739
  30   2.0000      -5.704204      -155.2193
  31   2.0000      -5.663286      -154.1058
  32   2.0000      -5.660769      -154.0373
  33   2.0000      -5.655237      -153.8868
  34   2.0000      -5.654780      -153.8744
  35   2.0000      -5.652415      -153.8100
  36   2.0000      -5.651411      -153.7827
  37   2.0000      -4.646888      -126.4482
  38   2.0000      -4.646126      -126.4275
  39   2.0000      -4.645059      -126.3985
  40   2.0000      -4.644995      -126.3967
  41   2.0000      -4.643602      -126.3588
  42   2.0000      -4.642789      -126.3367
  43   2.0000      -0.986265       -26.8376
  44   2.0000      -0.982872       -26.7453
  45   2.0000      -0.944517       -25.7016
  46   2.0000      -0.940944       -25.6044
  47   2.0000      -0.767247       -20.8779
  48   2.0000      -0.723810       -19.6959
  49   2.0000      -0.711274       -19.3547
  50   2.0000      -0.689381       -18.7590
  51   2.0000      -0.686317       -18.6756
  52   2.0000      -0.673120       -18.3165
  53   2.0000      -0.650264       -17.6946
  54   2.0000      -0.640857       -17.4386
  55   2.0000      -0.601335       -16.3631
  56   2.0000      -0.583484       -15.8774
  57   2.0000      -0.575295       -15.6546
  58   2.0000      -0.571603       -15.5541
  59   2.0000      -0.555715       -15.1218
  60   2.0000      -0.511092       -13.9075
  61   2.0000      -0.502217       -13.6660
  62   2.0000      -0.478254       -13.0140
  63   2.0000      -0.472759       -12.8644
  64   2.0000      -0.460065       -12.5190
  65   2.0000      -0.443991       -12.0816
  66   2.0000      -0.441203       -12.0057
  67   2.0000      -0.435913       -11.8618
  68   2.0000      -0.429820       -11.6960
  69   2.0000      -0.415382       -11.3031
  70   2.0000      -0.401325       -10.9206
  71   2.0000      -0.398830       -10.8527
  72   2.0000      -0.389363       -10.5951
  73   2.0000      -0.387604       -10.5472
  74   2.0000      -0.380327       -10.3492
  75   2.0000      -0.371422       -10.1069
  76   2.0000      -0.366631        -9.9765
  77   2.0000      -0.358369        -9.7517
  78   2.0000      -0.354859        -9.6562
  79   2.0000      -0.352886        -9.6025
  80   2.0000      -0.348846        -9.4926
  81   2.0000      -0.342308        -9.3147
  82   2.0000      -0.341649        -9.2967
  83   2.0000      -0.339249        -9.2314
  84   2.0000      -0.336821        -9.1654
  85   2.0000      -0.319399        -8.6913
  86   2.0000      -0.313230        -8.5234
  87   2.0000      -0.303282        -8.2527
  88   2.0000      -0.296953        -8.0805
  89   2.0000      -0.287892        -7.8339
  90   2.0000      -0.281060        -7.6480
  91   2.0000      -0.277415        -7.5488
  92   2.0000      -0.270897        -7.3715
  93   2.0000      -0.264614        -7.2005
  94   2.0000      -0.261520        -7.1163
  95   2.0000      -0.230564        -6.2740
  96   2.0000      -0.216376        -5.8879
  97   2.0000      -0.214770        -5.8442
  98   2.0000      -0.207390        -5.6434
  99   2.0000      -0.202183        -5.5017
 100   2.0000      -0.199179        -5.4199
 101   0.0000      -0.046857        -1.2750
 102   0.0000      -0.026046        -0.7087
 103   0.0000      -0.003272        -0.0890
 104   0.0000       0.002984         0.0812
 105   0.0000       0.006601         0.1796

MULLIKEN ATOMIC CHARGES
-----------------------
   0 C :   -0.292676
   1 C :   -0.011064
   2 O :   -0.379291
   3 P :    0.621824
   4 S :   -0.313147
   5 O :   -0.369890
   6 C :   -0.048670
   7 C :   -0.269529
   8 S :   -0.097789
   9 C :   -0.351372
  10 S :   -0.065021
  11 P :    0.617834
  12 S :   -0.339228
  13 O :   -0.356889
  14 C :   -0.006205
  15 C :   -0.300438
  16 O :   -0.377782
  17 C :   -0.003192
  18 C :   -0.316579
  19 H :    0.117172
  20 H :    0.129815
  21 H :    0.102496
  22 H :    0.104925
  23 H :    0.096952
  24 H :    0.116361
  25 H :    0.114473
  26 H :    0.124774
  27 H :    0.111192
  28 H :    0.118865
  29 H :    0.193558
  30 H :    0.191097
  31 H :    0.105197
  32 H :    0.102285
  33 H :    0.124809
  34 H :    0.105126
  35 H :    0.125260
  36 H :    0.104882
  37 H :    0.111090
  38 H :    0.118851
  39 H :    0.113754
  40 H :    0.126172
Sum of atomic charges:   -0.0000000

LOEWDIN ATOMIC CHARGES
----------------------
   0 C :   -0.365153
   1 C :   -0.115191
   2 O :   -0.250969
   3 P :    0.569172
   4 S :   -0.309325
   5 O :   -0.249469
   6 C :   -0.121589
   7 C :   -0.347941
   8 S :    0.088558
   9 C :   -0.478395
  10 S :    0.116721
  11 P :    0.569629
  12 S :   -0.328622
  13 O :   -0.235606
  14 C :   -0.114146
  15 C :   -0.357518
  16 O :   -0.248425
  17 C :   -0.119491
  18 C :   -0.369392
  19 H :    0.121823
  20 H :    0.121788
  21 H :    0.125456
  22 H :    0.108330
  23 H :    0.112915
  24 H :    0.110028
  25 H :    0.111132
  26 H :    0.131724
  27 H :    0.130695
  28 H :    0.128875
  29 H :    0.133071
  30 H :    0.130957
  31 H :    0.106820
  32 H :    0.114102
  33 H :    0.122716
  34 H :    0.126844
  35 H :    0.123776
  36 H :    0.118541
  37 H :    0.110439
  38 H :    0.124866
  39 H :    0.131355
  40 H :    0.120899

  Mayer bond orders larger than 0.100000
B(  0-C ,  1-C ) :   1.1751 B(  0-C , 19-H ) :   0.9419 B(  0-C , 20-H ) :   0.9356
B(  0-C , 21-H ) :   0.9383 B(  1-C ,  2-O ) :   0.9021 B(  1-C , 22-H ) :   0.9142
B(  1-C , 23-H ) :   0.9327 B(  2-O ,  3-P ) :   1.0827 B(  3-P ,  4-S ) :   1.6329
B(  3-P ,  5-O ) :   1.1158 B(  3-P ,  8-S ) :   0.9587 B(  4-S ,  8-S ) :   0.1029
B(  5-O ,  6-C ) :   0.9072 B(  6-C ,  7-C ) :   1.1643 B(  6-C , 24-H ) :   0.9204
B(  6-C , 25-H ) :   0.9170 B(  7-C , 26-H ) :   0.9494 B(  7-C , 27-H ) :   0.9405
B(  7-C , 28-H ) :   0.9508 B(  8-S ,  9-C ) :   1.0126 B(  9-C , 10-S ) :   1.0065
B(  9-C , 29-H ) :   0.8851 B(  9-C , 30-H ) :   0.8834 B( 10-S , 11-P ) :   0.9656
B( 10-S , 12-S ) :   0.1070 B( 11-P , 12-S ) :   1.5907 B( 11-P , 13-O ) :   1.1262
B( 11-P , 16-O ) :   1.1056 B( 13-O , 14-C ) :   0.9015 B( 14-C , 15-C ) :   1.1674
B( 14-C , 31-H ) :   0.9040 B( 14-C , 32-H ) :   0.9339 B( 15-C , 33-H ) :   0.9440
B( 15-C , 34-H ) :   0.9386 B( 15-C , 35-H ) :   0.9409 B( 16-O , 17-C ) :   0.9104
B( 17-C , 18-C ) :   1.1647 B( 17-C , 36-H ) :   0.9339 B( 17-C , 37-H ) :   0.9156
B( 18-C , 38-H ) :   0.9449 B( 18-C , 39-H ) :   0.9379 B( 18-C , 40-H ) :   0.9357

Dispersion correction           -0.066761028
FINAL SINGLE POINT ENERGY     -2929.523737505130

DIPOLE MOMENT
-------------

Method             : SCF
Type of density    : Electron Density
Multiplicity       :   1
Irrep              :   0
Energy             : -2929.6419433831538299 Eh
Relativity type    :
Basis              : AO
                                X                 Y                 Z
Electronic contribution:      0.455559933       1.013691480     -15.504106350
Nuclear contribution   :     -0.833220659      -0.958589925      16.998914110
                        -----------------------------------------
Total Dipole Moment    :     -0.377660725       0.055101555       1.494807760
                        -----------------------------------------
Magnitude (a.u.)       :      1.542761823
Magnitude (Debye)      :      3.921388917

Rotational constants in cm-1:             0.012326             0.005416             0.004927
Rotational constants in MHz :           369.519274           162.382143           147.712952

                             ****ORCA TERMINATED NORMALLY****
TOTAL RUN TIME: 0 days 0 hours 0 minutes 22 seconds 111 msec
