                         Program Version 6.0.0  -   RELEASE  -
|  1> ! pbe def2-sv(p) def2/J RI DEFGRID1 loosescf d4 GCP(DFT/SV(P)) printgap
|  2> %output
|  3>     printlevel normal
|  4> end
|  5> * xyz 0 1
|  6> C 2.3718190538 -2.4963634392 2.5191046622
|  7> C 1.3323652652 -1.6740010846 1.7831048394
|  8> O 1.9660146786 -0.6188048656 1.0336245714
|  9> P 2.2733703893 -0.7258813447 -0.5251833125
| 10> S 2.8241490046 -2.4831600744 -1.1862287249
| 11> O 3.2882025519 0.4752024383 -0.7258451587
| 12> C 4.717340131 0.2806383 -0.6670518383
| 13> C 5.1810737499 -0.060577277 0.7330486043
| 14> S 0.5800614277 0.1069319397 -1.4883880787
| 15> C 0.3021419548 1.5095719788 -0.3584898398
| 16> S -0.7652619013 1.0845542368 1.0347657129
| 17> P -2.553195402 0.8711228853 -0.1087625404
| 18> S -2.7979519667 2.1589973629 -1.557868292
| 19> O -3.6991876503 0.8165353147 0.9923694341
| 20> C -4.3543096843 1.9943012802 1.5005378554
| 21> C -3.4079825974 2.8981036532 2.2632898107
| 22> O -2.5428901261 -0.6158853713 -0.6339062542
| 23> C -2.4511414956 -1.7653364303 0.2449387744
| 24> C -1.7874287741 -2.8911139237 -0.5214616233
| 25> H 2.9823624911 -1.8538376661 3.1469484982
| 26> H 1.8700377121 -3.2322796647 3.1388466866
| 27> H 3.0110030817 -3.0130306538 1.8060824593
| 28> H 0.6623529865 -1.1599329539 2.4752675044
| 29> H 0.7549427769 -2.3074537052 1.1045804342
| 30> H 4.9865639604 -0.5150619803 -1.3687384176
| 31> H 5.1236703404 1.2324986917 -1.0118215219
| 32> H 4.8287451324 0.6862804462 1.4395467538
| 33> H 4.7904398202 -1.0346297878 1.0223335844
| 34> H 6.2658586601 -0.0948905303 0.7534529163
| 35> H -0.183895886 2.2843729815 -0.9520285757
| 36> H 1.2523512012 1.8483933035 0.0434487547
| 37> H -4.8013874816 2.5290917353 0.6573014901
| 38> H -5.1381812319 1.5939651874 2.1450227256
| 39> H -2.6825128601 3.3380758309 1.5808015168
| 40> H -3.9762484672 3.6953005025 2.7316428818
| 41> H -2.8775760659 2.3348053198 3.0268532008
| 42> H -1.8754331974 -1.4848013595 1.1324373361
| 43> H -3.4667191169 -2.030127035 0.544206111
| 44> H -1.7179793064 -3.76784548 0.1146231484
| 45> H -2.3691601525 -3.1325082585 -1.4062302445
| 46> H -0.789184729 -2.5998030019 -0.8443250356
| 47> *
| 48>
| 49>                          ****END OF INPUT****

CARTESIAN COORDINATES (ANGSTROEM)
---------------------------------
  C      2.371819   -2.496363    2.519105
  C      1.332365   -1.674001    1.783105
  O      1.966015   -0.618805    1.033625
  P      2.273370   -0.725881   -0.525183
  S      2.824149   -2.483160   -1.186229
  O      3.288203    0.475202   -0.725845
  C      4.717340    0.280638   -0.667052
  C      5.181074   -0.060577    0.733049
  S      0.580061    0.106932   -1.488388
  C      0.302142    1.509572   -0.358490
  S     -0.765262    1.084554    1.034766
  P     -2.553195    0.871123   -0.108763
  S     -2.797952    2.158997   -1.557868
  O     -3.699188    0.816535    0.992369
  C     -4.354310    1.994301    1.500538
  C     -3.407983    2.898104    2.263290
  O     -2.542890   -0.615885   -0.633906
  C     -2.451141   -1.765336    0.244939
  C     -1.787429   -2.891114   -0.521462
  H      2.982362   -1.853838    3.146948
  H      1.870038   -3.232280    3.138847
  H      3.011003   -3.013031    1.806082
  H      0.662353   -1.159933    2.475268
  H      0.754943   -2.307454    1.104580
  H      4.986564   -0.515062   -1.368738
  H      5.123670    1.232499   -1.011822
  H      4.828745    0.686280    1.439547
  H      4.790440   -1.034630    1.022334
  H      6.265859   -0.094891    0.753453
  H     -0.183896    2.284373   -0.952029
  H      1.252351    1.848393    0.043449
  H     -4.801387    2.529092    0.657301
  H     -5.138181    1.593965    2.145023
  H     -2.682513    3.338076    1.580802
  H     -3.976248    3.695301    2.731643
  H     -2.877576    2.334805    3.026853
  H     -1.875433   -1.484801    1.132437
  H     -3.466719   -2.030127    0.544206
  H     -1.717979   -3.767845    0.114623
  H     -2.369160   -3.132508   -1.406230
  H     -0.789185   -2.599803   -0.844325

 Total Charge           Charge          ....    0
 Multiplicity           Mult            ....    1
 Number of Electrons    NEL             ....  202
 Basis Dimension        Dim             ....  334

ORBITAL ENERGIES
----------------

  NO   OCC          E(Eh)            E(eV)
   0   2.0000     -88.045824     -2395.8487
   1   2.0000     -88.039845     -2395.6860
   2   2.0000     -87.992185     -2394.3891
   3   2.0000     -87.989346     -2394.3118
   4   2.0000     -76.428991     -2079.7386
   5   2.0000     -76.428575     -2079.7273
   6   2.0000     -18.798000      -511.5196
   7   2.0000     -18.796335      -511.4743
   8   2.0000     -18.794531      -511.4252
   9   2.0000     -18.791794      -511.3507
  10   2.0000      -9.957735      -270.9638
  11   2.0000      -9.957634      -270.9610
  12   2.0000      -9.956101      -270.9193
  13   2.0000      -9.955701      -270.9084
  14   2.0000      -9.955559      -270.9045
  15   2.0000      -9.888750      -269.0866
  16   2.0000      -9.888153      -269.0703
  17   2.0000      -9.887238      -269.0454
  18   2.0000      -9.883774      -268.9512
  19   2.0000      -7.690572      -209.2711
  20   2.0000      -7.684940      -209.1178
  21   2.0000      -7.637274      -207.8208
  22   2.0000      -7.634613      -207.7484
  23   2.0000      -6.426745      -174.8806
  24   2.0000      -6.426139      -174.8641
  25   2.0000      -5.718219      -155.6007
  26   2.0000      -5.715137      -155.5168
  27   2.0000      -5.713123      -155.4620
  28   2.0000      -5.709355      -155.3595
  29   2.0000      -5.707749      -155.3157
  30   2.0000      -5.701681      -155.1506
  31   2.0000      -5.666196      -154.1850
  32   2.0000      -5.663549      -154.1130
  33   2.0000      -5.657871      -153.9585
  34   2.0000      -5.657480      -153.9479
  35   2.0000      -5.655152      -153.8845
  36   2.0000      -5.654810      -153.8752
  37   2.0000      -4.649125      -126.5091
  38   2.0000      -4.649028      -126.5065
  39   2.0000      -4.648700      -126.4976
  40   2.0000      -4.647799      -126.4730
  41   2.0000      -4.647204      -126.4569
  42   2.0000      -4.646422      -126.4356
  43   2.0000      -0.990730       -26.9591
  44   2.0000      -0.990450       -26.9515
  45   2.0000      -0.949283       -25.8313
  46   2.0000      -0.946823       -25.7644
  47   2.0000      -0.764678       -20.8080
  48   2.0000      -0.725264       -19.7354
  49   2.0000      -0.712835       -19.3972
  50   2.0000      -0.691938       -18.8286
  51   2.0000      -0.691019       -18.8036
  52   2.0000      -0.676160       -18.3993
  53   2.0000      -0.657186       -17.8829
  54   2.0000      -0.640210       -17.4210
  55   2.0000      -0.601602       -16.3704
  56   2.0000      -0.595989       -16.2177
  57   2.0000      -0.573240       -15.5987
  58   2.0000      -0.572017       -15.5654
  59   2.0000      -0.563466       -15.3327
  60   2.0000      -0.508425       -13.8350
  61   2.0000      -0.504193       -13.7198
  62   2.0000      -0.480554       -13.0765
  63   2.0000      -0.476735       -12.9726
  64   2.0000      -0.463174       -12.6036
  65   2.0000      -0.447068       -12.1653
  66   2.0000      -0.441721       -12.0198
  67   2.0000      -0.441215       -12.0061
  68   2.0000      -0.434020       -11.8103
  69   2.0000      -0.418135       -11.3780
  70   2.0000      -0.409463       -11.1420
  71   2.0000      -0.406325       -11.0567
  72   2.0000      -0.392676       -10.6853
  73   2.0000      -0.388089       -10.5604
  74   2.0000      -0.383699       -10.4410
  75   2.0000      -0.371751       -10.1159
  76   2.0000      -0.366685        -9.9780
  77   2.0000      -0.363388        -9.8883
  78   2.0000      -0.360077        -9.7982
  79   2.0000      -0.355513        -9.6740
  80   2.0000      -0.354182        -9.6378
  81   2.0000      -0.345306        -9.3962
  82   2.0000      -0.342518        -9.3204
  83   2.0000      -0.341431        -9.2908
  84   2.0000      -0.333231        -9.0677
  85   2.0000      -0.324001        -8.8165
  86   2.0000      -0.315571        -8.5871
  87   2.0000      -0.302961        -8.2440
  88   2.0000      -0.299274        -8.1437
  89   2.0000      -0.298195        -8.1143
  90   2.0000      -0.291178        -7.9233
  91   2.0000      -0.278401        -7.5757
  92   2.0000      -0.274156        -7.4602
  93   2.0000      -0.267772        -7.2865
  94   2.0000      -0.258386        -7.0310
  95   2.0000      -0.237575        -6.4647
  96   2.0000      -0.219940        -5.9849
  97   2.0000      -0.210652        -5.7321
  98   2.0000      -0.209888        -5.7113
  99   2.0000      -0.206869        -5.6292
 100   2.0000      -0.202498        -5.5102
 101   0.0000      -0.042205        -1.1484
 102   0.0000      -0.024089        -0.6555
 103   0.0000      -0.013730        -0.3736
 104   0.0000       0.004096         0.1115
 105   0.0000       0.006169         0.1679

MULLIKEN ATOMIC CHARGES
-----------------------
   0 C :   -0.286431
   1 C :   -0.039071
   2 O :   -0.381247
   3 P :    0.596936
   4 S :   -0.319082
   5 O :   -0.376216
   6 C :   -0.004675
   7 C :   -0.317223
   8 S :   -0.047007
   9 C :   -0.364010
  10 S :   -0.100185
  11 P :    0.599326
  12 S :   -0.306384
  13 O :   -0.385351
  14 C :    0.001405
  15 C :   -0.319760
  16 O :   -0.350194
  17 C :   -0.016743
  18 C :   -0.293035
  19 H :    0.115075
  20 H :    0.108570
  21 H :    0.130484
  22 H :    0.114143
  23 H :    0.117364
  24 H :    0.115476
  25 H :    0.108159
  26 H :    0.116135
  27 H :    0.130777
  28 H :    0.114145
  29 H :    0.196146
  30 H :    0.189552
  31 H :    0.114468
  32 H :    0.105938
  33 H :    0.129360
  34 H :    0.115370
  35 H :    0.116494
  36 H :    0.097589
  37 H :    0.107706
  38 H :    0.106169
  39 H :    0.122132
  40 H :    0.137696
Sum of atomic charges:    0.0000000

LOEWDIN ATOMIC CHARGES
----------------------
   0 C :   -0.361017
   1 C :   -0.122645
   2 O :   -0.248444
   3 P :    0.565184
   4 S :   -0.320284
   5 O :   -0.246675
   6 C :   -0.114501
   7 C :   -0.366138
   8 S :    0.100877
   9 C :   -0.482581
  10 S :    0.081734
  11 P :    0.569389
  12 S :   -0.305119
  13 O :   -0.250082
  14 C :   -0.114637
  15 C :   -0.371446
  16 O :   -0.233688
  17 C :   -0.115097
  18 C :   -0.356567
  19 H :    0.125149
  20 H :    0.129505
  21 H :    0.124990
  22 H :    0.112188
  23 H :    0.111555
  24 H :    0.113404
  25 H :    0.120186
  26 H :    0.125936
  27 H :    0.124008
  28 H :    0.131691
  29 H :    0.130787
  30 H :    0.134885
  31 H :    0.114529
  32 H :    0.119263
  33 H :    0.122067
  34 H :    0.132244
  35 H :    0.122581
  36 H :    0.098762
  37 H :    0.115934
  38 H :    0.127807
  39 H :    0.131521
  40 H :    0.122743

  Mayer bond orders larger than 0.100000
B(  0-C ,  1-C ) :   1.1668 B(  0-C , 19-H ) :   0.9442 B(  0-C , 20-H ) :   0.9392
B(  0-C , 21-H ) :   0.9307 B(  1-C ,  2-O ) :   0.9001 B(  1-C , 22-H ) :   0.9244
B(  1-C , 23-H ) :   0.9064 B(  2-O ,  3-P ) :   1.0782 B(  3-P ,  4-S ) :   1.6293
B(  3-P ,  5-O ) :   1.1046 B(  3-P ,  8-S ) :   0.9919 B(  5-O ,  6-C ) :   0.9061
B(  6-C ,  7-C ) :   1.1618 B(  6-C , 24-H ) :   0.9184 B(  6-C , 25-H ) :   0.9356
B(  7-C , 26-H ) :   0.9461 B(  7-C , 27-H ) :   0.9323 B(  7-C , 28-H ) :   0.9372
B(  8-S ,  9-C ) :   0.9809 B(  9-C , 10-S ) :   0.9977 B(  9-C , 29-H ) :   0.8705
B(  9-C , 30-H ) :   0.8940 B( 10-S , 11-P ) :   0.9424 B( 10-S , 12-S ) :   0.1081
B( 11-P , 12-S ) :   1.6420 B( 11-P , 13-O ) :   1.0889 B( 11-P , 16-O ) :   1.1444
B( 13-O , 14-C ) :   0.9059 B( 14-C , 15-C ) :   1.1663 B( 14-C , 31-H ) :   0.9202
B( 14-C , 32-H ) :   0.9346 B( 15-C , 33-H ) :   0.9345 B( 15-C , 34-H ) :   0.9366
B( 15-C , 35-H ) :   0.9436 B( 16-O , 17-C ) :   0.8879 B( 17-C , 18-C ) :   1.1675
B( 17-C , 36-H ) :   0.9086 B( 17-C , 37-H ) :   0.9311 B( 18-C , 38-H ) :   0.9394
B( 18-C , 39-H ) :   0.9451 B( 18-C , 40-H ) :   0.9264

Dispersion correction           -0.065001415
FINAL SINGLE POINT ENERGY     -2929.523176556072

DIPOLE MOMENT
-------------

Method             : SCF
Type of density    : Electron Density
Multiplicity       :   1
Irrep              :   0
Energy             : -2929.6436473997559915 Eh
Relativity type    :
Basis              : AO
                                X                 Y                 Z
Electronic contribution:     -6.279832217       6.501236043     -18.575606145
Nuclear contribution   :      6.478886417      -6.424230242      20.633398790
                        -----------------------------------------
Total Dipole Moment    :      0.199054200       0.077005801       2.057792645
                        -----------------------------------------
Magnitude (a.u.)       :      2.068831322
Magnitude (Debye)      :      5.258551317

Rotational constants in cm-1:             0.013459             0.004491             0.004336
Rotational constants in MHz :           403.505245           134.639046           129.992699

                             ****ORCA TERMINATED NORMALLY****
TOTAL RUN TIME: 0 days 0 hours 0 minutes 21 seconds 280 msec
