                         Program Version 6.0.0  -   RELEASE  -
|  1> ! r2scan-3c def2/J RI DEFGRID2 scfconv6 printgap
|  2> %output
|  3>     printlevel normal
|  4> end
|  5> * xyz 0 1
|  6> C 3.0817261534 2.1902737137 -1.6330989053
|  7> C 3.7820133271 1.7948265489 -0.3485507012
|  8> O 3.5588999431 0.4129646699 -0.0277477453
|  9> P 2.164344075 -0.1101480526 0.5303787203
| 10> S 1.3530742411 1.0950590232 1.8504545875
| 11> O 2.5181379504 -1.5628611764 1.0492535302
| 12> C 2.8778127668 -1.8128905778 2.4253584728
| 13> C 4.2406982072 -1.2448822209 2.7589677325
| 14> S 1.1131169741 -0.6397617051 -1.2349814258
| 15> C -0.0464078109 -1.847751722 -0.5345684424
| 16> S -1.2286982268 -1.1326070106 0.6333295204
| 17> P -2.3036309766 0.0303342887 -0.8021619447
| 18> S -2.4066544823 -0.7302154598 -2.5986127341
| 19> O -1.6302412571 1.4559605842 -0.7922501867
| 20> C -1.6862692869 2.3503460604 0.3498713747
| 21> C -0.8270426915 3.5539362249 0.0295372266
| 22> O -3.6940425404 0.3208994805 -0.0878501423
| 23> C -4.8231160752 -0.5661745095 -0.2013292064
| 24> C -4.5811284449 -1.899275425 0.4759151662
| 25> H 3.3179861721 3.2219035292 -1.8735041044
| 26> H 3.3976359044 1.5460650539 -2.4495823898
| 27> H 2.0019367131 2.0906865107 -1.5175327911
| 28> H 3.4315075428 2.4072644525 0.489709658
| 29> H 4.8657593498 1.8768912051 -0.4404075042
| 30> H 2.1074505289 -1.3775583303 3.07006657
| 31> H 2.8606115927 -2.9003831446 2.5073074479
| 32> H 4.5172857733 -1.5413056733 3.7658978826
| 33> H 4.982917712 -1.6115772698 2.0549256957
| 34> H 4.2116263141 -0.1574586273 2.7052063704
| 35> H 0.50174754 -2.6221926572 -0.0051871568
| 36> H -0.5892694739 -2.2546721798 -1.3888689934
| 37> H -2.7291392387 2.6282422904 0.5103310325
| 38> H -1.3119907996 1.8197140298 1.230458088
| 39> H 0.2144453443 3.2561722252 -0.0578064221
| 40> H -1.1476764681 4.0040939326 -0.9054491581
| 41> H -0.9178269133 4.2758100584 0.8344083806
| 42> H -5.6333121585 -0.0129149739 0.2757504211
| 43> H -5.0421756859 -0.7082537183 -1.2639472333
| 44> H -4.2406787466 -1.7490912876 1.4975065864
| 45> H -5.5050421869 -2.4685184016 0.48311374
| 46> H -3.8246969377 -2.4625257177 -0.0682038013
| 47> *
| 48>
| 49>                          ****END OF INPUT****

CARTESIAN COORDINATES (ANGSTROEM)
---------------------------------
  C      3.081726    2.190274   -1.633099
  C      3.782013    1.794827   -0.348551
  O      3.558900    0.412965   -0.027748
  P      2.164344   -0.110148    0.530379
  S      1.353074    1.095059    1.850455
  O      2.518138   -1.562861    1.049254
  C      2.877813   -1.812891    2.425358
  C      4.240698   -1.244882    2.758968
  S      1.113117   -0.639762   -1.234981
  C     -0.046408   -1.847752   -0.534568
  S     -1.228698   -1.132607    0.633330
  P     -2.303631    0.030334   -0.802162
  S     -2.406654   -0.730215   -2.598613
  O     -1.630241    1.455961   -0.792250
  C     -1.686269    2.350346    0.349871
  C     -0.827043    3.553936    0.029537
  O     -3.694043    0.320899   -0.087850
  C     -4.823116   -0.566175   -0.201329
  C     -4.581128   -1.899275    0.475915
  H      3.317986    3.221904   -1.873504
  H      3.397636    1.546065   -2.449582
  H      2.001937    2.090687   -1.517533
  H      3.431508    2.407264    0.489710
  H      4.865759    1.876891   -0.440408
  H      2.107451   -1.377558    3.070067
  H      2.860612   -2.900383    2.507307
  H      4.517286   -1.541306    3.765898
  H      4.982918   -1.611577    2.054926
  H      4.211626   -0.157459    2.705206
  H      0.501748   -2.622193   -0.005187
  H     -0.589269   -2.254672   -1.388869
  H     -2.729139    2.628242    0.510331
  H     -1.311991    1.819714    1.230458
  H      0.214445    3.256172   -0.057806
  H     -1.147676    4.004094   -0.905449
  H     -0.917827    4.275810    0.834408
  H     -5.633312   -0.012915    0.275750
  H     -5.042176   -0.708254   -1.263947
  H     -4.240679   -1.749091    1.497507
  H     -5.505042   -2.468518    0.483114
  H     -3.824697   -2.462526   -0.068204

 Total Charge           Charge          ....    0
 Multiplicity           Mult            ....    1
 Number of Electrons    NEL             ....  202
 Basis Dimension        Dim             ....  539

ORBITAL ENERGIES
----------------

  NO   OCC          E(Eh)            E(eV)
   0   2.0000     -88.572077     -2410.1687
   1   2.0000     -88.569723     -2410.1047
   2   2.0000     -88.520073     -2408.7536
   3   2.0000     -88.517595     -2408.6862
   4   2.0000     -76.915203     -2092.9691
   5   2.0000     -76.910379     -2092.8378
   6   2.0000     -18.995520      -516.8944
   7   2.0000     -18.993265      -516.8330
   8   2.0000     -18.992246      -516.8053
   9   2.0000     -18.983373      -516.5638
  10   2.0000     -10.104034      -274.9447
  11   2.0000     -10.101119      -274.8654
  12   2.0000     -10.099384      -274.8182
  13   2.0000     -10.098742      -274.8007
  14   2.0000     -10.090048      -274.5642
  15   2.0000     -10.031112      -272.9604
  16   2.0000     -10.031059      -272.9590
  17   2.0000     -10.027664      -272.8666
  18   2.0000     -10.022627      -272.7295
  19   2.0000      -7.866194      -214.0500
  20   2.0000      -7.864087      -213.9927
  21   2.0000      -7.815064      -212.6587
  22   2.0000      -7.812480      -212.5884
  23   2.0000      -6.593699      -179.4237
  24   2.0000      -6.588839      -179.2914
  25   2.0000      -5.813331      -158.1888
  26   2.0000      -5.810951      -158.1240
  27   2.0000      -5.810025      -158.0988
  28   2.0000      -5.807965      -158.0428
  29   2.0000      -5.803096      -157.9103
  30   2.0000      -5.801179      -157.8581
  31   2.0000      -5.762652      -156.8097
  32   2.0000      -5.760136      -156.7413
  33   2.0000      -5.755372      -156.6116
  34   2.0000      -5.755062      -156.6032
  35   2.0000      -5.752693      -156.5387
  36   2.0000      -5.752514      -156.5339
  37   2.0000      -4.739273      -128.9622
  38   2.0000      -4.738748      -128.9479
  39   2.0000      -4.737228      -128.9065
  40   2.0000      -4.734741      -128.8389
  41   2.0000      -4.733589      -128.8075
  42   2.0000      -4.732408      -128.7754
  43   2.0000      -1.052813       -28.6485
  44   2.0000      -1.047494       -28.5038
  45   2.0000      -1.015385       -27.6300
  46   2.0000      -1.004750       -27.3406
  47   2.0000      -0.798428       -21.7263
  48   2.0000      -0.757247       -20.6057
  49   2.0000      -0.747580       -20.3427
  50   2.0000      -0.733971       -19.9724
  51   2.0000      -0.730214       -19.8701
  52   2.0000      -0.707269       -19.2458
  53   2.0000      -0.686898       -18.6914
  54   2.0000      -0.667855       -18.1733
  55   2.0000      -0.632864       -17.2211
  56   2.0000      -0.621336       -16.9074
  57   2.0000      -0.608194       -16.5498
  58   2.0000      -0.597276       -16.2527
  59   2.0000      -0.588964       -16.0265
  60   2.0000      -0.526880       -14.3371
  61   2.0000      -0.519822       -14.1451
  62   2.0000      -0.496919       -13.5219
  63   2.0000      -0.491033       -13.3617
  64   2.0000      -0.478896       -13.0314
  65   2.0000      -0.462706       -12.5909
  66   2.0000      -0.459217       -12.4959
  67   2.0000      -0.452714       -12.3190
  68   2.0000      -0.441977       -12.0268
  69   2.0000      -0.431999       -11.7553
  70   2.0000      -0.427547       -11.6341
  71   2.0000      -0.413507       -11.2521
  72   2.0000      -0.408888       -11.1264
  73   2.0000      -0.403638       -10.9835
  74   2.0000      -0.391396       -10.6504
  75   2.0000      -0.388541       -10.5727
  76   2.0000      -0.378741       -10.3061
  77   2.0000      -0.375644       -10.2218
  78   2.0000      -0.372786       -10.1440
  79   2.0000      -0.365792        -9.9537
  80   2.0000      -0.363549        -9.8927
  81   2.0000      -0.360679        -9.8146
  82   2.0000      -0.352792        -9.6000
  83   2.0000      -0.350126        -9.5274
  84   2.0000      -0.345253        -9.3948
  85   2.0000      -0.331650        -9.0247
  86   2.0000      -0.319882        -8.7044
  87   2.0000      -0.313442        -8.5292
  88   2.0000      -0.311241        -8.4693
  89   2.0000      -0.308051        -8.3825
  90   2.0000      -0.302704        -8.2370
  91   2.0000      -0.291335        -7.9276
  92   2.0000      -0.281081        -7.6486
  93   2.0000      -0.278464        -7.5774
  94   2.0000      -0.269920        -7.3449
  95   2.0000      -0.251467        -6.8428
  96   2.0000      -0.229456        -6.2438
  97   2.0000      -0.221095        -6.0163
  98   2.0000      -0.219041        -5.9604
  99   2.0000      -0.211853        -5.7648
 100   2.0000      -0.204438        -5.5631
 101   0.0000      -0.046454        -1.2641
 102   0.0000      -0.022502        -0.6123
 103   0.0000      -0.011827        -0.3218
 104   0.0000       0.003011         0.0819
 105   0.0000       0.014308         0.3894

MULLIKEN ATOMIC CHARGES
-----------------------
   0 C :   -0.457279
   1 C :   -0.157479
   2 O :   -0.287291
   3 P :    0.707844
   4 S :   -0.470414
   5 O :   -0.329407
   6 C :   -0.148851
   7 C :   -0.441946
   8 S :   -0.110656
   9 C :   -0.225249
  10 S :   -0.158853
  11 P :    0.667899
  12 S :   -0.453644
  13 O :   -0.252664
  14 C :   -0.119553
  15 C :   -0.458977
  16 O :   -0.297989
  17 C :   -0.166515
  18 C :   -0.443130
  19 H :    0.151566
  20 H :    0.162862
  21 H :    0.169179
  22 H :    0.174832
  23 H :    0.148804
  24 H :    0.173247
  25 H :    0.147792
  26 H :    0.147339
  27 H :    0.156804
  28 H :    0.169429
  29 H :    0.197001
  30 H :    0.216001
  31 H :    0.152908
  32 H :    0.173991
  33 H :    0.163298
  34 H :    0.154478
  35 H :    0.143943
  36 H :    0.147742
  37 H :    0.174828
  38 H :    0.154477
  39 H :    0.146716
  40 H :    0.176919
Sum of atomic charges:    0.0000000

LOEWDIN ATOMIC CHARGES
----------------------
   0 C :   -0.404162
   1 C :    0.016574
   2 O :   -0.662365
   3 P :    0.386284
   4 S :   -0.123062
   5 O :   -0.679709
   6 C :    0.021263
   7 C :   -0.398727
   8 S :    0.175663
   9 C :   -0.419496
  10 S :    0.135449
  11 P :    0.383429
  12 S :   -0.105300
  13 O :   -0.650831
  14 C :    0.018965
  15 C :   -0.392659
  16 O :   -0.671564
  17 C :    0.022426
  18 C :   -0.409164
  19 H :    0.161053
  20 H :    0.161991
  21 H :    0.164868
  22 H :    0.179747
  23 H :    0.179754
  24 H :    0.180698
  25 H :    0.178763
  26 H :    0.159989
  27 H :    0.161503
  28 H :    0.165677
  29 H :    0.185881
  30 H :    0.193914
  31 H :    0.173173
  32 H :    0.181196
  33 H :    0.162936
  34 H :    0.160693
  35 H :    0.160465
  36 H :    0.179304
  37 H :    0.180434
  38 H :    0.160536
  39 H :    0.158849
  40 H :    0.165564

  Mayer bond orders larger than 0.100000
B(  0-C ,  1-C ) :   0.9189 B(  0-C , 19-H ) :   0.9602 B(  0-C , 20-H ) :   0.9684
B(  0-C , 21-H ) :   0.9593 B(  1-C ,  2-O ) :   0.8066 B(  1-C , 22-H ) :   0.9648
B(  1-C , 23-H ) :   0.9568 B(  2-O ,  3-P ) :   1.0788 B(  3-P ,  4-S ) :   1.7286
B(  3-P ,  5-O ) :   1.1512 B(  3-P ,  8-S ) :   1.0884 B(  5-O ,  6-C ) :   0.8015
B(  6-C ,  7-C ) :   0.9346 B(  6-C , 24-H ) :   0.9628 B(  6-C , 25-H ) :   0.9594
B(  7-C , 26-H ) :   0.9621 B(  7-C , 27-H ) :   0.9706 B(  7-C , 28-H ) :   0.9584
B(  8-S ,  9-C ) :   0.8948 B(  9-C , 10-S ) :   0.9103 B(  9-C , 29-H ) :   0.9138
B(  9-C , 30-H ) :   0.9100 B( 10-S , 11-P ) :   0.9980 B( 11-P , 12-S ) :   1.8121
B( 11-P , 13-O ) :   1.1845 B( 11-P , 16-O ) :   1.0396 B( 13-O , 14-C ) :   0.7359
B( 14-C , 15-C ) :   0.9425 B( 14-C , 31-H ) :   0.9451 B( 14-C , 32-H ) :   0.9372
B( 15-C , 33-H ) :   0.9655 B( 15-C , 34-H ) :   0.9740 B( 15-C , 35-H ) :   0.9658
B( 16-O , 17-C ) :   0.8186 B( 17-C , 18-C ) :   0.9191 B( 17-C , 36-H ) :   0.9616
B( 17-C , 37-H ) :   0.9691 B( 18-C , 38-H ) :   0.9673 B( 18-C , 39-H ) :   0.9567
B( 18-C , 40-H ) :   0.9644

Dispersion correction           -0.021737452
FINAL SINGLE POINT ENERGY     -2932.461221554975

DIPOLE MOMENT
-------------

Method             : SCF
Type of density    : Electron Density
Multiplicity       :   1
Irrep              :   0
Energy             : -2932.4859014266526174 Eh
Relativity type    :
Basis              : AO
                                X                 Y                 Z
Electronic contribution:     -4.918026764      -6.963060743      -8.052124907
Nuclear contribution   :      5.300403078       6.932837874       9.153663938
                        -----------------------------------------
Total Dipole Moment    :      0.382376313      -0.030222869       1.101539031
                        -----------------------------------------
Magnitude (a.u.)       :      1.166410435
Magnitude (Debye)      :      2.964779711

Rotational constants in cm-1:             0.012529             0.005078             0.004665
Rotational constants in MHz :           375.596349           152.234132           139.855271

                             ****ORCA TERMINATED NORMALLY****
TOTAL RUN TIME: 0 days 0 hours 1 minutes 23 seconds 653 msec
