                         Program Version 6.0.0  -   RELEASE  -
|  1> ! r2scan-3c def2/J RI DEFGRID2 scfconv6 printgap
|  2> %output
|  3>     printlevel normal
|  4> end
|  5> %cpcm
|  6>     smd true
|  7>     smdsolvent "water"
|  8> end
|  9> * xyz 0 1
| 10> C 3.0817261534 2.1902737137 -1.6330989053
| 11> C 3.7820133271 1.7948265489 -0.3485507012
| 12> O 3.5588999431 0.4129646699 -0.0277477453
| 13> P 2.164344075 -0.1101480526 0.5303787203
| 14> S 1.3530742411 1.0950590232 1.8504545875
| 15> O 2.5181379504 -1.5628611764 1.0492535302
| 16> C 2.8778127668 -1.8128905778 2.4253584728
| 17> C 4.2406982072 -1.2448822209 2.7589677325
| 18> S 1.1131169741 -0.6397617051 -1.2349814258
| 19> C -0.0464078109 -1.847751722 -0.5345684424
| 20> S -1.2286982268 -1.1326070106 0.6333295204
| 21> P -2.3036309766 0.0303342887 -0.8021619447
| 22> S -2.4066544823 -0.7302154598 -2.5986127341
| 23> O -1.6302412571 1.4559605842 -0.7922501867
| 24> C -1.6862692869 2.3503460604 0.3498713747
| 25> C -0.8270426915 3.5539362249 0.0295372266
| 26> O -3.6940425404 0.3208994805 -0.0878501423
| 27> C -4.8231160752 -0.5661745095 -0.2013292064
| 28> C -4.5811284449 -1.899275425 0.4759151662
| 29> H 3.3179861721 3.2219035292 -1.8735041044
| 30> H 3.3976359044 1.5460650539 -2.4495823898
| 31> H 2.0019367131 2.0906865107 -1.5175327911
| 32> H 3.4315075428 2.4072644525 0.489709658
| 33> H 4.8657593498 1.8768912051 -0.4404075042
| 34> H 2.1074505289 -1.3775583303 3.07006657
| 35> H 2.8606115927 -2.9003831446 2.5073074479
| 36> H 4.5172857733 -1.5413056733 3.7658978826
| 37> H 4.982917712 -1.6115772698 2.0549256957
| 38> H 4.2116263141 -0.1574586273 2.7052063704
| 39> H 0.50174754 -2.6221926572 -0.0051871568
| 40> H -0.5892694739 -2.2546721798 -1.3888689934
| 41> H -2.7291392387 2.6282422904 0.5103310325
| 42> H -1.3119907996 1.8197140298 1.230458088
| 43> H 0.2144453443 3.2561722252 -0.0578064221
| 44> H -1.1476764681 4.0040939326 -0.9054491581
| 45> H -0.9178269133 4.2758100584 0.8344083806
| 46> H -5.6333121585 -0.0129149739 0.2757504211
| 47> H -5.0421756859 -0.7082537183 -1.2639472333
| 48> H -4.2406787466 -1.7490912876 1.4975065864
| 49> H -5.5050421869 -2.4685184016 0.48311374
| 50> H -3.8246969377 -2.4625257177 -0.0682038013
| 51> *
| 52>
| 53>                          ****END OF INPUT****

CARTESIAN COORDINATES (ANGSTROEM)
---------------------------------
  C      3.081726    2.190274   -1.633099
  C      3.782013    1.794827   -0.348551
  O      3.558900    0.412965   -0.027748
  P      2.164344   -0.110148    0.530379
  S      1.353074    1.095059    1.850455
  O      2.518138   -1.562861    1.049254
  C      2.877813   -1.812891    2.425358
  C      4.240698   -1.244882    2.758968
  S      1.113117   -0.639762   -1.234981
  C     -0.046408   -1.847752   -0.534568
  S     -1.228698   -1.132607    0.633330
  P     -2.303631    0.030334   -0.802162
  S     -2.406654   -0.730215   -2.598613
  O     -1.630241    1.455961   -0.792250
  C     -1.686269    2.350346    0.349871
  C     -0.827043    3.553936    0.029537
  O     -3.694043    0.320899   -0.087850
  C     -4.823116   -0.566175   -0.201329
  C     -4.581128   -1.899275    0.475915
  H      3.317986    3.221904   -1.873504
  H      3.397636    1.546065   -2.449582
  H      2.001937    2.090687   -1.517533
  H      3.431508    2.407264    0.489710
  H      4.865759    1.876891   -0.440408
  H      2.107451   -1.377558    3.070067
  H      2.860612   -2.900383    2.507307
  H      4.517286   -1.541306    3.765898
  H      4.982918   -1.611577    2.054926
  H      4.211626   -0.157459    2.705206
  H      0.501748   -2.622193   -0.005187
  H     -0.589269   -2.254672   -1.388869
  H     -2.729139    2.628242    0.510331
  H     -1.311991    1.819714    1.230458
  H      0.214445    3.256172   -0.057806
  H     -1.147676    4.004094   -0.905449
  H     -0.917827    4.275810    0.834408
  H     -5.633312   -0.012915    0.275750
  H     -5.042176   -0.708254   -1.263947
  H     -4.240679   -1.749091    1.497507
  H     -5.505042   -2.468518    0.483114
  H     -3.824697   -2.462526   -0.068204

 Total Charge           Charge          ....    0
 Multiplicity           Mult            ....    1
 Number of Electrons    NEL             ....  202
 Basis Dimension        Dim             ....  539

ORBITAL ENERGIES
----------------

  NO   OCC          E(Eh)            E(eV)
   0   2.0000     -88.577603     -2410.3191
   1   2.0000     -88.574884     -2410.2451
   2   2.0000     -88.530098     -2409.0264
   3   2.0000     -88.524092     -2408.8630
   4   2.0000     -76.919331     -2093.0814
   5   2.0000     -76.918492     -2093.0586
   6   2.0000     -18.996125      -516.9108
   7   2.0000     -18.995333      -516.8893
   8   2.0000     -18.994812      -516.8751
   9   2.0000     -18.992775      -516.8197
  10   2.0000     -10.103598      -274.9329
  11   2.0000     -10.090712      -274.5822
  12   2.0000     -10.089532      -274.5501
  13   2.0000     -10.089437      -274.5475
  14   2.0000     -10.088579      -274.5242
  15   2.0000     -10.020403      -272.6690
  16   2.0000     -10.018653      -272.6214
  17   2.0000     -10.018265      -272.6109
  18   2.0000     -10.017907      -272.6011
  19   2.0000      -7.871821      -214.2031
  20   2.0000      -7.869182      -214.1313
  21   2.0000      -7.825310      -212.9375
  22   2.0000      -7.819268      -212.7731
  23   2.0000      -6.597864      -179.5370
  24   2.0000      -6.597019      -179.5140
  25   2.0000      -5.818870      -158.3395
  26   2.0000      -5.816060      -158.2631
  27   2.0000      -5.815575      -158.2498
  28   2.0000      -5.813082      -158.1820
  29   2.0000      -5.808895      -158.0681
  30   2.0000      -5.806254      -157.9962
  31   2.0000      -5.772863      -157.0876
  32   2.0000      -5.766840      -156.9237
  33   2.0000      -5.765488      -156.8869
  34   2.0000      -5.765420      -156.8850
  35   2.0000      -5.759531      -156.7248
  36   2.0000      -5.759291      -156.7183
  37   2.0000      -4.743720      -129.0832
  38   2.0000      -4.742580      -129.0522
  39   2.0000      -4.742519      -129.0505
  40   2.0000      -4.742074      -129.0384
  41   2.0000      -4.741534      -129.0237
  42   2.0000      -4.740633      -128.9992
  43   2.0000      -1.053576       -28.6692
  44   2.0000      -1.053179       -28.6585
  45   2.0000      -1.015045       -27.6208
  46   2.0000      -1.011002       -27.5108
  47   2.0000      -0.801339       -21.8055
  48   2.0000      -0.755423       -20.5561
  49   2.0000      -0.743793       -20.2396
  50   2.0000      -0.725306       -19.7366
  51   2.0000      -0.724239       -19.7076
  52   2.0000      -0.707677       -19.2569
  53   2.0000      -0.690641       -18.7933
  54   2.0000      -0.674969       -18.3668
  55   2.0000      -0.630465       -17.1558
  56   2.0000      -0.618737       -16.8367
  57   2.0000      -0.600012       -16.3271
  58   2.0000      -0.597583       -16.2611
  59   2.0000      -0.588455       -16.0127
  60   2.0000      -0.526783       -14.3345
  61   2.0000      -0.515283       -14.0216
  62   2.0000      -0.492443       -13.4001
  63   2.0000      -0.490992       -13.3606
  64   2.0000      -0.478531       -13.0215
  65   2.0000      -0.460680       -12.5358
  66   2.0000      -0.453852       -12.3499
  67   2.0000      -0.449442       -12.2299
  68   2.0000      -0.440781       -11.9943
  69   2.0000      -0.427766       -11.6401
  70   2.0000      -0.424636       -11.5549
  71   2.0000      -0.408746       -11.1225
  72   2.0000      -0.406700       -11.0669
  73   2.0000      -0.404658       -11.0113
  74   2.0000      -0.390330       -10.6214
  75   2.0000      -0.387901       -10.5553
  76   2.0000      -0.380133       -10.3439
  77   2.0000      -0.372660       -10.1406
  78   2.0000      -0.366750        -9.9798
  79   2.0000      -0.358715        -9.7611
  80   2.0000      -0.355749        -9.6804
  81   2.0000      -0.352215        -9.5843
  82   2.0000      -0.349845        -9.5198
  83   2.0000      -0.346449        -9.4273
  84   2.0000      -0.342158        -9.3106
  85   2.0000      -0.329640        -8.9700
  86   2.0000      -0.321261        -8.7419
  87   2.0000      -0.314815        -8.5665
  88   2.0000      -0.306592        -8.3428
  89   2.0000      -0.304281        -8.2799
  90   2.0000      -0.299380        -8.1466
  91   2.0000      -0.287930        -7.8350
  92   2.0000      -0.282020        -7.6742
  93   2.0000      -0.279522        -7.6062
  94   2.0000      -0.274583        -7.4718
  95   2.0000      -0.257368        -7.0033
  96   2.0000      -0.234751        -6.3879
  97   2.0000      -0.232766        -6.3339
  98   2.0000      -0.231699        -6.3048
  99   2.0000      -0.217631        -5.9220
 100   2.0000      -0.210826        -5.7369
 101   0.0000      -0.052184        -1.4200
 102   0.0000      -0.029718        -0.8087
 103   0.0000      -0.015207        -0.4138
 104   0.0000      -0.002392        -0.0651
 105   0.0000       0.010412         0.2833

MULLIKEN ATOMIC CHARGES
-----------------------
   0 C :   -0.487547
   1 C :   -0.152289
   2 O :   -0.314925
   3 P :    0.734300
   4 S :   -0.500919
   5 O :   -0.349357
   6 C :   -0.143440
   7 C :   -0.482623
   8 S :   -0.151961
   9 C :   -0.225863
  10 S :   -0.159713
  11 P :    0.678809
  12 S :   -0.504577
  13 O :   -0.285575
  14 C :   -0.111340
  15 C :   -0.503663
  16 O :   -0.318377
  17 C :   -0.160076
  18 C :   -0.478600
  19 H :    0.176258
  20 H :    0.174776
  21 H :    0.163006
  22 H :    0.177932
  23 H :    0.175552
  24 H :    0.176700
  25 H :    0.175898
  26 H :    0.172486
  27 H :    0.169119
  28 H :    0.168263
  29 H :    0.233329
  30 H :    0.229694
  31 H :    0.173286
  32 H :    0.177173
  33 H :    0.168606
  34 H :    0.166412
  35 H :    0.171233
  36 H :    0.175591
  37 H :    0.179422
  38 H :    0.167701
  39 H :    0.172056
  40 H :    0.173240
Sum of atomic charges:    0.0000000

LOEWDIN ATOMIC CHARGES
----------------------
   0 C :   -0.406774
   1 C :    0.022682
   2 O :   -0.676813
   3 P :    0.388810
   4 S :   -0.139561
   5 O :   -0.688373
   6 C :    0.027502
   7 C :   -0.402951
   8 S :    0.152836
   9 C :   -0.411515
  10 S :    0.141125
  11 P :    0.384795
  12 S :   -0.144040
  13 O :   -0.675020
  14 C :    0.023153
  15 C :   -0.397678
  16 O :   -0.678104
  17 C :    0.028233
  18 C :   -0.411280
  19 H :    0.170320
  20 H :    0.164075
  21 H :    0.160992
  22 H :    0.181677
  23 H :    0.190954
  24 H :    0.182197
  25 H :    0.190537
  26 H :    0.169244
  27 H :    0.164115
  28 H :    0.162619
  29 H :    0.199009
  30 H :    0.198552
  31 H :    0.181916
  32 H :    0.182970
  33 H :    0.162668
  34 H :    0.164119
  35 H :    0.170295
  36 H :    0.191251
  37 H :    0.181743
  38 H :    0.163815
  39 H :    0.168244
  40 H :    0.161662

  Mayer bond orders larger than 0.100000
B(  0-C ,  1-C ) :   0.9096 B(  0-C , 19-H ) :   0.9543 B(  0-C , 20-H ) :   0.9671
B(  0-C , 21-H ) :   0.9578 B(  1-C ,  2-O ) :   0.7977 B(  1-C , 22-H ) :   0.9620
B(  1-C , 23-H ) :   0.9485 B(  2-O ,  3-P ) :   1.0831 B(  3-P ,  4-S ) :   1.7083
B(  3-P ,  5-O ) :   1.1628 B(  3-P ,  8-S ) :   1.0904 B(  5-O ,  6-C ) :   0.7901
B(  6-C ,  7-C ) :   0.9196 B(  6-C , 24-H ) :   0.9602 B(  6-C , 25-H ) :   0.9505
B(  7-C , 26-H ) :   0.9563 B(  7-C , 27-H ) :   0.9699 B(  7-C , 28-H ) :   0.9586
B(  8-S ,  9-C ) :   0.8827 B(  9-C , 10-S ) :   0.9035 B(  9-C , 29-H ) :   0.9038
B(  9-C , 30-H ) :   0.9068 B( 10-S , 11-P ) :   1.0129 B( 11-P , 12-S ) :   1.7931
B( 11-P , 13-O ) :   1.1818 B( 11-P , 16-O ) :   1.0504 B( 13-O , 14-C ) :   0.7297
B( 14-C , 15-C ) :   0.9287 B( 14-C , 31-H ) :   0.9377 B( 14-C , 32-H ) :   0.9329
B( 15-C , 33-H ) :   0.9650 B( 15-C , 34-H ) :   0.9707 B( 15-C , 35-H ) :   0.9608
B( 16-O , 17-C ) :   0.8061 B( 17-C , 18-C ) :   0.9079 B( 17-C , 36-H ) :   0.9508
B( 17-C , 37-H ) :   0.9672 B( 18-C , 38-H ) :   0.9646 B( 18-C , 39-H ) :   0.9514
B( 18-C , 40-H ) :   0.9653

Dispersion correction           -0.021737452
FINAL SINGLE POINT ENERGY     -2932.469833030254

DIPOLE MOMENT
-------------

Method             : SCF
Type of density    : Electron Density
Multiplicity       :   1
Irrep              :   0
Energy             : -2932.4945129019315573 Eh
Relativity type    :
Basis              : AO
                                X                 Y                 Z
Electronic contribution:     -4.930884458      -7.093485332      -7.481897063
Nuclear contribution   :      5.300403078       6.932837874       9.153663938
                        -----------------------------------------
Total Dipole Moment    :      0.369518620      -0.160647459       1.671766875
                        -----------------------------------------
Magnitude (a.u.)       :      1.719638363
Magnitude (Debye)      :      4.370973352

Rotational constants in cm-1:             0.012529             0.005078             0.004665
Rotational constants in MHz :           375.596349           152.234132           139.855271

                             ****ORCA TERMINATED NORMALLY****
TOTAL RUN TIME: 0 days 0 hours 1 minutes 48 seconds 102 msec
