                         Program Version 6.0.0  -   RELEASE  -
|  1> ! pbe def2-sv(p) def2/J RI DEFGRID1 loosescf d4 GCP(DFT/SV(P)) printgap
|  2> %output
|  3>     printlevel normal
|  4> end
|  5> * xyz 0 1
|  6> C 5.4998161372 -0.0205701494 0.912526813
|  7> C 4.3956514977 -1.0367072325 0.7051591519
|  8> O 3.707335298 -0.7989617553 -0.5480459381
|  9> P 2.3456826615 -0.0167411128 -0.6651930247
| 10> S 1.79358158 0.0528885062 -2.5382851683
| 11> O 2.6846038946 1.3308728744 0.1099149361
| 12> C 1.7521963654 2.3896724313 0.3828429024
| 13> C 1.6224982212 3.333102647 -0.7953802659
| 14> S 1.0257715118 -1.0115272171 0.6827146224
| 15> C -0.1006408763 -1.8012003805 -0.5145067839
| 16> S -1.7649236843 -1.9301468698 0.1529206875
| 17> P -2.1635243089 0.1631636345 0.3134269189
| 18> S -1.4257333283 1.3009706057 -1.1021157337
| 19> O -1.6110022919 0.6681645654 1.6984559822
| 20> C -1.5999802584 -0.0453476506 2.9612933203
| 21> C -2.9479653849 -0.6132716293 3.3482782513
| 22> O -3.7342000826 0.2209981924 0.529550337
| 23> C -4.71745465 -0.4659072655 -0.2648468467
| 24> C -4.586609424 -0.176254567 -1.7456027453
| 25> H 5.0828273253 0.9795178204 0.9939838112
| 26> H 6.0379220454 -0.2618450124 1.8238707891
| 27> H 6.1874800748 -0.0441268319 0.0716748446
| 28> H 3.6676894457 -1.0075590228 1.5211707524
| 29> H 4.7985197543 -2.0462378832 0.6062950088
| 30> H 0.778459359 1.9635886172 0.6437847681
| 31> H 2.1725572101 2.8964142814 1.2537186667
| 32> H 2.6013512356 3.6951121656 -1.0977164765
| 33> H 1.1589377086 2.8220310835 -1.6376004124
| 34> H 0.993914819 4.1718569263 -0.5140009357
| 35> H 0.2348156513 -2.8163165853 -0.712205703
| 36> H -0.1026012854 -1.1978322261 -1.4278306072
| 37> H -0.8448903245 -0.8338412088 2.8880900495
| 38> H -1.2681652536 0.716080357 3.6686769738
| 39> H -2.88069954 -1.0156360617 4.3544647759
| 40> H -3.7061736416 0.1649490007 3.3225845031
| 41> H -3.2356713738 -1.4127378056 2.6686911735
| 42> H -4.6229241032 -1.5382553753 -0.0723210604
| 43> H -5.6670626023 -0.0994397189 0.128933907
| 44> H -5.4002742594 -0.6544441603 -2.2813649837
| 45> H -4.6159343265 0.8956891365 -1.9275380727
| 46> H -3.6400636376 -0.5606468844 -2.124037532
| 47> *
| 48>
| 49>                          ****END OF INPUT****

CARTESIAN COORDINATES (ANGSTROEM)
---------------------------------
  C      5.499816   -0.020570    0.912527
  C      4.395651   -1.036707    0.705159
  O      3.707335   -0.798962   -0.548046
  P      2.345683   -0.016741   -0.665193
  S      1.793582    0.052889   -2.538285
  O      2.684604    1.330873    0.109915
  C      1.752196    2.389672    0.382843
  C      1.622498    3.333103   -0.795380
  S      1.025772   -1.011527    0.682715
  C     -0.100641   -1.801200   -0.514507
  S     -1.764924   -1.930147    0.152921
  P     -2.163524    0.163164    0.313427
  S     -1.425733    1.300971   -1.102116
  O     -1.611002    0.668165    1.698456
  C     -1.599980   -0.045348    2.961293
  C     -2.947965   -0.613272    3.348278
  O     -3.734200    0.220998    0.529550
  C     -4.717455   -0.465907   -0.264847
  C     -4.586609   -0.176255   -1.745603
  H      5.082827    0.979518    0.993984
  H      6.037922   -0.261845    1.823871
  H      6.187480   -0.044127    0.071675
  H      3.667689   -1.007559    1.521171
  H      4.798520   -2.046238    0.606295
  H      0.778459    1.963589    0.643785
  H      2.172557    2.896414    1.253719
  H      2.601351    3.695112   -1.097716
  H      1.158938    2.822031   -1.637600
  H      0.993915    4.171857   -0.514001
  H      0.234816   -2.816317   -0.712206
  H     -0.102601   -1.197832   -1.427831
  H     -0.844890   -0.833841    2.888090
  H     -1.268165    0.716080    3.668677
  H     -2.880700   -1.015636    4.354465
  H     -3.706174    0.164949    3.322585
  H     -3.235671   -1.412738    2.668691
  H     -4.622924   -1.538255   -0.072321
  H     -5.667063   -0.099440    0.128934
  H     -5.400274   -0.654444   -2.281365
  H     -4.615934    0.895689   -1.927538
  H     -3.640064   -0.560647   -2.124038

 Total Charge           Charge          ....    0
 Multiplicity           Mult            ....    1
 Number of Electrons    NEL             ....  202
 Basis Dimension        Dim             ....  334

ORBITAL ENERGIES
----------------

  NO   OCC          E(Eh)            E(eV)
   0   2.0000     -88.051753     -2396.0100
   1   2.0000     -88.040376     -2395.7004
   2   2.0000     -87.979235     -2394.0367
   3   2.0000     -87.979030     -2394.0311
   4   2.0000     -76.428008     -2079.7118
   5   2.0000     -76.421233     -2079.5275
   6   2.0000     -18.795043      -511.4391
   7   2.0000     -18.791455      -511.3415
   8   2.0000     -18.788819      -511.2697
   9   2.0000     -18.785575      -511.1815
  10   2.0000      -9.961071      -271.0545
  11   2.0000      -9.958080      -270.9731
  12   2.0000      -9.954425      -270.8737
  13   2.0000      -9.954372      -270.8722
  14   2.0000      -9.941479      -270.5214
  15   2.0000      -9.891808      -269.1698
  16   2.0000      -9.884327      -268.9662
  17   2.0000      -9.883490      -268.9434
  18   2.0000      -9.867790      -268.5162
  19   2.0000      -7.696385      -209.4293
  20   2.0000      -7.684880      -209.1162
  21   2.0000      -7.624475      -207.4725
  22   2.0000      -7.623911      -207.4572
  23   2.0000      -6.424717      -174.8254
  24   2.0000      -6.418674      -174.6610
  25   2.0000      -5.724133      -155.7616
  26   2.0000      -5.720690      -155.6679
  27   2.0000      -5.713800      -155.4804
  28   2.0000      -5.712726      -155.4512
  29   2.0000      -5.709433      -155.3616
  30   2.0000      -5.701935      -155.1575
  31   2.0000      -5.653559      -153.8412
  32   2.0000      -5.653022      -153.8265
  33   2.0000      -5.645031      -153.6091
  34   2.0000      -5.644506      -153.5948
  35   2.0000      -5.644463      -153.5937
  36   2.0000      -5.643892      -153.5781
  37   2.0000      -4.647447      -126.4635
  38   2.0000      -4.647015      -126.4517
  39   2.0000      -4.644631      -126.3868
  40   2.0000      -4.641388      -126.2986
  41   2.0000      -4.640557      -126.2760
  42   2.0000      -4.638932      -126.2317
  43   2.0000      -0.988675       -26.9032
  44   2.0000      -0.983377       -26.7591
  45   2.0000      -0.946842       -25.7649
  46   2.0000      -0.939363       -25.5614
  47   2.0000      -0.764358       -20.7992
  48   2.0000      -0.721038       -19.6204
  49   2.0000      -0.711860       -19.3707
  50   2.0000      -0.693518       -18.8716
  51   2.0000      -0.683198       -18.5908
  52   2.0000      -0.674454       -18.3528
  53   2.0000      -0.649612       -17.6768
  54   2.0000      -0.634096       -17.2546
  55   2.0000      -0.592177       -16.1140
  56   2.0000      -0.583085       -15.8666
  57   2.0000      -0.581229       -15.8161
  58   2.0000      -0.571547       -15.5526
  59   2.0000      -0.565401       -15.3854
  60   2.0000      -0.503291       -13.6952
  61   2.0000      -0.492402       -13.3989
  62   2.0000      -0.474817       -12.9204
  63   2.0000      -0.471727       -12.8363
  64   2.0000      -0.453680       -12.3453
  65   2.0000      -0.444519       -12.0960
  66   2.0000      -0.442459       -12.0399
  67   2.0000      -0.436068       -11.8660
  68   2.0000      -0.430021       -11.7015
  69   2.0000      -0.417185       -11.3522
  70   2.0000      -0.413490       -11.2516
  71   2.0000      -0.404221       -10.9994
  72   2.0000      -0.392724       -10.6866
  73   2.0000      -0.392288       -10.6747
  74   2.0000      -0.382108       -10.3977
  75   2.0000      -0.364727        -9.9247
  76   2.0000      -0.356577        -9.7029
  77   2.0000      -0.356398        -9.6981
  78   2.0000      -0.353426        -9.6172
  79   2.0000      -0.349407        -9.5079
  80   2.0000      -0.348149        -9.4736
  81   2.0000      -0.344397        -9.3715
  82   2.0000      -0.340642        -9.2693
  83   2.0000      -0.334448        -9.1008
  84   2.0000      -0.325598        -8.8600
  85   2.0000      -0.320766        -8.7285
  86   2.0000      -0.314847        -8.5674
  87   2.0000      -0.296971        -8.0810
  88   2.0000      -0.290358        -7.9010
  89   2.0000      -0.286199        -7.7879
  90   2.0000      -0.284346        -7.7374
  91   2.0000      -0.279771        -7.6130
  92   2.0000      -0.271161        -7.3787
  93   2.0000      -0.265042        -7.2122
  94   2.0000      -0.256306        -6.9744
  95   2.0000      -0.238812        -6.4984
  96   2.0000      -0.221104        -6.0165
  97   2.0000      -0.208060        -5.6616
  98   2.0000      -0.196087        -5.3358
  99   2.0000      -0.193219        -5.2578
 100   2.0000      -0.184405        -5.0179
 101   0.0000      -0.046577        -1.2674
 102   0.0000      -0.033509        -0.9118
 103   0.0000      -0.013118        -0.3570
 104   0.0000       0.008759         0.2384
 105   0.0000       0.018003         0.4899

MULLIKEN ATOMIC CHARGES
-----------------------
   0 C :   -0.288556
   1 C :   -0.010680
   2 O :   -0.356250
   3 P :    0.615293
   4 S :   -0.289806
   5 O :   -0.382044
   6 C :   -0.025500
   7 C :   -0.297554
   8 S :   -0.143871
   9 C :   -0.330654
  10 S :   -0.131990
  11 P :    0.593570
  12 S :   -0.297994
  13 O :   -0.351412
  14 C :    0.003086
  15 C :   -0.311170
  16 O :   -0.370757
  17 C :   -0.012877
  18 C :   -0.308444
  19 H :    0.123533
  20 H :    0.106917
  21 H :    0.120563
  22 H :    0.098510
  23 H :    0.108443
  24 H :    0.128457
  25 H :    0.094683
  26 H :    0.106667
  27 H :    0.141282
  28 H :    0.106524
  29 H :    0.182058
  30 H :    0.214970
  31 H :    0.110960
  32 H :    0.108227
  33 H :    0.114609
  34 H :    0.125029
  35 H :    0.116165
  36 H :    0.110564
  37 H :    0.110032
  38 H :    0.111103
  39 H :    0.129042
  40 H :    0.129274
Sum of atomic charges:   -0.0000000

LOEWDIN ATOMIC CHARGES
----------------------
   0 C :   -0.359194
   1 C :   -0.114153
   2 O :   -0.239047
   3 P :    0.565264
   4 S :   -0.282039
   5 O :   -0.242859
   6 C :   -0.122293
   7 C :   -0.363602
   8 S :    0.054269
   9 C :   -0.477279
  10 S :    0.066101
  11 P :    0.566239
  12 S :   -0.290885
  13 O :   -0.233595
  14 C :   -0.112932
  15 C :   -0.367411
  16 O :   -0.241294
  17 C :   -0.114833
  18 C :   -0.368792
  19 H :    0.127126
  20 H :    0.127916
  21 H :    0.129385
  22 H :    0.101407
  23 H :    0.120506
  24 H :    0.107163
  25 H :    0.112872
  26 H :    0.122168
  27 H :    0.124692
  28 H :    0.129394
  29 H :    0.135083
  30 H :    0.124619
  31 H :    0.103633
  32 H :    0.122195
  33 H :    0.131901
  34 H :    0.129380
  35 H :    0.116115
  36 H :    0.106722
  37 H :    0.121780
  38 H :    0.130035
  39 H :    0.131563
  40 H :    0.122679

  Mayer bond orders larger than 0.100000
B(  0-C ,  1-C ) :   1.1640 B(  0-C , 19-H ) :   0.9421 B(  0-C , 20-H ) :   0.9400
B(  0-C , 21-H ) :   0.9468 B(  1-C ,  2-O ) :   0.8984 B(  1-C , 22-H ) :   0.9144
B(  1-C , 23-H ) :   0.9365 B(  2-O ,  3-P ) :   1.1333 B(  3-P ,  4-S ) :   1.6691
B(  3-P ,  5-O ) :   1.0889 B(  3-P ,  8-S ) :   0.9367 B(  4-S ,  8-S ) :   0.1171
B(  5-O ,  6-C ) :   0.8987 B(  6-C ,  7-C ) :   1.1732 B(  6-C , 24-H ) :   0.9022
B(  6-C , 25-H ) :   0.9350 B(  7-C , 26-H ) :   0.9466 B(  7-C , 27-H ) :   0.9304
B(  7-C , 28-H ) :   0.9389 B(  8-S ,  9-C ) :   0.9918 B(  9-C , 10-S ) :   1.0083
B(  9-C , 29-H ) :   0.9093 B(  9-C , 30-H ) :   0.8404 B( 10-S , 11-P ) :   0.9178
B( 10-S , 12-S ) :   0.1089 B( 11-P , 12-S ) :   1.6483 B( 11-P , 13-O ) :   1.1314
B( 11-P , 16-O ) :   1.0956 B( 13-O , 14-C ) :   0.9010 B( 14-C , 15-C ) :   1.1683
B( 14-C , 31-H ) :   0.9157 B( 14-C , 32-H ) :   0.9353 B( 15-C , 33-H ) :   0.9358
B( 15-C , 34-H ) :   0.9420 B( 15-C , 35-H ) :   0.9399 B( 16-O , 17-C ) :   0.9123
B( 17-C , 18-C ) :   1.1669 B( 17-C , 36-H ) :   0.9260 B( 17-C , 37-H ) :   0.9334
B( 18-C , 38-H ) :   0.9348 B( 18-C , 39-H ) :   0.9423 B( 18-C , 40-H ) :   0.9330

Dispersion correction           -0.066516248
FINAL SINGLE POINT ENERGY     -2929.514378103205

DIPOLE MOMENT
-------------

Method             : SCF
Type of density    : Electron Density
Multiplicity       :   1
Irrep              :   0
Energy             : -2929.6333640834527614 Eh
Relativity type    :
Basis              : AO
                                X                 Y                 Z
Electronic contribution:      1.696755953      -5.151784146      -9.857035325
Nuclear contribution   :     -2.266145527       4.454716073      11.822033305
                        -----------------------------------------
Total Dipole Moment    :     -0.569389574      -0.697068072       1.964997979
                        -----------------------------------------
Magnitude (a.u.)       :      2.161324928
Magnitude (Debye)      :      5.493651379

Rotational constants in cm-1:             0.013090             0.004943             0.004651
Rotational constants in MHz :           392.421291           148.174883           139.435868

                             ****ORCA TERMINATED NORMALLY****
TOTAL RUN TIME: 0 days 0 hours 0 minutes 21 seconds 2 msec
