                         Program Version 6.0.1  -  RELEASE   -
|  1> ! pbe def2-sv(p) def2/J RI DEFGRID1 loosescf d4 GCP(DFT/SV(P)) printgap
|  2> %output
|  3>     printlevel normal
|  4> end
|  5> * xyz 0 1
|  6> C 3.8639305089 -3.7673717456 0.4342662293
|  7> C 2.8572849847 -2.6871506873 0.7764096154
|  8> O 2.8948732728 -1.697612347 -0.274200996
|  9> C 1.8927255487 -0.8726009898 -0.3981618279
| 10> O 0.9236082769 -0.8723361105 0.3505831154
| 11> C 2.0339991778 0.0768373917 -1.5557781112
| 12> C 0.8494149134 1.0267864074 -1.6022798515
| 13> H 0.8872458127 1.6614240825 -2.4907779048
| 14> C 0.7520242486 1.9166065748 -0.3735185587
| 15> O 1.5643170161 1.9014419948 0.5249669708
| 16> O -0.2965081981 2.7047869566 -0.4391666851
| 17> C -0.5221245622 3.6479014742 0.6254647492
| 18> C 0.1905131968 4.9595395851 0.3382117861
| 19> S -0.7473948881 0.1400418743 -1.8345741374
| 20> P -1.4115896525 -0.5707437862 0.0446941509
| 21> S -1.4233457967 -2.4680834171 0.5748581793
| 22> O -1.186298618 0.4813891997 1.2377705532
| 23> C -0.4686063442 0.2102480322 2.4393453914
| 24> O -2.90517482 -0.1313153768 -0.3867743211
| 25> C -4.0596451694 -0.5015297851 0.3671744912
| 26> H 3.8695948198 -4.511095707 1.2238802135
| 27> H 3.5962282552 -4.2455300623 -0.5031554845
| 28> H 4.8547746452 -3.3340070061 0.3396987547
| 29> H 3.1055402869 -2.1870702871 1.7171144147
| 30> H 1.8386053515 -3.0819105301 0.8493260448
| 31> H 2.0943862897 -0.4988052356 -2.4802909751
| 32> H 2.9652996811 0.6326480161 -1.4295154341
| 33> H -1.6046150823 3.7755191184 0.6496626024
| 34> H -0.1725191088 3.2084239638 1.5635104075
| 35> H -0.1231027338 5.3506281139 -0.6255573474
| 36> H -0.0570588172 5.6765053481 1.1139418523
| 37> H 1.2672302388 4.8069542431 0.3281724932
| 38> H -1.0183355249 0.7041755857 3.2379610533
| 39> H 0.541570451 0.6117145915 2.3564931276
| 40> H -0.4225743345 -0.8659119999 2.6145162477
| 41> H -4.147433315 0.1319033906 1.2497333858
| 42> H -3.9912159186 -1.5492657165 0.6698423291
| 43> H -4.9071463832 -0.3536095193 -0.2975154074
| 44> *
| 45>
| 46>                          ****END OF INPUT****

CARTESIAN COORDINATES (ANGSTROEM)
---------------------------------
  C      3.863931   -3.767372    0.434266
  C      2.857285   -2.687151    0.776410
  O      2.894873   -1.697612   -0.274201
  C      1.892726   -0.872601   -0.398162
  O      0.923608   -0.872336    0.350583
  C      2.033999    0.076837   -1.555778
  C      0.849415    1.026786   -1.602280
  H      0.887246    1.661424   -2.490778
  C      0.752024    1.916607   -0.373519
  O      1.564317    1.901442    0.524967
  O     -0.296508    2.704787   -0.439167
  C     -0.522125    3.647901    0.625465
  C      0.190513    4.959540    0.338212
  S     -0.747395    0.140042   -1.834574
  P     -1.411590   -0.570744    0.044694
  S     -1.423346   -2.468083    0.574858
  O     -1.186299    0.481389    1.237771
  C     -0.468606    0.210248    2.439345
  O     -2.905175   -0.131315   -0.386774
  C     -4.059645   -0.501530    0.367174
  H      3.869595   -4.511096    1.223880
  H      3.596228   -4.245530   -0.503155
  H      4.854775   -3.334007    0.339699
  H      3.105540   -2.187070    1.717114
  H      1.838605   -3.081911    0.849326
  H      2.094386   -0.498805   -2.480291
  H      2.965300    0.632648   -1.429515
  H     -1.604615    3.775519    0.649663
  H     -0.172519    3.208424    1.563510
  H     -0.123103    5.350628   -0.625557
  H     -0.057059    5.676505    1.113942
  H      1.267230    4.806954    0.328172
  H     -1.018336    0.704176    3.237961
  H      0.541570    0.611715    2.356493
  H     -0.422574   -0.865912    2.614516
  H     -4.147433    0.131903    1.249733
  H     -3.991216   -1.549266    0.669842
  H     -4.907146   -0.353610   -0.297515

 Total Charge           Charge          ....    0
 Multiplicity           Mult            ....    1
 Number of Electrons    NEL             ....  174
 Basis Dimension        Dim             ....  316

ORBITAL ENERGIES
----------------

  NO   OCC          E(Eh)            E(eV)
   0   2.0000     -88.030220     -2395.4241
   1   2.0000     -87.960462     -2393.5258
   2   2.0000     -76.413544     -2079.3182
   3   2.0000     -18.816443      -512.0214
   4   2.0000     -18.807750      -511.7849
   5   2.0000     -18.780491      -511.0431
   6   2.0000     -18.762827      -510.5625
   7   2.0000     -18.759349      -510.4678
   8   2.0000     -18.745598      -510.0936
   9   2.0000     -10.026206      -272.8269
  10   2.0000     -10.021892      -272.7096
  11   2.0000      -9.952367      -270.8177
  12   2.0000      -9.952220      -270.8137
  13   2.0000      -9.949979      -270.7527
  14   2.0000      -9.925585      -270.0889
  15   2.0000      -9.923023      -270.0192
  16   2.0000      -9.920137      -269.9407
  17   2.0000      -9.892165      -269.1795
  18   2.0000      -9.890669      -269.1388
  19   2.0000      -7.675086      -208.8497
  20   2.0000      -7.605816      -206.9648
  21   2.0000      -6.408864      -174.3940
  22   2.0000      -5.703876      -155.2104
  23   2.0000      -5.699542      -155.0924
  24   2.0000      -5.691171      -154.8646
  25   2.0000      -5.635005      -153.3363
  26   2.0000      -5.626534      -153.1058
  27   2.0000      -5.625517      -153.0781
  28   2.0000      -4.631886      -126.0400
  29   2.0000      -4.630886      -126.0128
  30   2.0000      -4.629178      -125.9664
  31   2.0000      -1.027760       -27.9668
  32   2.0000      -1.017491       -27.6873
  33   2.0000      -0.963461       -26.2171
  34   2.0000      -0.933964       -25.4145
  35   2.0000      -0.923340       -25.1253
  36   2.0000      -0.919194       -25.0125
  37   2.0000      -0.765222       -20.8228
  38   2.0000      -0.722689       -19.6654
  39   2.0000      -0.704375       -19.1670
  40   2.0000      -0.689460       -18.7612
  41   2.0000      -0.652479       -17.7549
  42   2.0000      -0.620867       -16.8946
  43   2.0000      -0.611361       -16.6360
  44   2.0000      -0.607936       -16.5428
  45   2.0000      -0.597810       -16.2672
  46   2.0000      -0.562619       -15.3096
  47   2.0000      -0.518466       -14.1082
  48   2.0000      -0.508014       -13.8238
  49   2.0000      -0.496525       -13.5111
  50   2.0000      -0.486076       -13.2268
  51   2.0000      -0.468612       -12.7516
  52   2.0000      -0.460757       -12.5378
  53   2.0000      -0.454784       -12.3753
  54   2.0000      -0.438946       -11.9443
  55   2.0000      -0.431407       -11.7392
  56   2.0000      -0.428739       -11.6666
  57   2.0000      -0.415112       -11.2958
  58   2.0000      -0.407289       -11.0829
  59   2.0000      -0.404949       -11.0192
  60   2.0000      -0.392782       -10.6881
  61   2.0000      -0.391887       -10.6638
  62   2.0000      -0.388457       -10.5705
  63   2.0000      -0.382723       -10.4144
  64   2.0000      -0.375662       -10.2223
  65   2.0000      -0.364484        -9.9181
  66   2.0000      -0.362317        -9.8591
  67   2.0000      -0.358714        -9.7611
  68   2.0000      -0.352062        -9.5801
  69   2.0000      -0.345081        -9.3901
  70   2.0000      -0.332087        -9.0365
  71   2.0000      -0.328867        -8.9489
  72   2.0000      -0.322467        -8.7748
  73   2.0000      -0.312624        -8.5069
  74   2.0000      -0.305596        -8.3157
  75   2.0000      -0.296724        -8.0743
  76   2.0000      -0.287475        -7.8226
  77   2.0000      -0.275161        -7.4875
  78   2.0000      -0.268754        -7.3132
  79   2.0000      -0.264205        -7.1894
  80   2.0000      -0.256929        -6.9914
  81   2.0000      -0.248676        -6.7668
  82   2.0000      -0.238991        -6.5033
  83   2.0000      -0.232083        -6.3153
  84   2.0000      -0.207457        -5.6452
  85   2.0000      -0.180466        -4.9107
  86   2.0000      -0.173324        -4.7164
  87   0.0000      -0.047670        -1.2972
  88   0.0000      -0.044194        -1.2026
  89   0.0000      -0.021409        -0.5826
  90   0.0000       0.000494         0.0134
  91   0.0000       0.037400         1.0177

MULLIKEN ATOMIC CHARGES
-----------------------
   0 C :   -0.277776
   1 C :   -0.044113
   2 O :   -0.218413
   3 C :    0.159533
   4 O :   -0.224237
   5 C :   -0.043104
   6 C :   -0.321714
   7 H :    0.148676
   8 C :    0.197715
   9 O :   -0.199845
  10 O :   -0.214360
  11 C :   -0.012834
  12 C :   -0.302065
  13 S :   -0.063096
  14 P :    0.655972
  15 S :   -0.346253
  16 O :   -0.400775
  17 C :   -0.108156
  18 O :   -0.396448
  19 C :   -0.097045
  20 H :    0.116299
  21 H :    0.119781
  22 H :    0.114826
  23 H :    0.108750
  24 H :    0.136049
  25 H :    0.126157
  26 H :    0.128312
  27 H :    0.110205
  28 H :    0.113381
  29 H :    0.115928
  30 H :    0.114089
  31 H :    0.121109
  32 H :    0.108396
  33 H :    0.131399
  34 H :    0.116448
  35 H :    0.100276
  36 H :    0.111616
  37 H :    0.115315
Sum of atomic charges:    0.0000000

LOEWDIN ATOMIC CHARGES
----------------------
   0 C :   -0.350018
   1 C :   -0.106640
   2 O :   -0.041150
   3 C :    0.057983
   4 O :   -0.159695
   5 C :   -0.251035
   6 C :   -0.265054
   7 H :    0.151823
   8 C :    0.012099
   9 O :   -0.161359
  10 O :   -0.043903
  11 C :   -0.107247
  12 C :   -0.355723
  13 S :    0.124735
  14 P :    0.590963
  15 S :   -0.344743
  16 O :   -0.251088
  17 C :   -0.226080
  18 O :   -0.274362
  19 C :   -0.220566
  20 H :    0.133474
  21 H :    0.128999
  22 H :    0.126242
  23 H :    0.119187
  24 H :    0.126312
  25 H :    0.148818
  26 H :    0.151705
  27 H :    0.122336
  28 H :    0.120327
  29 H :    0.125638
  30 H :    0.131245
  31 H :    0.128093
  32 H :    0.111990
  33 H :    0.111907
  34 H :    0.107316
  35 H :    0.106202
  36 H :    0.104162
  37 H :    0.117109

  Mayer bond orders larger than 0.100000
B(  0-C ,  1-C ) :   1.1581 B(  0-C , 20-H ) :   0.9432 B(  0-C , 21-H ) :   0.9511
B(  0-C , 22-H ) :   0.9485 B(  1-C ,  2-O ) :   0.8868 B(  1-C , 23-H ) :   0.9337
B(  1-C , 24-H ) :   0.9167 B(  2-O ,  3-C ) :   1.2832 B(  3-C ,  4-O ) :   1.8421
B(  3-C ,  5-C ) :   1.0245 B(  4-O , 14-P ) :   0.1506 B(  5-C ,  6-C ) :   1.0219
B(  5-C , 25-H ) :   0.8829 B(  5-C , 26-H ) :   0.8738 B(  6-C ,  7-H ) :   0.8738
B(  6-C ,  8-C ) :   0.8975 B(  6-C , 13-S ) :   1.0223 B(  8-C ,  9-O ) :   2.0191
B(  8-C , 10-O ) :   1.2590 B( 10-O , 11-C ) :   0.9084 B( 11-C , 12-C ) :   1.1706
B( 11-C , 27-H ) :   0.9370 B( 11-C , 28-H ) :   0.9141 B( 12-C , 29-H ) :   0.9482
B( 12-C , 30-H ) :   0.9448 B( 12-C , 31-H ) :   0.9470 B( 13-S , 14-P ) :   0.9471
B( 14-P , 15-S ) :   1.5765 B( 14-P , 16-O ) :   1.0496 B( 14-P , 18-O ) :   1.0518
B( 16-O , 17-C ) :   0.9263 B( 17-C , 32-H ) :   0.9528 B( 17-C , 33-H ) :   0.9343
B( 17-C , 34-H ) :   0.9266 B( 18-O , 19-C ) :   0.9475 B( 19-C , 35-H ) :   0.9524
B( 19-C , 36-H ) :   0.9260 B( 19-C , 37-H ) :   0.9604

Dispersion correction           -0.054298463
FINAL SINGLE POINT ENERGY     -1979.003669452410

DIPOLE MOMENT
-------------

Method             : SCF
Type of density    : Electron Density
Multiplicity       :   1
Irrep              :   0
Energy             : -1979.1356974957166130 Eh
Relativity type    :
Basis              : AO
                                X                 Y                 Z
Electronic contribution:     -8.316219186      -5.186613381      -9.237209829
Nuclear contribution   :      9.385040680       6.178579454       9.474909954
                        -----------------------------------------
Total Dipole Moment    :      1.068821493       0.991966072       0.237700125
                        -----------------------------------------
Magnitude (a.u.)       :      1.477456403
Magnitude (Debye)      :      3.755395730

Rotational constants in cm-1:             0.011793             0.008837             0.006391
Rotational constants in MHz :           353.549484           264.927565           191.583108

                             ****ORCA TERMINATED NORMALLY****
TOTAL RUN TIME: 0 days 0 hours 0 minutes 45 seconds 212 msec
