                         Program Version 6.0.0  -   RELEASE  -
|  1> ! pbe def2-sv(p) def2/J RI DEFGRID1 loosescf d4 GCP(DFT/SV(P)) printgap
|  2> %output
|  3>     printlevel normal
|  4> end
|  5> * xyz 0 1
|  6> C 4.0387359649 -2.0040493039 -2.0034940762
|  7> C 4.6305387368 -1.4899595931 -0.706978861
|  8> O 3.6204311449 -1.1612685202 0.26301569
|  9> P 2.6116996325 0.0497790845 0.0697578487
| 10> S 3.3899138787 1.6510108462 -0.7418734762
| 11> O 2.1235063617 0.3421842299 1.5385646593
| 12> C 1.2469760757 -0.4588947903 2.366348249
| 13> C 1.6512195018 -1.9160215353 2.4244983552
| 14> S 0.953393876 -0.8013251854 -0.9759725049
| 15> C 0.2558470627 0.7637592251 -1.5448131514
| 16> S -0.4884203715 1.7286075676 -0.1965959269
| 17> P -2.2910349201 0.6170204065 -0.0895834483
| 18> S -3.147025569 0.165182182 -1.7939555685
| 19> O -3.0386269493 1.6295738785 0.8653410223
| 20> C -4.4769762964 1.7283572127 0.9340760006
| 21> C -5.0694725683 0.6389618187 1.8037533322
| 22> O -1.9750924022 -0.6288374871 0.8519945649
| 23> C -1.9392884847 -2.0026462937 0.4117374394
| 24> C -3.2527483858 -2.6955111064 0.7136257771
| 25> H 3.3433856366 -2.816338571 -1.8085075536
| 26> H 3.5093299017 -1.2021180001 -2.5155828853
| 27> H 4.8385737363 -2.359860723 -2.6449300992
| 28> H 5.2381598307 -0.5980945248 -0.8891198229
| 29> H 5.2300359817 -2.2523492257 -0.2076934731
| 30> H 1.3243760919 0.0208722076 3.3434552306
| 31> H 0.2268173711 -0.3431534182 1.9893118871
| 32> H 1.5647812644 -2.3730403957 1.4402206926
| 33> H 2.6805194438 -2.0059628967 2.7615883716
| 34> H 0.999175409 -2.4359108837 3.1201292849
| 35> H -0.5037717712 0.5323818255 -2.2922202646
| 36> H 1.0530107465 1.3780810641 -1.9648314281
| 37> H -4.6537038628 2.7201089794 1.3534184145
| 38> H -4.879192928 1.6805670956 -0.0833515752
| 39> H -4.5921239385 0.6405246839 2.7799228279
| 40> H -6.1339495682 0.8158416357 1.9225336786
| 41> H -4.9208016854 -0.3325255979 1.3381714376
| 42> H -1.7237850236 -2.0358132818 -0.6596395974
| 43> H -1.11332037 -2.4540754648 0.9627737015
| 44> H -3.1573261107 -3.7498417888 0.4750372973
| 45> H -3.5045239617 -2.5863649839 1.7648326595
| 46> H -4.0480160201 -2.2704951979 0.1045196728
| 47> *
| 48>
| 49>                          ****END OF INPUT****

CARTESIAN COORDINATES (ANGSTROEM)
---------------------------------
  C      4.038736   -2.004049   -2.003494
  C      4.630539   -1.489960   -0.706979
  O      3.620431   -1.161269    0.263016
  P      2.611700    0.049779    0.069758
  S      3.389914    1.651011   -0.741873
  O      2.123506    0.342184    1.538565
  C      1.246976   -0.458895    2.366348
  C      1.651220   -1.916022    2.424498
  S      0.953394   -0.801325   -0.975973
  C      0.255847    0.763759   -1.544813
  S     -0.488420    1.728608   -0.196596
  P     -2.291035    0.617020   -0.089583
  S     -3.147026    0.165182   -1.793956
  O     -3.038627    1.629574    0.865341
  C     -4.476976    1.728357    0.934076
  C     -5.069473    0.638962    1.803753
  O     -1.975092   -0.628837    0.851995
  C     -1.939288   -2.002646    0.411737
  C     -3.252748   -2.695511    0.713626
  H      3.343386   -2.816339   -1.808508
  H      3.509330   -1.202118   -2.515583
  H      4.838574   -2.359861   -2.644930
  H      5.238160   -0.598095   -0.889120
  H      5.230036   -2.252349   -0.207693
  H      1.324376    0.020872    3.343455
  H      0.226817   -0.343153    1.989312
  H      1.564781   -2.373040    1.440221
  H      2.680519   -2.005963    2.761588
  H      0.999175   -2.435911    3.120129
  H     -0.503772    0.532382   -2.292220
  H      1.053011    1.378081   -1.964831
  H     -4.653704    2.720109    1.353418
  H     -4.879193    1.680567   -0.083352
  H     -4.592124    0.640525    2.779923
  H     -6.133950    0.815842    1.922534
  H     -4.920802   -0.332526    1.338171
  H     -1.723785   -2.035813   -0.659640
  H     -1.113320   -2.454075    0.962774
  H     -3.157326   -3.749842    0.475037
  H     -3.504524   -2.586365    1.764833
  H     -4.048016   -2.270495    0.104520

 Total Charge           Charge          ....    0
 Multiplicity           Mult            ....    1
 Number of Electrons    NEL             ....  202
 Basis Dimension        Dim             ....  334

ORBITAL ENERGIES
----------------

  NO   OCC          E(Eh)            E(eV)
   0   2.0000     -88.044858     -2395.8224
   1   2.0000     -88.039552     -2395.6780
   2   2.0000     -87.996301     -2394.5011
   3   2.0000     -87.984547     -2394.1812
   4   2.0000     -76.431050     -2079.7946
   5   2.0000     -76.427685     -2079.7030
   6   2.0000     -18.798014      -511.5200
   7   2.0000     -18.797493      -511.5058
   8   2.0000     -18.795640      -511.4554
   9   2.0000     -18.789583      -511.2905
  10   2.0000      -9.959278      -271.0057
  11   2.0000      -9.957905      -270.9684
  12   2.0000      -9.954291      -270.8700
  13   2.0000      -9.952888      -270.8318
  14   2.0000      -9.951866      -270.8040
  15   2.0000      -9.892445      -269.1871
  16   2.0000      -9.890188      -269.1257
  17   2.0000      -9.889727      -269.1132
  18   2.0000      -9.885256      -268.9915
  19   2.0000      -7.689348      -209.2378
  20   2.0000      -7.684671      -209.1105
  21   2.0000      -7.641198      -207.9276
  22   2.0000      -7.629848      -207.6187
  23   2.0000      -6.428813      -174.9369
  24   2.0000      -6.424872      -174.8296
  25   2.0000      -5.717034      -155.5684
  26   2.0000      -5.713924      -155.4838
  27   2.0000      -5.712519      -155.4455
  28   2.0000      -5.709484      -155.3630
  29   2.0000      -5.706524      -155.2824
  30   2.0000      -5.701368      -155.1421
  31   2.0000      -5.669943      -154.2870
  32   2.0000      -5.662259      -154.0779
  33   2.0000      -5.661104      -154.0465
  34   2.0000      -5.658836      -153.9848
  35   2.0000      -5.650391      -153.7550
  36   2.0000      -5.649963      -153.7433
  37   2.0000      -4.651276      -126.5677
  38   2.0000      -4.650454      -126.5453
  39   2.0000      -4.649417      -126.5171
  40   2.0000      -4.647646      -126.4689
  41   2.0000      -4.646705      -126.4433
  42   2.0000      -4.645143      -126.4008
  43   2.0000      -0.991135       -26.9702
  44   2.0000      -0.987369       -26.8677
  45   2.0000      -0.951647       -25.8956
  46   2.0000      -0.945572       -25.7303
  47   2.0000      -0.764559       -20.8047
  48   2.0000      -0.726207       -19.7611
  49   2.0000      -0.712850       -19.3976
  50   2.0000      -0.693876       -18.8813
  51   2.0000      -0.691686       -18.8217
  52   2.0000      -0.677532       -18.4366
  53   2.0000      -0.655097       -17.8261
  54   2.0000      -0.639317       -17.3967
  55   2.0000      -0.607575       -16.5330
  56   2.0000      -0.598022       -16.2730
  57   2.0000      -0.577723       -15.7206
  58   2.0000      -0.576018       -15.6743
  59   2.0000      -0.560514       -15.2524
  60   2.0000      -0.506193       -13.7742
  61   2.0000      -0.491789       -13.3823
  62   2.0000      -0.484345       -13.1797
  63   2.0000      -0.471811       -12.8386
  64   2.0000      -0.460542       -12.5320
  65   2.0000      -0.448090       -12.1932
  66   2.0000      -0.443732       -12.0746
  67   2.0000      -0.440158       -11.9773
  68   2.0000      -0.434965       -11.8360
  69   2.0000      -0.418634       -11.3916
  70   2.0000      -0.408337       -11.1114
  71   2.0000      -0.399655       -10.8752
  72   2.0000      -0.398235       -10.8365
  73   2.0000      -0.388368       -10.5680
  74   2.0000      -0.382103       -10.3976
  75   2.0000      -0.378021       -10.2865
  76   2.0000      -0.371246       -10.1021
  77   2.0000      -0.366049        -9.9607
  78   2.0000      -0.363806        -9.8997
  79   2.0000      -0.356621        -9.7042
  80   2.0000      -0.354291        -9.6407
  81   2.0000      -0.347704        -9.4615
  82   2.0000      -0.344795        -9.3824
  83   2.0000      -0.343171        -9.3382
  84   2.0000      -0.337214        -9.1761
  85   2.0000      -0.326532        -8.8854
  86   2.0000      -0.311553        -8.4778
  87   2.0000      -0.301092        -8.1931
  88   2.0000      -0.294720        -8.0197
  89   2.0000      -0.292648        -7.9634
  90   2.0000      -0.289738        -7.8842
  91   2.0000      -0.282165        -7.6781
  92   2.0000      -0.269678        -7.3383
  93   2.0000      -0.268453        -7.3050
  94   2.0000      -0.262782        -7.1507
  95   2.0000      -0.236000        -6.4219
  96   2.0000      -0.220460        -5.9990
  97   2.0000      -0.219292        -5.9672
  98   2.0000      -0.205880        -5.6023
  99   2.0000      -0.201959        -5.4956
 100   2.0000      -0.200459        -5.4548
 101   0.0000      -0.048853        -1.3294
 102   0.0000      -0.027446        -0.7468
 103   0.0000      -0.004721        -0.1285
 104   0.0000       0.004677         0.1273
 105   0.0000       0.013434         0.3656

MULLIKEN ATOMIC CHARGES
-----------------------
   0 C :   -0.315077
   1 C :   -0.001988
   2 O :   -0.375543
   3 P :    0.606502
   4 S :   -0.312707
   5 O :   -0.353212
   6 C :   -0.022129
   7 C :   -0.318023
   8 S :   -0.120279
   9 C :   -0.373729
  10 S :   -0.056123
  11 P :    0.630208
  12 S :   -0.331842
  13 O :   -0.374279
  14 C :   -0.006300
  15 C :   -0.318916
  16 O :   -0.373866
  17 C :   -0.023453
  18 C :   -0.290151
  19 H :    0.114270
  20 H :    0.128235
  21 H :    0.114096
  22 H :    0.115169
  23 H :    0.104818
  24 H :    0.108775
  25 H :    0.132967
  26 H :    0.122628
  27 H :    0.123578
  28 H :    0.113318
  29 H :    0.189867
  30 H :    0.197352
  31 H :    0.111194
  32 H :    0.114744
  33 H :    0.119721
  34 H :    0.115091
  35 H :    0.129422
  36 H :    0.108565
  37 H :    0.107453
  38 H :    0.111609
  39 H :    0.116371
  40 H :    0.131665
Sum of atomic charges:    0.0000000

LOEWDIN ATOMIC CHARGES
----------------------
   0 C :   -0.370329
   1 C :   -0.117167
   2 O :   -0.242325
   3 P :    0.574983
   4 S :   -0.308991
   5 O :   -0.231076
   6 C :   -0.117094
   7 C :   -0.368748
   8 S :    0.073360
   9 C :   -0.490030
  10 S :    0.100557
  11 P :    0.574141
  12 S :   -0.316345
  13 O :   -0.242504
  14 C :   -0.112978
  15 C :   -0.362511
  16 O :   -0.246479
  17 C :   -0.123812
  18 C :   -0.360833
  19 H :    0.122276
  20 H :    0.121834
  21 H :    0.131620
  22 H :    0.113565
  23 H :    0.118611
  24 H :    0.123382
  25 H :    0.109165
  26 H :    0.114562
  27 H :    0.128786
  28 H :    0.129867
  29 H :    0.127459
  30 H :    0.129884
  31 H :    0.121672
  32 H :    0.111823
  33 H :    0.128288
  34 H :    0.132532
  35 H :    0.125045
  36 H :    0.103518
  37 H :    0.114009
  38 H :    0.131494
  39 H :    0.124715
  40 H :    0.124074

  Mayer bond orders larger than 0.100000
B(  0-C ,  1-C ) :   1.1657 B(  0-C , 19-H ) :   0.9450 B(  0-C , 20-H ) :   0.9347
B(  0-C , 21-H ) :   0.9373 B(  1-C ,  2-O ) :   0.9050 B(  1-C , 22-H ) :   0.9163
B(  1-C , 23-H ) :   0.9340 B(  2-O ,  3-P ) :   1.0935 B(  3-P ,  4-S ) :   1.6260
B(  3-P ,  5-O ) :   1.1557 B(  3-P ,  8-S ) :   0.9277 B(  4-S ,  8-S ) :   0.1067
B(  5-O ,  6-C ) :   0.8942 B(  6-C ,  7-C ) :   1.1724 B(  6-C , 24-H ) :   0.9329
B(  6-C , 25-H ) :   0.9035 B(  7-C , 26-H ) :   0.9316 B(  7-C , 27-H ) :   0.9404
B(  7-C , 28-H ) :   0.9347 B(  8-S ,  9-C ) :   0.9972 B(  9-C , 10-S ) :   1.0091
B(  9-C , 29-H ) :   0.8720 B(  9-C , 30-H ) :   0.8704 B( 10-S , 11-P ) :   0.9619
B( 10-S , 12-S ) :   0.1039 B( 11-P , 12-S ) :   1.5926 B( 11-P , 13-O ) :   1.1379
B( 11-P , 16-O ) :   1.0844 B( 13-O , 14-C ) :   0.9058 B( 14-C , 15-C ) :   1.1611
B( 14-C , 31-H ) :   0.9352 B( 14-C , 32-H ) :   0.9145 B( 15-C , 33-H ) :   0.9463
B( 15-C , 34-H ) :   0.9378 B( 15-C , 35-H ) :   0.9349 B( 16-O , 17-C ) :   0.8959
B( 17-C , 18-C ) :   1.1707 B( 17-C , 36-H ) :   0.9059 B( 17-C , 37-H ) :   0.9271
B( 18-C , 38-H ) :   0.9370 B( 18-C , 39-H ) :   0.9428 B( 18-C , 40-H ) :   0.9276

Dispersion correction           -0.066260089
FINAL SINGLE POINT ENERGY     -2929.522520352341

DIPOLE MOMENT
-------------

Method             : SCF
Type of density    : Electron Density
Multiplicity       :   1
Irrep              :   0
Energy             : -2929.6422980430156713 Eh
Relativity type    :
Basis              : AO
                                X                 Y                 Z
Electronic contribution:      8.271204559      19.713793091      -8.876338576
Nuclear contribution   :     -8.948340120     -21.338157216       9.831001869
                        -----------------------------------------
Total Dipole Moment    :     -0.677135560      -1.624364125       0.954663293
                        -----------------------------------------
Magnitude (a.u.)       :      2.002112229
Magnitude (Debye)      :      5.088964861

Rotational constants in cm-1:             0.014024             0.004590             0.004383
Rotational constants in MHz :           420.431825           137.607029           131.396673

                             ****ORCA TERMINATED NORMALLY****
TOTAL RUN TIME: 0 days 0 hours 0 minutes 21 seconds 494 msec
