                         Program Version 6.0.1  -  RELEASE   -
|  1> ! r2scan-3c def2/J RI DEFGRID2 scfconv6 printgap
|  2> %output
|  3>     printlevel normal
|  4> end
|  5> * xyz 0 1
|  6> C 5.3644083348 -2.2160082621 -1.0294148323
|  7> C 4.0697391211 -2.9531788851 -1.3323022284
|  8> O 3.1240700385 -2.0802518984 -1.9821281331
|  9> C 2.3431336192 -1.3324818647 -1.2344481538
| 10> O 2.3238062796 -1.3479722057 -0.0203234579
| 11> C 1.4587656933 -0.4301038094 -2.0693814426
| 12> C 0.4233682093 0.2318174931 -1.1715380093
| 13> H -0.1106191118 1.0222218664 -1.7092338351
| 14> C 1.1177151559 0.8702795664 0.0217937086
| 15> O 2.132039275 1.5190191604 -0.0971978063
| 16> O 0.4605915767 0.6914159217 1.1479312699
| 17> C 1.0136031778 1.252232287 2.3547089668
| 18> C 0.6864127957 2.7302995647 2.4854080015
| 19> S -0.8174097049 -1.0085837603 -0.6433844499
| 20> P -2.1591834716 0.2764386604 0.3244012708
| 21> S -2.1072471583 2.1911807238 -0.13185759
| 22> O -3.589437276 -0.3778449282 0.0058145459
| 23> C -4.2281074302 -0.1980616754 -1.2624599869
| 24> O -2.0368484907 -0.1154788745 1.8579072025
| 25> C -2.91233583 0.4896958159 2.824623685
| 26> H 5.1761287816 -1.4025581713 -0.3316607705
| 27> H 6.0753318245 -2.9044515878 -0.5848334834
| 28> H 5.7843392843 -1.8055437767 -1.9434048495
| 29> H 3.6163452565 -3.3362007516 -0.4137822775
| 30> H 4.2282536869 -3.7612230747 -2.0462290003
| 31> H 0.9879348484 -1.0071181789 -2.8639657978
| 32> H 2.0950412581 0.3368069902 -2.5166437356
| 33> H 0.5568568673 0.6643773053 3.151236441
| 34> H 2.0948581394 1.0904185869 2.3321376802
| 35> H -0.3862721633 2.8881421004 2.4014951361
| 36> H 1.0284221078 3.0885682825 3.4503551212
| 37> H 1.1811258802 3.2946357292 1.6982318621
| 38> H -5.2631781523 -0.4960064045 -1.1162390523
| 39> H -3.7486076893 -0.8278851491 -2.0109771099
| 40> H -4.1716668003 0.8497281687 -1.5637390825
| 41> H -2.9437082326 1.5713961459 2.6811276868
| 42> H -2.4896507218 0.245495032 3.7958338248
| 43> H -3.9150248867 0.0760636373 2.7252139239
| 44> *
| 45>
| 46>                          ****END OF INPUT****

CARTESIAN COORDINATES (ANGSTROEM)
---------------------------------
  C      5.364408   -2.216008   -1.029415
  C      4.069739   -2.953179   -1.332302
  O      3.124070   -2.080252   -1.982128
  C      2.343134   -1.332482   -1.234448
  O      2.323806   -1.347972   -0.020323
  C      1.458766   -0.430104   -2.069381
  C      0.423368    0.231817   -1.171538
  H     -0.110619    1.022222   -1.709234
  C      1.117715    0.870280    0.021794
  O      2.132039    1.519019   -0.097198
  O      0.460592    0.691416    1.147931
  C      1.013603    1.252232    2.354709
  C      0.686413    2.730300    2.485408
  S     -0.817410   -1.008584   -0.643384
  P     -2.159183    0.276439    0.324401
  S     -2.107247    2.191181   -0.131858
  O     -3.589437   -0.377845    0.005815
  C     -4.228107   -0.198062   -1.262460
  O     -2.036848   -0.115479    1.857907
  C     -2.912336    0.489696    2.824624
  H      5.176129   -1.402558   -0.331661
  H      6.075332   -2.904452   -0.584833
  H      5.784339   -1.805544   -1.943405
  H      3.616345   -3.336201   -0.413782
  H      4.228254   -3.761223   -2.046229
  H      0.987935   -1.007118   -2.863966
  H      2.095041    0.336807   -2.516644
  H      0.556857    0.664377    3.151236
  H      2.094858    1.090419    2.332138
  H     -0.386272    2.888142    2.401495
  H      1.028422    3.088568    3.450355
  H      1.181126    3.294636    1.698232
  H     -5.263178   -0.496006   -1.116239
  H     -3.748608   -0.827885   -2.010977
  H     -4.171667    0.849728   -1.563739
  H     -2.943708    1.571396    2.681128
  H     -2.489651    0.245495    3.795834
  H     -3.915025    0.076064    2.725214

 Total Charge           Charge          ....    0
 Multiplicity           Mult            ....    1
 Number of Electrons    NEL             ....  174
 Basis Dimension        Dim             ....  510

ORBITAL ENERGIES
----------------

  NO   OCC          E(Eh)            E(eV)
   0   2.0000     -88.574333     -2410.2301
   1   2.0000     -88.515261     -2408.6227
   2   2.0000     -76.912037     -2092.8829
   3   2.0000     -19.008219      -517.2399
   4   2.0000     -18.990392      -516.7548
   5   2.0000     -18.988908      -516.7145
   6   2.0000     -18.986733      -516.6553
   7   2.0000     -18.940964      -515.4098
   8   2.0000     -18.924700      -514.9673
   9   2.0000     -10.165666      -276.6218
  10   2.0000     -10.154730      -276.3243
  11   2.0000     -10.098506      -274.7943
  12   2.0000     -10.092948      -274.6431
  13   2.0000     -10.092628      -274.6344
  14   2.0000     -10.087694      -274.5001
  15   2.0000     -10.084469      -274.4123
  16   2.0000     -10.065416      -273.8939
  17   2.0000     -10.032633      -273.0018
  18   2.0000     -10.016097      -272.5518
  19   2.0000      -7.868579      -214.1149
  20   2.0000      -7.810077      -212.5230
  21   2.0000      -6.590235      -179.3294
  22   2.0000      -5.815561      -158.2495
  23   2.0000      -5.812550      -158.1675
  24   2.0000      -5.805483      -157.9752
  25   2.0000      -5.757781      -156.6772
  26   2.0000      -5.750596      -156.4817
  27   2.0000      -5.749772      -156.4593
  28   2.0000      -4.735852      -128.8691
  29   2.0000      -4.735125      -128.8493
  30   2.0000      -4.733937      -128.8170
  31   2.0000      -1.085674       -29.5427
  32   2.0000      -1.070468       -29.1289
  33   2.0000      -1.045902       -28.4604
  34   2.0000      -1.004286       -27.3280
  35   2.0000      -0.990539       -26.9539
  36   2.0000      -0.975237       -26.5375
  37   2.0000      -0.809784       -22.0353
  38   2.0000      -0.758364       -20.6361
  39   2.0000      -0.733481       -19.9590
  40   2.0000      -0.732438       -19.9306
  41   2.0000      -0.692096       -18.8329
  42   2.0000      -0.670403       -18.2426
  43   2.0000      -0.661288       -17.9946
  44   2.0000      -0.647587       -17.6217
  45   2.0000      -0.630657       -17.1611
  46   2.0000      -0.593753       -16.1568
  47   2.0000      -0.536904       -14.6099
  48   2.0000      -0.532040       -14.4775
  49   2.0000      -0.519435       -14.1345
  50   2.0000      -0.500714       -13.6251
  51   2.0000      -0.487705       -13.2711
  52   2.0000      -0.483896       -13.1675
  53   2.0000      -0.464262       -12.6332
  54   2.0000      -0.454979       -12.3806
  55   2.0000      -0.448530       -12.2051
  56   2.0000      -0.444327       -12.0908
  57   2.0000      -0.438873       -11.9423
  58   2.0000      -0.433792       -11.8041
  59   2.0000      -0.427945       -11.6450
  60   2.0000      -0.418464       -11.3870
  61   2.0000      -0.415936       -11.3182
  62   2.0000      -0.411718       -11.2034
  63   2.0000      -0.399580       -10.8731
  64   2.0000      -0.392043       -10.6680
  65   2.0000      -0.384341       -10.4584
  66   2.0000      -0.373146       -10.1538
  67   2.0000      -0.365873        -9.9559
  68   2.0000      -0.362319        -9.8592
  69   2.0000      -0.350249        -9.5307
  70   2.0000      -0.345820        -9.4102
  71   2.0000      -0.338789        -9.2189
  72   2.0000      -0.333396        -9.0722
  73   2.0000      -0.324059        -8.8181
  74   2.0000      -0.319568        -8.6959
  75   2.0000      -0.314632        -8.5616
  76   2.0000      -0.310829        -8.4581
  77   2.0000      -0.301444        -8.2027
  78   2.0000      -0.285129        -7.7587
  79   2.0000      -0.282909        -7.6984
  80   2.0000      -0.275704        -7.5023
  81   2.0000      -0.265240        -7.2176
  82   2.0000      -0.255750        -6.9593
  83   2.0000      -0.247860        -6.7446
  84   2.0000      -0.221497        -6.0272
  85   2.0000      -0.216743        -5.8979
  86   2.0000      -0.208979        -5.6866
  87   0.0000      -0.042433        -1.1547
  88   0.0000      -0.022146        -0.6026
  89   0.0000      -0.010088        -0.2745
  90   0.0000       0.008137         0.2214
  91   0.0000       0.019638         0.5344

MULLIKEN ATOMIC CHARGES
-----------------------
   0 C :   -0.463949
   1 C :   -0.137318
   2 O :   -0.162862
   3 C :    0.402161
   4 O :   -0.387624
   5 C :   -0.473367
   6 C :    0.019303
   7 H :    0.244234
   8 C :    0.238577
   9 O :   -0.385279
  10 O :   -0.114826
  11 C :   -0.134075
  12 C :   -0.485489
  13 S :   -0.150765
  14 P :    0.808317
  15 S :   -0.498357
  16 O :   -0.347041
  17 C :   -0.298817
  18 O :   -0.343794
  19 C :   -0.296934
  20 H :    0.175400
  21 H :    0.148671
  22 H :    0.153086
  23 H :    0.169433
  24 H :    0.150366
  25 H :    0.191595
  26 H :    0.200136
  27 H :    0.152470
  28 H :    0.168569
  29 H :    0.160573
  30 H :    0.144834
  31 H :    0.179628
  32 H :    0.149789
  33 H :    0.156363
  34 H :    0.176142
  35 H :    0.174558
  36 H :    0.153477
  37 H :    0.162816
Sum of atomic charges:   -0.0000000

LOEWDIN ATOMIC CHARGES
----------------------
   0 C :   -0.387199
   1 C :    0.031625
   2 O :   -0.574282
   3 C :    0.368300
   4 O :   -0.425614
   5 C :   -0.207155
   6 C :   -0.192005
   7 H :    0.207207
   8 C :    0.351298
   9 O :   -0.420351
  10 O :   -0.616328
  11 C :    0.036897
  12 C :   -0.394246
  13 S :    0.253622
  14 P :    0.395204
  15 S :   -0.125449
  16 O :   -0.683785
  17 C :   -0.062369
  18 O :   -0.656660
  19 C :   -0.052566
  20 H :    0.167489
  21 H :    0.160102
  22 H :    0.158187
  23 H :    0.189223
  24 H :    0.179159
  25 H :    0.190036
  26 H :    0.205600
  27 H :    0.180972
  28 H :    0.190803
  29 H :    0.162069
  30 H :    0.155731
  31 H :    0.169726
  32 H :    0.175860
  33 H :    0.167741
  34 H :    0.176687
  35 H :    0.175807
  36 H :    0.176988
  37 H :    0.171674

  Mayer bond orders larger than 0.100000
B(  0-C ,  1-C ) :   0.9437 B(  0-C , 20-H ) :   0.9685 B(  0-C , 21-H ) :   0.9645
B(  0-C , 22-H ) :   0.9722 B(  1-C ,  2-O ) :   0.7999 B(  1-C , 23-H ) :   0.9667
B(  1-C , 24-H ) :   0.9615 B(  2-O ,  3-C ) :   1.1314 B(  3-C ,  4-O ) :   1.7984
B(  3-C ,  5-C ) :   0.9700 B(  4-O ,  8-C ) :   0.1394 B(  5-C ,  6-C ) :   0.9300
B(  5-C ,  9-O ) :   0.1162 B(  5-C , 25-H ) :   0.9737 B(  5-C , 26-H ) :   0.9125
B(  6-C ,  7-H ) :   0.9137 B(  6-C ,  8-C ) :   0.8073 B(  6-C , 13-S ) :   0.9045
B(  8-C ,  9-O ) :   1.8916 B(  8-C , 10-O ) :   1.1463 B( 10-O , 11-C ) :   0.7825
B( 11-C , 12-C ) :   0.9134 B( 11-C , 27-H ) :   0.9668 B( 11-C , 28-H ) :   0.9666
B( 12-C , 29-H ) :   0.9667 B( 12-C , 30-H ) :   0.9699 B( 12-C , 31-H ) :   0.9708
B( 13-S , 14-P ) :   1.0992 B( 14-P , 15-S ) :   1.6929 B( 14-P , 16-O ) :   1.0345
B( 14-P , 18-O ) :   1.1713 B( 16-O , 17-C ) :   0.8354 B( 17-C , 32-H ) :   0.9673
B( 17-C , 33-H ) :   0.9610 B( 17-C , 34-H ) :   0.9573 B( 18-O , 19-C ) :   0.8019
B( 19-C , 35-H ) :   0.9596 B( 19-C , 36-H ) :   0.9677 B( 19-C , 37-H ) :   0.9608

Dispersion correction           -0.017608340
FINAL SINGLE POINT ENERGY     -1981.453857017811

DIPOLE MOMENT
-------------

Method             : SCF
Type of density    : Electron Density
Multiplicity       :   1
Irrep              :   0
Energy             : -1981.4738071021542964 Eh
Relativity type    :
Basis              : AO
                                X                 Y                 Z
Electronic contribution:    -11.311951470      -0.347930062      -4.608051904
Nuclear contribution   :     11.239906270      -0.694166015       4.563531764
                        -----------------------------------------
Total Dipole Moment    :     -0.072045201      -1.042096078      -0.044520140
                        -----------------------------------------
Magnitude (a.u.)       :      1.045531821
Magnitude (Debye)      :      2.657530691

Rotational constants in cm-1:             0.016427             0.006164             0.005302
Rotational constants in MHz :           492.479171           184.780013           158.942400

                             ****ORCA TERMINATED NORMALLY****
TOTAL RUN TIME: 0 days 0 hours 1 minutes 25 seconds 281 msec
