                         Program Version 6.0.1  -  RELEASE   -
|  1> ! r2scan-3c def2/J RI DEFGRID2 scfconv6 printgap
|  2> %output
|  3>     printlevel normal
|  4> end
|  5> %cpcm
|  6>     smd true
|  7>     smdsolvent "water"
|  8> end
|  9> * xyz 0 1
| 10> C 5.3644083348 -2.2160082621 -1.0294148323
| 11> C 4.0697391211 -2.9531788851 -1.3323022284
| 12> O 3.1240700385 -2.0802518984 -1.9821281331
| 13> C 2.3431336192 -1.3324818647 -1.2344481538
| 14> O 2.3238062796 -1.3479722057 -0.0203234579
| 15> C 1.4587656933 -0.4301038094 -2.0693814426
| 16> C 0.4233682093 0.2318174931 -1.1715380093
| 17> H -0.1106191118 1.0222218664 -1.7092338351
| 18> C 1.1177151559 0.8702795664 0.0217937086
| 19> O 2.132039275 1.5190191604 -0.0971978063
| 20> O 0.4605915767 0.6914159217 1.1479312699
| 21> C 1.0136031778 1.252232287 2.3547089668
| 22> C 0.6864127957 2.7302995647 2.4854080015
| 23> S -0.8174097049 -1.0085837603 -0.6433844499
| 24> P -2.1591834716 0.2764386604 0.3244012708
| 25> S -2.1072471583 2.1911807238 -0.13185759
| 26> O -3.589437276 -0.3778449282 0.0058145459
| 27> C -4.2281074302 -0.1980616754 -1.2624599869
| 28> O -2.0368484907 -0.1154788745 1.8579072025
| 29> C -2.91233583 0.4896958159 2.824623685
| 30> H 5.1761287816 -1.4025581713 -0.3316607705
| 31> H 6.0753318245 -2.9044515878 -0.5848334834
| 32> H 5.7843392843 -1.8055437767 -1.9434048495
| 33> H 3.6163452565 -3.3362007516 -0.4137822775
| 34> H 4.2282536869 -3.7612230747 -2.0462290003
| 35> H 0.9879348484 -1.0071181789 -2.8639657978
| 36> H 2.0950412581 0.3368069902 -2.5166437356
| 37> H 0.5568568673 0.6643773053 3.151236441
| 38> H 2.0948581394 1.0904185869 2.3321376802
| 39> H -0.3862721633 2.8881421004 2.4014951361
| 40> H 1.0284221078 3.0885682825 3.4503551212
| 41> H 1.1811258802 3.2946357292 1.6982318621
| 42> H -5.2631781523 -0.4960064045 -1.1162390523
| 43> H -3.7486076893 -0.8278851491 -2.0109771099
| 44> H -4.1716668003 0.8497281687 -1.5637390825
| 45> H -2.9437082326 1.5713961459 2.6811276868
| 46> H -2.4896507218 0.245495032 3.7958338248
| 47> H -3.9150248867 0.0760636373 2.7252139239
| 48> *
| 49>
| 50>                          ****END OF INPUT****

CARTESIAN COORDINATES (ANGSTROEM)
---------------------------------
  C      5.364408   -2.216008   -1.029415
  C      4.069739   -2.953179   -1.332302
  O      3.124070   -2.080252   -1.982128
  C      2.343134   -1.332482   -1.234448
  O      2.323806   -1.347972   -0.020323
  C      1.458766   -0.430104   -2.069381
  C      0.423368    0.231817   -1.171538
  H     -0.110619    1.022222   -1.709234
  C      1.117715    0.870280    0.021794
  O      2.132039    1.519019   -0.097198
  O      0.460592    0.691416    1.147931
  C      1.013603    1.252232    2.354709
  C      0.686413    2.730300    2.485408
  S     -0.817410   -1.008584   -0.643384
  P     -2.159183    0.276439    0.324401
  S     -2.107247    2.191181   -0.131858
  O     -3.589437   -0.377845    0.005815
  C     -4.228107   -0.198062   -1.262460
  O     -2.036848   -0.115479    1.857907
  C     -2.912336    0.489696    2.824624
  H      5.176129   -1.402558   -0.331661
  H      6.075332   -2.904452   -0.584833
  H      5.784339   -1.805544   -1.943405
  H      3.616345   -3.336201   -0.413782
  H      4.228254   -3.761223   -2.046229
  H      0.987935   -1.007118   -2.863966
  H      2.095041    0.336807   -2.516644
  H      0.556857    0.664377    3.151236
  H      2.094858    1.090419    2.332138
  H     -0.386272    2.888142    2.401495
  H      1.028422    3.088568    3.450355
  H      1.181126    3.294636    1.698232
  H     -5.263178   -0.496006   -1.116239
  H     -3.748608   -0.827885   -2.010977
  H     -4.171667    0.849728   -1.563739
  H     -2.943708    1.571396    2.681128
  H     -2.489651    0.245495    3.795834
  H     -3.915025    0.076064    2.725214

 Total Charge           Charge          ....    0
 Multiplicity           Mult            ....    1
 Number of Electrons    NEL             ....  174
 Basis Dimension        Dim             ....  510

ORBITAL ENERGIES
----------------

  NO   OCC          E(Eh)            E(eV)
   0   2.0000     -88.582414     -2410.4500
   1   2.0000     -88.524923     -2408.8856
   2   2.0000     -76.919659     -2093.0903
   3   2.0000     -19.010038      -517.2894
   4   2.0000     -19.005534      -517.1669
   5   2.0000     -18.994287      -516.8608
   6   2.0000     -18.991711      -516.7907
   7   2.0000     -18.952640      -515.7275
   8   2.0000     -18.947640      -515.5915
   9   2.0000     -10.173574      -276.8370
  10   2.0000     -10.173366      -276.8314
  11   2.0000     -10.097532      -274.7678
  12   2.0000     -10.086905      -274.4786
  13   2.0000     -10.086674      -274.4724
  14   2.0000     -10.082695      -274.3641
  15   2.0000     -10.079606      -274.2800
  16   2.0000     -10.061169      -273.7783
  17   2.0000     -10.019646      -272.6484
  18   2.0000     -10.017286      -272.5842
  19   2.0000      -7.876696      -214.3358
  20   2.0000      -7.819999      -212.7930
  21   2.0000      -6.597950      -179.5393
  22   2.0000      -5.823672      -158.4702
  23   2.0000      -5.820646      -158.3878
  24   2.0000      -5.813632      -158.1970
  25   2.0000      -5.767650      -156.9457
  26   2.0000      -5.760488      -156.7508
  27   2.0000      -5.759730      -156.7302
  28   2.0000      -4.743516      -129.0776
  29   2.0000      -4.742841      -129.0593
  30   2.0000      -4.741721      -129.0288
  31   2.0000      -1.090742       -29.6806
  32   2.0000      -1.085821       -29.5467
  33   2.0000      -1.050835       -28.5947
  34   2.0000      -1.008468       -27.4418
  35   2.0000      -1.001182       -27.2436
  36   2.0000      -0.995421       -27.0868
  37   2.0000      -0.814441       -22.1621
  38   2.0000      -0.754809       -20.5394
  39   2.0000      -0.737850       -20.0779
  40   2.0000      -0.730652       -19.8820
  41   2.0000      -0.690794       -18.7975
  42   2.0000      -0.667661       -18.1680
  43   2.0000      -0.664131       -18.0719
  44   2.0000      -0.651572       -17.7302
  45   2.0000      -0.629401       -17.1269
  46   2.0000      -0.594419       -16.1750
  47   2.0000      -0.538051       -14.6411
  48   2.0000      -0.528850       -14.3907
  49   2.0000      -0.523786       -14.2529
  50   2.0000      -0.506536       -13.7835
  51   2.0000      -0.488351       -13.2887
  52   2.0000      -0.485759       -13.2182
  53   2.0000      -0.468333       -12.7440
  54   2.0000      -0.462368       -12.5817
  55   2.0000      -0.457030       -12.4364
  56   2.0000      -0.449376       -12.2281
  57   2.0000      -0.444056       -12.0834
  58   2.0000      -0.439601       -11.9621
  59   2.0000      -0.425224       -11.5709
  60   2.0000      -0.417915       -11.3720
  61   2.0000      -0.416922       -11.3450
  62   2.0000      -0.410656       -11.1745
  63   2.0000      -0.401440       -10.9237
  64   2.0000      -0.390608       -10.6290
  65   2.0000      -0.386490       -10.5169
  66   2.0000      -0.370426       -10.0798
  67   2.0000      -0.367900       -10.0111
  68   2.0000      -0.360828        -9.8186
  69   2.0000      -0.352918        -9.6034
  70   2.0000      -0.343888        -9.3577
  71   2.0000      -0.342566        -9.3217
  72   2.0000      -0.338866        -9.2210
  73   2.0000      -0.326939        -8.8965
  74   2.0000      -0.320428        -8.7193
  75   2.0000      -0.314690        -8.5632
  76   2.0000      -0.308382        -8.3915
  77   2.0000      -0.307176        -8.3587
  78   2.0000      -0.289654        -7.8819
  79   2.0000      -0.285837        -7.7780
  80   2.0000      -0.281740        -7.6665
  81   2.0000      -0.278845        -7.5878
  82   2.0000      -0.270309        -7.3555
  83   2.0000      -0.261215        -7.1080
  84   2.0000      -0.234973        -6.3939
  85   2.0000      -0.227603        -6.1934
  86   2.0000      -0.219805        -5.9812
  87   0.0000      -0.050722        -1.3802
  88   0.0000      -0.028482        -0.7750
  89   0.0000      -0.025882        -0.7043
  90   0.0000       0.002805         0.0763
  91   0.0000       0.011748         0.3197

MULLIKEN ATOMIC CHARGES
-----------------------
   0 C :   -0.494950
   1 C :   -0.137819
   2 O :   -0.172063
   3 C :    0.433579
   4 O :   -0.455293
   5 C :   -0.514254
   6 C :    0.038117
   7 H :    0.274476
   8 C :    0.227503
   9 O :   -0.449868
  10 O :   -0.134921
  11 C :   -0.129242
  12 C :   -0.517312
  13 S :   -0.165367
  14 P :    0.839123
  15 S :   -0.538114
  16 O :   -0.378257
  17 C :   -0.310355
  18 O :   -0.379011
  19 C :   -0.307966
  20 H :    0.169826
  21 H :    0.172360
  22 H :    0.167142
  23 H :    0.175313
  24 H :    0.177253
  25 H :    0.228512
  26 H :    0.235278
  27 H :    0.180918
  28 H :    0.176494
  29 H :    0.169413
  30 H :    0.173043
  31 H :    0.174364
  32 H :    0.177728
  33 H :    0.175246
  34 H :    0.176195
  35 H :    0.180143
  36 H :    0.182304
  37 H :    0.180462
Sum of atomic charges:   -0.0000000

LOEWDIN ATOMIC CHARGES
----------------------
   0 C :   -0.390613
   1 C :    0.037538
   2 O :   -0.572945
   3 C :    0.375517
   4 O :   -0.474427
   5 C :   -0.198300
   6 C :   -0.186431
   7 H :    0.217528
   8 C :    0.351748
   9 O :   -0.468842
  10 O :   -0.625521
  11 C :    0.041012
  12 C :   -0.395966
  13 S :    0.249141
  14 P :    0.397530
  15 S :   -0.150280
  16 O :   -0.696189
  17 C :   -0.057443
  18 O :   -0.675399
  19 C :   -0.046310
  20 H :    0.163362
  21 H :    0.168905
  22 H :    0.162572
  23 H :    0.191262
  24 H :    0.190921
  25 H :    0.205536
  26 H :    0.216599
  27 H :    0.192795
  28 H :    0.193237
  29 H :    0.163840
  30 H :    0.167166
  31 H :    0.164591
  32 H :    0.187560
  33 H :    0.175517
  34 H :    0.177265
  35 H :    0.179248
  36 H :    0.189508
  37 H :    0.178768

  Mayer bond orders larger than 0.100000
B(  0-C ,  1-C ) :   0.9372 B(  0-C , 20-H ) :   0.9689 B(  0-C , 21-H ) :   0.9590
B(  0-C , 22-H ) :   0.9690 B(  1-C ,  2-O ) :   0.7832 B(  1-C , 23-H ) :   0.9627
B(  1-C , 24-H ) :   0.9514 B(  2-O ,  3-C ) :   1.1469 B(  3-C ,  4-O ) :   1.7455
B(  3-C ,  5-C ) :   0.9462 B(  4-O ,  8-C ) :   0.1368 B(  5-C ,  6-C ) :   0.9000
B(  5-C , 25-H ) :   0.9620 B(  5-C , 26-H ) :   0.9196 B(  6-C ,  7-H ) :   0.9002
B(  6-C ,  8-C ) :   0.8143 B(  6-C , 13-S ) :   0.8946 B(  8-C ,  9-O ) :   1.8308
B(  8-C , 10-O ) :   1.1572 B( 10-O , 11-C ) :   0.7680 B( 11-C , 12-C ) :   0.9034
B( 11-C , 27-H ) :   0.9548 B( 11-C , 28-H ) :   0.9566 B( 12-C , 29-H ) :   0.9668
B( 12-C , 30-H ) :   0.9621 B( 12-C , 31-H ) :   0.9725 B( 13-S , 14-P ) :   1.1084
B( 14-P , 15-S ) :   1.6609 B( 14-P , 16-O ) :   1.0426 B( 14-P , 18-O ) :   1.1718
B( 16-O , 17-C ) :   0.8273 B( 17-C , 32-H ) :   0.9574 B( 17-C , 33-H ) :   0.9533
B( 17-C , 34-H ) :   0.9547 B( 18-O , 19-C ) :   0.7921 B( 19-C , 35-H ) :   0.9534
B( 19-C , 36-H ) :   0.9569 B( 19-C , 37-H ) :   0.9527

Dispersion correction           -0.017608340
FINAL SINGLE POINT ENERGY     -1981.467855250693

DIPOLE MOMENT
-------------

Method             : SCF
Type of density    : Electron Density
Multiplicity       :   1
Irrep              :   0
Energy             : -1981.4878053350366827 Eh
Relativity type    :
Basis              : AO
                                X                 Y                 Z
Electronic contribution:    -11.566040785      -0.639365929      -4.843420560
Nuclear contribution   :     11.239906270      -0.694166015       4.563531764
                        -----------------------------------------
Total Dipole Moment    :     -0.326134515      -1.333531944      -0.279888796
                        -----------------------------------------
Magnitude (a.u.)       :      1.401074197
Magnitude (Debye)      :      3.561247593

Rotational constants in cm-1:             0.016427             0.006164             0.005302
Rotational constants in MHz :           492.479171           184.780013           158.942400

                             ****ORCA TERMINATED NORMALLY****
TOTAL RUN TIME: 0 days 0 hours 1 minutes 51 seconds 509 msec
