                         Program Version 6.0.1  -  RELEASE   -
|  1> ! pbe def2-sv(p) def2/J RI DEFGRID1 loosescf d4 GCP(DFT/SV(P)) printgap
|  2> %output
|  3>     printlevel normal
|  4> end
|  5> * xyz 0 1
|  6> C 2.1081691423 -3.423687347 -2.405488229
|  7> C 3.2757186975 -2.8522482288 -1.6169482455
|  8> O 2.9324956501 -1.5683562981 -1.063368855
|  9> C 2.3011324401 -1.5311602939 0.0922090907
| 10> O 2.054483459 -2.4956078525 0.7797196034
| 11> C 1.9177639544 -0.108970532 0.4661867016
| 12> C 1.1053842248 0.5247473762 -0.6662232898
| 13> H 1.7442039217 0.6987925769 -1.5345111011
| 14> C 0.469495942 1.8199625779 -0.2088506648
| 15> O -0.7388667327 1.9504192859 -0.1188984466
| 16> O 1.3390468165 2.7347365131 0.088400601
| 17> C 0.8506412292 3.9990621078 0.5977513981
| 18> C 2.0528455309 4.856833595 0.9346634323
| 19> S -0.2351375918 -0.5676465325 -1.2600804093
| 20> P -1.6855510936 -0.3031173487 0.2500837116
| 21> S -1.3163891407 0.1393506606 2.136510351
| 22> O -3.0033517276 0.3702497476 -0.3540394814
| 23> C -3.4893675234 1.6810506114 -0.0656418899
| 24> O -2.123023263 -1.8432416381 0.0942870606
| 25> C -3.1727197084 -2.4046424116 0.884917387
| 26> H 2.4049466297 -4.3623522586 -2.8611599179
| 27> H 1.2624996846 -3.6009607052 -1.7443279113
| 28> H 1.7996514784 -2.7254904173 -3.178513289
| 29> H 4.1319801762 -2.6513555721 -2.2606210212
| 30> H 3.557973032 -3.5225884748 -0.8001456637
| 31> H 2.8211713453 0.4799835488 0.6299447303
| 32> H 1.3384008332 -0.1499912343 1.3911145438
| 33> H 0.2252675083 4.4576427412 -0.1731745407
| 34> H 0.2302653787 3.7952349092 1.4755004986
| 35> H 2.6514918152 4.3784323618 1.7035191043
| 36> H 2.6655167533 5.0031407555 0.0505565435
| 37> H 1.7117971715 5.820473567 1.2976856486
| 38> H -3.173581412 1.9870183035 0.9326362193
| 39> H -4.573746506 1.6143343164 -0.1209209129
| 40> H -3.104338902 2.3815619898 -0.803295133
| 41> H -3.0869301766 -3.4818938525 0.7668914032
| 42> H -4.13975918 -2.0533924834 0.5259734852
| 43> H -3.0425070742 -2.1269266381 1.9333508692
| 44> *
| 45>
| 46>                          ****END OF INPUT****

CARTESIAN COORDINATES (ANGSTROEM)
---------------------------------
  C      2.108169   -3.423687   -2.405488
  C      3.275719   -2.852248   -1.616948
  O      2.932496   -1.568356   -1.063369
  C      2.301132   -1.531160    0.092209
  O      2.054483   -2.495608    0.779720
  C      1.917764   -0.108971    0.466187
  C      1.105384    0.524747   -0.666223
  H      1.744204    0.698793   -1.534511
  C      0.469496    1.819963   -0.208851
  O     -0.738867    1.950419   -0.118898
  O      1.339047    2.734737    0.088401
  C      0.850641    3.999062    0.597751
  C      2.052846    4.856834    0.934663
  S     -0.235138   -0.567647   -1.260080
  P     -1.685551   -0.303117    0.250084
  S     -1.316389    0.139351    2.136510
  O     -3.003352    0.370250   -0.354039
  C     -3.489368    1.681051   -0.065642
  O     -2.123023   -1.843242    0.094287
  C     -3.172720   -2.404642    0.884917
  H      2.404947   -4.362352   -2.861160
  H      1.262500   -3.600961   -1.744328
  H      1.799651   -2.725490   -3.178513
  H      4.131980   -2.651356   -2.260621
  H      3.557973   -3.522588   -0.800146
  H      2.821171    0.479984    0.629945
  H      1.338401   -0.149991    1.391115
  H      0.225268    4.457643   -0.173175
  H      0.230265    3.795235    1.475500
  H      2.651492    4.378432    1.703519
  H      2.665517    5.003141    0.050557
  H      1.711797    5.820474    1.297686
  H     -3.173581    1.987018    0.932636
  H     -4.573747    1.614334   -0.120921
  H     -3.104339    2.381562   -0.803295
  H     -3.086930   -3.481894    0.766891
  H     -4.139759   -2.053392    0.525973
  H     -3.042507   -2.126927    1.933351

 Total Charge           Charge          ....    0
 Multiplicity           Mult            ....    1
 Number of Electrons    NEL             ....  174
 Basis Dimension        Dim             ....  316

ORBITAL ENERGIES
----------------

  NO   OCC          E(Eh)            E(eV)
   0   2.0000     -88.034566     -2395.5423
   1   2.0000     -87.968993     -2393.7580
   2   2.0000     -76.416509     -2079.3989
   3   2.0000     -18.831939      -512.4431
   4   2.0000     -18.800244      -511.5806
   5   2.0000     -18.779223      -511.0086
   6   2.0000     -18.767117      -510.6792
   7   2.0000     -18.766527      -510.6632
   8   2.0000     -18.731949      -509.7222
   9   2.0000     -10.034911      -273.0638
  10   2.0000     -10.005562      -272.2652
  11   2.0000      -9.966324      -271.1975
  12   2.0000      -9.953777      -270.8560
  13   2.0000      -9.945151      -270.6213
  14   2.0000      -9.931075      -270.2383
  15   2.0000      -9.926241      -270.1067
  16   2.0000      -9.905739      -269.5489
  17   2.0000      -9.902207      -269.4528
  18   2.0000      -9.880633      -268.8657
  19   2.0000      -7.679487      -208.9695
  20   2.0000      -7.614088      -207.1899
  21   2.0000      -6.412205      -174.4850
  22   2.0000      -5.707746      -155.3157
  23   2.0000      -5.704191      -155.2189
  24   2.0000      -5.695826      -154.9913
  25   2.0000      -5.643245      -153.5605
  26   2.0000      -5.634972      -153.3354
  27   2.0000      -5.633706      -153.3009
  28   2.0000      -4.634837      -126.1203
  29   2.0000      -4.634220      -126.1035
  30   2.0000      -4.632828      -126.0657
  31   2.0000      -1.042169       -28.3589
  32   2.0000      -1.007598       -27.4181
  33   2.0000      -0.967131       -26.3170
  34   2.0000      -0.944735       -25.7075
  35   2.0000      -0.921690       -25.0804
  36   2.0000      -0.909694       -24.7540
  37   2.0000      -0.769144       -20.9295
  38   2.0000      -0.725710       -19.7476
  39   2.0000      -0.706118       -19.2144
  40   2.0000      -0.685295       -18.6478
  41   2.0000      -0.647362       -17.6156
  42   2.0000      -0.628633       -17.1060
  43   2.0000      -0.617509       -16.8033
  44   2.0000      -0.613353       -16.6902
  45   2.0000      -0.591491       -16.0953
  46   2.0000      -0.565615       -15.3912
  47   2.0000      -0.528396       -14.3784
  48   2.0000      -0.502914       -13.6850
  49   2.0000      -0.496381       -13.5072
  50   2.0000      -0.486018       -13.2252
  51   2.0000      -0.468333       -12.7440
  52   2.0000      -0.463243       -12.6055
  53   2.0000      -0.450761       -12.2658
  54   2.0000      -0.446940       -12.1619
  55   2.0000      -0.434638       -11.8271
  56   2.0000      -0.420513       -11.4427
  57   2.0000      -0.412696       -11.2300
  58   2.0000      -0.409533       -11.1440
  59   2.0000      -0.401311       -10.9202
  60   2.0000      -0.395058       -10.7501
  61   2.0000      -0.387934       -10.5562
  62   2.0000      -0.386601       -10.5199
  63   2.0000      -0.381740       -10.3877
  64   2.0000      -0.378146       -10.2899
  65   2.0000      -0.372923       -10.1478
  66   2.0000      -0.366753        -9.9798
  67   2.0000      -0.354004        -9.6329
  68   2.0000      -0.350200        -9.5294
  69   2.0000      -0.338791        -9.2190
  70   2.0000      -0.333332        -9.0704
  71   2.0000      -0.332324        -9.0430
  72   2.0000      -0.324492        -8.8299
  73   2.0000      -0.318211        -8.6590
  74   2.0000      -0.304438        -8.2842
  75   2.0000      -0.291733        -7.9385
  76   2.0000      -0.290827        -7.9138
  77   2.0000      -0.289025        -7.8648
  78   2.0000      -0.274151        -7.4600
  79   2.0000      -0.260788        -7.0964
  80   2.0000      -0.256599        -6.9824
  81   2.0000      -0.254894        -6.9360
  82   2.0000      -0.245057        -6.6683
  83   2.0000      -0.215296        -5.8585
  84   2.0000      -0.211814        -5.7637
  85   2.0000      -0.189756        -5.1635
  86   2.0000      -0.182017        -4.9529
  87   0.0000      -0.050482        -1.3737
  88   0.0000      -0.039796        -1.0829
  89   0.0000      -0.013601        -0.3701
  90   0.0000       0.007235         0.1969
  91   0.0000       0.028525         0.7762

MULLIKEN ATOMIC CHARGES
-----------------------
   0 C :   -0.304613
   1 C :   -0.012734
   2 O :   -0.242605
   3 C :    0.124276
   4 O :   -0.178599
   5 C :   -0.073945
   6 C :   -0.330340
   7 H :    0.149904
   8 C :    0.235377
   9 O :   -0.201723
  10 O :   -0.214937
  11 C :   -0.034988
  12 C :   -0.274815
  13 S :   -0.061196
  14 P :    0.652376
  15 S :   -0.353589
  16 O :   -0.390921
  17 C :   -0.082972
  18 O :   -0.391454
  19 C :   -0.095066
  20 H :    0.110032
  21 H :    0.138416
  22 H :    0.110972
  23 H :    0.099308
  24 H :    0.109534
  25 H :    0.115711
  26 H :    0.123532
  27 H :    0.111960
  28 H :    0.125727
  29 H :    0.123765
  30 H :    0.118980
  31 H :    0.118347
  32 H :    0.111993
  33 H :    0.113966
  34 H :    0.111226
  35 H :    0.120671
  36 H :    0.104792
  37 H :    0.113634
Sum of atomic charges:    0.0000000

LOEWDIN ATOMIC CHARGES
----------------------
   0 C :   -0.357560
   1 C :   -0.110697
   2 O :   -0.066550
   3 C :    0.022124
   4 O :   -0.150460
   5 C :   -0.254517
   6 C :   -0.263599
   7 H :    0.148919
   8 C :    0.029222
   9 O :   -0.152547
  10 O :   -0.034202
  11 C :   -0.102028
  12 C :   -0.349928
  13 S :    0.132610
  14 P :    0.591259
  15 S :   -0.342614
  16 O :   -0.252782
  17 C :   -0.211990
  18 O :   -0.269179
  19 C :   -0.215878
  20 H :    0.128896
  21 H :    0.134148
  22 H :    0.122460
  23 H :    0.115776
  24 H :    0.120488
  25 H :    0.142055
  26 H :    0.136264
  27 H :    0.120172
  28 H :    0.126781
  29 H :    0.130881
  30 H :    0.128823
  31 H :    0.134976
  32 H :    0.107453
  33 H :    0.114711
  34 H :    0.110883
  35 H :    0.120087
  36 H :    0.107640
  37 H :    0.107904

  Mayer bond orders larger than 0.100000
B(  0-C ,  1-C ) :   1.1760 B(  0-C , 20-H ) :   0.9428 B(  0-C , 21-H ) :   0.9420
B(  0-C , 22-H ) :   0.9481 B(  1-C ,  2-O ) :   0.9156 B(  1-C , 23-H ) :   0.9377
B(  1-C , 24-H ) :   0.9137 B(  2-O ,  3-C ) :   1.1988 B(  3-C ,  4-O ) :   2.0873
B(  3-C ,  5-C ) :   1.0198 B(  5-C ,  6-C ) :   1.0344 B(  5-C , 25-H ) :   0.8739
B(  5-C , 26-H ) :   0.8779 B(  6-C ,  7-H ) :   0.8596 B(  6-C ,  8-C ) :   0.9293
B(  6-C , 13-S ) :   1.0458 B(  8-C ,  9-O ) :   1.9041 B(  8-C , 10-O ) :   1.2924
B(  9-O , 14-P ) :   0.1311 B( 10-O , 11-C ) :   0.8835 B( 11-C , 12-C ) :   1.1561
B( 11-C , 27-H ) :   0.9323 B( 11-C , 28-H ) :   0.9280 B( 12-C , 29-H ) :   0.9492
B( 12-C , 30-H ) :   0.9491 B( 12-C , 31-H ) :   0.9417 B( 13-S , 14-P ) :   0.9250
B( 13-S , 15-S ) :   0.1090 B( 14-P , 15-S ) :   1.5530 B( 14-P , 16-O ) :   1.0934
B( 14-P , 18-O ) :   1.0773 B( 16-O , 17-C ) :   0.9327 B( 17-C , 32-H ) :   0.9341
B( 17-C , 33-H ) :   0.9546 B( 17-C , 34-H ) :   0.9534 B( 18-O , 19-C ) :   0.9416
B( 19-C , 35-H ) :   0.9608 B( 19-C , 36-H ) :   0.9511 B( 19-C , 37-H ) :   0.9327

Dispersion correction           -0.051752156
FINAL SINGLE POINT ENERGY     -1979.011525913706

DIPOLE MOMENT
-------------

Method             : SCF
Type of density    : Electron Density
Multiplicity       :   1
Irrep              :   0
Energy             : -1979.1417396176334478 Eh
Relativity type    :
Basis              : AO
                                X                 Y                 Z
Electronic contribution:     -6.060608387      -4.312189112       1.901729743
Nuclear contribution   :      6.646714822       5.844919050      -2.855584731
                        -----------------------------------------
Total Dipole Moment    :      0.586106435       1.532729938      -0.953854987
                        -----------------------------------------
Magnitude (a.u.)       :      1.898057205
Magnitude (Debye)      :      4.824478007

Rotational constants in cm-1:             0.010397             0.008614             0.005655
Rotational constants in MHz :           311.707999           258.227659           169.539854

                             ****ORCA TERMINATED NORMALLY****
TOTAL RUN TIME: 0 days 0 hours 0 minutes 27 seconds 385 msec
