                         Program Version 6.0.0  -   RELEASE  -
|  1> ! r2scan-3c def2/J RI DEFGRID2 scfconv6 printgap
|  2> %output
|  3>     printlevel normal
|  4> end
|  5> * xyz 0 1
|  6> C 3.8595320786 -1.9465398234 -2.4051970317
|  7> C 4.4895936545 -1.6957375767 -1.0507972358
|  8> O 3.512447595 -1.3841150542 -0.0393859041
|  9> P 2.6224674344 -0.0674847588 -0.0740048314
| 10> S 3.5131031506 1.5719011428 -0.6533508807
| 11> O 2.1243101779 0.0232800695 1.4179483231
| 12> C 1.5366289443 -1.0984148367 2.1249599537
| 13> C 0.6019255875 -0.5490183795 3.1822544005
| 14> S 0.9117198671 -0.646196925 -1.2177530887
| 15> C 0.2757411096 1.0284461013 -1.4558002602
| 16> S -0.4017511262 1.7380445933 0.0700521732
| 17> P -2.1782433038 0.5906086457 0.064275372
| 18> S -3.0574308087 0.4154741868 -1.683296738
| 19> O -2.8784158248 1.4131836391 1.2220128008
| 20> C -4.0466866124 0.9426311692 1.9302524139
| 21> C -5.3173825835 1.1722666768 1.1361815283
| 22> O -1.8364994416 -0.8018840008 0.76011211
| 23> C -1.9837926147 -2.0834712214 0.120726779
| 24> C -3.3215726817 -2.6986121388 0.4800050785
| 25> H 4.6200103229 -2.3033047949 -3.0923337099
| 26> H 3.0679243439 -2.6872553753 -2.325046622
| 27> H 3.4379798878 -1.0223102796 -2.7973313642
| 28> H 5.2027178134 -0.8677872515 -1.1054089686
| 29> H 4.9835903707 -2.5881401396 -0.6638978618
| 30> H 1.0054765959 -1.7263764344 1.4034840614
| 31> H 2.3547182464 -1.6704098621 2.566493032
| 32> H 0.18695328 -1.3721845124 3.7549366216
| 33> H 1.1445899636 0.1179329702 3.84591032
| 34> H -0.2075699825 0.0091990899 2.7170659718
| 35> H -0.5081798585 0.9718681316 -2.2124870664
| 36> H 1.0908696373 1.6786895478 -1.7745043243
| 37> H -3.9136441836 -0.1163897114 2.1654514352
| 38> H -4.0439491766 1.5276249736 2.8517420769
| 39> H -6.1718656669 0.8585209669 1.7274646879
| 40> H -5.4192518484 2.2255276783 0.8880863325
| 41> H -5.2968360355 0.6022890421 0.2091698373
| 42> H -1.8926512173 -1.9601414085 -0.9622328862
| 43> H -1.152087868 -2.6844470496 0.4902533417
| 44> H -3.4253286388 -2.7794180264 1.5586005622
| 45> H -4.1291701814 -2.08428753 0.0862496484
| 46> H -3.387463941 -3.6879597318 0.0391803233
| 47> *
| 48>
| 49>                          ****END OF INPUT****

CARTESIAN COORDINATES (ANGSTROEM)
---------------------------------
  C      3.859532   -1.946540   -2.405197
  C      4.489594   -1.695738   -1.050797
  O      3.512448   -1.384115   -0.039386
  P      2.622467   -0.067485   -0.074005
  S      3.513103    1.571901   -0.653351
  O      2.124310    0.023280    1.417948
  C      1.536629   -1.098415    2.124960
  C      0.601926   -0.549018    3.182254
  S      0.911720   -0.646197   -1.217753
  C      0.275741    1.028446   -1.455800
  S     -0.401751    1.738045    0.070052
  P     -2.178243    0.590609    0.064275
  S     -3.057431    0.415474   -1.683297
  O     -2.878416    1.413184    1.222013
  C     -4.046687    0.942631    1.930252
  C     -5.317383    1.172267    1.136182
  O     -1.836499   -0.801884    0.760112
  C     -1.983793   -2.083471    0.120727
  C     -3.321573   -2.698612    0.480005
  H      4.620010   -2.303305   -3.092334
  H      3.067924   -2.687255   -2.325047
  H      3.437980   -1.022310   -2.797331
  H      5.202718   -0.867787   -1.105409
  H      4.983590   -2.588140   -0.663898
  H      1.005477   -1.726376    1.403484
  H      2.354718   -1.670410    2.566493
  H      0.186953   -1.372185    3.754937
  H      1.144590    0.117933    3.845910
  H     -0.207570    0.009199    2.717066
  H     -0.508180    0.971868   -2.212487
  H      1.090870    1.678690   -1.774504
  H     -3.913644   -0.116390    2.165451
  H     -4.043949    1.527625    2.851742
  H     -6.171866    0.858521    1.727465
  H     -5.419252    2.225528    0.888086
  H     -5.296836    0.602289    0.209170
  H     -1.892651   -1.960141   -0.962233
  H     -1.152088   -2.684447    0.490253
  H     -3.425329   -2.779418    1.558601
  H     -4.129170   -2.084288    0.086250
  H     -3.387464   -3.687960    0.039180

 Total Charge           Charge          ....    0
 Multiplicity           Mult            ....    1
 Number of Electrons    NEL             ....  202
 Basis Dimension        Dim             ....  539

ORBITAL ENERGIES
----------------

  NO   OCC          E(Eh)            E(eV)
   0   2.0000     -88.574216     -2410.2269
   1   2.0000     -88.572218     -2410.1726
   2   2.0000     -88.523986     -2408.8601
   3   2.0000     -88.521307     -2408.7872
   4   2.0000     -76.917588     -2093.0340
   5   2.0000     -76.914356     -2092.9460
   6   2.0000     -18.997628      -516.9517
   7   2.0000     -18.997235      -516.9411
   8   2.0000     -18.996219      -516.9134
   9   2.0000     -18.989260      -516.7240
  10   2.0000     -10.107774      -275.0465
  11   2.0000     -10.102904      -274.9140
  12   2.0000     -10.102283      -274.8971
  13   2.0000     -10.101324      -274.8710
  14   2.0000     -10.100693      -274.8538
  15   2.0000     -10.036874      -273.1172
  16   2.0000     -10.031882      -272.9814
  17   2.0000     -10.030870      -272.9538
  18   2.0000     -10.028917      -272.9007
  19   2.0000      -7.868748      -214.1195
  20   2.0000      -7.866250      -214.0515
  21   2.0000      -7.818830      -212.7612
  22   2.0000      -7.816023      -212.6848
  23   2.0000      -6.595898      -179.4835
  24   2.0000      -6.592877      -179.4013
  25   2.0000      -5.815471      -158.2470
  26   2.0000      -5.813199      -158.1852
  27   2.0000      -5.812605      -158.1690
  28   2.0000      -5.810248      -158.1049
  29   2.0000      -5.805992      -157.9891
  30   2.0000      -5.803195      -157.9130
  31   2.0000      -5.766442      -156.9129
  32   2.0000      -5.763710      -156.8385
  33   2.0000      -5.759353      -156.7200
  34   2.0000      -5.758616      -156.6999
  35   2.0000      -5.756246      -156.6354
  36   2.0000      -5.756051      -156.6301
  37   2.0000      -4.741721      -129.0288
  38   2.0000      -4.740510      -128.9958
  39   2.0000      -4.739641      -128.9722
  40   2.0000      -4.738746      -128.9478
  41   2.0000      -4.737741      -128.9205
  42   2.0000      -4.736345      -128.8825
  43   2.0000      -1.054974       -28.7073
  44   2.0000      -1.052425       -28.6380
  45   2.0000      -1.015509       -27.6334
  46   2.0000      -1.010645       -27.5011
  47   2.0000      -0.801330       -21.8053
  48   2.0000      -0.763255       -20.7692
  49   2.0000      -0.752771       -20.4839
  50   2.0000      -0.738224       -20.0881
  51   2.0000      -0.734879       -19.9971
  52   2.0000      -0.712184       -19.3795
  53   2.0000      -0.687637       -18.7116
  54   2.0000      -0.669025       -18.2051
  55   2.0000      -0.632450       -17.2099
  56   2.0000      -0.624063       -16.9816
  57   2.0000      -0.616135       -16.7659
  58   2.0000      -0.604915       -16.4606
  59   2.0000      -0.589215       -16.0334
  60   2.0000      -0.534081       -14.5331
  61   2.0000      -0.526606       -14.3297
  62   2.0000      -0.501854       -13.6561
  63   2.0000      -0.495518       -13.4837
  64   2.0000      -0.480717       -13.0810
  65   2.0000      -0.467260       -12.7148
  66   2.0000      -0.460168       -12.5218
  67   2.0000      -0.457654       -12.4534
  68   2.0000      -0.450439       -12.2571
  69   2.0000      -0.436738       -11.8842
  70   2.0000      -0.429276       -11.6812
  71   2.0000      -0.416233       -11.3263
  72   2.0000      -0.408730       -11.1221
  73   2.0000      -0.400472       -10.8974
  74   2.0000      -0.395327       -10.7574
  75   2.0000      -0.389446       -10.5974
  76   2.0000      -0.382497       -10.4083
  77   2.0000      -0.378527       -10.3002
  78   2.0000      -0.372500       -10.1362
  79   2.0000      -0.371824       -10.1178
  80   2.0000      -0.368334       -10.0229
  81   2.0000      -0.361066        -9.8251
  82   2.0000      -0.358855        -9.7649
  83   2.0000      -0.354845        -9.6558
  84   2.0000      -0.351860        -9.5746
  85   2.0000      -0.337647        -9.1878
  86   2.0000      -0.323573        -8.8049
  87   2.0000      -0.318936        -8.6787
  88   2.0000      -0.314050        -8.5457
  89   2.0000      -0.312137        -8.4937
  90   2.0000      -0.311474        -8.4756
  91   2.0000      -0.298397        -8.1198
  92   2.0000      -0.288185        -7.8419
  93   2.0000      -0.281348        -7.6559
  94   2.0000      -0.273054        -7.4302
  95   2.0000      -0.246414        -6.7053
  96   2.0000      -0.232025        -6.3137
  97   2.0000      -0.227461        -6.1895
  98   2.0000      -0.219555        -5.9744
  99   2.0000      -0.216146        -5.8816
 100   2.0000      -0.211594        -5.7578
 101   0.0000      -0.048029        -1.3069
 102   0.0000      -0.024614        -0.6698
 103   0.0000      -0.003092        -0.0841
 104   0.0000      -0.001188        -0.0323
 105   0.0000       0.013232         0.3601

MULLIKEN ATOMIC CHARGES
-----------------------
   0 C :   -0.446355
   1 C :   -0.164624
   2 O :   -0.289758
   3 P :    0.646910
   4 S :   -0.438906
   5 O :   -0.262058
   6 C :   -0.094366
   7 C :   -0.456044
   8 S :   -0.175119
   9 C :   -0.237308
  10 S :   -0.100043
  11 P :    0.670607
  12 S :   -0.475906
  13 O :   -0.310020
  14 C :   -0.165738
  15 C :   -0.422624
  16 O :   -0.273326
  17 C :   -0.101966
  18 C :   -0.495128
  19 H :    0.148564
  20 H :    0.152483
  21 H :    0.181220
  22 H :    0.174184
  23 H :    0.148040
  24 H :    0.141770
  25 H :    0.154732
  26 H :    0.140881
  27 H :    0.154857
  28 H :    0.173789
  29 H :    0.213512
  30 H :    0.221294
  31 H :    0.157052
  32 H :    0.152939
  33 H :    0.145867
  34 H :    0.158912
  35 H :    0.167675
  36 H :    0.176095
  37 H :    0.150540
  38 H :    0.154027
  39 H :    0.173214
  40 H :    0.150124
Sum of atomic charges:   -0.0000000

LOEWDIN ATOMIC CHARGES
----------------------
   0 C :   -0.408751
   1 C :    0.023407
   2 O :   -0.665452
   3 P :    0.378898
   4 S :   -0.099217
   5 O :   -0.653391
   6 C :    0.024673
   7 C :   -0.389994
   8 S :    0.135280
   9 C :   -0.424725
  10 S :    0.193448
  11 P :    0.383233
  12 S :   -0.132528
  13 O :   -0.664141
  14 C :    0.030470
  15 C :   -0.400809
  16 O :   -0.684569
  17 C :    0.000537
  18 C :   -0.400411
  19 H :    0.159778
  20 H :    0.159412
  21 H :    0.167098
  22 H :    0.180549
  23 H :    0.179572
  24 H :    0.173213
  25 H :    0.174062
  26 H :    0.158535
  27 H :    0.161842
  28 H :    0.170258
  29 H :    0.192239
  30 H :    0.193402
  31 H :    0.174430
  32 H :    0.181953
  33 H :    0.158209
  34 H :    0.163573
  35 H :    0.166055
  36 H :    0.183152
  37 H :    0.175246
  38 H :    0.156094
  39 H :    0.163602
  40 H :    0.161766

  Mayer bond orders larger than 0.100000
B(  0-C ,  1-C ) :   0.9186 B(  0-C , 19-H ) :   0.9559 B(  0-C , 20-H ) :   0.9679
B(  0-C , 21-H ) :   0.9628 B(  1-C ,  2-O ) :   0.8190 B(  1-C , 22-H ) :   0.9686
B(  1-C , 23-H ) :   0.9614 B(  2-O ,  3-P ) :   1.0370 B(  3-P ,  4-S ) :   1.8439
B(  3-P ,  5-O ) :   1.1618 B(  3-P ,  8-S ) :   0.9969 B(  5-O ,  6-C ) :   0.7397
B(  6-C ,  7-C ) :   0.9516 B(  6-C , 24-H ) :   0.9526 B(  6-C , 25-H ) :   0.9478
B(  7-C , 26-H ) :   0.9670 B(  7-C , 27-H ) :   0.9704 B(  7-C , 28-H ) :   0.9614
B(  8-S ,  9-C ) :   0.9030 B(  9-C , 10-S ) :   0.9077 B(  9-C , 29-H ) :   0.9034
B(  9-C , 30-H ) :   0.9025 B( 10-S , 11-P ) :   1.1013 B( 11-P , 12-S ) :   1.7740
B( 11-P , 13-O ) :   1.1435 B( 11-P , 16-O ) :   1.0206 B( 13-O , 14-C ) :   0.7901
B( 14-C , 15-C ) :   0.9477 B( 14-C , 31-H ) :   0.9681 B( 14-C , 32-H ) :   0.9591
B( 15-C , 33-H ) :   0.9662 B( 15-C , 34-H ) :   0.9688 B( 15-C , 35-H ) :   0.9536
B( 16-O , 17-C ) :   0.7427 B( 17-C , 18-C ) :   0.9213 B( 17-C , 36-H ) :   0.9485
B( 17-C , 37-H ) :   0.9612 B( 18-C , 38-H ) :   0.9797 B( 18-C , 39-H ) :   0.9691
B( 18-C , 40-H ) :   0.9616

Dispersion correction           -0.021879867
FINAL SINGLE POINT ENERGY     -2932.463090821870

DIPOLE MOMENT
-------------

Method             : SCF
Type of density    : Electron Density
Multiplicity       :   1
Irrep              :   0
Energy             : -2932.4877797036383527 Eh
Relativity type    :
Basis              : AO
                                X                 Y                 Z
Electronic contribution:     11.499311255      16.879618178      -7.974548635
Nuclear contribution   :    -12.094427682     -18.917126583       8.950790966
                        -----------------------------------------
Total Dipole Moment    :     -0.595116427      -2.037508405       0.976242331
                        -----------------------------------------
Magnitude (a.u.)       :      2.336376072
Magnitude (Debye)      :      5.938596028

Rotational constants in cm-1:             0.013879             0.004589             0.004564
Rotational constants in MHz :           416.080382           137.584675           136.836423

                             ****ORCA TERMINATED NORMALLY****
TOTAL RUN TIME: 0 days 0 hours 1 minutes 21 seconds 952 msec
