                         Program Version 6.0.0  -   RELEASE  -
|  1> ! r2scan-3c def2/J RI DEFGRID2 scfconv6 printgap
|  2> %output
|  3>     printlevel normal
|  4> end
|  5> %cpcm
|  6>     smd true
|  7>     smdsolvent "water"
|  8> end
|  9> * xyz 0 1
| 10> C 3.8595320786 -1.9465398234 -2.4051970317
| 11> C 4.4895936545 -1.6957375767 -1.0507972358
| 12> O 3.512447595 -1.3841150542 -0.0393859041
| 13> P 2.6224674344 -0.0674847588 -0.0740048314
| 14> S 3.5131031506 1.5719011428 -0.6533508807
| 15> O 2.1243101779 0.0232800695 1.4179483231
| 16> C 1.5366289443 -1.0984148367 2.1249599537
| 17> C 0.6019255875 -0.5490183795 3.1822544005
| 18> S 0.9117198671 -0.646196925 -1.2177530887
| 19> C 0.2757411096 1.0284461013 -1.4558002602
| 20> S -0.4017511262 1.7380445933 0.0700521732
| 21> P -2.1782433038 0.5906086457 0.064275372
| 22> S -3.0574308087 0.4154741868 -1.683296738
| 23> O -2.8784158248 1.4131836391 1.2220128008
| 24> C -4.0466866124 0.9426311692 1.9302524139
| 25> C -5.3173825835 1.1722666768 1.1361815283
| 26> O -1.8364994416 -0.8018840008 0.76011211
| 27> C -1.9837926147 -2.0834712214 0.120726779
| 28> C -3.3215726817 -2.6986121388 0.4800050785
| 29> H 4.6200103229 -2.3033047949 -3.0923337099
| 30> H 3.0679243439 -2.6872553753 -2.325046622
| 31> H 3.4379798878 -1.0223102796 -2.7973313642
| 32> H 5.2027178134 -0.8677872515 -1.1054089686
| 33> H 4.9835903707 -2.5881401396 -0.6638978618
| 34> H 1.0054765959 -1.7263764344 1.4034840614
| 35> H 2.3547182464 -1.6704098621 2.566493032
| 36> H 0.18695328 -1.3721845124 3.7549366216
| 37> H 1.1445899636 0.1179329702 3.84591032
| 38> H -0.2075699825 0.0091990899 2.7170659718
| 39> H -0.5081798585 0.9718681316 -2.2124870664
| 40> H 1.0908696373 1.6786895478 -1.7745043243
| 41> H -3.9136441836 -0.1163897114 2.1654514352
| 42> H -4.0439491766 1.5276249736 2.8517420769
| 43> H -6.1718656669 0.8585209669 1.7274646879
| 44> H -5.4192518484 2.2255276783 0.8880863325
| 45> H -5.2968360355 0.6022890421 0.2091698373
| 46> H -1.8926512173 -1.9601414085 -0.9622328862
| 47> H -1.152087868 -2.6844470496 0.4902533417
| 48> H -3.4253286388 -2.7794180264 1.5586005622
| 49> H -4.1291701814 -2.08428753 0.0862496484
| 50> H -3.387463941 -3.6879597318 0.0391803233
| 51> *
| 52>
| 53>                          ****END OF INPUT****

CARTESIAN COORDINATES (ANGSTROEM)
---------------------------------
  C      3.859532   -1.946540   -2.405197
  C      4.489594   -1.695738   -1.050797
  O      3.512448   -1.384115   -0.039386
  P      2.622467   -0.067485   -0.074005
  S      3.513103    1.571901   -0.653351
  O      2.124310    0.023280    1.417948
  C      1.536629   -1.098415    2.124960
  C      0.601926   -0.549018    3.182254
  S      0.911720   -0.646197   -1.217753
  C      0.275741    1.028446   -1.455800
  S     -0.401751    1.738045    0.070052
  P     -2.178243    0.590609    0.064275
  S     -3.057431    0.415474   -1.683297
  O     -2.878416    1.413184    1.222013
  C     -4.046687    0.942631    1.930252
  C     -5.317383    1.172267    1.136182
  O     -1.836499   -0.801884    0.760112
  C     -1.983793   -2.083471    0.120727
  C     -3.321573   -2.698612    0.480005
  H      4.620010   -2.303305   -3.092334
  H      3.067924   -2.687255   -2.325047
  H      3.437980   -1.022310   -2.797331
  H      5.202718   -0.867787   -1.105409
  H      4.983590   -2.588140   -0.663898
  H      1.005477   -1.726376    1.403484
  H      2.354718   -1.670410    2.566493
  H      0.186953   -1.372185    3.754937
  H      1.144590    0.117933    3.845910
  H     -0.207570    0.009199    2.717066
  H     -0.508180    0.971868   -2.212487
  H      1.090870    1.678690   -1.774504
  H     -3.913644   -0.116390    2.165451
  H     -4.043949    1.527625    2.851742
  H     -6.171866    0.858521    1.727465
  H     -5.419252    2.225528    0.888086
  H     -5.296836    0.602289    0.209170
  H     -1.892651   -1.960141   -0.962233
  H     -1.152088   -2.684447    0.490253
  H     -3.425329   -2.779418    1.558601
  H     -4.129170   -2.084288    0.086250
  H     -3.387464   -3.687960    0.039180

 Total Charge           Charge          ....    0
 Multiplicity           Mult            ....    1
 Number of Electrons    NEL             ....  202
 Basis Dimension        Dim             ....  539

ORBITAL ENERGIES
----------------

  NO   OCC          E(Eh)            E(eV)
   0   2.0000     -88.578377     -2410.3402
   1   2.0000     -88.577081     -2410.3049
   2   2.0000     -88.531933     -2409.0764
   3   2.0000     -88.529227     -2409.0027
   4   2.0000     -76.920694     -2093.1185
   5   2.0000     -76.920587     -2093.1156
   6   2.0000     -18.997290      -516.9426
   7   2.0000     -18.996587      -516.9234
   8   2.0000     -18.994563      -516.8683
   9   2.0000     -18.993992      -516.8528
  10   2.0000     -10.102519      -274.9035
  11   2.0000     -10.091982      -274.6168
  12   2.0000     -10.091966      -274.6163
  13   2.0000     -10.091359      -274.5998
  14   2.0000     -10.088133      -274.5121
  15   2.0000     -10.018920      -272.6287
  16   2.0000     -10.018879      -272.6275
  17   2.0000     -10.017720      -272.5960
  18   2.0000     -10.017495      -272.5899
  19   2.0000      -7.872590      -214.2241
  20   2.0000      -7.871536      -214.1954
  21   2.0000      -7.827020      -212.9840
  22   2.0000      -7.824366      -212.9118
  23   2.0000      -6.599263      -179.5751
  24   2.0000      -6.598864      -179.5642
  25   2.0000      -5.819429      -158.3547
  26   2.0000      -5.818310      -158.3243
  27   2.0000      -5.816527      -158.2758
  28   2.0000      -5.815428      -158.2459
  29   2.0000      -5.809699      -158.0899
  30   2.0000      -5.808697      -158.0627
  31   2.0000      -5.774581      -157.1343
  32   2.0000      -5.771922      -157.0620
  33   2.0000      -5.767219      -156.9340
  34   2.0000      -5.767126      -156.9315
  35   2.0000      -5.764803      -156.8683
  36   2.0000      -5.764241      -156.8530
  37   2.0000      -4.745082      -129.1202
  38   2.0000      -4.744581      -129.1066
  39   2.0000      -4.744075      -129.0928
  40   2.0000      -4.743506      -129.0774
  41   2.0000      -4.742868      -129.0600
  42   2.0000      -4.742729      -129.0562
  43   2.0000      -1.054908       -28.7055
  44   2.0000      -1.052562       -28.6417
  45   2.0000      -1.012730       -27.5578
  46   2.0000      -1.012178       -27.5428
  47   2.0000      -0.804447       -21.8901
  48   2.0000      -0.758345       -20.6356
  49   2.0000      -0.745642       -20.2900
  50   2.0000      -0.725771       -19.7492
  51   2.0000      -0.723630       -19.6910
  52   2.0000      -0.710080       -19.3223
  53   2.0000      -0.690451       -18.7881
  54   2.0000      -0.675154       -18.3719
  55   2.0000      -0.629005       -17.1161
  56   2.0000      -0.617484       -16.8026
  57   2.0000      -0.604193       -16.4409
  58   2.0000      -0.599787       -16.3210
  59   2.0000      -0.587281       -15.9807
  60   2.0000      -0.528724       -14.3873
  61   2.0000      -0.519878       -14.1466
  62   2.0000      -0.492696       -13.4069
  63   2.0000      -0.491300       -13.3689
  64   2.0000      -0.479650       -13.0519
  65   2.0000      -0.460627       -12.5343
  66   2.0000      -0.452954       -12.3255
  67   2.0000      -0.449280       -12.2255
  68   2.0000      -0.445520       -12.1232
  69   2.0000      -0.432277       -11.7629
  70   2.0000      -0.424048       -11.5389
  71   2.0000      -0.407200       -11.0805
  72   2.0000      -0.404109       -10.9964
  73   2.0000      -0.395822       -10.7709
  74   2.0000      -0.391616       -10.6564
  75   2.0000      -0.387750       -10.5512
  76   2.0000      -0.381254       -10.3745
  77   2.0000      -0.373874       -10.1736
  78   2.0000      -0.361588        -9.8393
  79   2.0000      -0.359795        -9.7905
  80   2.0000      -0.356522        -9.7015
  81   2.0000      -0.352143        -9.5823
  82   2.0000      -0.351594        -9.5674
  83   2.0000      -0.347021        -9.4429
  84   2.0000      -0.345117        -9.3911
  85   2.0000      -0.332496        -9.0477
  86   2.0000      -0.319480        -8.6935
  87   2.0000      -0.316445        -8.6109
  88   2.0000      -0.307741        -8.3741
  89   2.0000      -0.305848        -8.3225
  90   2.0000      -0.301573        -8.2062
  91   2.0000      -0.292580        -7.9615
  92   2.0000      -0.286744        -7.8027
  93   2.0000      -0.280271        -7.6266
  94   2.0000      -0.273636        -7.4460
  95   2.0000      -0.250449        -6.8151
  96   2.0000      -0.239808        -6.5255
  97   2.0000      -0.235511        -6.4086
  98   2.0000      -0.227496        -6.1905
  99   2.0000      -0.225514        -6.1366
 100   2.0000      -0.218097        -5.9347
 101   0.0000      -0.053601        -1.4585
 102   0.0000      -0.030951        -0.8422
 103   0.0000      -0.007812        -0.2126
 104   0.0000      -0.004091        -0.1113
 105   0.0000       0.013259         0.3608

MULLIKEN ATOMIC CHARGES
-----------------------
   0 C :   -0.484228
   1 C :   -0.157650
   2 O :   -0.308274
   3 P :    0.661119
   4 S :   -0.497554
   5 O :   -0.292558
   6 C :   -0.096377
   7 C :   -0.502452
   8 S :   -0.161334
   9 C :   -0.246635
  10 S :   -0.141351
  11 P :    0.701362
  12 S :   -0.518014
  13 O :   -0.343680
  14 C :   -0.147135
  15 C :   -0.476485
  16 O :   -0.286468
  17 C :   -0.100663
  18 C :   -0.517888
  19 H :    0.173215
  20 H :    0.169274
  21 H :    0.174645
  22 H :    0.179519
  23 H :    0.176067
  24 H :    0.167834
  25 H :    0.176962
  26 H :    0.172567
  27 H :    0.166719
  28 H :    0.168885
  29 H :    0.232345
  30 H :    0.235261
  31 H :    0.178250
  32 H :    0.176101
  33 H :    0.170991
  34 H :    0.168316
  35 H :    0.165835
  36 H :    0.171035
  37 H :    0.182065
  38 H :    0.169871
  39 H :    0.170242
  40 H :    0.170265
Sum of atomic charges:   -0.0000000

LOEWDIN ATOMIC CHARGES
----------------------
   0 C :   -0.411178
   1 C :    0.029453
   2 O :   -0.670445
   3 P :    0.381241
   4 S :   -0.143471
   5 O :   -0.676615
   6 C :    0.030577
   7 C :   -0.394380
   8 S :    0.149104
   9 C :   -0.421672
  10 S :    0.165237
  11 P :    0.386762
  12 S :   -0.160714
  13 O :   -0.680090
  14 C :    0.038217
  15 C :   -0.405504
  16 O :   -0.684731
  17 C :    0.007283
  18 C :   -0.401268
  19 H :    0.168817
  20 H :    0.163870
  21 H :    0.162044
  22 H :    0.181857
  23 H :    0.191740
  24 H :    0.182432
  25 H :    0.184040
  26 H :    0.170728
  27 H :    0.163943
  28 H :    0.165894
  29 H :    0.197348
  30 H :    0.196954
  31 H :    0.184375
  32 H :    0.191705
  33 H :    0.168370
  34 H :    0.163171
  35 H :    0.162464
  36 H :    0.181490
  37 H :    0.187354
  38 H :    0.163086
  39 H :    0.162178
  40 H :    0.168335

  Mayer bond orders larger than 0.100000
B(  0-C ,  1-C ) :   0.9063 B(  0-C , 19-H ) :   0.9507 B(  0-C , 20-H ) :   0.9647
B(  0-C , 21-H ) :   0.9647 B(  1-C ,  2-O ) :   0.8062 B(  1-C , 22-H ) :   0.9673
B(  1-C , 23-H ) :   0.9502 B(  2-O ,  3-P ) :   1.0501 B(  3-P ,  4-S ) :   1.8164
B(  3-P ,  5-O ) :   1.1675 B(  3-P ,  8-S ) :   1.0115 B(  5-O ,  6-C ) :   0.7265
B(  6-C ,  7-C ) :   0.9360 B(  6-C , 24-H ) :   0.9448 B(  6-C , 25-H ) :   0.9368
B(  7-C , 26-H ) :   0.9603 B(  7-C , 27-H ) :   0.9693 B(  7-C , 28-H ) :   0.9642
B(  8-S ,  9-C ) :   0.8966 B(  9-C , 10-S ) :   0.8937 B(  9-C , 29-H ) :   0.9007
B(  9-C , 30-H ) :   0.8988 B( 10-S , 11-P ) :   1.0996 B( 11-P , 12-S ) :   1.7496
B( 11-P , 13-O ) :   1.1537 B( 11-P , 16-O ) :   1.0370 B( 13-O , 14-C ) :   0.7830
B( 14-C , 15-C ) :   0.9291 B( 14-C , 31-H ) :   0.9584 B( 14-C , 32-H ) :   0.9514
B( 15-C , 33-H ) :   0.9596 B( 15-C , 34-H ) :   0.9706 B( 15-C , 35-H ) :   0.9584
B( 16-O , 17-C ) :   0.7266 B( 17-C , 18-C ) :   0.9271 B( 17-C , 36-H ) :   0.9470
B( 17-C , 37-H ) :   0.9505 B( 18-C , 38-H ) :   0.9731 B( 18-C , 39-H ) :   0.9679
B( 18-C , 40-H ) :   0.9585

Dispersion correction           -0.021879867
FINAL SINGLE POINT ENERGY     -2932.473650602525

DIPOLE MOMENT
-------------

Method             : SCF
Type of density    : Electron Density
Multiplicity       :   1
Irrep              :   0
Energy             : -2932.4983394842938651 Eh
Relativity type    :
Basis              : AO
                                X                 Y                 Z
Electronic contribution:     11.295702021      15.796788114      -7.694055858
Nuclear contribution   :    -12.094427682     -18.917126583       8.950790966
                        -----------------------------------------
Total Dipole Moment    :     -0.798725661      -3.120338469       1.256735108
                        -----------------------------------------
Magnitude (a.u.)       :      3.457435173
Magnitude (Debye)      :      8.788101808

Rotational constants in cm-1:             0.013879             0.004589             0.004564
Rotational constants in MHz :           416.080382           137.584675           136.836423

                             ****ORCA TERMINATED NORMALLY****
TOTAL RUN TIME: 0 days 0 hours 1 minutes 51 seconds 410 msec
