                         Program Version 6.0.1  -  RELEASE   -
|  1> ! pbe def2-sv(p) def2/J RI DEFGRID1 loosescf d4 GCP(DFT/SV(P)) printgap
|  2> %output
|  3>     printlevel normal
|  4> end
|  5> * xyz 0 1
|  6> C 1.3681388314 -3.79896262 -2.0365370811
|  7> C 2.0649098356 -3.6780970614 -0.690262113
|  8> O 1.7832096598 -2.4046424418 -0.0762017371
|  9> C 2.5113013686 -1.3658347883 -0.436374064
| 10> O 3.4411490069 -1.4078198885 -1.2083249356
| 11> C 2.0156791812 -0.0906351137 0.2205896478
| 12> C 1.0931311189 0.639530567 -0.7618981469
| 13> H 1.6406824977 0.8592019968 -1.6828163984
| 14> C 0.5738591766 1.9384251105 -0.1690620252
| 15> O -0.607664921 2.1495764335 0.0107510585
| 16> O 1.5439822434 2.757175492 0.1257677331
| 17> C 1.2087221702 4.0330968805 0.7176121242
| 18> C 0.8352008795 5.0465224419 -0.3508926991
| 19> S -0.3335021577 -0.372396045 -1.2831742273
| 20> P -1.6123182941 -0.2019722753 0.376468807
| 21> S -0.9771342578 0.1808379724 2.204045474
| 22> O -2.8305984444 0.6367144145 -0.2000104205
| 23> C -3.9214241682 1.0365633699 0.6420246034
| 24> O -2.3010561755 -1.6586391323 0.3439092976
| 25> C -1.6420059675 -2.7985603272 0.9012935569
| 26> H 1.7692124285 -3.0648488928 -2.7311818159
| 27> H 1.5328566017 -4.7935787893 -2.4369662269
| 28> H 0.3003823745 -3.6256975497 -1.9301932754
| 29> H 3.1478673127 -3.7732752575 -0.8075291967
| 30> H 1.6934890456 -4.4143727377 0.0228239173
| 31> H 2.865701741 0.5558628171 0.440385852
| 32> H 1.4786120385 -0.3360216616 1.138365905
| 33> H 0.3854414505 3.8822260411 1.4212843162
| 34> H 2.1150020827 4.3247513898 1.2476877541
| 35> H 0.6569346005 6.0085795039 0.1178106438
| 36> H 1.6407340019 5.1436721527 -1.0733664913
| 37> H -0.0698642841 4.733358849 -0.8666656595
| 38> H -4.5775173299 0.185807584 0.8247856828
| 39> H -4.4417298008 1.8176811505 0.0936374284
| 40> H -3.5434291219 1.4245131893 1.5899074974
| 41> H -1.4283085548 -2.6227333299 1.957102631
| 42> H -0.709977173 -2.9918205997 0.3704877586
| 43> H -2.33533674 -3.6265969266 0.781498796
| 44> *
| 45>
| 46>                          ****END OF INPUT****

CARTESIAN COORDINATES (ANGSTROEM)
---------------------------------
  C      1.368139   -3.798963   -2.036537
  C      2.064910   -3.678097   -0.690262
  O      1.783210   -2.404642   -0.076202
  C      2.511301   -1.365835   -0.436374
  O      3.441149   -1.407820   -1.208325
  C      2.015679   -0.090635    0.220590
  C      1.093131    0.639531   -0.761898
  H      1.640682    0.859202   -1.682816
  C      0.573859    1.938425   -0.169062
  O     -0.607665    2.149576    0.010751
  O      1.543982    2.757175    0.125768
  C      1.208722    4.033097    0.717612
  C      0.835201    5.046522   -0.350893
  S     -0.333502   -0.372396   -1.283174
  P     -1.612318   -0.201972    0.376469
  S     -0.977134    0.180838    2.204045
  O     -2.830598    0.636714   -0.200010
  C     -3.921424    1.036563    0.642025
  O     -2.301056   -1.658639    0.343909
  C     -1.642006   -2.798560    0.901294
  H      1.769212   -3.064849   -2.731182
  H      1.532857   -4.793579   -2.436966
  H      0.300382   -3.625698   -1.930193
  H      3.147867   -3.773275   -0.807529
  H      1.693489   -4.414373    0.022824
  H      2.865702    0.555863    0.440386
  H      1.478612   -0.336022    1.138366
  H      0.385441    3.882226    1.421284
  H      2.115002    4.324751    1.247688
  H      0.656935    6.008580    0.117811
  H      1.640734    5.143672   -1.073366
  H     -0.069864    4.733359   -0.866666
  H     -4.577517    0.185808    0.824786
  H     -4.441730    1.817681    0.093637
  H     -3.543429    1.424513    1.589907
  H     -1.428309   -2.622733    1.957103
  H     -0.709977   -2.991821    0.370488
  H     -2.335337   -3.626597    0.781499

 Total Charge           Charge          ....    0
 Multiplicity           Mult            ....    1
 Number of Electrons    NEL             ....  174
 Basis Dimension        Dim             ....  316

ORBITAL ENERGIES
----------------

  NO   OCC          E(Eh)            E(eV)
   0   2.0000     -88.039395     -2395.6737
   1   2.0000     -87.975697     -2393.9404
   2   2.0000     -76.420575     -2079.5096
   3   2.0000     -18.822836      -512.1954
   4   2.0000     -18.803818      -511.6779
   5   2.0000     -18.779033      -511.0035
   6   2.0000     -18.777301      -510.9563
   7   2.0000     -18.754159      -510.3266
   8   2.0000     -18.739958      -509.9402
   9   2.0000     -10.027011      -272.8488
  10   2.0000     -10.010157      -272.3902
  11   2.0000      -9.959147      -271.0022
  12   2.0000      -9.956359      -270.9263
  13   2.0000      -9.949094      -270.7286
  14   2.0000      -9.937062      -270.4012
  15   2.0000      -9.932387      -270.2740
  16   2.0000      -9.906559      -269.5712
  17   2.0000      -9.894967      -269.2557
  18   2.0000      -9.885926      -269.0097
  19   2.0000      -7.684651      -209.1100
  20   2.0000      -7.620736      -207.3708
  21   2.0000      -6.416779      -174.6094
  22   2.0000      -5.712795      -155.4531
  23   2.0000      -5.709202      -155.3553
  24   2.0000      -5.701173      -155.1368
  25   2.0000      -5.649793      -153.7387
  26   2.0000      -5.641864      -153.5229
  27   2.0000      -5.640213      -153.4780
  28   2.0000      -4.639246      -126.2403
  29   2.0000      -4.638683      -126.2250
  30   2.0000      -4.637514      -126.1932
  31   2.0000      -1.031679       -28.0734
  32   2.0000      -1.011786       -27.5321
  33   2.0000      -0.972883       -26.4735
  34   2.0000      -0.935638       -25.4600
  35   2.0000      -0.928224       -25.2583
  36   2.0000      -0.917343       -24.9622
  37   2.0000      -0.769417       -20.9369
  38   2.0000      -0.716755       -19.5039
  39   2.0000      -0.709067       -19.2947
  40   2.0000      -0.687716       -18.7137
  41   2.0000      -0.651185       -17.7196
  42   2.0000      -0.629093       -17.1185
  43   2.0000      -0.623878       -16.9766
  44   2.0000      -0.618134       -16.8203
  45   2.0000      -0.598078       -16.2745
  46   2.0000      -0.568000       -15.4561
  47   2.0000      -0.514586       -14.0026
  48   2.0000      -0.503029       -13.6881
  49   2.0000      -0.497996       -13.5512
  50   2.0000      -0.488387       -13.2897
  51   2.0000      -0.463125       -12.6023
  52   2.0000      -0.457116       -12.4388
  53   2.0000      -0.446516       -12.1503
  54   2.0000      -0.440215       -11.9789
  55   2.0000      -0.429141       -11.6775
  56   2.0000      -0.426123       -11.5954
  57   2.0000      -0.417987       -11.3740
  58   2.0000      -0.415694       -11.3116
  59   2.0000      -0.403068       -10.9680
  60   2.0000      -0.401926       -10.9370
  61   2.0000      -0.393129       -10.6976
  62   2.0000      -0.391820       -10.6620
  63   2.0000      -0.387583       -10.5467
  64   2.0000      -0.384951       -10.4750
  65   2.0000      -0.368432       -10.0256
  66   2.0000      -0.366454        -9.9717
  67   2.0000      -0.354423        -9.6444
  68   2.0000      -0.353218        -9.6115
  69   2.0000      -0.342887        -9.3304
  70   2.0000      -0.336441        -9.1550
  71   2.0000      -0.333654        -9.0792
  72   2.0000      -0.325732        -8.8636
  73   2.0000      -0.309893        -8.4326
  74   2.0000      -0.305914        -8.3243
  75   2.0000      -0.295412        -8.0386
  76   2.0000      -0.294898        -8.0246
  77   2.0000      -0.281669        -7.6646
  78   2.0000      -0.276988        -7.5372
  79   2.0000      -0.265074        -7.2130
  80   2.0000      -0.262649        -7.1470
  81   2.0000      -0.251336        -6.8392
  82   2.0000      -0.240517        -6.5448
  83   2.0000      -0.223839        -6.0910
  84   2.0000      -0.219673        -5.9776
  85   2.0000      -0.197243        -5.3673
  86   2.0000      -0.186701        -5.0804
  87   0.0000      -0.044489        -1.2106
  88   0.0000      -0.038870        -1.0577
  89   0.0000      -0.018472        -0.5026
  90   0.0000       0.002841         0.0773
  91   0.0000       0.028360         0.7717

MULLIKEN ATOMIC CHARGES
-----------------------
   0 C :   -0.309199
   1 C :   -0.011408
   2 O :   -0.223648
   3 C :    0.119906
   4 O :   -0.201826
   5 C :   -0.063055
   6 C :   -0.350523
   7 H :    0.154971
   8 C :    0.236938
   9 O :   -0.178647
  10 O :   -0.222006
  11 C :   -0.007982
  12 C :   -0.311668
  13 S :   -0.062881
  14 P :    0.629758
  15 S :   -0.353316
  16 O :   -0.367761
  17 C :   -0.090407
  18 O :   -0.390776
  19 C :   -0.127303
  20 H :    0.124892
  21 H :    0.112065
  22 H :    0.123828
  23 H :    0.112052
  24 H :    0.103571
  25 H :    0.115428
  26 H :    0.119900
  27 H :    0.121101
  28 H :    0.109393
  29 H :    0.118748
  30 H :    0.117787
  31 H :    0.133292
  32 H :    0.114564
  33 H :    0.123202
  34 H :    0.118815
  35 H :    0.115554
  36 H :    0.130614
  37 H :    0.116028
Sum of atomic charges:    0.0000000

LOEWDIN ATOMIC CHARGES
----------------------
   0 C :   -0.357551
   1 C :   -0.112381
   2 O :   -0.052954
   3 C :    0.024271
   4 O :   -0.167477
   5 C :   -0.253380
   6 C :   -0.257530
   7 H :    0.152068
   8 C :    0.019405
   9 O :   -0.150214
  10 O :   -0.038792
  11 C :   -0.105009
  12 C :   -0.356425
  13 S :    0.128212
  14 P :    0.591139
  15 S :   -0.333685
  16 O :   -0.244160
  17 C :   -0.206534
  18 O :   -0.269500
  19 C :   -0.226070
  20 H :    0.130211
  21 H :    0.129942
  22 H :    0.124288
  23 H :    0.120972
  24 H :    0.116403
  25 H :    0.143493
  26 H :    0.129806
  27 H :    0.126727
  28 H :    0.121717
  29 H :    0.133980
  30 H :    0.126766
  31 H :    0.132857
  32 H :    0.113025
  33 H :    0.121598
  34 H :    0.112212
  35 H :    0.108337
  36 H :    0.106504
  37 H :    0.117728

  Mayer bond orders larger than 0.100000
B(  0-C ,  1-C ) :   1.1785 B(  0-C , 20-H ) :   0.9418 B(  0-C , 21-H ) :   0.9426
B(  0-C , 22-H ) :   0.9486 B(  1-C ,  2-O ) :   0.9019 B(  1-C , 23-H ) :   0.9138
B(  1-C , 24-H ) :   0.9345 B(  2-O ,  3-C ) :   1.2232 B(  3-C ,  4-O ) :   2.0524
B(  3-C ,  5-C ) :   1.0073 B(  5-C ,  6-C ) :   1.0587 B(  5-C , 25-H ) :   0.8788
B(  5-C , 26-H ) :   0.8701 B(  6-C ,  7-H ) :   0.8636 B(  6-C ,  8-C ) :   0.9033
B(  6-C , 13-S ) :   1.0369 B(  8-C ,  9-O ) :   1.9818 B(  8-C , 10-O ) :   1.2700
B(  9-O , 14-P ) :   0.1019 B( 10-O , 11-C ) :   0.8988 B( 11-C , 12-C ) :   1.1751
B( 11-C , 27-H ) :   0.9152 B( 11-C , 28-H ) :   0.9362 B( 12-C , 29-H ) :   0.9432
B( 12-C , 30-H ) :   0.9474 B( 12-C , 31-H ) :   0.9446 B( 13-S , 14-P ) :   0.9597
B( 13-S , 15-S ) :   0.1177 B( 14-P , 15-S ) :   1.5557 B( 14-P , 16-O ) :   1.1295
B( 14-P , 18-O ) :   1.0648 B( 16-O , 17-C ) :   0.9267 B( 17-C , 32-H ) :   0.9519
B( 17-C , 33-H ) :   0.9597 B( 17-C , 34-H ) :   0.9350 B( 18-O , 19-C ) :   0.9397
B( 19-C , 35-H ) :   0.9338 B( 19-C , 36-H ) :   0.9285 B( 19-C , 37-H ) :   0.9564

Dispersion correction           -0.052989728
FINAL SINGLE POINT ENERGY     -1979.014924399596

DIPOLE MOMENT
-------------

Method             : SCF
Type of density    : Electron Density
Multiplicity       :   1
Irrep              :   0
Energy             : -1979.1441647528736212 Eh
Relativity type    :
Basis              : AO
                                X                 Y                 Z
Electronic contribution:     -3.513897657       0.400157692       1.781104325
Nuclear contribution   :      3.483427679      -0.106840032      -1.806685840
                        -----------------------------------------
Total Dipole Moment    :     -0.030469978       0.293317660      -0.025581514
                        -----------------------------------------
Magnitude (a.u.)       :      0.296003519
Magnitude (Debye)      :      0.752381153

Rotational constants in cm-1:             0.011596             0.008547             0.005806
Rotational constants in MHz :           347.648541           256.235863           174.067391

                             ****ORCA TERMINATED NORMALLY****
TOTAL RUN TIME: 0 days 0 hours 0 minutes 38 seconds 747 msec
