                         Program Version 6.0.0  -   RELEASE  -
|  1> ! pbe def2-sv(p) def2/J RI DEFGRID1 loosescf d4 GCP(DFT/SV(P)) printgap
|  2> %output
|  3>     printlevel normal
|  4> end
|  5> * xyz 0 1
|  6> C 2.0058058957 3.2547034766 -0.1197370434
|  7> C 1.6816084283 2.0708134248 0.7676344442
|  8> O 2.259652799 0.9025117426 0.153070437
|  9> P 2.3160059876 -0.4888859819 0.9077216353
| 10> S 2.8495868041 -0.4318145413 2.789588351
| 11> O 3.3093567214 -1.1938087064 -0.1066722342
| 12> C 4.1014165281 -2.3278032788 0.2913422359
| 13> C 3.2582982793 -3.5750360152 0.4691821015
| 14> S 0.4173299228 -1.3890180877 0.5455960899
| 15> C 0.3412984298 -1.1101520856 -1.249321154
| 16> S -0.2394031338 0.5447213058 -1.7127366525
| 17> P -2.0883833692 0.4527947021 -0.698661042
| 18> S -3.0179272241 -1.2789563973 -0.6956114193
| 19> O -2.8785842291 1.7134021287 -1.2512703327
| 20> C -3.0883283143 2.0317276381 -2.6399650133
| 21> C -3.6630325344 0.8754338952 -3.4316002939
| 22> O -1.6897972087 0.9883779914 0.7456329236
| 23> C -2.3986749023 0.5931658978 1.93298086
| 24> C -3.7433532417 1.2836616138 2.015399583
| 25> H 1.5835385479 3.0969661409 -1.1085425182
| 26> H 1.5824578861 4.1534683948 0.3161984884
| 27> H 3.0821832228 3.3676327416 -0.2091190516
| 28> H 0.5994471813 1.9298765165 0.856575165
| 29> H 2.1064207264 2.1829049033 1.7706992199
| 30> H 4.8244382364 -2.4399117956 -0.5178006328
| 31> H 4.6205838331 -2.0804260893 1.2225700082
| 32> H 3.9058468908 -4.4154289519 0.6979032863
| 33> H 2.5583417283 -3.4357004001 1.2928689002
| 34> H 2.6969209013 -3.7912223517 -0.4362685774
| 35> H -0.356342382 -1.853195675 -1.6333246021
| 36> H 1.332557618 -1.2241909101 -1.6820701727
| 37> H -3.7798068977 2.8755911187 -2.6070123761
| 38> H -2.1318718219 2.3522349893 -3.0622137775
| 39> H -4.578142319 0.5143035851 -2.9681456687
| 40> H -3.8783705724 1.2036212742 -4.4433998016
| 41> H -2.9494155623 0.0534657994 -3.4694954468
| 42> H -2.5167344113 -0.4959191077 1.9245736764
| 43> H -1.7375278997 0.8806344787 2.7522518346
| 44> H -4.2350652627 1.0105629581 2.9435923315
| 45> H -3.6149395151 2.3618672529 1.9734581652
| 46> H -4.3640731934 0.9706774985 1.1762654095
| 47> *
| 48>
| 49>                          ****END OF INPUT****

CARTESIAN COORDINATES (ANGSTROEM)
---------------------------------
  C      2.005806    3.254703   -0.119737
  C      1.681608    2.070813    0.767634
  O      2.259653    0.902512    0.153070
  P      2.316006   -0.488886    0.907722
  S      2.849587   -0.431815    2.789588
  O      3.309357   -1.193809   -0.106672
  C      4.101417   -2.327803    0.291342
  C      3.258298   -3.575036    0.469182
  S      0.417330   -1.389018    0.545596
  C      0.341298   -1.110152   -1.249321
  S     -0.239403    0.544721   -1.712737
  P     -2.088383    0.452795   -0.698661
  S     -3.017927   -1.278956   -0.695611
  O     -2.878584    1.713402   -1.251270
  C     -3.088328    2.031728   -2.639965
  C     -3.663033    0.875434   -3.431600
  O     -1.689797    0.988378    0.745633
  C     -2.398675    0.593166    1.932981
  C     -3.743353    1.283662    2.015400
  H      1.583539    3.096966   -1.108543
  H      1.582458    4.153468    0.316198
  H      3.082183    3.367633   -0.209119
  H      0.599447    1.929877    0.856575
  H      2.106421    2.182905    1.770699
  H      4.824438   -2.439912   -0.517801
  H      4.620584   -2.080426    1.222570
  H      3.905847   -4.415429    0.697903
  H      2.558342   -3.435700    1.292869
  H      2.696921   -3.791222   -0.436269
  H     -0.356342   -1.853196   -1.633325
  H      1.332558   -1.224191   -1.682070
  H     -3.779807    2.875591   -2.607012
  H     -2.131872    2.352235   -3.062214
  H     -4.578142    0.514304   -2.968146
  H     -3.878371    1.203621   -4.443400
  H     -2.949416    0.053466   -3.469495
  H     -2.516734   -0.495919    1.924574
  H     -1.737528    0.880634    2.752252
  H     -4.235065    1.010563    2.943592
  H     -3.614940    2.361867    1.973458
  H     -4.364073    0.970677    1.176265

 Total Charge           Charge          ....    0
 Multiplicity           Mult            ....    1
 Number of Electrons    NEL             ....  202
 Basis Dimension        Dim             ....  334

ORBITAL ENERGIES
----------------

  NO   OCC          E(Eh)            E(eV)
   0   2.0000     -88.049389     -2395.9457
   1   2.0000     -88.042672     -2395.7629
   2   2.0000     -87.992505     -2394.3978
   3   2.0000     -87.986981     -2394.2475
   4   2.0000     -76.432613     -2079.8371
   5   2.0000     -76.424546     -2079.6176
   6   2.0000     -18.799085      -511.5491
   7   2.0000     -18.793289      -511.3914
   8   2.0000     -18.791701      -511.3482
   9   2.0000     -18.787614      -511.2370
  10   2.0000      -9.963469      -271.1198
  11   2.0000      -9.960813      -271.0475
  12   2.0000      -9.953717      -270.8544
  13   2.0000      -9.948020      -270.6994
  14   2.0000      -9.943628      -270.5799
  15   2.0000      -9.888118      -269.0694
  16   2.0000      -9.884744      -268.9776
  17   2.0000      -9.882044      -268.9041
  18   2.0000      -9.881085      -268.8780
  19   2.0000      -7.694286      -209.3722
  20   2.0000      -7.687177      -209.1787
  21   2.0000      -7.637382      -207.8237
  22   2.0000      -7.632198      -207.6827
  23   2.0000      -6.429659      -174.9599
  24   2.0000      -6.422240      -174.7580
  25   2.0000      -5.722050      -155.7049
  26   2.0000      -5.718796      -155.6164
  27   2.0000      -5.715320      -155.5218
  28   2.0000      -5.711511      -155.4181
  29   2.0000      -5.711353      -155.4138
  30   2.0000      -5.704166      -155.2183
  31   2.0000      -5.666245      -154.1864
  32   2.0000      -5.661125      -154.0470
  33   2.0000      -5.658076      -153.9641
  34   2.0000      -5.657572      -153.9504
  35   2.0000      -5.652763      -153.8195
  36   2.0000      -5.652428      -153.8104
  37   2.0000      -4.652117      -126.5905
  38   2.0000      -4.651626      -126.5772
  39   2.0000      -4.650120      -126.5362
  40   2.0000      -4.644588      -126.3857
  41   2.0000      -4.644432      -126.3814
  42   2.0000      -4.642468      -126.3280
  43   2.0000      -0.990737       -26.9593
  44   2.0000      -0.988531       -26.8993
  45   2.0000      -0.948806       -25.8183
  46   2.0000      -0.944423       -25.6990
  47   2.0000      -0.766928       -20.8692
  48   2.0000      -0.722809       -19.6686
  49   2.0000      -0.711329       -19.3562
  50   2.0000      -0.689492       -18.7620
  51   2.0000      -0.683235       -18.5918
  52   2.0000      -0.676145       -18.3988
  53   2.0000      -0.656493       -17.8641
  54   2.0000      -0.641150       -17.4466
  55   2.0000      -0.601414       -16.3653
  56   2.0000      -0.595805       -16.2127
  57   2.0000      -0.577560       -15.7162
  58   2.0000      -0.566740       -15.4218
  59   2.0000      -0.559090       -15.2136
  60   2.0000      -0.503467       -13.7000
  61   2.0000      -0.496463       -13.5094
  62   2.0000      -0.473386       -12.8815
  63   2.0000      -0.470638       -12.8067
  64   2.0000      -0.465300       -12.6615
  65   2.0000      -0.446903       -12.1609
  66   2.0000      -0.439701       -11.9649
  67   2.0000      -0.438309       -11.9270
  68   2.0000      -0.425995       -11.5919
  69   2.0000      -0.423326       -11.5193
  70   2.0000      -0.414023       -11.2661
  71   2.0000      -0.398925       -10.8553
  72   2.0000      -0.392150       -10.6709
  73   2.0000      -0.389525       -10.5995
  74   2.0000      -0.382459       -10.4072
  75   2.0000      -0.377065       -10.2605
  76   2.0000      -0.369017       -10.0415
  77   2.0000      -0.357496        -9.7280
  78   2.0000      -0.351866        -9.5748
  79   2.0000      -0.351139        -9.5550
  80   2.0000      -0.347906        -9.4670
  81   2.0000      -0.346590        -9.4312
  82   2.0000      -0.344494        -9.3742
  83   2.0000      -0.339019        -9.2252
  84   2.0000      -0.333406        -9.0724
  85   2.0000      -0.319628        -8.6975
  86   2.0000      -0.315641        -8.5890
  87   2.0000      -0.303026        -8.2458
  88   2.0000      -0.301258        -8.1976
  89   2.0000      -0.290450        -7.9035
  90   2.0000      -0.288926        -7.8621
  91   2.0000      -0.278157        -7.5690
  92   2.0000      -0.268132        -7.2962
  93   2.0000      -0.267282        -7.2731
  94   2.0000      -0.254970        -6.9381
  95   2.0000      -0.235166        -6.3992
  96   2.0000      -0.220928        -6.0118
  97   2.0000      -0.209431        -5.6989
  98   2.0000      -0.207662        -5.6508
  99   2.0000      -0.205427        -5.5900
 100   2.0000      -0.203870        -5.5476
 101   0.0000      -0.046765        -1.2725
 102   0.0000      -0.023975        -0.6524
 103   0.0000      -0.014170        -0.3856
 104   0.0000       0.000161         0.0044
 105   0.0000       0.005247         0.1428

MULLIKEN ATOMIC CHARGES
-----------------------
   0 C :   -0.279394
   1 C :   -0.026272
   2 O :   -0.368082
   3 P :    0.577265
   4 S :   -0.322306
   5 O :   -0.367246
   6 C :   -0.003983
   7 C :   -0.311603
   8 S :   -0.067353
   9 C :   -0.351621
  10 S :   -0.091245
  11 P :    0.609510
  12 S :   -0.324434
  13 O :   -0.370765
  14 C :   -0.011184
  15 C :   -0.311429
  16 O :   -0.356344
  17 C :   -0.007809
  18 C :   -0.300036
  19 H :    0.112009
  20 H :    0.107654
  21 H :    0.114592
  22 H :    0.120794
  23 H :    0.105869
  24 H :    0.106738
  25 H :    0.114567
  26 H :    0.113484
  27 H :    0.129567
  28 H :    0.112572
  29 H :    0.194290
  30 H :    0.188869
  31 H :    0.111652
  32 H :    0.113822
  33 H :    0.127574
  34 H :    0.113274
  35 H :    0.125137
  36 H :    0.117189
  37 H :    0.108019
  38 H :    0.112599
  39 H :    0.113276
  40 H :    0.120782
Sum of atomic charges:   -0.0000000

LOEWDIN ATOMIC CHARGES
----------------------
   0 C :   -0.350589
   1 C :   -0.129906
   2 O :   -0.240351
   3 P :    0.564311
   4 S :   -0.321520
   5 O :   -0.240155
   6 C :   -0.118328
   7 C :   -0.367067
   8 S :    0.090839
   9 C :   -0.477905
  10 S :    0.092254
  11 P :    0.570917
  12 S :   -0.313873
  13 O :   -0.243185
  14 C :   -0.113315
  15 C :   -0.369641
  16 O :   -0.235928
  17 C :   -0.121779
  18 C :   -0.362713
  19 H :    0.120951
  20 H :    0.128955
  21 H :    0.126006
  22 H :    0.107499
  23 H :    0.107702
  24 H :    0.118983
  25 H :    0.112169
  26 H :    0.131206
  27 H :    0.122874
  28 H :    0.123011
  29 H :    0.133728
  30 H :    0.134088
  31 H :    0.122702
  32 H :    0.109840
  33 H :    0.130255
  34 H :    0.130919
  35 H :    0.120795
  36 H :    0.109340
  37 H :    0.119236
  38 H :    0.130655
  39 H :    0.124848
  40 H :    0.122172

  Mayer bond orders larger than 0.100000
B(  0-C ,  1-C ) :   1.1643 B(  0-C , 19-H ) :   0.9487 B(  0-C , 20-H ) :   0.9427
B(  0-C , 21-H ) :   0.9504 B(  1-C ,  2-O ) :   0.8911 B(  1-C , 22-H ) :   0.9027
B(  1-C , 23-H ) :   0.9155 B(  2-O ,  3-P ) :   1.1179 B(  3-P ,  4-S ) :   1.6528
B(  3-P ,  5-O ) :   1.0923 B(  3-P ,  8-S ) :   0.9645 B(  5-O ,  6-C ) :   0.9074
B(  6-C ,  7-C ) :   1.1630 B(  6-C , 24-H ) :   0.9346 B(  6-C , 25-H ) :   0.9152
B(  7-C , 26-H ) :   0.9384 B(  7-C , 27-H ) :   0.9356 B(  7-C , 28-H ) :   0.9470
B(  8-S ,  9-C ) :   0.9901 B(  9-C , 10-S ) :   0.9927 B(  9-C , 29-H ) :   0.8880
B(  9-C , 30-H ) :   0.8914 B( 10-S , 11-P ) :   0.9593 B( 10-S , 12-S ) :   0.1095
B( 11-P , 12-S ) :   1.5959 B( 11-P , 13-O ) :   1.1180 B( 11-P , 16-O ) :   1.1055
B( 13-O , 14-C ) :   0.9127 B( 14-C , 15-C ) :   1.1642 B( 14-C , 31-H ) :   0.9340
B( 14-C , 32-H ) :   0.9283 B( 15-C , 33-H ) :   0.9426 B( 15-C , 34-H ) :   0.9347
B( 15-C , 35-H ) :   0.9334 B( 16-O , 17-C ) :   0.8969 B( 17-C , 18-C ) :   1.1637
B( 17-C , 36-H ) :   0.9116 B( 17-C , 37-H ) :   0.9323 B( 18-C , 38-H ) :   0.9404
B( 18-C , 39-H ) :   0.9469 B( 18-C , 40-H ) :   0.9370

Dispersion correction           -0.065782915
FINAL SINGLE POINT ENERGY     -2929.524022273163

DIPOLE MOMENT
-------------

Method             : SCF
Type of density    : Electron Density
Multiplicity       :   1
Irrep              :   0
Energy             : -2929.6436181141170891 Eh
Relativity type    :
Basis              : AO
                                X                 Y                 Z
Electronic contribution:      4.918397285      -6.317718845       4.052478888
Nuclear contribution   :     -5.113822662       6.913457638      -5.108711678
                        -----------------------------------------
Total Dipole Moment    :     -0.195425377       0.595738793      -1.056232790
                        -----------------------------------------
Magnitude (a.u.)       :      1.228301060
Magnitude (Debye)      :      3.122093179

Rotational constants in cm-1:             0.012463             0.004839             0.004726
Rotational constants in MHz :           373.626595           145.084135           141.678486

                             ****ORCA TERMINATED NORMALLY****
TOTAL RUN TIME: 0 days 0 hours 0 minutes 21 seconds 512 msec
