                         Program Version 6.0.0  -   RELEASE  -
|  1> ! pbe def2-sv(p) def2/J RI DEFGRID1 loosescf d4 GCP(DFT/SV(P)) printgap
|  2> %output
|  3>     printlevel normal
|  4> end
|  5> * xyz 0 1
|  6> C 1.5396025837 1.8450791368 -1.9074679264
|  7> C 2.3861121316 0.5953114404 -2.0348707916
|  8> O 2.1421625509 -0.3377455169 -0.9724947759
|  9> P 2.4692044964 0.0148176917 0.5530965224
| 10> S 4.024424823 1.1861436987 0.7723464035
| 11> O 2.5385448256 -1.4389535576 1.1874926289
| 12> C 3.6621300427 -2.3164107361 0.9366001577
| 13> C 4.6768568529 -2.2189540798 2.0580446384
| 14> S 0.6686716091 0.6217516053 1.4398657033
| 15> C -0.2911364809 -0.9323813717 1.2212276757
| 16> S -2.0548973936 -0.6018398029 1.2581543773
| 17> P -2.2144167371 0.1053066273 -0.7511588726
| 18> S -1.1389430152 -0.8591173833 -2.0732669666
| 19> O -1.833791948 1.6351077276 -0.7186495964
| 20> C -2.1665702849 2.5969581165 0.3117175636
| 21> C -3.6453627422 2.6390510201 0.6268382147
| 22> O -3.7735576319 0.1271674681 -1.0491234083
| 23> C -4.480623696 -1.0119579464 -1.5681013125
| 24> C -4.5279226051 -2.1605029999 -0.5810932962
| 25> H 1.784417969 2.3643063381 -0.9801974829
| 26> H 1.7419928273 2.5034560315 -2.7458554861
| 27> H 0.4819375103 1.5907230709 -1.9014274467
| 28> H 3.4494992131 0.8549092598 -2.0259233641
| 29> H 2.139789615 0.0344456301 -2.937755188
| 30> H 3.222743624 -3.3139187178 0.8802161691
| 31> H 4.1105835507 -2.0606417392 -0.0270712129
| 32> H 5.0984345355 -1.2167759828 2.0985600507
| 33> H 4.2025953364 -2.437618398 3.0106519819
| 34> H 5.4752516623 -2.9323392345 1.8802492225
| 35> H -0.0665064775 -1.6001554125 2.0478228779
| 36> H -0.0249084285 -1.3716018411 0.2574911863
| 37> H -1.5784741379 2.3545539632 1.2021414324
| 38> H -1.8163373156 3.5404175959 -0.1096369258
| 39> H -3.9635158038 1.7014340674 1.0779018996
| 40> H -3.8321530696 3.4483160671 1.3260590069
| 41> H -4.2194674418 2.8072828081 -0.2805409974
| 42> H -5.4773378962 -0.6229386626 -1.7807668513
| 43> H -3.9980634438 -1.3247611508 -2.4995114229
| 44> H -3.5318644707 -2.5787992776 -0.4463345494
| 45> H -4.8978254529 -1.8180798088 0.3818338159
| 46> H -5.1842895854 -2.9348880404 -0.965097899
| 47> *
| 48>
| 49>                          ****END OF INPUT****

CARTESIAN COORDINATES (ANGSTROEM)
---------------------------------
  C      1.539603    1.845079   -1.907468
  C      2.386112    0.595311   -2.034871
  O      2.142163   -0.337746   -0.972495
  P      2.469204    0.014818    0.553097
  S      4.024425    1.186144    0.772346
  O      2.538545   -1.438954    1.187493
  C      3.662130   -2.316411    0.936600
  C      4.676857   -2.218954    2.058045
  S      0.668672    0.621752    1.439866
  C     -0.291136   -0.932381    1.221228
  S     -2.054897   -0.601840    1.258154
  P     -2.214417    0.105307   -0.751159
  S     -1.138943   -0.859117   -2.073267
  O     -1.833792    1.635108   -0.718650
  C     -2.166570    2.596958    0.311718
  C     -3.645363    2.639051    0.626838
  O     -3.773558    0.127167   -1.049123
  C     -4.480624   -1.011958   -1.568101
  C     -4.527923   -2.160503   -0.581093
  H      1.784418    2.364306   -0.980197
  H      1.741993    2.503456   -2.745855
  H      0.481938    1.590723   -1.901427
  H      3.449499    0.854909   -2.025923
  H      2.139790    0.034446   -2.937755
  H      3.222744   -3.313919    0.880216
  H      4.110584   -2.060642   -0.027071
  H      5.098435   -1.216776    2.098560
  H      4.202595   -2.437618    3.010652
  H      5.475252   -2.932339    1.880249
  H     -0.066506   -1.600155    2.047823
  H     -0.024908   -1.371602    0.257491
  H     -1.578474    2.354554    1.202141
  H     -1.816337    3.540418   -0.109637
  H     -3.963516    1.701434    1.077902
  H     -3.832153    3.448316    1.326059
  H     -4.219467    2.807283   -0.280541
  H     -5.477338   -0.622939   -1.780767
  H     -3.998063   -1.324761   -2.499511
  H     -3.531864   -2.578799   -0.446335
  H     -4.897825   -1.818080    0.381834
  H     -5.184290   -2.934888   -0.965098

 Total Charge           Charge          ....    0
 Multiplicity           Mult            ....    1
 Number of Electrons    NEL             ....  202
 Basis Dimension        Dim             ....  334

ORBITAL ENERGIES
----------------

  NO   OCC          E(Eh)            E(eV)
   0   2.0000     -88.055281     -2396.1060
   1   2.0000     -88.040101     -2395.6929
   2   2.0000     -87.991167     -2394.3614
   3   2.0000     -87.983269     -2394.1465
   4   2.0000     -76.433739     -2079.8678
   5   2.0000     -76.421597     -2079.5374
   6   2.0000     -18.801600      -511.6176
   7   2.0000     -18.796413      -511.4764
   8   2.0000     -18.789089      -511.2771
   9   2.0000     -18.781178      -511.0618
  10   2.0000      -9.959534      -271.0127
  11   2.0000      -9.958300      -270.9791
  12   2.0000      -9.957327      -270.9526
  13   2.0000      -9.953583      -270.8508
  14   2.0000      -9.937828      -270.4221
  15   2.0000      -9.891091      -269.1503
  16   2.0000      -9.890536      -269.1352
  17   2.0000      -9.879837      -268.8440
  18   2.0000      -9.864814      -268.4352
  19   2.0000      -7.699928      -209.5257
  20   2.0000      -7.685394      -209.1302
  21   2.0000      -7.636030      -207.7869
  22   2.0000      -7.628390      -207.5791
  23   2.0000      -6.430969      -174.9956
  24   2.0000      -6.419349      -174.6794
  25   2.0000      -5.727684      -155.8582
  26   2.0000      -5.724382      -155.7684
  27   2.0000      -5.717148      -155.5715
  28   2.0000      -5.713746      -155.4789
  29   2.0000      -5.709764      -155.3706
  30   2.0000      -5.702010      -155.1596
  31   2.0000      -5.664965      -154.1515
  32   2.0000      -5.657374      -153.9450
  33   2.0000      -5.656639      -153.9250
  34   2.0000      -5.656156      -153.9118
  35   2.0000      -5.649276      -153.7246
  36   2.0000      -5.648227      -153.6961
  37   2.0000      -4.653723      -126.6342
  38   2.0000      -4.652812      -126.6094
  39   2.0000      -4.651228      -126.5664
  40   2.0000      -4.641911      -126.3128
  41   2.0000      -4.641188      -126.2932
  42   2.0000      -4.639785      -126.2550
  43   2.0000      -0.993900       -27.0454
  44   2.0000      -0.980994       -26.6942
  45   2.0000      -0.952429       -25.9169
  46   2.0000      -0.937273       -25.5045
  47   2.0000      -0.767039       -20.8722
  48   2.0000      -0.724232       -19.7074
  49   2.0000      -0.710501       -19.3337
  50   2.0000      -0.696249       -18.9459
  51   2.0000      -0.677557       -18.4373
  52   2.0000      -0.673706       -18.3325
  53   2.0000      -0.655092       -17.8259
  54   2.0000      -0.638998       -17.3880
  55   2.0000      -0.604157       -16.4400
  56   2.0000      -0.584770       -15.9124
  57   2.0000      -0.581251       -15.8166
  58   2.0000      -0.567790       -15.4504
  59   2.0000      -0.563022       -15.3206
  60   2.0000      -0.498670       -13.5695
  61   2.0000      -0.496005       -13.4970
  62   2.0000      -0.477365       -12.9898
  63   2.0000      -0.458312       -12.4713
  64   2.0000      -0.457575       -12.4513
  65   2.0000      -0.450772       -12.2661
  66   2.0000      -0.448244       -12.1973
  67   2.0000      -0.437194       -11.8966
  68   2.0000      -0.428602       -11.6628
  69   2.0000      -0.420173       -11.4335
  70   2.0000      -0.414836       -11.2883
  71   2.0000      -0.403224       -10.9723
  72   2.0000      -0.389616       -10.6020
  73   2.0000      -0.387732       -10.5507
  74   2.0000      -0.381687       -10.3862
  75   2.0000      -0.374760       -10.1977
  76   2.0000      -0.369891       -10.0652
  77   2.0000      -0.359745        -9.7892
  78   2.0000      -0.357132        -9.7180
  79   2.0000      -0.352286        -9.5862
  80   2.0000      -0.349173        -9.5015
  81   2.0000      -0.342141        -9.3101
  82   2.0000      -0.337381        -9.1806
  83   2.0000      -0.331273        -9.0144
  84   2.0000      -0.324134        -8.8201
  85   2.0000      -0.317559        -8.6412
  86   2.0000      -0.310437        -8.4474
  87   2.0000      -0.299432        -8.1480
  88   2.0000      -0.297300        -8.0900
  89   2.0000      -0.291478        -7.9315
  90   2.0000      -0.284821        -7.7504
  91   2.0000      -0.276634        -7.5276
  92   2.0000      -0.271341        -7.3836
  93   2.0000      -0.268844        -7.3156
  94   2.0000      -0.257494        -7.0068
  95   2.0000      -0.238090        -6.4787
  96   2.0000      -0.219744        -5.9795
  97   2.0000      -0.209387        -5.6977
  98   2.0000      -0.208302        -5.6682
  99   2.0000      -0.203801        -5.5457
 100   2.0000      -0.195882        -5.3302
 101   0.0000      -0.046610        -1.2683
 102   0.0000      -0.025683        -0.6989
 103   0.0000      -0.024540        -0.6678
 104   0.0000       0.004276         0.1164
 105   0.0000       0.014876         0.4048

MULLIKEN ATOMIC CHARGES
-----------------------
   0 C :   -0.339071
   1 C :    0.008957
   2 O :   -0.375529
   3 P :    0.614004
   4 S :   -0.320599
   5 O :   -0.386597
   6 C :   -0.005668
   7 C :   -0.289572
   8 S :   -0.089867
   9 C :   -0.349208
  10 S :   -0.105682
  11 P :    0.607079
  12 S :   -0.305763
  13 O :   -0.351217
  14 C :   -0.006856
  15 C :   -0.307758
  16 O :   -0.371816
  17 C :   -0.002306
  18 C :   -0.320592
  19 H :    0.110885
  20 H :    0.102720
  21 H :    0.145806
  22 H :    0.103669
  23 H :    0.101983
  24 H :    0.105828
  25 H :    0.105423
  26 H :    0.130342
  27 H :    0.112004
  28 H :    0.107381
  29 H :    0.187760
  30 H :    0.204956
  31 H :    0.121844
  32 H :    0.113376
  33 H :    0.117098
  34 H :    0.116978
  35 H :    0.122897
  36 H :    0.107536
  37 H :    0.115659
  38 H :    0.129307
  39 H :    0.117629
  40 H :    0.116982
Sum of atomic charges:   -0.0000000

LOEWDIN ATOMIC CHARGES
----------------------
   0 C :   -0.378139
   1 C :   -0.120869
   2 O :   -0.244778
   3 P :    0.567818
   4 S :   -0.319442
   5 O :   -0.249749
   6 C :   -0.111182
   7 C :   -0.361962
   8 S :    0.080921
   9 C :   -0.476270
  10 S :    0.086927
  11 P :    0.580073
  12 S :   -0.296510
  13 O :   -0.228320
  14 C :   -0.114520
  15 C :   -0.366564
  16 O :   -0.239143
  17 C :   -0.117279
  18 C :   -0.371137
  19 H :    0.113966
  20 H :    0.127474
  21 H :    0.121764
  22 H :    0.105674
  23 H :    0.117972
  24 H :    0.118356
  25 H :    0.111870
  26 H :    0.126508
  27 H :    0.125566
  28 H :    0.128556
  29 H :    0.136240
  30 H :    0.124877
  31 H :    0.105036
  32 H :    0.124914
  33 H :    0.116717
  34 H :    0.133222
  35 H :    0.128858
  36 H :    0.120047
  37 H :    0.113911
  38 H :    0.121923
  39 H :    0.123501
  40 H :    0.133171

  Mayer bond orders larger than 0.100000
B(  0-C ,  1-C ) :   1.1679 B(  0-C , 19-H ) :   0.9323 B(  0-C , 20-H ) :   0.9379
B(  0-C , 21-H ) :   0.9238 B(  1-C ,  2-O ) :   0.9042 B(  1-C , 22-H ) :   0.9182
B(  1-C , 23-H ) :   0.9289 B(  2-O ,  3-P ) :   1.0863 B(  3-P ,  4-S ) :   1.6327
B(  3-P ,  5-O ) :   1.0890 B(  3-P ,  8-S ) :   0.9791 B(  5-O ,  6-C ) :   0.8937
B(  6-C ,  7-C ) :   1.1699 B(  6-C , 24-H ) :   0.9361 B(  6-C , 25-H ) :   0.9161
B(  7-C , 26-H ) :   0.9334 B(  7-C , 27-H ) :   0.9469 B(  7-C , 28-H ) :   0.9399
B(  8-S ,  9-C ) :   0.9570 B(  9-C , 10-S ) :   1.0175 B(  9-C , 29-H ) :   0.9054
B(  9-C , 30-H ) :   0.8551 B( 10-S , 11-P ) :   0.9262 B( 10-S , 12-S ) :   0.1072
B( 11-P , 12-S ) :   1.6234 B( 11-P , 13-O ) :   1.1434 B( 11-P , 16-O ) :   1.0995
B( 13-O , 14-C ) :   0.8932 B( 14-C , 15-C ) :   1.1706 B( 14-C , 31-H ) :   0.9118
B( 14-C , 32-H ) :   0.9334 B( 15-C , 33-H ) :   0.9382 B( 15-C , 34-H ) :   0.9358
B( 15-C , 35-H ) :   0.9425 B( 16-O , 17-C ) :   0.9026 B( 17-C , 18-C ) :   1.1657
B( 17-C , 36-H ) :   0.9335 B( 17-C , 37-H ) :   0.9164 B( 18-C , 38-H ) :   0.9346
B( 18-C , 39-H ) :   0.9446 B( 18-C , 40-H ) :   0.9373

Dispersion correction           -0.065772101
FINAL SINGLE POINT ENERGY     -2929.519013093281

DIPOLE MOMENT
-------------

Method             : SCF
Type of density    : Electron Density
Multiplicity       :   1
Irrep              :   0
Energy             : -2929.6405354485955286 Eh
Relativity type    :
Basis              : AO
                                X                 Y                 Z
Electronic contribution:      5.304718281       2.321186414       2.350606359
Nuclear contribution   :     -6.742680686      -2.943993392      -2.266790533
                        -----------------------------------------
Total Dipole Moment    :     -1.437962405      -0.622806977       0.083815826
                        -----------------------------------------
Magnitude (a.u.)       :      1.569283118
Magnitude (Debye)      :      3.988800690

Rotational constants in cm-1:             0.013661             0.004605             0.004407
Rotational constants in MHz :           409.560552           138.066395           132.114782

                             ****ORCA TERMINATED NORMALLY****
TOTAL RUN TIME: 0 days 0 hours 0 minutes 21 seconds 781 msec
