                         Program Version 6.0.1  -  RELEASE   -
|  1> ! pbe def2-sv(p) def2/J RI DEFGRID1 loosescf d4 GCP(DFT/SV(P)) printgap
|  2> %output
|  3>     printlevel normal
|  4> end
|  5> * xyz 0 1
|  6> C 4.2233911245 -1.8881786014 1.1937909797
|  7> C 2.74298541 -1.8581753041 0.8675276188
|  8> O 2.5371000747 -0.9294429374 -0.2145204666
|  9> C 1.4714228083 -1.0609688959 -0.9709465434
| 10> O 0.6125176454 -1.9075284913 -0.8164234093
| 11> C 1.422268006 -0.0177778646 -2.0685535986
| 12> C 0.2343190401 0.9231295582 -1.8450321117
| 13> H 0.1677027297 1.6309080198 -2.6759505994
| 14> C 0.3503882154 1.6992931074 -0.5483081011
| 15> O -0.5915646925 1.833780159 0.214098178
| 16> O 1.5432940889 2.1711137656 -0.3500764742
| 17> C 1.835698037 2.8357979447 0.9001212596
| 18> C 3.3168832379 2.6646294658 1.1725936794
| 19> S -1.3741115396 0.0535503716 -1.8418556058
| 20> P -1.7984723053 -0.3299666591 0.2080918611
| 21> S -0.5629691651 -0.6110816071 1.7189329365
| 22> O -3.0423764055 0.6094022317 0.5260836846
| 23> C -3.0800749126 1.6267951534 1.5258898977
| 24> O -2.719702623 -1.6248916722 -0.0170398428
| 25> C -2.2012512206 -2.9244233269 -0.2947748191
| 26> H 4.7919251103 -2.2069130127 0.3250537937
| 27> H 4.561810295 -0.9013731184 1.4942694775
| 28> H 4.3919935253 -2.5847216034 2.0080698322
| 29> H 2.1415477892 -1.521384151 1.7183144874
| 30> H 2.3718902778 -2.838875553 0.5539723041
| 31> H 1.2830403881 -0.5280404543 -3.0215412295
| 32> H 2.3486894076 0.5547076062 -2.065041478
| 33> H 1.561395597 3.8880455274 0.7897166979
| 34> H 1.2193333122 2.3849108034 1.6837679828
| 35> H 3.5597284796 1.6076852365 1.2361157011
| 36> H 3.8979708928 3.1133901487 0.3732334515
| 37> H 3.564748572 3.1452743526 2.1128238724
| 38> H -4.0883522096 1.6095240784 1.9333965841
| 39> H -2.8602218472 2.5897224536 1.0678382892
| 40> H -2.3483353816 1.4179946373 2.3087184388
| 41> H -1.4145938872 -3.176555432 0.4181589873
| 42> H -1.792499443 -2.9626718929 -1.3043120317
| 43> H -3.0451058612 -3.601957125 -0.191630409
| 44> *
| 45>
| 46>                          ****END OF INPUT****

CARTESIAN COORDINATES (ANGSTROEM)
---------------------------------
  C      4.223391   -1.888179    1.193791
  C      2.742985   -1.858175    0.867528
  O      2.537100   -0.929443   -0.214520
  C      1.471423   -1.060969   -0.970947
  O      0.612518   -1.907528   -0.816423
  C      1.422268   -0.017778   -2.068554
  C      0.234319    0.923130   -1.845032
  H      0.167703    1.630908   -2.675951
  C      0.350388    1.699293   -0.548308
  O     -0.591565    1.833780    0.214098
  O      1.543294    2.171114   -0.350076
  C      1.835698    2.835798    0.900121
  C      3.316883    2.664629    1.172594
  S     -1.374112    0.053550   -1.841856
  P     -1.798472   -0.329967    0.208092
  S     -0.562969   -0.611082    1.718933
  O     -3.042376    0.609402    0.526084
  C     -3.080075    1.626795    1.525890
  O     -2.719703   -1.624892   -0.017040
  C     -2.201251   -2.924423   -0.294775
  H      4.791925   -2.206913    0.325054
  H      4.561810   -0.901373    1.494269
  H      4.391994   -2.584722    2.008070
  H      2.141548   -1.521384    1.718314
  H      2.371890   -2.838876    0.553972
  H      1.283040   -0.528040   -3.021541
  H      2.348689    0.554708   -2.065041
  H      1.561396    3.888046    0.789717
  H      1.219333    2.384911    1.683768
  H      3.559728    1.607685    1.236116
  H      3.897971    3.113390    0.373233
  H      3.564749    3.145274    2.112824
  H     -4.088352    1.609524    1.933397
  H     -2.860222    2.589722    1.067838
  H     -2.348335    1.417995    2.308718
  H     -1.414594   -3.176555    0.418159
  H     -1.792499   -2.962672   -1.304312
  H     -3.045106   -3.601957   -0.191630

 Total Charge           Charge          ....    0
 Multiplicity           Mult            ....    1
 Number of Electrons    NEL             ....  174
 Basis Dimension        Dim             ....  316

ORBITAL ENERGIES
----------------

  NO   OCC          E(Eh)            E(eV)
   0   2.0000     -88.026836     -2395.3320
   1   2.0000     -87.965158     -2393.6536
   2   2.0000     -76.412800     -2079.2980
   3   2.0000     -18.827153      -512.3129
   4   2.0000     -18.806051      -511.7387
   5   2.0000     -18.765765      -510.6424
   6   2.0000     -18.763021      -510.5678
   7   2.0000     -18.762780      -510.5612
   8   2.0000     -18.735437      -509.8172
   9   2.0000     -10.031684      -272.9760
  10   2.0000     -10.010018      -272.3864
  11   2.0000      -9.960947      -271.0512
  12   2.0000      -9.956445      -270.9286
  13   2.0000      -9.942848      -270.5587
  14   2.0000      -9.922746      -270.0116
  15   2.0000      -9.916471      -269.8409
  16   2.0000      -9.914938      -269.7992
  17   2.0000      -9.898102      -269.3410
  18   2.0000      -9.889809      -269.1154
  19   2.0000      -7.672062      -208.7674
  20   2.0000      -7.610241      -207.0852
  21   2.0000      -6.407675      -174.3617
  22   2.0000      -5.700489      -155.1182
  23   2.0000      -5.696739      -155.0162
  24   2.0000      -5.688230      -154.7846
  25   2.0000      -5.639388      -153.4555
  26   2.0000      -5.630909      -153.2248
  27   2.0000      -5.630031      -153.2009
  28   2.0000      -4.630283      -125.9964
  29   2.0000      -4.629879      -125.9854
  30   2.0000      -4.628239      -125.9408
  31   2.0000      -1.037628       -28.2353
  32   2.0000      -1.011275       -27.5182
  33   2.0000      -0.960714       -26.1424
  34   2.0000      -0.940254       -25.5856
  35   2.0000      -0.914983       -24.8980
  36   2.0000      -0.913214       -24.8498
  37   2.0000      -0.768160       -20.9027
  38   2.0000      -0.720180       -19.5971
  39   2.0000      -0.711057       -19.3489
  40   2.0000      -0.682928       -18.5834
  41   2.0000      -0.651310       -17.7231
  42   2.0000      -0.623753       -16.9732
  43   2.0000      -0.613750       -16.7010
  44   2.0000      -0.599078       -16.3017
  45   2.0000      -0.591432       -16.0937
  46   2.0000      -0.564811       -15.3693
  47   2.0000      -0.523670       -14.2498
  48   2.0000      -0.509568       -13.8660
  49   2.0000      -0.496134       -13.5005
  50   2.0000      -0.486950       -13.2506
  51   2.0000      -0.465261       -12.6604
  52   2.0000      -0.457262       -12.4427
  53   2.0000      -0.449715       -12.2374
  54   2.0000      -0.446546       -12.1511
  55   2.0000      -0.427664       -11.6373
  56   2.0000      -0.422153       -11.4874
  57   2.0000      -0.408933       -11.1276
  58   2.0000      -0.406222       -11.0539
  59   2.0000      -0.401973       -10.9382
  60   2.0000      -0.389198       -10.5906
  61   2.0000      -0.388305       -10.5663
  62   2.0000      -0.380917       -10.3653
  63   2.0000      -0.376162       -10.2359
  64   2.0000      -0.375694       -10.2231
  65   2.0000      -0.368210       -10.0195
  66   2.0000      -0.367340        -9.9958
  67   2.0000      -0.359046        -9.7701
  68   2.0000      -0.356442        -9.6993
  69   2.0000      -0.343618        -9.3503
  70   2.0000      -0.338009        -9.1977
  71   2.0000      -0.333623        -9.0783
  72   2.0000      -0.317324        -8.6348
  73   2.0000      -0.316659        -8.6167
  74   2.0000      -0.299577        -8.1519
  75   2.0000      -0.296866        -8.0781
  76   2.0000      -0.286817        -7.8047
  77   2.0000      -0.279835        -7.6147
  78   2.0000      -0.266763        -7.2590
  79   2.0000      -0.263585        -7.1725
  80   2.0000      -0.253509        -6.8983
  81   2.0000      -0.241011        -6.5582
  82   2.0000      -0.236359        -6.4317
  83   2.0000      -0.228169        -6.2088
  84   2.0000      -0.197835        -5.3834
  85   2.0000      -0.180943        -4.9237
  86   2.0000      -0.176663        -4.8072
  87   0.0000      -0.050915        -1.3855
  88   0.0000      -0.038353        -1.0436
  89   0.0000      -0.027891        -0.7590
  90   0.0000       0.007486         0.2037
  91   0.0000       0.023865         0.6494

MULLIKEN ATOMIC CHARGES
-----------------------
   0 C :   -0.287928
   1 C :   -0.035082
   2 O :   -0.228097
   3 C :    0.082547
   4 O :   -0.189802
   5 C :   -0.016425
   6 C :   -0.326485
   7 H :    0.158007
   8 C :    0.215198
   9 O :   -0.193155
  10 O :   -0.214816
  11 C :   -0.032378
  12 C :   -0.298277
  13 S :   -0.080073
  14 P :    0.642198
  15 S :   -0.361409
  16 O :   -0.372400
  17 C :   -0.083839
  18 O :   -0.378769
  19 C :   -0.091140
  20 H :    0.111402
  21 H :    0.120337
  22 H :    0.113725
  23 H :    0.125443
  24 H :    0.110123
  25 H :    0.120886
  26 H :    0.112112
  27 H :    0.110031
  28 H :    0.131140
  29 H :    0.134730
  30 H :    0.115484
  31 H :    0.116320
  32 H :    0.114124
  33 H :    0.107805
  34 H :    0.110883
  35 H :    0.113415
  36 H :    0.112802
  37 H :    0.111366
Sum of atomic charges:    0.0000000

LOEWDIN ATOMIC CHARGES
----------------------
   0 C :   -0.351785
   1 C :   -0.112926
   2 O :   -0.051754
   3 C :    0.018740
   4 O :   -0.162908
   5 C :   -0.248539
   6 C :   -0.261613
   7 H :    0.152932
   8 C :    0.018768
   9 O :   -0.149754
  10 O :   -0.032130
  11 C :   -0.103473
  12 C :   -0.352219
  13 S :    0.110788
  14 P :    0.595388
  15 S :   -0.332175
  16 O :   -0.245759
  17 C :   -0.210811
  18 O :   -0.256323
  19 C :   -0.215817
  20 H :    0.124959
  21 H :    0.123094
  22 H :    0.131983
  23 H :    0.116182
  24 H :    0.118919
  25 H :    0.145230
  26 H :    0.136858
  27 H :    0.119486
  28 H :    0.126978
  29 H :    0.129363
  30 H :    0.126940
  31 H :    0.133424
  32 H :    0.115158
  33 H :    0.108576
  34 H :    0.104688
  35 H :    0.107982
  36 H :    0.107325
  37 H :    0.114223

  Mayer bond orders larger than 0.100000
B(  0-C ,  1-C ) :   1.1511 B(  0-C , 20-H ) :   0.9495 B(  0-C , 21-H ) :   0.9475
B(  0-C , 22-H ) :   0.9437 B(  1-C ,  2-O ) :   0.8912 B(  1-C , 23-H ) :   0.9216
B(  1-C , 24-H ) :   0.9213 B(  2-O ,  3-C ) :   1.2405 B(  3-C ,  4-O ) :   2.0015
B(  3-C ,  5-C ) :   1.0063 B(  5-C ,  6-C ) :   1.0230 B(  5-C , 25-H ) :   0.8902
B(  5-C , 26-H ) :   0.8837 B(  6-C ,  7-H ) :   0.8730 B(  6-C ,  8-C ) :   0.9059
B(  6-C , 13-S ) :   1.0483 B(  8-C ,  9-O ) :   1.9293 B(  8-C , 10-O ) :   1.2856
B(  9-O , 14-P ) :   0.1206 B( 10-O , 11-C ) :   0.8836 B( 11-C , 12-C ) :   1.1623
B( 11-C , 27-H ) :   0.9343 B( 11-C , 28-H ) :   0.9149 B( 12-C , 29-H ) :   0.9402
B( 12-C , 30-H ) :   0.9477 B( 12-C , 31-H ) :   0.9412 B( 13-S , 14-P ) :   0.9222
B( 13-S , 15-S ) :   0.1229 B( 14-P , 15-S ) :   1.5158 B( 14-P , 16-O ) :   1.1232
B( 14-P , 18-O ) :   1.0949 B( 16-O , 17-C ) :   0.9382 B( 17-C , 32-H ) :   0.9560
B( 17-C , 33-H ) :   0.9531 B( 17-C , 34-H ) :   0.9303 B( 18-O , 19-C ) :   0.9425
B( 19-C , 35-H ) :   0.9381 B( 19-C , 36-H ) :   0.9465 B( 19-C , 37-H ) :   0.9574

Dispersion correction           -0.055494694
FINAL SINGLE POINT ENERGY     -1979.001352942114

DIPOLE MOMENT
-------------

Method             : SCF
Type of density    : Electron Density
Multiplicity       :   1
Irrep              :   0
Energy             : -1979.1303793255751771 Eh
Relativity type    :
Basis              : AO
                                X                 Y                 Z
Electronic contribution:    -18.903575601      -0.871905740      -8.285225553
Nuclear contribution   :     20.695189543       1.832753245       8.030931119
                        -----------------------------------------
Total Dipole Moment    :      1.791613942       0.960847505      -0.254294433
                        -----------------------------------------
Magnitude (a.u.)       :      2.048847018
Magnitude (Debye)      :      5.207755253

Rotational constants in cm-1:             0.013070             0.008727             0.007307
Rotational constants in MHz :           391.829960           261.632067           219.044449

                             ****ORCA TERMINATED NORMALLY****
TOTAL RUN TIME: 0 days 0 hours 0 minutes 41 seconds 48 msec
