                         Program Version 6.0.0  -   RELEASE  -
|  1> ! pbe def2-sv(p) def2/J RI DEFGRID1 loosescf d4 GCP(DFT/SV(P)) printgap
|  2> %output
|  3>     printlevel normal
|  4> end
|  5> * xyz 0 1
|  6> C 4.1390109127 -0.716931327 -2.2122729365
|  7> C 4.3816603821 -0.775143187 -0.7175996952
|  8> O 3.1537766088 -0.7231818956 0.0270474888
|  9> P 2.2850573256 0.6151405539 0.1066576249
| 10> S 3.3532849913 2.2562288922 0.188945384
| 11> O 1.3492067624 0.3407866383 1.3553603693
| 12> C 1.8781270489 0.2537881889 2.6991225519
| 13> C 2.1034668044 -1.1927252784 3.0894482032
| 14> S 0.8305870675 0.4814979087 -1.4148907434
| 15> C 0.2890988425 -1.2369409621 -1.1369999766
| 16> S -0.8388715991 -1.4476825404 0.2611598803
| 17> P -2.3348985795 -0.0947626549 -0.4122073662
| 18> S -2.6428919728 -0.0222747469 -2.3404533811
| 19> O -1.9160595124 1.312094899 0.1758384528
| 20> C -1.7078062053 1.5610387838 1.5851208437
| 21> C -2.9448516938 2.1656627553 2.2160760713
| 22> O -3.6000808616 -0.47099167 0.4764650286
| 23> C -4.5533376201 -1.4737304514 0.0763103219
| 24> C -3.9539480754 -2.8644999093 0.0494247115
| 25> H 3.4796926489 -1.521155372 -2.5285965806
| 26> H 3.6813049173 0.2370073664 -2.4749399397
| 27> H 5.0865357536 -0.8052988356 -2.7339480691
| 28> H 5.0128010739 0.0613531586 -0.4012766417
| 29> H 4.8363359908 -1.7202632911 -0.4178872602
| 30> H 2.8019801376 0.838644708 2.7532969673
| 31> H 1.1170032418 0.7207886562 3.3272233638
| 32> H 1.1840180994 -1.7568604804 2.956125036
| 33> H 2.8787040322 -1.636586238 2.4709553625
| 34> H 2.4075117583 -1.2365190111 4.1304445182
| 35> H 1.1504697638 -1.8704867166 -0.942148964
| 36> H -0.2227689831 -1.5221842635 -2.0552524694
| 37> H -1.4309336075 0.6218222636 2.0729682347
| 38> H -0.8628705914 2.2535190794 1.6178224009
| 39> H -2.7303919894 2.413907496 3.2508954712
| 40> H -3.2295865414 3.0683102811 1.6821970009
| 41> H -3.7697196252 1.4594589882 2.1777287889
| 42> H -5.3448214277 -1.3906234395 0.8224783041
| 43> H -4.9414214456 -1.2027657617 -0.9101370638
| 44> H -4.7438395521 -3.5888671137 -0.1214112707
| 45> H -3.2264726417 -2.9409736497 -0.7567546861
| 46> H -3.4598662453 -3.083628897 0.9925357179
| 47> *
| 48>
| 49>                          ****END OF INPUT****

CARTESIAN COORDINATES (ANGSTROEM)
---------------------------------
  C      4.139011   -0.716931   -2.212273
  C      4.381660   -0.775143   -0.717600
  O      3.153777   -0.723182    0.027047
  P      2.285057    0.615141    0.106658
  S      3.353285    2.256229    0.188945
  O      1.349207    0.340787    1.355360
  C      1.878127    0.253788    2.699123
  C      2.103467   -1.192725    3.089448
  S      0.830587    0.481498   -1.414891
  C      0.289099   -1.236941   -1.137000
  S     -0.838872   -1.447683    0.261160
  P     -2.334899   -0.094763   -0.412207
  S     -2.642892   -0.022275   -2.340453
  O     -1.916060    1.312095    0.175838
  C     -1.707806    1.561039    1.585121
  C     -2.944852    2.165663    2.216076
  O     -3.600081   -0.470992    0.476465
  C     -4.553338   -1.473730    0.076310
  C     -3.953948   -2.864500    0.049425
  H      3.479693   -1.521155   -2.528597
  H      3.681305    0.237007   -2.474940
  H      5.086536   -0.805299   -2.733948
  H      5.012801    0.061353   -0.401277
  H      4.836336   -1.720263   -0.417887
  H      2.801980    0.838645    2.753297
  H      1.117003    0.720789    3.327223
  H      1.184018   -1.756860    2.956125
  H      2.878704   -1.636586    2.470955
  H      2.407512   -1.236519    4.130445
  H      1.150470   -1.870487   -0.942149
  H     -0.222769   -1.522184   -2.055252
  H     -1.430934    0.621822    2.072968
  H     -0.862871    2.253519    1.617822
  H     -2.730392    2.413907    3.250895
  H     -3.229587    3.068310    1.682197
  H     -3.769720    1.459459    2.177729
  H     -5.344821   -1.390623    0.822478
  H     -4.941421   -1.202766   -0.910137
  H     -4.743840   -3.588867   -0.121411
  H     -3.226473   -2.940974   -0.756755
  H     -3.459866   -3.083629    0.992536

 Total Charge           Charge          ....    0
 Multiplicity           Mult            ....    1
 Number of Electrons    NEL             ....  202
 Basis Dimension        Dim             ....  334

ORBITAL ENERGIES
----------------

  NO   OCC          E(Eh)            E(eV)
   0   2.0000     -88.043495     -2395.7853
   1   2.0000     -88.042326     -2395.7535
   2   2.0000     -87.987025     -2394.2487
   3   2.0000     -87.986690     -2394.2396
   4   2.0000     -76.427416     -2079.6957
   5   2.0000     -76.426446     -2079.6693
   6   2.0000     -18.798396      -511.5303
   7   2.0000     -18.797523      -511.5066
   8   2.0000     -18.792335      -511.3654
   9   2.0000     -18.788271      -511.2548
  10   2.0000      -9.958812      -270.9930
  11   2.0000      -9.956996      -270.9436
  12   2.0000      -9.956176      -270.9213
  13   2.0000      -9.955312      -270.8978
  14   2.0000      -9.951109      -270.7834
  15   2.0000      -9.888773      -269.0872
  16   2.0000      -9.887160      -269.0433
  17   2.0000      -9.887003      -269.0390
  18   2.0000      -9.883491      -268.9434
  19   2.0000      -7.688321      -209.2099
  20   2.0000      -7.687323      -209.1827
  21   2.0000      -7.632309      -207.6857
  22   2.0000      -7.631878      -207.6740
  23   2.0000      -6.424687      -174.8246
  24   2.0000      -6.424425      -174.8175
  25   2.0000      -5.716612      -155.5569
  26   2.0000      -5.715157      -155.5173
  27   2.0000      -5.712661      -155.4494
  28   2.0000      -5.711910      -155.4290
  29   2.0000      -5.705060      -155.2426
  30   2.0000      -5.704216      -155.2196
  31   2.0000      -5.661299      -154.0518
  32   2.0000      -5.660822      -154.0388
  33   2.0000      -5.652812      -153.8208
  34   2.0000      -5.652638      -153.8161
  35   2.0000      -5.652488      -153.8120
  36   2.0000      -5.651884      -153.7956
  37   2.0000      -4.647588      -126.4673
  38   2.0000      -4.647065      -126.4531
  39   2.0000      -4.646384      -126.4345
  40   2.0000      -4.646369      -126.4341
  41   2.0000      -4.644980      -126.3963
  42   2.0000      -4.644583      -126.3855
  43   2.0000      -0.990649       -26.9569
  44   2.0000      -0.988254       -26.8918
  45   2.0000      -0.949189       -25.8287
  46   2.0000      -0.944728       -25.7074
  47   2.0000      -0.765056       -20.8182
  48   2.0000      -0.722733       -19.6666
  49   2.0000      -0.710152       -19.3242
  50   2.0000      -0.691859       -18.8264
  51   2.0000      -0.690932       -18.8012
  52   2.0000      -0.676451       -18.4072
  53   2.0000      -0.653268       -17.7763
  54   2.0000      -0.638827       -17.3834
  55   2.0000      -0.600846       -16.3499
  56   2.0000      -0.593944       -16.1620
  57   2.0000      -0.577897       -15.7254
  58   2.0000      -0.573351       -15.6017
  59   2.0000      -0.563812       -15.3421
  60   2.0000      -0.503832       -13.7100
  61   2.0000      -0.498115       -13.5544
  62   2.0000      -0.477675       -12.9982
  63   2.0000      -0.475077       -12.9275
  64   2.0000      -0.464982       -12.6528
  65   2.0000      -0.449331       -12.2269
  66   2.0000      -0.445510       -12.1230
  67   2.0000      -0.433581       -11.7983
  68   2.0000      -0.428206       -11.6521
  69   2.0000      -0.423577       -11.5261
  70   2.0000      -0.410126       -11.1601
  71   2.0000      -0.399382       -10.8677
  72   2.0000      -0.392784       -10.6882
  73   2.0000      -0.389575       -10.6009
  74   2.0000      -0.380771       -10.3613
  75   2.0000      -0.373547       -10.1647
  76   2.0000      -0.371331       -10.1044
  77   2.0000      -0.362251        -9.8573
  78   2.0000      -0.359932        -9.7942
  79   2.0000      -0.353669        -9.6238
  80   2.0000      -0.350144        -9.5279
  81   2.0000      -0.346636        -9.4324
  82   2.0000      -0.345099        -9.3906
  83   2.0000      -0.343782        -9.3548
  84   2.0000      -0.332265        -9.0414
  85   2.0000      -0.322200        -8.7675
  86   2.0000      -0.317232        -8.6323
  87   2.0000      -0.297569        -8.0973
  88   2.0000      -0.297092        -8.0843
  89   2.0000      -0.293528        -7.9873
  90   2.0000      -0.291862        -7.9420
  91   2.0000      -0.281225        -7.6525
  92   2.0000      -0.270130        -7.3506
  93   2.0000      -0.265599        -7.2273
  94   2.0000      -0.261120        -7.1054
  95   2.0000      -0.231230        -6.2921
  96   2.0000      -0.218020        -5.9326
  97   2.0000      -0.209307        -5.6955
  98   2.0000      -0.205419        -5.5897
  99   2.0000      -0.202691        -5.5155
 100   2.0000      -0.200200        -5.4477
 101   0.0000      -0.042400        -1.1538
 102   0.0000      -0.023494        -0.6393
 103   0.0000      -0.011548        -0.3142
 104   0.0000      -0.000726        -0.0198
 105   0.0000       0.006353         0.1729

MULLIKEN ATOMIC CHARGES
-----------------------
   0 C :   -0.315437
   1 C :   -0.007723
   2 O :   -0.388023
   3 P :    0.600864
   4 S :   -0.318127
   5 O :   -0.368513
   6 C :   -0.005497
   7 C :   -0.296558
   8 S :   -0.040893
   9 C :   -0.364138
  10 S :   -0.086452
  11 P :    0.600498
  12 S :   -0.311865
  13 O :   -0.347648
  14 C :   -0.022910
  15 C :   -0.283679
  16 O :   -0.382371
  17 C :   -0.001147
  18 C :   -0.315688
  19 H :    0.113843
  20 H :    0.132657
  21 H :    0.115268
  22 H :    0.114313
  23 H :    0.103215
  24 H :    0.103197
  25 H :    0.104488
  26 H :    0.117906
  27 H :    0.119160
  28 H :    0.110131
  29 H :    0.182868
  30 H :    0.194461
  31 H :    0.103933
  32 H :    0.118297
  33 H :    0.105835
  34 H :    0.120772
  35 H :    0.117923
  36 H :    0.105042
  37 H :    0.114866
  38 H :    0.114239
  39 H :    0.127157
  40 H :    0.115735
Sum of atomic charges:    0.0000000

LOEWDIN ATOMIC CHARGES
----------------------
   0 C :   -0.366909
   1 C :   -0.123751
   2 O :   -0.250037
   3 P :    0.560751
   4 S :   -0.323350
   5 O :   -0.242974
   6 C :   -0.114532
   7 C :   -0.361192
   8 S :    0.115394
   9 C :   -0.480906
  10 S :    0.082701
  11 P :    0.570508
  12 S :   -0.310609
  13 O :   -0.230570
  14 C :   -0.116156
  15 C :   -0.359549
  16 O :   -0.248454
  17 C :   -0.116454
  18 C :   -0.371038
  19 H :    0.122634
  20 H :    0.124106
  21 H :    0.132399
  22 H :    0.110902
  23 H :    0.116782
  24 H :    0.109211
  25 H :    0.115958
  26 H :    0.124556
  27 H :    0.124909
  28 H :    0.129170
  29 H :    0.130134
  30 H :    0.133615
  31 H :    0.101576
  32 H :    0.122163
  33 H :    0.127721
  34 H :    0.129398
  35 H :    0.124449
  36 H :    0.118374
  37 H :    0.113855
  38 H :    0.131628
  39 H :    0.121047
  40 H :    0.122540

  Mayer bond orders larger than 0.100000
B(  0-C ,  1-C ) :   1.1630 B(  0-C , 19-H ) :   0.9469 B(  0-C , 20-H ) :   0.9334
B(  0-C , 21-H ) :   0.9386 B(  1-C ,  2-O ) :   0.9067 B(  1-C , 22-H ) :   0.9112
B(  1-C , 23-H ) :   0.9331 B(  2-O ,  3-P ) :   1.0452 B(  3-P ,  4-S ) :   1.6576
B(  3-P ,  5-O ) :   1.1086 B(  3-P ,  8-S ) :   0.9813 B(  5-O ,  6-C ) :   0.8974
B(  6-C ,  7-C ) :   1.1676 B(  6-C , 24-H ) :   0.9087 B(  6-C , 25-H ) :   0.9322
B(  7-C , 26-H ) :   0.9463 B(  7-C , 27-H ) :   0.9422 B(  7-C , 28-H ) :   0.9401
B(  8-S ,  9-C ) :   0.9900 B(  9-C , 10-S ) :   1.0031 B(  9-C , 29-H ) :   0.8906
B(  9-C , 30-H ) :   0.8865 B( 10-S , 11-P ) :   0.9589 B( 10-S , 12-S ) :   0.1088
B( 11-P , 12-S ) :   1.6306 B( 11-P , 13-O ) :   1.1387 B( 11-P , 16-O ) :   1.0813
B( 13-O , 14-C ) :   0.8953 B( 14-C , 15-C ) :   1.1570 B( 14-C , 31-H ) :   0.9110
B( 14-C , 32-H ) :   0.9319 B( 15-C , 33-H ) :   0.9405 B( 15-C , 34-H ) :   0.9463
B( 15-C , 35-H ) :   0.9420 B( 16-O , 17-C ) :   0.9055 B( 17-C , 18-C ) :   1.1664
B( 17-C , 36-H ) :   0.9342 B( 17-C , 37-H ) :   0.9185 B( 18-C , 38-H ) :   0.9367
B( 18-C , 39-H ) :   0.9347 B( 18-C , 40-H ) :   0.9437

Dispersion correction           -0.066010587
FINAL SINGLE POINT ENERGY     -2929.519970931502

DIPOLE MOMENT
-------------

Method             : SCF
Type of density    : Electron Density
Multiplicity       :   1
Irrep              :   0
Energy             : -2929.6403865445686279 Eh
Relativity type    :
Basis              : AO
                                X                 Y                 Z
Electronic contribution:      0.313324978      10.696641956     -12.962977485
Nuclear contribution   :     -0.296954203     -12.317144307      14.389138738
                        -----------------------------------------
Total Dipole Moment    :      0.016370776      -1.620502352       1.426161254
                        -----------------------------------------
Magnitude (a.u.)       :      2.158757002
Magnitude (Debye)      :      5.487124231

Rotational constants in cm-1:             0.012549             0.005001             0.004644
Rotational constants in MHz :           376.198520           149.931273           139.218615

                             ****ORCA TERMINATED NORMALLY****
TOTAL RUN TIME: 0 days 0 hours 0 minutes 21 seconds 663 msec
