                         Program Version 6.0.1  -  RELEASE   -
|  1> ! pbe def2-sv(p) def2/J RI DEFGRID1 loosescf d4 GCP(DFT/SV(P)) printgap
|  2> %output
|  3>     printlevel normal
|  4> end
|  5> * xyz 0 1
|  6> C 5.2971414308 -2.8712745306 -0.0108787414
|  7> C 4.3479522483 -1.8550526352 0.5947710037
|  8> O 3.1038189746 -1.9084815318 -0.1344448635
|  9> C 2.3614456685 -0.8298014078 -0.2039964327
| 10> O 2.6477481397 0.2400157761 0.2980601379
| 11> C 1.0816451686 -1.0740918255 -0.9680917069
| 12> C 0.4533603577 0.250641451 -1.3827197815
| 13> H 0.91863897 0.661591435 -2.2795850861
| 14> C 0.5038539541 1.287205807 -0.2757749142
| 15> O -0.057494626 1.1173643883 0.7908541058
| 16> O 1.0680073094 2.3964127752 -0.6699443147
| 17> C 1.1921308932 3.4931191151 0.2600498448
| 18> C 2.6204002434 3.578970616 0.7704897267
| 19> S -1.3192905042 0.069468267 -1.7854843803
| 20> P -2.220028696 -0.2562472652 0.0963642382
| 21> S -1.5092189843 -1.547610585 1.4022463663
| 22> O -2.6767093152 1.186900218 0.5875906829
| 23> C -2.7999905415 1.5227716657 1.9760267703
| 24> O -3.6570270388 -0.7388943334 -0.43480075
| 25> C -3.8693853819 -2.0587449113 -0.9450023582
| 26> H 5.5045922132 -2.6223385195 -1.0473856775
| 27> H 6.2259164203 -2.8704369298 0.5497263105
| 28> H 4.8532439495 -3.8611427362 0.0308917376
| 29> H 4.741908071 -0.8360579805 0.5346779285
| 30> H 4.127233736 -2.0877165996 1.6404737185
| 31> H 0.4195998272 -1.6113781912 -0.2781929022
| 32> H 1.2635618535 -1.7155833395 -1.8284483123
| 33> H 0.9167574079 4.3803026828 -0.3124063325
| 34> H 0.4872012439 3.3338378732 1.0805703717
| 35> H 2.6987589594 4.3883097661 1.4885942616
| 36> H 2.8944185663 2.6417417645 1.2492576901
| 37> H 3.3016331417 3.7584607368 -0.0557987233
| 38> H -3.6813490821 1.0419576976 2.3987333141
| 39> H -2.8990899785 2.6049417553 2.0042607255
| 40> H -1.9063524333 1.2060979903 2.5154399435
| 41> H -4.9470568001 -2.2000938708 -0.9543251018
| 42> H -3.393843485 -2.7919588031 -0.2906030324
| 43> H -3.4627806783 -2.1369927034 -1.9527507357
| 44> *
| 45>
| 46>                          ****END OF INPUT****

CARTESIAN COORDINATES (ANGSTROEM)
---------------------------------
  C      5.297141   -2.871275   -0.010879
  C      4.347952   -1.855053    0.594771
  O      3.103819   -1.908482   -0.134445
  C      2.361446   -0.829801   -0.203996
  O      2.647748    0.240016    0.298060
  C      1.081645   -1.074092   -0.968092
  C      0.453360    0.250641   -1.382720
  H      0.918639    0.661591   -2.279585
  C      0.503854    1.287206   -0.275775
  O     -0.057495    1.117364    0.790854
  O      1.068007    2.396413   -0.669944
  C      1.192131    3.493119    0.260050
  C      2.620400    3.578971    0.770490
  S     -1.319291    0.069468   -1.785484
  P     -2.220029   -0.256247    0.096364
  S     -1.509219   -1.547611    1.402246
  O     -2.676709    1.186900    0.587591
  C     -2.799991    1.522772    1.976027
  O     -3.657027   -0.738894   -0.434801
  C     -3.869385   -2.058745   -0.945002
  H      5.504592   -2.622339   -1.047386
  H      6.225916   -2.870437    0.549726
  H      4.853244   -3.861143    0.030892
  H      4.741908   -0.836058    0.534678
  H      4.127234   -2.087717    1.640474
  H      0.419600   -1.611378   -0.278193
  H      1.263562   -1.715583   -1.828448
  H      0.916757    4.380303   -0.312406
  H      0.487201    3.333838    1.080570
  H      2.698759    4.388310    1.488594
  H      2.894419    2.641742    1.249258
  H      3.301633    3.758461   -0.055799
  H     -3.681349    1.041958    2.398733
  H     -2.899090    2.604942    2.004261
  H     -1.906352    1.206098    2.515440
  H     -4.947057   -2.200094   -0.954325
  H     -3.393843   -2.791959   -0.290603
  H     -3.462781   -2.136993   -1.952751

 Total Charge           Charge          ....    0
 Multiplicity           Mult            ....    1
 Number of Electrons    NEL             ....  174
 Basis Dimension        Dim             ....  316

ORBITAL ENERGIES
----------------

  NO   OCC          E(Eh)            E(eV)
   0   2.0000     -88.039029     -2395.6638
   1   2.0000     -87.971591     -2393.8287
   2   2.0000     -76.417934     -2079.4377
   3   2.0000     -18.810534      -511.8606
   4   2.0000     -18.803078      -511.6578
   5   2.0000     -18.777560      -510.9634
   6   2.0000     -18.776363      -510.9308
   7   2.0000     -18.749533      -510.2007
   8   2.0000     -18.734048      -509.7794
   9   2.0000     -10.018135      -272.6073
  10   2.0000     -10.015324      -272.5308
  11   2.0000      -9.954030      -270.8629
  12   2.0000      -9.945935      -270.6427
  13   2.0000      -9.944561      -270.6053
  14   2.0000      -9.932208      -270.2691
  15   2.0000      -9.931642      -270.2537
  16   2.0000      -9.906838      -269.5788
  17   2.0000      -9.894429      -269.2411
  18   2.0000      -9.880340      -268.8577
  19   2.0000      -7.684011      -209.0926
  20   2.0000      -7.616700      -207.2609
  21   2.0000      -6.414028      -174.5346
  22   2.0000      -5.711983      -155.4310
  23   2.0000      -5.708444      -155.3347
  24   2.0000      -5.700944      -155.1306
  25   2.0000      -5.645806      -153.6302
  26   2.0000      -5.637652      -153.4083
  27   2.0000      -5.636303      -153.3716
  28   2.0000      -4.636361      -126.1618
  29   2.0000      -4.635969      -126.1511
  30   2.0000      -4.634862      -126.1210
  31   2.0000      -1.020347       -27.7651
  32   2.0000      -1.011720       -27.5303
  33   2.0000      -0.970379       -26.4054
  34   2.0000      -0.928147       -25.2562
  35   2.0000      -0.926248       -25.2045
  36   2.0000      -0.914896       -24.8956
  37   2.0000      -0.762820       -20.7574
  38   2.0000      -0.719700       -19.5840
  39   2.0000      -0.702742       -19.1226
  40   2.0000      -0.687308       -18.7026
  41   2.0000      -0.655929       -17.8487
  42   2.0000      -0.622428       -16.9371
  43   2.0000      -0.616178       -16.7671
  44   2.0000      -0.611898       -16.6506
  45   2.0000      -0.593397       -16.1472
  46   2.0000      -0.556954       -15.1555
  47   2.0000      -0.516112       -14.0441
  48   2.0000      -0.504885       -13.7386
  49   2.0000      -0.494816       -13.4646
  50   2.0000      -0.481004       -13.0888
  51   2.0000      -0.460088       -12.5196
  52   2.0000      -0.453056       -12.3283
  53   2.0000      -0.449680       -12.2364
  54   2.0000      -0.440182       -11.9780
  55   2.0000      -0.429855       -11.6970
  56   2.0000      -0.425821       -11.5872
  57   2.0000      -0.414658       -11.2834
  58   2.0000      -0.409624       -11.1464
  59   2.0000      -0.403707       -10.9854
  60   2.0000      -0.399914       -10.8822
  61   2.0000      -0.392814       -10.6890
  62   2.0000      -0.382103       -10.3975
  63   2.0000      -0.381446       -10.3797
  64   2.0000      -0.376262       -10.2386
  65   2.0000      -0.366042        -9.9605
  66   2.0000      -0.363879        -9.9017
  67   2.0000      -0.355256        -9.6670
  68   2.0000      -0.345504        -9.4017
  69   2.0000      -0.342157        -9.3106
  70   2.0000      -0.331769        -9.0279
  71   2.0000      -0.325811        -8.8658
  72   2.0000      -0.320664        -8.7257
  73   2.0000      -0.306830        -8.3493
  74   2.0000      -0.299517        -8.1503
  75   2.0000      -0.292843        -7.9687
  76   2.0000      -0.288228        -7.8431
  77   2.0000      -0.277357        -7.5473
  78   2.0000      -0.271271        -7.3816
  79   2.0000      -0.264333        -7.1929
  80   2.0000      -0.252222        -6.8633
  81   2.0000      -0.245309        -6.6752
  82   2.0000      -0.237422        -6.4606
  83   2.0000      -0.234332        -6.3765
  84   2.0000      -0.220670        -6.0047
  85   2.0000      -0.191773        -5.2184
  86   2.0000      -0.180706        -4.9173
  87   0.0000      -0.046558        -1.2669
  88   0.0000      -0.028435        -0.7738
  89   0.0000      -0.013864        -0.3773
  90   0.0000       0.017435         0.4744
  91   0.0000       0.034456         0.9376

MULLIKEN ATOMIC CHARGES
-----------------------
   0 C :   -0.281221
   1 C :   -0.030990
   2 O :   -0.225418
   3 C :    0.133417
   4 O :   -0.206268
   5 C :   -0.069240
   6 C :   -0.299522
   7 H :    0.127953
   8 C :    0.208223
   9 O :   -0.207217
  10 O :   -0.215486
  11 C :   -0.021935
  12 C :   -0.295788
  13 S :   -0.078502
  14 P :    0.619121
  15 S :   -0.332651
  16 O :   -0.371945
  17 C :   -0.095109
  18 O :   -0.379362
  19 C :   -0.099866
  20 H :    0.114963
  21 H :    0.114425
  22 H :    0.119805
  23 H :    0.115023
  24 H :    0.113946
  25 H :    0.147046
  26 H :    0.115907
  27 H :    0.103838
  28 H :    0.111459
  29 H :    0.107161
  30 H :    0.138409
  31 H :    0.108976
  32 H :    0.114019
  33 H :    0.115403
  34 H :    0.138981
  35 H :    0.120808
  36 H :    0.112787
  37 H :    0.108849
Sum of atomic charges:   -0.0000000

LOEWDIN ATOMIC CHARGES
----------------------
   0 C :   -0.350586
   1 C :   -0.106935
   2 O :   -0.053128
   3 C :    0.047547
   4 O :   -0.154716
   5 C :   -0.265198
   6 C :   -0.256817
   7 H :    0.139592
   8 C :    0.012530
   9 O :   -0.172675
  10 O :   -0.040223
  11 C :   -0.107117
  12 C :   -0.354839
  13 S :    0.119034
  14 P :    0.584021
  15 S :   -0.319969
  16 O :   -0.245264
  17 C :   -0.208068
  18 O :   -0.263618
  19 C :   -0.220806
  20 H :    0.126651
  21 H :    0.131853
  22 H :    0.128716
  23 H :    0.119476
  24 H :    0.121234
  25 H :    0.143211
  26 H :    0.141786
  27 H :    0.117425
  28 H :    0.120147
  29 H :    0.127251
  30 H :    0.135009
  31 H :    0.123624
  32 H :    0.111717
  33 H :    0.118162
  34 H :    0.118188
  35 H :    0.120154
  36 H :    0.106228
  37 H :    0.106401

  Mayer bond orders larger than 0.100000
B(  0-C ,  1-C ) :   1.1602 B(  0-C , 20-H ) :   0.9522 B(  0-C , 21-H ) :   0.9438
B(  0-C , 22-H ) :   0.9481 B(  1-C ,  2-O ) :   0.8996 B(  1-C , 23-H ) :   0.9187
B(  1-C , 24-H ) :   0.9352 B(  2-O ,  3-C ) :   1.2540 B(  3-C ,  4-O ) :   1.9579
B(  3-C ,  5-C ) :   1.0176 B(  4-O ,  8-C ) :   0.1147 B(  5-C ,  6-C ) :   1.0078
B(  5-C , 25-H ) :   0.8294 B(  5-C , 26-H ) :   0.9010 B(  6-C ,  7-H ) :   0.8840
B(  6-C ,  8-C ) :   0.8959 B(  6-C , 13-S ) :   1.0131 B(  8-C ,  9-O ) :   1.9355
B(  8-C , 10-O ) :   1.2688 B(  9-O , 14-P ) :   0.1033 B( 10-O , 11-C ) :   0.9089
B( 11-C , 12-C ) :   1.1776 B( 11-C , 27-H ) :   0.9370 B( 11-C , 28-H ) :   0.9076
B( 12-C , 29-H ) :   0.9437 B( 12-C , 30-H ) :   0.9373 B( 12-C , 31-H ) :   0.9503
B( 13-S , 14-P ) :   0.9645 B( 13-S , 15-S ) :   0.1181 B( 14-P , 15-S ) :   1.5698
B( 14-P , 16-O ) :   1.1165 B( 14-P , 18-O ) :   1.0796 B( 15-S , 25-H ) :   0.1128
B( 16-O , 17-C ) :   0.9195 B( 17-C , 32-H ) :   0.9525 B( 17-C , 33-H ) :   0.9596
B( 17-C , 34-H ) :   0.9360 B( 18-O , 19-C ) :   0.9394 B( 19-C , 35-H ) :   0.9597
B( 19-C , 36-H ) :   0.9283 B( 19-C , 37-H ) :   0.9492

Dispersion correction           -0.051115825
FINAL SINGLE POINT ENERGY     -1979.013570460224

DIPOLE MOMENT
-------------

Method             : SCF
Type of density    : Electron Density
Multiplicity       :   1
Irrep              :   0
Energy             : -1979.1458267010352756 Eh
Relativity type    :
Basis              : AO
                                X                 Y                 Z
Electronic contribution:    -17.880612375      -1.358060037      -4.557059183
Nuclear contribution   :     19.018016587       1.509895572       4.146794602
                        -----------------------------------------
Total Dipole Moment    :      1.137404211       0.151835535      -0.410264582
                        -----------------------------------------
Magnitude (a.u.)       :      1.218630131
Magnitude (Debye)      :      3.097511630

Rotational constants in cm-1:             0.012815             0.006760             0.005359
Rotational constants in MHz :           384.172548           202.670865           160.662304

                             ****ORCA TERMINATED NORMALLY****
TOTAL RUN TIME: 0 days 0 hours 0 minutes 28 seconds 935 msec
