                         Program Version 6.0.0  -   RELEASE  -
|  1> ! pbe def2-sv(p) def2/J RI DEFGRID1 loosescf d4 GCP(DFT/SV(P)) printgap
|  2> %output
|  3>     printlevel normal
|  4> end
|  5> * xyz 0 1
|  6> C 3.239027338 2.1028470625 -1.769625728
|  7> C 2.0559658976 1.1635468156 -1.6753139841
|  8> O 1.4462325458 1.2441093453 -0.3606346725
|  9> P 1.7333353106 0.1909479998 0.7724942414
| 10> S 1.0854219151 0.7096154987 2.5417195437
| 11> O 3.3166997716 0.0567680203 0.6802362185
| 12> C 4.0466462434 -0.7816610588 1.5973921439
| 13> C 5.5213698481 -0.4748214937 1.4335439484
| 14> S 1.1283529193 -1.7410828828 0.0780417928
| 15> C -0.2369959384 -2.0857188109 1.215042155
| 16> S -1.8698265536 -2.1372264904 0.4209597216
| 17> P -1.8564514025 -0.2687165866 -0.5958597017
| 18> S -1.0447189226 -0.2498344286 -2.3830570529
| 19> O -1.2319782207 0.6870912158 0.5021132183
| 20> C -1.7502811062 2.0047684449 0.8037353611
| 21> C -1.5316470073 2.9637831166 -0.3458248489
| 22> O -3.387056087 0.1427892271 -0.592038085
| 23> C -4.3142890056 -0.3416463165 -1.5850985891
| 24> C -5.4501179443 0.6555741222 -1.6923230253
| 25> H 4.0141601388 1.8031990583 -1.0694678586
| 26> H 3.6332487245 2.0693333665 -2.7803570962
| 27> H 2.928669479 3.1181450121 -1.5385958293
| 28> H 2.3474017587 0.1281834286 -1.8702780334
| 29> H 1.2601206629 1.4424319881 -2.3693674445
| 30> H 3.701373223 -0.5662829777 2.6139255298
| 31> H 3.8261366214 -1.8258415321 1.3579164108
| 32> H 5.7139344677 0.5688369253 1.6656711882
| 33> H 6.0914567939 -1.1026949246 2.1101584597
| 34> H 5.8313901553 -0.6734988764 0.4116917617
| 35> H -0.2314626189 -1.3277881309 2.0036250042
| 36> H -0.0859758954 -3.0819531059 1.62385697
| 37> H -2.8089483935 1.9080127278 1.0483841856
| 38> H -1.1859322665 2.2990342265 1.6910806267
| 39> H -0.4698529635 3.042287913 -0.5672874872
| 40> H -2.0470057482 2.6022242827 -1.235156323
| 41> H -1.9186834433 3.9417324912 -0.0778312479
| 42> H -3.7821739846 -0.4498673205 -2.5364954796
| 43> H -4.670682418 -1.3219310377 -1.2596508206
| 44> H -6.1737225115 0.2896516275 -2.4131689751
| 45> H -5.9332796723 0.7741749694 -0.7268250592
| 46> H -5.0751191505 1.6206915308 -2.021464267
| 47> *
| 48>
| 49>                          ****END OF INPUT****

CARTESIAN COORDINATES (ANGSTROEM)
---------------------------------
  C      3.239027    2.102847   -1.769626
  C      2.055966    1.163547   -1.675314
  O      1.446233    1.244109   -0.360635
  P      1.733335    0.190948    0.772494
  S      1.085422    0.709615    2.541720
  O      3.316700    0.056768    0.680236
  C      4.046646   -0.781661    1.597392
  C      5.521370   -0.474821    1.433544
  S      1.128353   -1.741083    0.078042
  C     -0.236996   -2.085719    1.215042
  S     -1.869827   -2.137226    0.420960
  P     -1.856451   -0.268717   -0.595860
  S     -1.044719   -0.249834   -2.383057
  O     -1.231978    0.687091    0.502113
  C     -1.750281    2.004768    0.803735
  C     -1.531647    2.963783   -0.345825
  O     -3.387056    0.142789   -0.592038
  C     -4.314289   -0.341646   -1.585099
  C     -5.450118    0.655574   -1.692323
  H      4.014160    1.803199   -1.069468
  H      3.633249    2.069333   -2.780357
  H      2.928669    3.118145   -1.538596
  H      2.347402    0.128183   -1.870278
  H      1.260121    1.442432   -2.369367
  H      3.701373   -0.566283    2.613926
  H      3.826137   -1.825842    1.357916
  H      5.713934    0.568837    1.665671
  H      6.091457   -1.102695    2.110158
  H      5.831390   -0.673499    0.411692
  H     -0.231463   -1.327788    2.003625
  H     -0.085976   -3.081953    1.623857
  H     -2.808948    1.908013    1.048384
  H     -1.185932    2.299034    1.691081
  H     -0.469853    3.042288   -0.567287
  H     -2.047006    2.602224   -1.235156
  H     -1.918683    3.941732   -0.077831
  H     -3.782174   -0.449867   -2.536495
  H     -4.670682   -1.321931   -1.259651
  H     -6.173723    0.289652   -2.413169
  H     -5.933280    0.774175   -0.726825
  H     -5.075119    1.620692   -2.021464

 Total Charge           Charge          ....    0
 Multiplicity           Mult            ....    1
 Number of Electrons    NEL             ....  202
 Basis Dimension        Dim             ....  334

ORBITAL ENERGIES
----------------

  NO   OCC          E(Eh)            E(eV)
   0   2.0000     -88.039925     -2395.6882
   1   2.0000     -88.032468     -2395.4852
   2   2.0000     -87.985422     -2394.2051
   3   2.0000     -87.980331     -2394.0665
   4   2.0000     -76.425140     -2079.6338
   5   2.0000     -76.424114     -2079.6059
   6   2.0000     -18.794601      -511.4271
   7   2.0000     -18.792442      -511.3683
   8   2.0000     -18.789649      -511.2923
   9   2.0000     -18.785242      -511.1724
  10   2.0000      -9.954366      -270.8721
  11   2.0000      -9.951535      -270.7950
  12   2.0000      -9.951386      -270.7910
  13   2.0000      -9.948449      -270.7110
  14   2.0000      -9.945012      -270.6175
  15   2.0000      -9.890222      -269.1266
  16   2.0000      -9.889082      -269.0956
  17   2.0000      -9.881868      -268.8993
  18   2.0000      -9.876229      -268.7459
  19   2.0000      -7.684529      -209.1067
  20   2.0000      -7.678348      -208.9385
  21   2.0000      -7.630506      -207.6366
  22   2.0000      -7.625412      -207.4980
  23   2.0000      -6.422460      -174.7640
  24   2.0000      -6.421434      -174.7361
  25   2.0000      -5.712331      -155.4404
  26   2.0000      -5.709058      -155.3514
  27   2.0000      -5.706440      -155.2801
  28   2.0000      -5.702963      -155.1855
  29   2.0000      -5.701611      -155.1487
  30   2.0000      -5.694900      -154.9661
  31   2.0000      -5.659517      -154.0033
  32   2.0000      -5.654187      -153.8583
  33   2.0000      -5.651090      -153.7740
  34   2.0000      -5.650511      -153.7582
  35   2.0000      -5.646147      -153.6395
  36   2.0000      -5.645595      -153.6244
  37   2.0000      -4.645264      -126.4041
  38   2.0000      -4.644781      -126.3909
  39   2.0000      -4.644107      -126.3726
  40   2.0000      -4.643117      -126.3456
  41   2.0000      -4.642844      -126.3382
  42   2.0000      -4.641292      -126.2960
  43   2.0000      -0.988741       -26.9050
  44   2.0000      -0.986422       -26.8419
  45   2.0000      -0.943870       -25.6840
  46   2.0000      -0.941308       -25.6143
  47   2.0000      -0.757398       -20.6098
  48   2.0000      -0.719722       -19.5846
  49   2.0000      -0.708482       -19.2788
  50   2.0000      -0.690235       -18.7823
  51   2.0000      -0.687906       -18.7189
  52   2.0000      -0.668312       -18.1857
  53   2.0000      -0.646386       -17.5891
  54   2.0000      -0.636268       -17.3137
  55   2.0000      -0.590220       -16.0607
  56   2.0000      -0.585093       -15.9212
  57   2.0000      -0.571039       -15.5388
  58   2.0000      -0.567016       -15.4293
  59   2.0000      -0.562049       -15.2941
  60   2.0000      -0.509886       -13.8747
  61   2.0000      -0.503213       -13.6931
  62   2.0000      -0.478955       -13.0330
  63   2.0000      -0.471328       -12.8255
  64   2.0000      -0.447297       -12.1716
  65   2.0000      -0.445380       -12.1194
  66   2.0000      -0.440001       -11.9730
  67   2.0000      -0.438404       -11.9296
  68   2.0000      -0.427220       -11.6253
  69   2.0000      -0.410656       -11.1745
  70   2.0000      -0.404003       -10.9935
  71   2.0000      -0.397874       -10.8267
  72   2.0000      -0.387466       -10.5435
  73   2.0000      -0.384529       -10.4636
  74   2.0000      -0.379234       -10.3195
  75   2.0000      -0.365016        -9.9326
  76   2.0000      -0.363928        -9.9030
  77   2.0000      -0.356060        -9.6889
  78   2.0000      -0.355343        -9.6694
  79   2.0000      -0.352048        -9.5797
  80   2.0000      -0.344332        -9.3697
  81   2.0000      -0.340826        -9.2744
  82   2.0000      -0.340191        -9.2571
  83   2.0000      -0.335466        -9.1285
  84   2.0000      -0.332182        -9.0391
  85   2.0000      -0.318150        -8.6573
  86   2.0000      -0.314046        -8.5456
  87   2.0000      -0.303223        -8.2511
  88   2.0000      -0.300226        -8.1696
  89   2.0000      -0.294128        -8.0036
  90   2.0000      -0.283796        -7.7225
  91   2.0000      -0.273759        -7.4493
  92   2.0000      -0.265445        -7.2231
  93   2.0000      -0.258133        -7.0242
  94   2.0000      -0.254175        -6.9164
  95   2.0000      -0.234166        -6.3720
  96   2.0000      -0.220294        -5.9945
  97   2.0000      -0.206084        -5.6078
  98   2.0000      -0.202304        -5.5050
  99   2.0000      -0.191008        -5.1976
 100   2.0000      -0.186891        -5.0856
 101   0.0000      -0.046771        -1.2727
 102   0.0000      -0.031944        -0.8692
 103   0.0000      -0.012520        -0.3407
 104   0.0000       0.004831         0.1314
 105   0.0000       0.019692         0.5359

MULLIKEN ATOMIC CHARGES
-----------------------
   0 C :   -0.284234
   1 C :   -0.018394
   2 O :   -0.356234
   3 P :    0.620107
   4 S :   -0.310608
   5 O :   -0.384191
   6 C :   -0.007908
   7 C :   -0.283204
   8 S :   -0.106459
   9 C :   -0.340622
  10 S :   -0.114472
  11 P :    0.640082
  12 S :   -0.320612
  13 O :   -0.377169
  14 C :    0.001216
  15 C :   -0.322008
  16 O :   -0.387066
  17 C :   -0.011548
  18 C :   -0.287470
  19 H :    0.119843
  20 H :    0.109065
  21 H :    0.115532
  22 H :    0.105251
  23 H :    0.124250
  24 H :    0.104051
  25 H :    0.099612
  26 H :    0.121611
  27 H :    0.112690
  28 H :    0.116053
  29 H :    0.199728
  30 H :    0.178984
  31 H :    0.106939
  32 H :    0.115465
  33 H :    0.133328
  34 H :    0.116455
  35 H :    0.106032
  36 H :    0.108767
  37 H :    0.104340
  38 H :    0.113532
  39 H :    0.118049
  40 H :    0.121220
Sum of atomic charges:    0.0000000

LOEWDIN ATOMIC CHARGES
----------------------
   0 C :   -0.359314
   1 C :   -0.116990
   2 O :   -0.225823
   3 P :    0.578890
   4 S :   -0.293817
   5 O :   -0.250102
   6 C :   -0.123508
   7 C :   -0.350840
   8 S :    0.073455
   9 C :   -0.479550
  10 S :    0.052676
  11 P :    0.570371
  12 S :   -0.310159
  13 O :   -0.241369
  14 C :   -0.112495
  15 C :   -0.366520
  16 O :   -0.245915
  17 C :   -0.120991
  18 C :   -0.351438
  19 H :    0.124508
  20 H :    0.129713
  21 H :    0.126636
  22 H :    0.107643
  23 H :    0.116256
  24 H :    0.108364
  25 H :    0.105304
  26 H :    0.128457
  27 H :    0.131190
  28 H :    0.125808
  29 H :    0.122290
  30 H :    0.137203
  31 H :    0.111428
  32 H :    0.116629
  33 H :    0.129677
  34 H :    0.117601
  35 H :    0.127558
  36 H :    0.107721
  37 H :    0.112696
  38 H :    0.131883
  39 H :    0.126977
  40 H :    0.127895

  Mayer bond orders larger than 0.100000
B(  0-C ,  1-C ) :   1.1611 B(  0-C , 19-H ) :   0.9404 B(  0-C , 20-H ) :   0.9402
B(  0-C , 21-H ) :   0.9480 B(  1-C ,  2-O ) :   0.8741 B(  1-C , 22-H ) :   0.9208
B(  1-C , 23-H ) :   0.9184 B(  2-O ,  3-P ) :   1.1434 B(  3-P ,  4-S ) :   1.6160
B(  3-P ,  5-O ) :   1.0665 B(  3-P ,  8-S ) :   0.9551 B(  4-S ,  8-S ) :   0.1179
B(  4-S , 29-H ) :   0.1161 B(  5-O ,  6-C ) :   0.9091 B(  6-C ,  7-C ) :   1.1590
B(  6-C , 24-H ) :   0.9119 B(  6-C , 25-H ) :   0.9216 B(  7-C , 26-H ) :   0.9508
B(  7-C , 27-H ) :   0.9422 B(  7-C , 28-H ) :   0.9508 B(  8-S ,  9-C ) :   1.0124
B(  9-C , 10-S ) :   0.9938 B(  9-C , 29-H ) :   0.8499 B(  9-C , 30-H ) :   0.9129
B( 10-S , 11-P ) :   0.9575 B( 10-S , 12-S ) :   0.1168 B( 11-P , 12-S ) :   1.6473
B( 11-P , 13-O ) :   1.1098 B( 11-P , 16-O ) :   1.0736 B( 13-O , 14-C ) :   0.8885
B( 14-C , 15-C ) :   1.1720 B( 14-C , 31-H ) :   0.9275 B( 14-C , 32-H ) :   0.9150
B( 15-C , 33-H ) :   0.9379 B( 15-C , 34-H ) :   0.9348 B( 15-C , 35-H ) :   0.9376
B( 16-O , 17-C ) :   0.9044 B( 17-C , 18-C ) :   1.1607 B( 17-C , 36-H ) :   0.9023
B( 17-C , 37-H ) :   0.9312 B( 18-C , 38-H ) :   0.9414 B( 18-C , 39-H ) :   0.9504
B( 18-C , 40-H ) :   0.9514

Dispersion correction           -0.067281510
FINAL SINGLE POINT ENERGY     -2929.513291732917

DIPOLE MOMENT
-------------

Method             : SCF
Type of density    : Electron Density
Multiplicity       :   1
Irrep              :   0
Energy             : -2929.6337252626253758 Eh
Relativity type    :
Basis              : AO
                                X                 Y                 Z
Electronic contribution:     -4.724097561     -14.387888957       5.613995408
Nuclear contribution   :      4.790493993      14.514702384      -5.745858765
                        -----------------------------------------
Total Dipole Moment    :      0.066396432       0.126813427      -0.131863357
                        -----------------------------------------
Magnitude (a.u.)       :      0.194622908
Magnitude (Debye)      :      0.494692120

Rotational constants in cm-1:             0.013598             0.005231             0.004867
Rotational constants in MHz :           407.660126           156.829910           145.904170

                             ****ORCA TERMINATED NORMALLY****
TOTAL RUN TIME: 0 days 0 hours 0 minutes 21 seconds 712 msec
