                         Program Version 6.0.0  -   RELEASE  -
|  1> ! pbe def2-sv(p) def2/J RI DEFGRID1 loosescf d4 GCP(DFT/SV(P)) printgap
|  2> %output
|  3>     printlevel normal
|  4> end
|  5> * xyz 0 1
|  6> C 2.0821540359 -2.0509826217 -2.6185469698
|  7> C 2.1765964171 -2.2814347645 -1.1228135397
|  8> O 2.9618048705 -1.2432115417 -0.5015047283
|  9> P 2.2866029602 0.0233934225 0.1864135546
| 10> S 1.1264337297 1.1307982515 -0.9385205096
| 11> O 3.5298639392 0.8415080066 0.6916529355
| 12> C 4.5532831503 0.2898573808 1.5601720101
| 13> C 5.7260284101 -0.2285089587 0.7539047803
| 14> S 1.4135432297 -0.8190039252 1.9484313274
| 15> C -0.2722581565 -0.1899842201 1.8381333792
| 16> S -1.2304264971 -0.9937551507 0.5149749313
| 17> P -2.2809516701 0.6893823277 -0.2718935037
| 18> S -1.9615201356 2.3787464163 0.6694249385
| 19> O -3.7865300437 0.1670491097 -0.3283980073
| 20> C -4.505643584 -0.4363072095 0.7610235527
| 21> C -4.7309085109 0.5187131902 1.9153606326
| 22> O -1.9766221866 0.8544526679 -1.8047959507
| 23> C -2.4378814711 -0.0184658023 -2.8660434435
| 24> C -1.942900645 -1.4402386493 -2.7085628651
| 25> H 1.5972229389 -1.0972497419 -2.818936797
| 26> H 3.0757532337 -2.0285618522 -3.056993554
| 27> H 1.5062233472 -2.8517079196 -3.0714176764
| 28> H 2.707208101 -3.2076605852 -0.8951463017
| 29> H 1.1825988473 -2.3117788366 -0.6644579887
| 30> H 4.8458371327 1.1277183146 2.1954841619
| 31> H 4.1087238875 -0.500266173 2.1717076926
| 32> H 6.1215330647 0.5626519553 0.1227978615
| 33> H 6.5013099097 -0.5655082725 1.4348610181
| 34> H 5.4150386057 -1.0567138869 0.1236669722
| 35> H -0.2718868442 0.8874157646 1.6513515907
| 36> H -0.7306867737 -0.4233042137 2.7961234811
| 37> H -5.4511186459 -0.7374906093 0.3061419939
| 38> H -3.954670544 -1.3221076015 1.0907811015
| 39> H -5.2309756862 1.4196110737 1.5685673395
| 40> H -5.343149073 0.0337525479 2.6687646221
| 41> H -3.7802950354 0.8094809146 2.3590883639
| 42> H -3.5287349081 0.0214010719 -2.88668565
| 43> H -2.0295065145 0.4515625204 -3.7621820461
| 44> H -2.3803817985 -1.9016941337 -1.8245178809
| 45> H -2.2269597268 -2.0132881539 -3.5855147417
| 46> H -0.8606269797 -1.4489165826 -2.6092345073
| 47> *
| 48>
| 49>                          ****END OF INPUT****

CARTESIAN COORDINATES (ANGSTROEM)
---------------------------------
  C      2.082154   -2.050983   -2.618547
  C      2.176596   -2.281435   -1.122814
  O      2.961805   -1.243212   -0.501505
  P      2.286603    0.023393    0.186414
  S      1.126434    1.130798   -0.938521
  O      3.529864    0.841508    0.691653
  C      4.553283    0.289857    1.560172
  C      5.726028   -0.228509    0.753905
  S      1.413543   -0.819004    1.948431
  C     -0.272258   -0.189984    1.838133
  S     -1.230426   -0.993755    0.514975
  P     -2.280952    0.689382   -0.271894
  S     -1.961520    2.378746    0.669425
  O     -3.786530    0.167049   -0.328398
  C     -4.505644   -0.436307    0.761024
  C     -4.730909    0.518713    1.915361
  O     -1.976622    0.854453   -1.804796
  C     -2.437881   -0.018466   -2.866043
  C     -1.942901   -1.440239   -2.708563
  H      1.597223   -1.097250   -2.818937
  H      3.075753   -2.028562   -3.056994
  H      1.506223   -2.851708   -3.071418
  H      2.707208   -3.207661   -0.895146
  H      1.182599   -2.311779   -0.664458
  H      4.845837    1.127718    2.195484
  H      4.108724   -0.500266    2.171708
  H      6.121533    0.562652    0.122798
  H      6.501310   -0.565508    1.434861
  H      5.415039   -1.056714    0.123667
  H     -0.271887    0.887416    1.651352
  H     -0.730687   -0.423304    2.796123
  H     -5.451119   -0.737491    0.306142
  H     -3.954671   -1.322108    1.090781
  H     -5.230976    1.419611    1.568567
  H     -5.343149    0.033753    2.668765
  H     -3.780295    0.809481    2.359088
  H     -3.528735    0.021401   -2.886686
  H     -2.029507    0.451563   -3.762182
  H     -2.380382   -1.901694   -1.824518
  H     -2.226960   -2.013288   -3.585515
  H     -0.860627   -1.448917   -2.609235

 Total Charge           Charge          ....    0
 Multiplicity           Mult            ....    1
 Number of Electrons    NEL             ....  202
 Basis Dimension        Dim             ....  334

ORBITAL ENERGIES
----------------

  NO   OCC          E(Eh)            E(eV)
   0   2.0000     -88.042715     -2395.7641
   1   2.0000     -88.041140     -2395.7212
   2   2.0000     -87.979643     -2394.0478
   3   2.0000     -87.976549     -2393.9636
   4   2.0000     -76.423012     -2079.5759
   5   2.0000     -76.422066     -2079.5501
   6   2.0000     -18.789928      -511.2999
   7   2.0000     -18.789794      -511.2963
   8   2.0000     -18.789597      -511.2909
   9   2.0000     -18.786357      -511.2028
  10   2.0000      -9.958066      -270.9727
  11   2.0000      -9.954633      -270.8793
  12   2.0000      -9.953985      -270.8617
  13   2.0000      -9.953838      -270.8577
  14   2.0000      -9.951407      -270.7916
  15   2.0000      -9.890621      -269.1375
  16   2.0000      -9.886624      -269.0287
  17   2.0000      -9.882587      -268.9189
  18   2.0000      -9.880643      -268.8660
  19   2.0000      -7.687715      -209.1933
  20   2.0000      -7.685171      -209.1241
  21   2.0000      -7.624371      -207.4697
  22   2.0000      -7.621791      -207.3995
  23   2.0000      -6.419707      -174.6891
  24   2.0000      -6.419661      -174.6878
  25   2.0000      -5.715610      -155.5297
  26   2.0000      -5.713017      -155.4591
  27   2.0000      -5.712013      -155.4318
  28   2.0000      -5.709725      -155.3695
  29   2.0000      -5.704916      -155.2386
  30   2.0000      -5.702313      -155.1678
  31   2.0000      -5.653541      -153.8407
  32   2.0000      -5.650968      -153.7707
  33   2.0000      -5.644787      -153.6025
  34   2.0000      -5.644536      -153.5956
  35   2.0000      -5.642214      -153.5324
  36   2.0000      -5.641828      -153.5219
  37   2.0000      -4.642590      -126.3313
  38   2.0000      -4.642403      -126.3262
  39   2.0000      -4.641563      -126.3034
  40   2.0000      -4.641493      -126.3014
  41   2.0000      -4.639918      -126.2586
  42   2.0000      -4.639874      -126.2574
  43   2.0000      -0.986765       -26.8512
  44   2.0000      -0.984729       -26.7958
  45   2.0000      -0.943879       -25.6843
  46   2.0000      -0.939395       -25.5622
  47   2.0000      -0.758973       -20.6527
  48   2.0000      -0.718849       -19.5609
  49   2.0000      -0.711334       -19.3564
  50   2.0000      -0.690801       -18.7977
  51   2.0000      -0.689450       -18.7609
  52   2.0000      -0.675547       -18.3826
  53   2.0000      -0.647797       -17.6275
  54   2.0000      -0.632656       -17.2155
  55   2.0000      -0.590240       -16.0612
  56   2.0000      -0.585139       -15.9225
  57   2.0000      -0.579654       -15.7732
  58   2.0000      -0.572777       -15.5860
  59   2.0000      -0.564925       -15.3724
  60   2.0000      -0.504767       -13.7354
  61   2.0000      -0.494907       -13.4671
  62   2.0000      -0.480154       -13.0657
  63   2.0000      -0.469709       -12.7814
  64   2.0000      -0.450480       -12.2582
  65   2.0000      -0.447197       -12.1688
  66   2.0000      -0.440836       -11.9958
  67   2.0000      -0.434017       -11.8102
  68   2.0000      -0.428320       -11.6552
  69   2.0000      -0.424578       -11.5534
  70   2.0000      -0.406165       -11.0523
  71   2.0000      -0.403919       -10.9912
  72   2.0000      -0.393559       -10.7093
  73   2.0000      -0.391512       -10.6536
  74   2.0000      -0.384526       -10.4635
  75   2.0000      -0.364751        -9.9254
  76   2.0000      -0.358704        -9.7608
  77   2.0000      -0.355793        -9.6816
  78   2.0000      -0.352296        -9.5865
  79   2.0000      -0.350826        -9.5465
  80   2.0000      -0.348216        -9.4754
  81   2.0000      -0.345358        -9.3977
  82   2.0000      -0.341025        -9.2798
  83   2.0000      -0.337888        -9.1944
  84   2.0000      -0.331868        -9.0306
  85   2.0000      -0.317951        -8.6519
  86   2.0000      -0.314907        -8.5691
  87   2.0000      -0.296068        -8.0564
  88   2.0000      -0.293048        -7.9742
  89   2.0000      -0.290929        -7.9166
  90   2.0000      -0.287093        -7.8122
  91   2.0000      -0.276401        -7.5212
  92   2.0000      -0.274233        -7.4623
  93   2.0000      -0.261607        -7.1187
  94   2.0000      -0.254478        -6.9247
  95   2.0000      -0.236520        -6.4360
  96   2.0000      -0.219999        -5.9865
  97   2.0000      -0.207065        -5.6345
  98   2.0000      -0.194458        -5.2915
  99   2.0000      -0.189002        -5.1430
 100   2.0000      -0.181615        -4.9420
 101   0.0000      -0.042321        -1.1516
 102   0.0000      -0.032639        -0.8882
 103   0.0000      -0.011987        -0.3262
 104   0.0000       0.007994         0.2175
 105   0.0000       0.011740         0.3194

MULLIKEN ATOMIC CHARGES
-----------------------
   0 C :   -0.296179
   1 C :   -0.024001
   2 O :   -0.380929
   3 P :    0.586020
   4 S :   -0.281481
   5 O :   -0.349963
   6 C :   -0.018676
   7 C :   -0.290215
   8 S :   -0.134805
   9 C :   -0.318353
  10 S :   -0.139860
  11 P :    0.626608
  12 S :   -0.293152
  13 O :   -0.384115
  14 C :   -0.007181
  15 C :   -0.304213
  16 O :   -0.351886
  17 C :    0.011017
  18 C :   -0.354776
  19 H :    0.141907
  20 H :    0.112830
  21 H :    0.106615
  22 H :    0.103105
  23 H :    0.114463
  24 H :    0.114467
  25 H :    0.107019
  26 H :    0.122139
  27 H :    0.109284
  28 H :    0.123391
  29 H :    0.207696
  30 H :    0.176061
  31 H :    0.102896
  32 H :    0.104449
  33 H :    0.122991
  34 H :    0.107054
  35 H :    0.121709
  36 H :    0.110154
  37 H :    0.112252
  38 H :    0.123176
  39 H :    0.114670
  40 H :    0.147812
Sum of atomic charges:   -0.0000000

LOEWDIN ATOMIC CHARGES
----------------------
   0 C :   -0.364357
   1 C :   -0.118704
   2 O :   -0.250434
   3 P :    0.558452
   4 S :   -0.283349
   5 O :   -0.233127
   6 C :   -0.112485
   7 C :   -0.360124
   8 S :    0.056983
   9 C :   -0.480679
  10 S :    0.064347
  11 P :    0.572113
  12 S :   -0.288135
  13 O :   -0.249436
  14 C :   -0.120266
  15 C :   -0.367777
  16 O :   -0.226527
  17 C :   -0.106154
  18 C :   -0.372620
  19 H :    0.125323
  20 H :    0.125994
  21 H :    0.126891
  22 H :    0.116534
  23 H :    0.101537
  24 H :    0.123534
  25 H :    0.104102
  26 H :    0.130229
  27 H :    0.129188
  28 H :    0.126479
  29 H :    0.125293
  30 H :    0.133303
  31 H :    0.117666
  32 H :    0.101508
  33 H :    0.130046
  34 H :    0.127898
  35 H :    0.119411
  36 H :    0.114429
  37 H :    0.124380
  38 H :    0.115277
  39 H :    0.132367
  40 H :    0.130890

  Mayer bond orders larger than 0.100000
B(  0-C ,  1-C ) :   1.1738 B(  0-C , 19-H ) :   0.9193 B(  0-C , 20-H ) :   0.9435
B(  0-C , 21-H ) :   0.9375 B(  1-C ,  2-O ) :   0.9017 B(  1-C , 22-H ) :   0.9358
B(  1-C , 23-H ) :   0.9029 B(  2-O ,  3-P ) :   1.0704 B(  3-P ,  4-S ) :   1.6722
B(  3-P ,  5-O ) :   1.1462 B(  3-P ,  8-S ) :   0.9339 B(  4-S ,  8-S ) :   0.1154
B(  5-O ,  6-C ) :   0.8941 B(  6-C ,  7-C ) :   1.1642 B(  6-C , 24-H ) :   0.9359
B(  6-C , 25-H ) :   0.9154 B(  7-C , 26-H ) :   0.9465 B(  7-C , 27-H ) :   0.9394
B(  7-C , 28-H ) :   0.9404 B(  8-S ,  9-C ) :   1.0063 B(  9-C , 10-S ) :   0.9868
B(  9-C , 29-H ) :   0.8456 B(  9-C , 30-H ) :   0.9090 B( 10-S , 11-P ) :   0.9255
B( 10-S , 12-S ) :   0.1188 B( 11-P , 12-S ) :   1.6437 B( 11-P , 13-O ) :   1.0647
B( 11-P , 16-O ) :   1.1396 B( 12-S , 29-H ) :   0.1100 B( 13-O , 14-C ) :   0.9190
B( 14-C , 15-C ) :   1.1657 B( 14-C , 31-H ) :   0.9338 B( 14-C , 32-H ) :   0.9162
B( 15-C , 33-H ) :   0.9457 B( 15-C , 34-H ) :   0.9364 B( 15-C , 35-H ) :   0.9325
B( 16-O , 17-C ) :   0.9024 B( 17-C , 18-C ) :   1.1693 B( 17-C , 36-H ) :   0.9281
B( 17-C , 37-H ) :   0.9327 B( 18-C , 38-H ) :   0.9337 B( 18-C , 39-H ) :   0.9343
B( 18-C , 40-H ) :   0.9279

Dispersion correction           -0.066061213
FINAL SINGLE POINT ENERGY     -2929.511662999826

DIPOLE MOMENT
-------------

Method             : SCF
Type of density    : Electron Density
Multiplicity       :   1
Irrep              :   0
Energy             : -2929.6305964098660297 Eh
Relativity type    :
Basis              : AO
                                X                 Y                 Z
Electronic contribution:     -1.202944519      13.714551128       6.346363975
Nuclear contribution   :      1.218395573     -15.830771758      -6.288302323
                        -----------------------------------------
Total Dipole Moment    :      0.015451053      -2.116220630       0.058061653
                        -----------------------------------------
Magnitude (a.u.)       :      2.117073368
Magnitude (Debye)      :      5.381172852

Rotational constants in cm-1:             0.013449             0.004943             0.004436
Rotational constants in MHz :           403.176175           148.198941           132.999885

                             ****ORCA TERMINATED NORMALLY****
TOTAL RUN TIME: 0 days 0 hours 0 minutes 21 seconds 300 msec
