                         Program Version 6.0.0  -   RELEASE  -
|  1> ! pbe def2-sv(p) def2/J RI DEFGRID1 loosescf d4 GCP(DFT/SV(P)) printgap
|  2> %output
|  3>     printlevel normal
|  4> end
|  5> * xyz 0 1
|  6> C 1.7203720092 -2.434531219 1.1415032307
|  7> C 3.1651029809 -2.0435559272 0.9057633051
|  8> O 3.3441752441 -0.6178264732 0.8989250475
|  9> P 2.8703574483 0.3053737036 -0.306501023
| 10> S 3.1268115357 -0.4832773121 -2.0798231548
| 11> O 3.7587560725 1.5921716043 -0.1159398325
| 12> C 3.5831685 2.6303851844 0.8773839078
| 13> C 3.5064696842 2.0858614654 2.2866477694
| 14> S 0.8787963495 0.9595487264 0.1555697184
| 15> C 0.0183114672 0.4105921727 -1.3365587659
| 16> S -1.0621071496 -1.0084048939 -1.0425684588
| 17> P -2.6447027092 0.1034189386 -0.1398563114
| 18> S -3.0560229158 1.8047885218 -1.0121871132
| 19> O -2.2768494281 0.2895346071 1.3745339242
| 20> C -1.9442876736 -0.8147629404 2.2595426635
| 21> C -0.9795418218 -0.2945221409 3.3044022938
| 22> O -3.8220122211 -0.9606604333 -0.0788194704
| 23> C -4.5234987735 -1.3775302002 -1.2689001423
| 24> C -5.7998769879 -2.0685556011 -0.8345655211
| 25> H 1.3412988328 -1.9506719435 2.0376426535
| 26> H 1.1086789972 -2.1432971212 0.2883709929
| 27> H 1.6560749401 -3.5112850416 1.2600983034
| 28> H 3.5246053858 -2.445473509 -0.0470352628
| 29> H 3.8100621355 -2.3831273806 1.7175241354
| 30> H 4.4609704926 3.2621419255 0.7336307911
| 31> H 2.6788729904 3.1914406244 0.6269067835
| 32> H 3.4637185805 2.9151762739 2.9859086277
| 33> H 2.610332488 1.4790273307 2.4024266573
| 34> H 4.3781585097 1.4742240044 2.5028708028
| 35> H 0.7581784631 0.1070359109 -2.0815770607
| 36> H -0.5941326022 1.2392670508 -1.6948322514
| 37> H -2.8765510499 -1.1635810756 2.7062989856
| 38> H -1.5027224674 -1.6206054238 1.6658212061
| 39> H -1.4362712926 0.5195733793 3.8592882401
| 40> H -0.725146191 -1.0984637035 3.9876863463
| 41> H -0.0782415152 0.0796363025 2.8252342282
| 42> H -4.7315997595 -0.492590155 -1.8792300448
| 43> H -3.8718228395 -2.053551056 -1.8289721263
| 44> H -5.5638388725 -2.9243166233 -0.2090625815
| 45> H -6.423309776 -1.380173474 -0.2709568074
| 46> H -6.3401955976 -2.4031836973 -1.7139142557
| 47> *
| 48>
| 49>                          ****END OF INPUT****

CARTESIAN COORDINATES (ANGSTROEM)
---------------------------------
  C      1.720372   -2.434531    1.141503
  C      3.165103   -2.043556    0.905763
  O      3.344175   -0.617826    0.898925
  P      2.870357    0.305374   -0.306501
  S      3.126812   -0.483277   -2.079823
  O      3.758756    1.592172   -0.115940
  C      3.583168    2.630385    0.877384
  C      3.506470    2.085861    2.286648
  S      0.878796    0.959549    0.155570
  C      0.018311    0.410592   -1.336559
  S     -1.062107   -1.008405   -1.042568
  P     -2.644703    0.103419   -0.139856
  S     -3.056023    1.804789   -1.012187
  O     -2.276849    0.289535    1.374534
  C     -1.944288   -0.814763    2.259543
  C     -0.979542   -0.294522    3.304402
  O     -3.822012   -0.960660   -0.078819
  C     -4.523499   -1.377530   -1.268900
  C     -5.799877   -2.068556   -0.834566
  H      1.341299   -1.950672    2.037643
  H      1.108679   -2.143297    0.288371
  H      1.656075   -3.511285    1.260098
  H      3.524605   -2.445474   -0.047035
  H      3.810062   -2.383127    1.717524
  H      4.460970    3.262142    0.733631
  H      2.678873    3.191441    0.626907
  H      3.463719    2.915176    2.985909
  H      2.610332    1.479027    2.402427
  H      4.378159    1.474224    2.502871
  H      0.758178    0.107036   -2.081577
  H     -0.594133    1.239267   -1.694832
  H     -2.876551   -1.163581    2.706299
  H     -1.502722   -1.620605    1.665821
  H     -1.436271    0.519573    3.859288
  H     -0.725146   -1.098464    3.987686
  H     -0.078242    0.079636    2.825234
  H     -4.731600   -0.492590   -1.879230
  H     -3.871823   -2.053551   -1.828972
  H     -5.563839   -2.924317   -0.209063
  H     -6.423310   -1.380173   -0.270957
  H     -6.340196   -2.403184   -1.713914

 Total Charge           Charge          ....    0
 Multiplicity           Mult            ....    1
 Number of Electrons    NEL             ....  202
 Basis Dimension        Dim             ....  334

ORBITAL ENERGIES
----------------

  NO   OCC          E(Eh)            E(eV)
   0   2.0000     -88.046052     -2395.8549
   1   2.0000     -88.045525     -2395.8405
   2   2.0000     -87.989886     -2394.3265
   3   2.0000     -87.986171     -2394.2254
   4   2.0000     -76.429692     -2079.7576
   5   2.0000     -76.427157     -2079.6887
   6   2.0000     -18.797674      -511.5107
   7   2.0000     -18.796592      -511.4813
   8   2.0000     -18.794169      -511.4153
   9   2.0000     -18.793919      -511.4085
  10   2.0000      -9.960306      -271.0337
  11   2.0000      -9.959568      -271.0136
  12   2.0000      -9.957383      -270.9542
  13   2.0000      -9.954780      -270.8833
  14   2.0000      -9.950010      -270.7535
  15   2.0000      -9.893334      -269.2113
  16   2.0000      -9.892046      -269.1763
  17   2.0000      -9.890795      -269.1422
  18   2.0000      -9.887014      -269.0393
  19   2.0000      -7.690445      -209.2677
  20   2.0000      -7.690037      -209.2565
  21   2.0000      -7.635018      -207.7594
  22   2.0000      -7.631455      -207.6624
  23   2.0000      -6.427194      -174.8928
  24   2.0000      -6.425106      -174.8360
  25   2.0000      -5.718215      -155.6005
  26   2.0000      -5.717589      -155.5835
  27   2.0000      -5.714914      -155.5107
  28   2.0000      -5.714606      -155.5023
  29   2.0000      -5.707679      -155.3138
  30   2.0000      -5.707385      -155.3058
  31   2.0000      -5.663926      -154.1233
  32   2.0000      -5.660463      -154.0290
  33   2.0000      -5.655728      -153.9002
  34   2.0000      -5.655051      -153.8818
  35   2.0000      -5.651993      -153.7985
  36   2.0000      -5.651577      -153.7872
  37   2.0000      -4.649827      -126.5282
  38   2.0000      -4.648864      -126.5020
  39   2.0000      -4.647984      -126.4781
  40   2.0000      -4.647697      -126.4703
  41   2.0000      -4.646879      -126.4480
  42   2.0000      -4.645191      -126.4021
  43   2.0000      -0.993113       -27.0240
  44   2.0000      -0.989589       -26.9281
  45   2.0000      -0.949902       -25.8481
  46   2.0000      -0.948220       -25.8024
  47   2.0000      -0.763822       -20.7847
  48   2.0000      -0.726162       -19.7599
  49   2.0000      -0.717083       -19.5128
  50   2.0000      -0.695993       -18.9389
  51   2.0000      -0.694267       -18.8920
  52   2.0000      -0.679915       -18.5014
  53   2.0000      -0.651309       -17.7230
  54   2.0000      -0.639254       -17.3950
  55   2.0000      -0.603550       -16.4234
  56   2.0000      -0.587415       -15.9844
  57   2.0000      -0.579248       -15.7621
  58   2.0000      -0.574676       -15.6377
  59   2.0000      -0.564183       -15.3522
  60   2.0000      -0.514692       -14.0055
  61   2.0000      -0.497047       -13.5253
  62   2.0000      -0.487599       -13.2682
  63   2.0000      -0.476022       -12.9532
  64   2.0000      -0.463414       -12.6101
  65   2.0000      -0.450414       -12.2564
  66   2.0000      -0.444358       -12.0916
  67   2.0000      -0.441879       -12.0241
  68   2.0000      -0.437131       -11.8949
  69   2.0000      -0.425404       -11.5758
  70   2.0000      -0.408167       -11.1068
  71   2.0000      -0.402850       -10.9621
  72   2.0000      -0.397988       -10.8298
  73   2.0000      -0.386448       -10.5158
  74   2.0000      -0.380714       -10.3598
  75   2.0000      -0.373917       -10.1748
  76   2.0000      -0.369203       -10.0465
  77   2.0000      -0.362285        -9.8583
  78   2.0000      -0.359172        -9.7736
  79   2.0000      -0.357555        -9.7296
  80   2.0000      -0.353226        -9.6118
  81   2.0000      -0.350069        -9.5259
  82   2.0000      -0.346789        -9.4366
  83   2.0000      -0.342045        -9.3075
  84   2.0000      -0.339987        -9.2515
  85   2.0000      -0.320944        -8.7333
  86   2.0000      -0.313836        -8.5399
  87   2.0000      -0.305403        -8.3104
  88   2.0000      -0.303553        -8.2601
  89   2.0000      -0.298157        -8.1133
  90   2.0000      -0.295277        -8.0349
  91   2.0000      -0.279930        -7.6173
  92   2.0000      -0.273625        -7.4457
  93   2.0000      -0.265991        -7.2380
  94   2.0000      -0.259867        -7.0713
  95   2.0000      -0.235886        -6.4188
  96   2.0000      -0.223276        -6.0756
  97   2.0000      -0.213236        -5.8024
  98   2.0000      -0.206008        -5.6058
  99   2.0000      -0.205123        -5.5817
 100   2.0000      -0.199811        -5.4371
 101   0.0000      -0.045186        -1.2296
 102   0.0000      -0.032875        -0.8946
 103   0.0000      -0.016735        -0.4554
 104   0.0000       0.004978         0.1355
 105   0.0000       0.012228         0.3327

MULLIKEN ATOMIC CHARGES
-----------------------
   0 C :   -0.341178
   1 C :    0.002884
   2 O :   -0.373346
   3 P :    0.599251
   4 S :   -0.305603
   5 O :   -0.358065
   6 C :   -0.005751
   7 C :   -0.322664
   8 S :   -0.114436
   9 C :   -0.357656
  10 S :   -0.108231
  11 P :    0.595817
  12 S :   -0.307477
  13 O :   -0.353972
  14 C :   -0.014707
  15 C :   -0.305238
  16 O :   -0.387768
  17 C :   -0.012694
  18 C :   -0.280983
  19 H :    0.119461
  20 H :    0.136938
  21 H :    0.110818
  22 H :    0.114343
  23 H :    0.103408
  24 H :    0.114683
  25 H :    0.118713
  26 H :    0.117819
  27 H :    0.130734
  28 H :    0.125919
  29 H :    0.195647
  30 H :    0.197833
  31 H :    0.110268
  32 H :    0.109582
  33 H :    0.121328
  34 H :    0.109600
  35 H :    0.147333
  36 H :    0.109266
  37 H :    0.106216
  38 H :    0.114693
  39 H :    0.122536
  40 H :    0.114678
Sum of atomic charges:    0.0000000

LOEWDIN ATOMIC CHARGES
----------------------
   0 C :   -0.372856
   1 C :   -0.117679
   2 O :   -0.243631
   3 P :    0.571254
   4 S :   -0.297377
   5 O :   -0.235203
   6 C :   -0.113651
   7 C :   -0.366832
   8 S :    0.076194
   9 C :   -0.491358
  10 S :    0.075788
  11 P :    0.562961
  12 S :   -0.307232
  13 O :   -0.233279
  14 C :   -0.112408
  15 C :   -0.357369
  16 O :   -0.252384
  17 C :   -0.118371
  18 C :   -0.350341
  19 H :    0.123220
  20 H :    0.113018
  21 H :    0.130697
  22 H :    0.111625
  23 H :    0.118062
  24 H :    0.124839
  25 H :    0.112821
  26 H :    0.133555
  27 H :    0.117353
  28 H :    0.130620
  29 H :    0.125985
  30 H :    0.127748
  31 H :    0.117587
  32 H :    0.105132
  33 H :    0.130380
  34 H :    0.128857
  35 H :    0.122283
  36 H :    0.111801
  37 H :    0.109889
  38 H :    0.126066
  39 H :    0.129991
  40 H :    0.132244

  Mayer bond orders larger than 0.100000
B(  0-C ,  1-C ) :   1.1610 B(  0-C , 19-H ) :   0.9384 B(  0-C , 20-H ) :   0.9260
B(  0-C , 21-H ) :   0.9370 B(  1-C ,  2-O ) :   0.9130 B(  1-C , 22-H ) :   0.9132
B(  1-C , 23-H ) :   0.9330 B(  2-O ,  3-P ) :   1.0869 B(  3-P ,  4-S ) :   1.6231
B(  3-P ,  5-O ) :   1.1513 B(  3-P ,  8-S ) :   0.9369 B(  4-S ,  8-S ) :   0.1130
B(  4-S , 29-H ) :   0.1208 B(  5-O ,  6-C ) :   0.9014 B(  6-C ,  7-C ) :   1.1687
B(  6-C , 24-H ) :   0.9333 B(  6-C , 25-H ) :   0.9210 B(  7-C , 26-H ) :   0.9345
B(  7-C , 27-H ) :   0.9353 B(  7-C , 28-H ) :   0.9419 B(  8-S ,  9-C ) :   1.0081
B(  9-C , 10-S ) :   1.0082 B(  9-C , 29-H ) :   0.8466 B(  9-C , 30-H ) :   0.8619
B( 10-S , 11-P ) :   0.9471 B( 10-S , 12-S ) :   0.1078 B( 11-P , 12-S ) :   1.6577
B( 11-P , 13-O ) :   1.1502 B( 11-P , 16-O ) :   1.0882 B( 13-O , 14-C ) :   0.8821
B( 14-C , 15-C ) :   1.1704 B( 14-C , 31-H ) :   0.9317 B( 14-C , 32-H ) :   0.9087
B( 15-C , 33-H ) :   0.9452 B( 15-C , 34-H ) :   0.9377 B( 15-C , 35-H ) :   0.9302
B( 16-O , 17-C ) :   0.9025 B( 17-C , 18-C ) :   1.1605 B( 17-C , 36-H ) :   0.9121
B( 17-C , 37-H ) :   0.9289 B( 18-C , 38-H ) :   0.9510 B( 18-C , 39-H ) :   0.9507
B( 18-C , 40-H ) :   0.9415

Dispersion correction           -0.062997929
FINAL SINGLE POINT ENERGY     -2929.519123661969

DIPOLE MOMENT
-------------

Method             : SCF
Type of density    : Electron Density
Multiplicity       :   1
Irrep              :   0
Energy             : -2929.6410889968228730 Eh
Relativity type    :
Basis              : AO
                                X                 Y                 Z
Electronic contribution:      4.058097038       9.937069892     -17.556036868
Nuclear contribution   :     -4.267245432     -11.001573309      19.190136676
                        -----------------------------------------
Total Dipole Moment    :     -0.209148394      -1.064503417       1.634099808
                        -----------------------------------------
Magnitude (a.u.)       :      1.961426205
Magnitude (Debye)      :      4.985549204

Rotational constants in cm-1:             0.012904             0.004234             0.004175
Rotational constants in MHz :           386.853845           126.944771           125.158224

                             ****ORCA TERMINATED NORMALLY****
TOTAL RUN TIME: 0 days 0 hours 0 minutes 20 seconds 707 msec
