                         Program Version 6.0.0  -   RELEASE  -
|  1> ! r2scan-3c def2/J RI DEFGRID2 scfconv6 printgap
|  2> %output
|  3>     printlevel normal
|  4> end
|  5> * xyz 0 1
|  6> S 8.282e-07 -0.0542347485 -0.0
|  7> H -0.9536403034 0.862556062 -0.0
|  8> H 0.9536139606 0.8625813877 5e-10
|  9> *
| 10>
| 11>                          ****END OF INPUT****

CARTESIAN COORDINATES (ANGSTROEM)
---------------------------------
  S      0.000001   -0.054235   -0.000000
  H     -0.953640    0.862556   -0.000000
  H      0.953614    0.862581    0.000000

 Total Charge           Charge          ....    0
 Multiplicity           Mult            ....    1
 Number of Electrons    NEL             ....   18
 Basis Dimension        Dim             ....   37

ORBITAL ENERGIES
----------------

  NO   OCC          E(Eh)            E(eV)
   0   2.0000     -88.563950     -2409.9476
   1   2.0000      -7.860704      -213.9006
   2   2.0000      -5.807236      -158.0229
   3   2.0000      -5.804167      -157.9394
   4   2.0000      -5.798113      -157.7747
   5   2.0000      -0.712910       -19.3993
   6   2.0000      -0.424465       -11.5503
   7   2.0000      -0.343713        -9.3529
   8   2.0000      -0.237579        -6.4649
   9   0.0000       0.012222         0.3326
  10   0.0000       0.064696         1.7605
  11   0.0000       0.230346         6.2680
  12   0.0000       0.260963         7.1012
  13   0.0000       0.263728         7.1764

MULLIKEN ATOMIC CHARGES
-----------------------
   0 S :   -0.339311
   1 H :    0.169656
   2 H :    0.169656
Sum of atomic charges:    0.0000000

LOEWDIN ATOMIC CHARGES
----------------------
   0 S :   -0.247452
   1 H :    0.123727
   2 H :    0.123726

  Mayer bond orders larger than 0.100000
B(  0-S ,  1-H ) :   0.9613 B(  0-S ,  2-H ) :   0.9613

Dispersion correction           -0.000190682
FINAL SINGLE POINT ENERGY      -399.362277079290

DIPOLE MOMENT
-------------

Method             : SCF
Type of density    : Electron Density
Multiplicity       :   1
Irrep              :   0
Energy             :  -399.3670596532693366 Eh
Relativity type    :
Basis              : AO
                                X                 Y                 Z
Electronic contribution:      0.000018455      -1.180367655      -0.000000003
Nuclear contribution   :     -0.000024738       1.620043974       0.000000000
                        -----------------------------------------
Total Dipole Moment    :     -0.000006283       0.439676319      -0.000000002
                        -----------------------------------------
Magnitude (a.u.)       :      0.439676319
Magnitude (Debye)      :      1.117568388

Rotational constants in cm-1:            10.573992             9.194946             4.918184
Rotational constants in MHz :        317000.295971        275657.541433        147443.460131

                             ****ORCA TERMINATED NORMALLY****
TOTAL RUN TIME: 0 days 0 hours 0 minutes 3 seconds 796 msec
