                         Program Version 6.0.0  -   RELEASE  -
|  1> ! r2scan-3c def2/J RI DEFGRID2 scfconv6 printgap
|  2> %output
|  3>     printlevel normal
|  4> end
|  5> %cpcm
|  6>     smd true
|  7>     smdsolvent "water"
|  8> end
|  9> * xyz 0 1
| 10> S 8.282e-07 -0.0542347485 -0.0
| 11> H -0.9536403034 0.862556062 -0.0
| 12> H 0.9536139606 0.8625813877 5e-10
| 13> *
| 14>
| 15>                          ****END OF INPUT****

CARTESIAN COORDINATES (ANGSTROEM)
---------------------------------
  S      0.000001   -0.054235   -0.000000
  H     -0.953640    0.862556   -0.000000
  H      0.953614    0.862581    0.000000

 Total Charge           Charge          ....    0
 Multiplicity           Mult            ....    1
 Number of Electrons    NEL             ....   18
 Basis Dimension        Dim             ....   37

ORBITAL ENERGIES
----------------

  NO   OCC          E(Eh)            E(eV)
   0   2.0000     -88.559414     -2409.8242
   1   2.0000      -7.856355      -213.7823
   2   2.0000      -5.802630      -157.8976
   3   2.0000      -5.799631      -157.8160
   4   2.0000      -5.794221      -157.6688
   5   2.0000      -0.707746       -19.2587
   6   2.0000      -0.416653       -11.3377
   7   2.0000      -0.339799        -9.2464
   8   2.0000      -0.237154        -6.4533
   9   0.0000       0.019852         0.5402
  10   0.0000       0.076490         2.0814
  11   0.0000       0.235974         6.4212
  12   0.0000       0.262089         7.1318
  13   0.0000       0.267386         7.2759

MULLIKEN ATOMIC CHARGES
-----------------------
   0 S :   -0.418549
   1 H :    0.209275
   2 H :    0.209274
Sum of atomic charges:    0.0000000

LOEWDIN ATOMIC CHARGES
----------------------
   0 S :   -0.277160
   1 H :    0.138580
   2 H :    0.138579

  Mayer bond orders larger than 0.100000
B(  0-S ,  1-H ) :   0.9487 B(  0-S ,  2-H ) :   0.9487

Dispersion correction           -0.000190682
FINAL SINGLE POINT ENERGY      -399.364674058916

DIPOLE MOMENT
-------------

Method             : SCF
Type of density    : Electron Density
Multiplicity       :   1
Irrep              :   0
Energy             :  -399.3694566328948099 Eh
Relativity type    :
Basis              : AO
                                X                 Y                 Z
Electronic contribution:      0.000016254      -1.051820316      -0.000000003
Nuclear contribution   :     -0.000024738       1.620043974       0.000000000
                        -----------------------------------------
Total Dipole Moment    :     -0.000008484       0.568223658      -0.000000002
                        -----------------------------------------
Magnitude (a.u.)       :      0.568223658
Magnitude (Debye)      :      1.444309757

Rotational constants in cm-1:            10.573992             9.194946             4.918184
Rotational constants in MHz :        317000.295971        275657.541433        147443.460131

                             ****ORCA TERMINATED NORMALLY****
TOTAL RUN TIME: 0 days 0 hours 0 minutes 4 seconds 790 msec
