                         Program Version 6.0.0  -   RELEASE  -
|  1> ! r2scan-3c def2/J RI DEFGRID2 scfconv6 printgap
|  2> %output
|  3>     printlevel normal
|  4> end
|  5> * xyz 0 1
|  6> C 1.5490621114 -0.093594062 -3.3366956406
|  7> C 2.2759166158 0.137333356 -2.0297130274
|  8> O 1.5306284118 -0.5393760361 -0.9923907834
|  9> P 1.942410224 -0.4168596044 0.527002064
| 10> S 2.4544711734 1.3472605041 1.2249025942
| 11> O 3.1236880489 -1.4830468059 0.5887706829
| 12> C 3.9588508526 -1.6385498056 1.7534677186
| 13> C 5.2961003932 -2.1937163766 1.305726061
| 14> S 0.3669812089 -1.4014135063 1.4978589113
| 15> C -0.5697107247 0.0284091271 2.146278897
| 16> S -2.2590539157 0.094417561 1.5259684722
| 17> P -1.8118159426 0.6177199131 -0.4914188357
| 18> S -0.4732099233 2.0233293935 -0.7448776328
| 19> O -3.2563694538 0.8504821665 -1.1087605808
| 20> C -4.2872400563 1.6699656904 -0.52489934
| 21> C -3.8230059552 3.0812679189 -0.2341466527
| 22> O -1.3485171739 -0.6977204156 -1.222211317
| 23> C -2.1212314345 -1.92386766 -1.2419923228
| 24> C -2.85934386 -2.0633827387 -2.5572030553
| 25> H 1.4913865097 -1.1575486845 -3.5464720943
| 26> H 0.541241416 0.3090837298 -3.2682833758
| 27> H 2.0835473021 0.4093899911 -4.1358492142
| 28> H 2.3211293642 1.2028634893 -1.7788034563
| 29> H 3.2888222923 -0.2728127912 -2.0491105339
| 30> H 4.0711421934 -0.6609260706 2.2346700458
| 31> H 3.4520966751 -2.3221981655 2.4390777221
| 32> H 5.1500604753 -3.134512637 0.7829137047
| 33> H 5.78952633 -1.4918397041 0.6390027769
| 34> H 5.9213149407 -2.3580979677 2.177062573
| 35> H -0.0342216565 0.9444782559 1.8800412727
| 36> H -0.6462520142 -0.0823469365 3.2247942355
| 37> H -5.0793897056 1.6587617975 -1.2756045922
| 38> H -4.6323981287 1.18055393 0.3898123533
| 39> H -3.419816862 3.5420388323 -1.1330087323
| 40> H -4.6601595676 3.6693482636 0.1277182702
| 41> H -3.0417685172 3.0723025552 0.5247946478
| 42> H -1.3818346711 -2.716347356 -1.1085554631
| 43> H -2.8137891408 -1.9237815626 -0.3954385852
| 44> H -2.1556604385 -2.0427960284 -3.3847772701
| 45> H -3.3944127309 -3.007776494 -2.5644439144
| 46> H -3.5665249536 -1.2472375362 -2.6794134057
| 47> *
| 48>
| 49>                          ****END OF INPUT****

CARTESIAN COORDINATES (ANGSTROEM)
---------------------------------
  C      1.549062   -0.093594   -3.336696
  C      2.275917    0.137333   -2.029713
  O      1.530628   -0.539376   -0.992391
  P      1.942410   -0.416860    0.527002
  S      2.454471    1.347261    1.224903
  O      3.123688   -1.483047    0.588771
  C      3.958851   -1.638550    1.753468
  C      5.296100   -2.193716    1.305726
  S      0.366981   -1.401414    1.497859
  C     -0.569711    0.028409    2.146279
  S     -2.259054    0.094418    1.525968
  P     -1.811816    0.617720   -0.491419
  S     -0.473210    2.023329   -0.744878
  O     -3.256369    0.850482   -1.108761
  C     -4.287240    1.669966   -0.524899
  C     -3.823006    3.081268   -0.234147
  O     -1.348517   -0.697720   -1.222211
  C     -2.121231   -1.923868   -1.241992
  C     -2.859344   -2.063383   -2.557203
  H      1.491387   -1.157549   -3.546472
  H      0.541241    0.309084   -3.268283
  H      2.083547    0.409390   -4.135849
  H      2.321129    1.202863   -1.778803
  H      3.288822   -0.272813   -2.049111
  H      4.071142   -0.660926    2.234670
  H      3.452097   -2.322198    2.439078
  H      5.150060   -3.134513    0.782914
  H      5.789526   -1.491840    0.639003
  H      5.921315   -2.358098    2.177063
  H     -0.034222    0.944478    1.880041
  H     -0.646252   -0.082347    3.224794
  H     -5.079390    1.658762   -1.275605
  H     -4.632398    1.180554    0.389812
  H     -3.419817    3.542039   -1.133009
  H     -4.660160    3.669348    0.127718
  H     -3.041769    3.072303    0.524795
  H     -1.381835   -2.716347   -1.108555
  H     -2.813789   -1.923782   -0.395439
  H     -2.155660   -2.042796   -3.384777
  H     -3.394413   -3.007776   -2.564444
  H     -3.566525   -1.247238   -2.679413

 Total Charge           Charge          ....    0
 Multiplicity           Mult            ....    1
 Number of Electrons    NEL             ....  202
 Basis Dimension        Dim             ....  539

ORBITAL ENERGIES
----------------

  NO   OCC          E(Eh)            E(eV)
   0   2.0000     -88.577888     -2410.3269
   1   2.0000     -88.574179     -2410.2259
   2   2.0000     -88.511140     -2408.5106
   3   2.0000     -88.510315     -2408.4881
   4   2.0000     -76.911652     -2092.8724
   5   2.0000     -76.905662     -2092.7095
   6   2.0000     -18.994181      -516.8579
   7   2.0000     -18.986951      -516.6612
   8   2.0000     -18.983799      -516.5754
   9   2.0000     -18.977919      -516.4154
  10   2.0000     -10.106704      -275.0174
  11   2.0000     -10.106211      -275.0040
  12   2.0000     -10.098307      -274.7889
  13   2.0000     -10.091058      -274.5917
  14   2.0000     -10.085840      -274.4496
  15   2.0000     -10.030276      -272.9377
  16   2.0000     -10.028398      -272.8866
  17   2.0000     -10.027262      -272.8557
  18   2.0000     -10.018080      -272.6058
  19   2.0000      -7.872491      -214.2214
  20   2.0000      -7.868742      -214.1194
  21   2.0000      -7.805940      -212.4104
  22   2.0000      -7.805098      -212.3875
  23   2.0000      -6.589889      -179.3200
  24   2.0000      -6.584246      -179.1664
  25   2.0000      -5.819287      -158.3508
  26   2.0000      -5.816066      -158.2632
  27   2.0000      -5.815565      -158.2496
  28   2.0000      -5.812579      -158.1683
  29   2.0000      -5.809907      -158.0956
  30   2.0000      -5.805874      -157.9859
  31   2.0000      -5.753860      -156.5705
  32   2.0000      -5.752731      -156.5398
  33   2.0000      -5.746171      -156.3613
  34   2.0000      -5.745738      -156.3495
  35   2.0000      -5.745590      -156.3455
  36   2.0000      -5.744890      -156.3264
  37   2.0000      -4.735699      -128.8649
  38   2.0000      -4.735248      -128.8526
  39   2.0000      -4.732960      -128.7904
  40   2.0000      -4.729644      -128.7002
  41   2.0000      -4.729106      -128.6855
  42   2.0000      -4.728111      -128.6584
  43   2.0000      -1.050706       -28.5912
  44   2.0000      -1.040621       -28.3167
  45   2.0000      -1.009208       -27.4619
  46   2.0000      -0.999431       -27.1959
  47   2.0000      -0.800408       -21.7802
  48   2.0000      -0.757027       -20.5998
  49   2.0000      -0.748162       -20.3585
  50   2.0000      -0.735034       -20.0013
  51   2.0000      -0.724995       -19.7281
  52   2.0000      -0.708787       -19.2871
  53   2.0000      -0.682188       -18.5633
  54   2.0000      -0.660118       -17.9627
  55   2.0000      -0.621124       -16.9016
  56   2.0000      -0.616650       -16.7799
  57   2.0000      -0.606719       -16.5097
  58   2.0000      -0.598425       -16.2840
  59   2.0000      -0.587761       -15.9938
  60   2.0000      -0.529068       -14.3967
  61   2.0000      -0.522369       -14.2144
  62   2.0000      -0.493590       -13.4313
  63   2.0000      -0.491119       -13.3640
  64   2.0000      -0.471420       -12.8280
  65   2.0000      -0.459215       -12.4959
  66   2.0000      -0.454563       -12.3693
  67   2.0000      -0.450424       -12.2567
  68   2.0000      -0.446638       -12.1536
  69   2.0000      -0.432988       -11.7822
  70   2.0000      -0.428523       -11.6607
  71   2.0000      -0.412151       -11.2152
  72   2.0000      -0.406133       -11.0514
  73   2.0000      -0.400747       -10.9049
  74   2.0000      -0.393348       -10.7035
  75   2.0000      -0.378009       -10.2861
  76   2.0000      -0.372587       -10.1386
  77   2.0000      -0.371916       -10.1204
  78   2.0000      -0.367418        -9.9980
  79   2.0000      -0.360159        -9.8004
  80   2.0000      -0.359405        -9.7799
  81   2.0000      -0.355960        -9.6862
  82   2.0000      -0.353249        -9.6124
  83   2.0000      -0.348209        -9.4752
  84   2.0000      -0.339243        -9.2313
  85   2.0000      -0.332228        -9.0404
  86   2.0000      -0.322000        -8.7621
  87   2.0000      -0.311991        -8.4897
  88   2.0000      -0.309013        -8.4087
  89   2.0000      -0.305182        -8.3044
  90   2.0000      -0.294481        -8.0132
  91   2.0000      -0.291469        -7.9313
  92   2.0000      -0.278248        -7.5715
  93   2.0000      -0.273173        -7.4334
  94   2.0000      -0.269518        -7.3339
  95   2.0000      -0.249901        -6.8002
  96   2.0000      -0.233949        -6.3661
  97   2.0000      -0.223899        -6.0926
  98   2.0000      -0.212131        -5.7724
  99   2.0000      -0.203441        -5.5359
 100   2.0000      -0.192835        -5.2473
 101   0.0000      -0.042033        -1.1438
 102   0.0000      -0.029342        -0.7984
 103   0.0000      -0.011373        -0.3095
 104   0.0000       0.014127         0.3844
 105   0.0000       0.019325         0.5259

MULLIKEN ATOMIC CHARGES
-----------------------
   0 C :   -0.468038
   1 C :   -0.128135
   2 O :   -0.253562
   3 P :    0.673514
   4 S :   -0.474850
   5 O :   -0.294870
   6 C :   -0.144823
   7 C :   -0.450516
   8 S :   -0.146355
   9 C :   -0.219726
  10 S :   -0.171665
  11 P :    0.632397
  12 S :   -0.388721
  13 O :   -0.303611
  14 C :   -0.165092
  15 C :   -0.425739
  16 O :   -0.248662
  17 C :   -0.109924
  18 C :   -0.466557
  19 H :    0.145130
  20 H :    0.180750
  21 H :    0.142001
  22 H :    0.175818
  23 H :    0.145675
  24 H :    0.171696
  25 H :    0.147955
  26 H :    0.152395
  27 H :    0.157073
  28 H :    0.145549
  29 H :    0.219844
  30 H :    0.196477
  31 H :    0.149666
  32 H :    0.150975
  33 H :    0.165024
  34 H :    0.146422
  35 H :    0.172474
  36 H :    0.165281
  37 H :    0.157865
  38 H :    0.155989
  39 H :    0.146254
  40 H :    0.164623
Sum of atomic charges:    0.0000000

LOEWDIN ATOMIC CHARGES
----------------------
   0 C :   -0.390769
   1 C :    0.019129
   2 O :   -0.667875
   3 P :    0.365541
   4 S :   -0.133513
   5 O :   -0.669610
   6 C :    0.016696
   7 C :   -0.388031
   8 S :    0.172739
   9 C :   -0.412572
  10 S :    0.116967
  11 P :    0.379042
  12 S :   -0.060875
  13 O :   -0.668346
  14 C :    0.022580
  15 C :   -0.406089
  16 O :   -0.658383
  17 C :    0.017693
  18 C :   -0.392926
  19 H :    0.156637
  20 H :    0.169995
  21 H :    0.157736
  22 H :    0.183468
  23 H :    0.170071
  24 H :    0.181648
  25 H :    0.170232
  26 H :    0.158816
  27 H :    0.160182
  28 H :    0.159133
  29 H :    0.203754
  30 H :    0.180794
  31 H :    0.181092
  32 H :    0.170896
  33 H :    0.166277
  34 H :    0.157943
  35 H :    0.168036
  36 H :    0.182966
  37 H :    0.175553
  38 H :    0.160429
  39 H :    0.158172
  40 H :    0.164775

  Mayer bond orders larger than 0.100000
B(  0-C ,  1-C ) :   0.9371 B(  0-C , 19-H ) :   0.9729 B(  0-C , 20-H ) :   0.9685
B(  0-C , 21-H ) :   0.9663 B(  1-C ,  2-O ) :   0.7553 B(  1-C , 22-H ) :   0.9515
B(  1-C , 23-H ) :   0.9430 B(  2-O ,  3-P ) :   1.2177 B(  3-P ,  4-S ) :   1.7431
B(  3-P ,  5-O ) :   1.0765 B(  3-P ,  8-S ) :   1.0998 B(  5-O ,  6-C ) :   0.7804
B(  6-C ,  7-C ) :   0.9553 B(  6-C , 24-H ) :   0.9496 B(  6-C , 25-H ) :   0.9470
B(  7-C , 26-H ) :   0.9724 B(  7-C , 27-H ) :   0.9728 B(  7-C , 28-H ) :   0.9657
B(  8-S ,  9-C ) :   0.9001 B(  9-C , 10-S ) :   0.9226 B(  9-C , 29-H ) :   0.9037
B(  9-C , 30-H ) :   0.9142 B( 10-S , 11-P ) :   1.0017 B( 11-P , 12-S ) :   1.8888
B( 11-P , 13-O ) :   1.0331 B( 11-P , 16-O ) :   1.1078 B( 13-O , 14-C ) :   0.8058
B( 14-C , 15-C ) :   0.9438 B( 14-C , 31-H ) :   0.9572 B( 14-C , 32-H ) :   0.9631
B( 15-C , 33-H ) :   0.9641 B( 15-C , 34-H ) :   0.9626 B( 15-C , 35-H ) :   0.9533
B( 16-O , 17-C ) :   0.7325 B( 17-C , 18-C ) :   0.9381 B( 17-C , 36-H ) :   0.9605
B( 17-C , 37-H ) :   0.9627 B( 18-C , 38-H ) :   0.9731 B( 18-C , 39-H ) :   0.9673
B( 18-C , 40-H ) :   0.9697

Dispersion correction           -0.021927231
FINAL SINGLE POINT ENERGY     -2932.457134477045

DIPOLE MOMENT
-------------

Method             : SCF
Type of density    : Electron Density
Multiplicity       :   1
Irrep              :   0
Energy             : -2932.4817647688364559 Eh
Relativity type    :
Basis              : AO
                                X                 Y                 Z
Electronic contribution:     -0.164106172       5.078042131      12.137652351
Nuclear contribution   :     -0.790230784      -6.298777913     -12.276017521
                        -----------------------------------------
Total Dipole Moment    :     -0.954336956      -1.220735782      -0.138365170
                        -----------------------------------------
Magnitude (a.u.)       :      1.555666994
Magnitude (Debye)      :      3.954191253

Rotational constants in cm-1:             0.012777             0.005177             0.004976
Rotational constants in MHz :           383.058241           155.206008           149.186333

                             ****ORCA TERMINATED NORMALLY****
TOTAL RUN TIME: 0 days 0 hours 1 minutes 22 seconds 15 msec
