                         Program Version 6.0.0  -   RELEASE  -
|  1> ! r2scan-3c def2/J RI DEFGRID2 scfconv6 printgap
|  2> %output
|  3>     printlevel normal
|  4> end
|  5> %cpcm
|  6>     smd true
|  7>     smdsolvent "water"
|  8> end
|  9> * xyz 0 1
| 10> C 1.5490621114 -0.093594062 -3.3366956406
| 11> C 2.2759166158 0.137333356 -2.0297130274
| 12> O 1.5306284118 -0.5393760361 -0.9923907834
| 13> P 1.942410224 -0.4168596044 0.527002064
| 14> S 2.4544711734 1.3472605041 1.2249025942
| 15> O 3.1236880489 -1.4830468059 0.5887706829
| 16> C 3.9588508526 -1.6385498056 1.7534677186
| 17> C 5.2961003932 -2.1937163766 1.305726061
| 18> S 0.3669812089 -1.4014135063 1.4978589113
| 19> C -0.5697107247 0.0284091271 2.146278897
| 20> S -2.2590539157 0.094417561 1.5259684722
| 21> P -1.8118159426 0.6177199131 -0.4914188357
| 22> S -0.4732099233 2.0233293935 -0.7448776328
| 23> O -3.2563694538 0.8504821665 -1.1087605808
| 24> C -4.2872400563 1.6699656904 -0.52489934
| 25> C -3.8230059552 3.0812679189 -0.2341466527
| 26> O -1.3485171739 -0.6977204156 -1.222211317
| 27> C -2.1212314345 -1.92386766 -1.2419923228
| 28> C -2.85934386 -2.0633827387 -2.5572030553
| 29> H 1.4913865097 -1.1575486845 -3.5464720943
| 30> H 0.541241416 0.3090837298 -3.2682833758
| 31> H 2.0835473021 0.4093899911 -4.1358492142
| 32> H 2.3211293642 1.2028634893 -1.7788034563
| 33> H 3.2888222923 -0.2728127912 -2.0491105339
| 34> H 4.0711421934 -0.6609260706 2.2346700458
| 35> H 3.4520966751 -2.3221981655 2.4390777221
| 36> H 5.1500604753 -3.134512637 0.7829137047
| 37> H 5.78952633 -1.4918397041 0.6390027769
| 38> H 5.9213149407 -2.3580979677 2.177062573
| 39> H -0.0342216565 0.9444782559 1.8800412727
| 40> H -0.6462520142 -0.0823469365 3.2247942355
| 41> H -5.0793897056 1.6587617975 -1.2756045922
| 42> H -4.6323981287 1.18055393 0.3898123533
| 43> H -3.419816862 3.5420388323 -1.1330087323
| 44> H -4.6601595676 3.6693482636 0.1277182702
| 45> H -3.0417685172 3.0723025552 0.5247946478
| 46> H -1.3818346711 -2.716347356 -1.1085554631
| 47> H -2.8137891408 -1.9237815626 -0.3954385852
| 48> H -2.1556604385 -2.0427960284 -3.3847772701
| 49> H -3.3944127309 -3.007776494 -2.5644439144
| 50> H -3.5665249536 -1.2472375362 -2.6794134057
| 51> *
| 52>
| 53>                          ****END OF INPUT****

CARTESIAN COORDINATES (ANGSTROEM)
---------------------------------
  C      1.549062   -0.093594   -3.336696
  C      2.275917    0.137333   -2.029713
  O      1.530628   -0.539376   -0.992391
  P      1.942410   -0.416860    0.527002
  S      2.454471    1.347261    1.224903
  O      3.123688   -1.483047    0.588771
  C      3.958851   -1.638550    1.753468
  C      5.296100   -2.193716    1.305726
  S      0.366981   -1.401414    1.497859
  C     -0.569711    0.028409    2.146279
  S     -2.259054    0.094418    1.525968
  P     -1.811816    0.617720   -0.491419
  S     -0.473210    2.023329   -0.744878
  O     -3.256369    0.850482   -1.108761
  C     -4.287240    1.669966   -0.524899
  C     -3.823006    3.081268   -0.234147
  O     -1.348517   -0.697720   -1.222211
  C     -2.121231   -1.923868   -1.241992
  C     -2.859344   -2.063383   -2.557203
  H      1.491387   -1.157549   -3.546472
  H      0.541241    0.309084   -3.268283
  H      2.083547    0.409390   -4.135849
  H      2.321129    1.202863   -1.778803
  H      3.288822   -0.272813   -2.049111
  H      4.071142   -0.660926    2.234670
  H      3.452097   -2.322198    2.439078
  H      5.150060   -3.134513    0.782914
  H      5.789526   -1.491840    0.639003
  H      5.921315   -2.358098    2.177063
  H     -0.034222    0.944478    1.880041
  H     -0.646252   -0.082347    3.224794
  H     -5.079390    1.658762   -1.275605
  H     -4.632398    1.180554    0.389812
  H     -3.419817    3.542039   -1.133009
  H     -4.660160    3.669348    0.127718
  H     -3.041769    3.072303    0.524795
  H     -1.381835   -2.716347   -1.108555
  H     -2.813789   -1.923782   -0.395439
  H     -2.155660   -2.042796   -3.384777
  H     -3.394413   -3.007776   -2.564444
  H     -3.566525   -1.247238   -2.679413

 Total Charge           Charge          ....    0
 Multiplicity           Mult            ....    1
 Number of Electrons    NEL             ....  202
 Basis Dimension        Dim             ....  539

ORBITAL ENERGIES
----------------

  NO   OCC          E(Eh)            E(eV)
   0   2.0000     -88.580146     -2410.3883
   1   2.0000     -88.580134     -2410.3880
   2   2.0000     -88.523409     -2408.8444
   3   2.0000     -88.520841     -2408.7745
   4   2.0000     -76.917371     -2093.0281
   5   2.0000     -76.916221     -2092.9968
   6   2.0000     -18.994315      -516.8616
   7   2.0000     -18.991366      -516.7813
   8   2.0000     -18.991355      -516.7810
   9   2.0000     -18.988628      -516.7068
  10   2.0000     -10.106238      -275.0047
  11   2.0000     -10.093390      -274.6551
  12   2.0000     -10.090093      -274.5654
  13   2.0000     -10.087390      -274.4918
  14   2.0000     -10.087021      -274.4818
  15   2.0000     -10.018719      -272.6232
  16   2.0000     -10.018243      -272.6103
  17   2.0000     -10.018115      -272.6068
  18   2.0000     -10.017331      -272.5854
  19   2.0000      -7.874653      -214.2802
  20   2.0000      -7.874624      -214.2794
  21   2.0000      -7.818527      -212.7529
  22   2.0000      -7.816023      -212.6848
  23   2.0000      -6.595643      -179.4766
  24   2.0000      -6.594844      -179.4548
  25   2.0000      -5.821479      -158.4105
  26   2.0000      -5.821453      -158.4098
  27   2.0000      -5.818492      -158.3292
  28   2.0000      -5.818228      -158.3220
  29   2.0000      -5.811993      -158.1524
  30   2.0000      -5.811796      -158.1470
  31   2.0000      -5.766077      -156.9029
  32   2.0000      -5.763821      -156.8416
  33   2.0000      -5.759032      -156.7112
  34   2.0000      -5.758329      -156.6921
  35   2.0000      -5.756321      -156.6375
  36   2.0000      -5.755798      -156.6232
  37   2.0000      -4.741394      -129.0199
  38   2.0000      -4.740962      -129.0081
  39   2.0000      -4.740209      -128.9876
  40   2.0000      -4.739694      -128.9736
  41   2.0000      -4.738855      -128.9508
  42   2.0000      -4.738785      -128.9489
  43   2.0000      -1.052557       -28.6415
  44   2.0000      -1.049398       -28.5556
  45   2.0000      -1.010853       -27.5067
  46   2.0000      -1.007729       -27.4217
  47   2.0000      -0.802810       -21.8456
  48   2.0000      -0.756705       -20.5910
  49   2.0000      -0.745620       -20.2894
  50   2.0000      -0.726062       -19.7572
  51   2.0000      -0.722682       -19.6652
  52   2.0000      -0.710437       -19.3320
  53   2.0000      -0.687226       -18.7004
  54   2.0000      -0.669139       -18.2082
  55   2.0000      -0.622677       -16.9439
  56   2.0000      -0.615041       -16.7361
  57   2.0000      -0.600937       -16.3523
  58   2.0000      -0.596597       -16.2342
  59   2.0000      -0.589033       -16.0284
  60   2.0000      -0.530148       -14.4261
  61   2.0000      -0.520240       -14.1564
  62   2.0000      -0.496029       -13.4976
  63   2.0000      -0.488319       -13.2878
  64   2.0000      -0.470104       -12.7922
  65   2.0000      -0.460542       -12.5320
  66   2.0000      -0.451781       -12.2936
  67   2.0000      -0.450585       -12.2610
  68   2.0000      -0.444976       -12.1084
  69   2.0000      -0.432990       -11.7822
  70   2.0000      -0.423748       -11.5308
  71   2.0000      -0.411912       -11.2087
  72   2.0000      -0.408697       -11.1212
  73   2.0000      -0.397590       -10.8190
  74   2.0000      -0.392820       -10.6892
  75   2.0000      -0.379957       -10.3392
  76   2.0000      -0.372516       -10.1367
  77   2.0000      -0.367225        -9.9927
  78   2.0000      -0.361184        -9.8283
  79   2.0000      -0.357042        -9.7156
  80   2.0000      -0.353357        -9.6153
  81   2.0000      -0.351349        -9.5607
  82   2.0000      -0.347413        -9.4536
  83   2.0000      -0.345750        -9.4083
  84   2.0000      -0.341267        -9.2863
  85   2.0000      -0.329575        -8.9682
  86   2.0000      -0.324785        -8.8378
  87   2.0000      -0.310450        -8.4478
  88   2.0000      -0.308585        -8.3970
  89   2.0000      -0.305909        -8.3242
  90   2.0000      -0.296736        -8.0746
  91   2.0000      -0.290884        -7.9154
  92   2.0000      -0.282238        -7.6801
  93   2.0000      -0.276986        -7.5372
  94   2.0000      -0.273042        -7.4298
  95   2.0000      -0.253629        -6.9016
  96   2.0000      -0.241549        -6.5729
  97   2.0000      -0.235628        -6.4118
  98   2.0000      -0.223911        -6.0929
  99   2.0000      -0.213774        -5.8171
 100   2.0000      -0.205007        -5.5785
 101   0.0000      -0.046699        -1.2707
 102   0.0000      -0.036406        -0.9907
 103   0.0000      -0.015029        -0.4090
 104   0.0000       0.007371         0.2006
 105   0.0000       0.017205         0.4682

MULLIKEN ATOMIC CHARGES
-----------------------
   0 C :   -0.510190
   1 C :   -0.123345
   2 O :   -0.280708
   3 P :    0.701462
   4 S :   -0.531891
   5 O :   -0.321877
   6 C :   -0.139983
   7 C :   -0.488496
   8 S :   -0.144969
   9 C :   -0.219196
  10 S :   -0.165646
  11 P :    0.654670
  12 S :   -0.450813
  13 O :   -0.325620
  14 C :   -0.164042
  15 C :   -0.463957
  16 O :   -0.281745
  17 C :   -0.098861
  18 C :   -0.506923
  19 H :    0.166608
  20 H :    0.170990
  21 H :    0.169312
  22 H :    0.174284
  23 H :    0.170533
  24 H :    0.170597
  25 H :    0.170099
  26 H :    0.165131
  27 H :    0.165961
  28 H :    0.169042
  29 H :    0.212538
  30 H :    0.238474
  31 H :    0.177850
  32 H :    0.172569
  33 H :    0.169222
  34 H :    0.173114
  35 H :    0.165115
  36 H :    0.180546
  37 H :    0.173001
  38 H :    0.166711
  39 H :    0.170985
  40 H :    0.169450
Sum of atomic charges:    0.0000000

LOEWDIN ATOMIC CHARGES
----------------------
   0 C :   -0.394646
   1 C :    0.021142
   2 O :   -0.686113
   3 P :    0.369235
   4 S :   -0.171163
   5 O :   -0.682742
   6 C :    0.021131
   7 C :   -0.391441
   8 S :    0.176393
   9 C :   -0.407176
  10 S :    0.131000
  11 P :    0.382386
  12 S :   -0.103990
  13 O :   -0.675307
  14 C :    0.030173
  15 C :   -0.410331
  16 O :   -0.679680
  17 C :    0.023682
  18 C :   -0.395418
  19 H :    0.162908
  20 H :    0.164031
  21 H :    0.168107
  22 H :    0.182679
  23 H :    0.179710
  24 H :    0.181433
  25 H :    0.179175
  26 H :    0.162707
  27 H :    0.161944
  28 H :    0.168381
  29 H :    0.200558
  30 H :    0.197494
  31 H :    0.193093
  32 H :    0.179202
  33 H :    0.164240
  34 H :    0.167939
  35 H :    0.162020
  36 H :    0.189177
  37 H :    0.182148
  38 H :    0.162700
  39 H :    0.168354
  40 H :    0.164865

  Mayer bond orders larger than 0.100000
B(  0-C ,  1-C ) :   0.9270 B(  0-C , 19-H ) :   0.9692 B(  0-C , 20-H ) :   0.9712
B(  0-C , 21-H ) :   0.9603 B(  1-C ,  2-O ) :   0.7482 B(  1-C , 22-H ) :   0.9486
B(  1-C , 23-H ) :   0.9346 B(  2-O ,  3-P ) :   1.2158 B(  3-P ,  4-S ) :   1.6936
B(  3-P ,  5-O ) :   1.0831 B(  3-P ,  8-S ) :   1.1298 B(  5-O ,  6-C ) :   0.7720
B(  6-C ,  7-C ) :   0.9526 B(  6-C , 24-H ) :   0.9476 B(  6-C , 25-H ) :   0.9379
B(  7-C , 26-H ) :   0.9692 B(  7-C , 27-H ) :   0.9698 B(  7-C , 28-H ) :   0.9595
B(  8-S ,  9-C ) :   0.8918 B(  9-C , 10-S ) :   0.9158 B(  9-C , 29-H ) :   0.9082
B(  9-C , 30-H ) :   0.8978 B( 10-S , 11-P ) :   1.0197 B( 11-P , 12-S ) :   1.8468
B( 11-P , 13-O ) :   1.0500 B( 11-P , 16-O ) :   1.1142 B( 13-O , 14-C ) :   0.7957
B( 14-C , 15-C ) :   0.9211 B( 14-C , 31-H ) :   0.9479 B( 14-C , 32-H ) :   0.9593
B( 15-C , 33-H ) :   0.9655 B( 15-C , 34-H ) :   0.9567 B( 15-C , 35-H ) :   0.9577
B( 16-O , 17-C ) :   0.7219 B( 17-C , 18-C ) :   0.9319 B( 17-C , 36-H ) :   0.9519
B( 17-C , 37-H ) :   0.9527 B( 18-C , 38-H ) :   0.9712 B( 18-C , 39-H ) :   0.9604
B( 18-C , 40-H ) :   0.9685

Dispersion correction           -0.021927231
FINAL SINGLE POINT ENERGY     -2932.467037456317

DIPOLE MOMENT
-------------

Method             : SCF
Type of density    : Electron Density
Multiplicity       :   1
Irrep              :   0
Energy             : -2932.4916677481082843 Eh
Relativity type    :
Basis              : AO
                                X                 Y                 Z
Electronic contribution:     -0.633081711       4.497246136      12.398313530
Nuclear contribution   :     -0.790230784      -6.298777913     -12.276017521
                        -----------------------------------------
Total Dipole Moment    :     -1.423312495      -1.801531776       0.122296009
                        -----------------------------------------
Magnitude (a.u.)       :      2.299193666
Magnitude (Debye)      :      5.844085861

Rotational constants in cm-1:             0.012777             0.005177             0.004976
Rotational constants in MHz :           383.058241           155.206008           149.186333

                             ****ORCA TERMINATED NORMALLY****
TOTAL RUN TIME: 0 days 0 hours 1 minutes 53 seconds 500 msec
