                         Program Version 6.0.0  -   RELEASE  -
|  1> ! pbe def2-sv(p) def2/J RI DEFGRID1 loosescf d4 GCP(DFT/SV(P)) printgap
|  2> %output
|  3>     printlevel normal
|  4> end
|  5> * xyz 0 1
|  6> C -0.7249381556 -0.0138210415 -1.21736e-05
|  7> O 0.6847608682 0.0650737059 -2.2376e-06
|  8> H -1.095709952 -0.5250173701 -0.8924947502
|  9> H -1.0923976361 1.0106129278 -7.36292e-05
| 10> H -1.0959033192 -0.5247381851 0.8926140554
| 11> H 1.053001125 -0.8291025456 0.0001349044
| 12> *
| 13>
| 14>                          ****END OF INPUT****

CARTESIAN COORDINATES (ANGSTROEM)
---------------------------------
  C     -0.724938   -0.013821   -0.000012
  O      0.684761    0.065074   -0.000002
  H     -1.095710   -0.525017   -0.892495
  H     -1.092398    1.010613   -0.000074
  H     -1.095903   -0.524738    0.892614
  H      1.053001   -0.829103    0.000135

 Total Charge           Charge          ....    0
 Multiplicity           Mult            ....    1
 Number of Electrons    NEL             ....   18
 Basis Dimension        Dim             ....   36

ORBITAL ENERGIES
----------------

  NO   OCC          E(Eh)            E(eV)
   0   2.0000     -18.736632      -509.8497
   1   2.0000      -9.921555      -269.9792
   2   2.0000      -0.910736       -24.7824
   3   2.0000      -0.606630       -16.5073
   4   2.0000      -0.451058       -12.2739
   5   2.0000      -0.385810       -10.4984
   6   2.0000      -0.372422       -10.1341
   7   2.0000      -0.273198        -7.4341
   8   2.0000      -0.208438        -5.6719
   9   0.0000       0.030611         0.8330
  10   0.0000       0.076727         2.0878
  11   0.0000       0.115024         3.1300
  12   0.0000       0.116641         3.1740
  13   0.0000       0.162564         4.4236

MULLIKEN ATOMIC CHARGES
-----------------------
   0 C :   -0.126471
   1 O :   -0.456037
   2 H :    0.087881
   3 H :    0.112361
   4 H :    0.087872
   5 H :    0.294393
Sum of atomic charges:   -0.0000000

LOEWDIN ATOMIC CHARGES
----------------------
   0 C :   -0.221126
   1 O :   -0.362919
   2 H :    0.093975
   3 H :    0.114961
   4 H :    0.093965
   5 H :    0.281144

  Mayer bond orders larger than 0.100000
B(  0-C ,  1-O ) :   1.0667 B(  0-C ,  2-H ) :   0.9520 B(  0-C ,  3-H ) :   0.9661
B(  0-C ,  4-H ) :   0.9520 B(  1-O ,  5-H ) :   0.8599

Dispersion correction           -0.001525874
FINAL SINGLE POINT ENERGY      -115.442341943334

DIPOLE MOMENT
-------------

Method             : SCF
Type of density    : Electron Density
Multiplicity       :   1
Irrep              :   0
Energy             :  -115.4703080995706586 Eh
Relativity type    :
Basis              : AO
                                X                 Y                 Z
Electronic contribution:      1.805515381       0.227337466      -0.000090588
Nuclear contribution   :     -2.082882974      -0.813595174       0.000169382
                        -----------------------------------------
Total Dipole Moment    :     -0.277367593      -0.586257708       0.000078795
                        -----------------------------------------
Magnitude (a.u.)       :      0.648560628
Magnitude (Debye)      :      1.648510108

Rotational constants in cm-1:             4.263530             0.836130             0.806458
Rotational constants in MHz :        127817.403344         25066.553462         24176.998526

                             ****ORCA TERMINATED NORMALLY****
TOTAL RUN TIME: 0 days 0 hours 0 minutes 3 seconds 554 msec
