                         Program Version 6.0.0  -   RELEASE  -
|  1> ! pbe def2-sv(p) def2/J RI DEFGRID1 loosescf d4 GCP(DFT/SV(P)) printgap
|  2> %output
|  3>     printlevel normal
|  4> end
|  5> * xyz 0 1
|  6> C 2.8070212778 -0.9008251501 3.1548787776
|  7> C 2.0668934064 0.3404361334 2.704572705
|  8> O 1.411386034 0.1566939352 1.4263873556
|  9> P 2.1681455394 -0.2088354456 0.0871569774
| 10> S 2.6670143515 -2.0847849725 -0.2249173631
| 11> O 3.3816509577 0.8138333438 0.106978546
| 12> C 4.4760169041 0.727112165 -0.8274087414
| 13> C 5.7128838411 1.293522878 -0.1589858001
| 14> S 0.8358002195 0.5832960572 -1.3623366885
| 15> C -0.1508140596 -0.921118226 -1.5673971769
| 16> S -1.1701998671 -1.2857482881 -0.120892566
| 17> P -2.5617537533 0.3070760315 -0.433373934
| 18> S -3.030624647 0.6771638408 -2.2929998377
| 19> O -1.9368660426 1.5675152079 0.2770651095
| 20> C -1.626749276 1.611430065 1.6928547166
| 21> C -0.7248918745 2.8062583731 1.921983975
| 22> O -3.7669272654 -0.0510290309 0.5408287634
| 23> C -4.8767828842 -0.874700354 0.1357914893
| 24> C -4.459991857 -2.2992216065 -0.1658016847
| 25> H 2.1354483286 -1.7561523045 3.174996924
| 26> H 3.6228495272 -1.1227030079 2.4681068556
| 27> H 3.2135553163 -0.7384188066 4.148210761
| 28> H 2.7436900242 1.192996341 2.6213272471
| 29> H 1.2437770206 0.58123953 3.3791592779
| 30> H 4.6166857373 -0.3229366075 -1.1057886992
| 31> H 4.2030094977 1.3010097337 -1.7160992586
| 32> H 6.5380468585 1.2696360591 -0.8631141863
| 33> H 5.5326552845 2.3196808934 0.1479989141
| 34> H 5.973034128 0.702534461 0.7148405064
| 35> H 0.514034494 -1.7735180743 -1.7102418954
| 36> H -0.7929474041 -0.7615154193 -2.4340292516
| 37> H -2.5675831838 1.701297566 2.23914976
| 38> H -1.1352256394 0.6735586856 1.9689772242
| 39> H -0.5129634115 2.8987620388 2.9822930759
| 40> H 0.2061184508 2.6806988891 1.3750441042
| 41> H -1.214366578 3.7102873246 1.5712271379
| 42> H -5.5577976507 -0.825059143 0.9866154707
| 43> H -5.3413681107 -0.4163044676 -0.7423181561
| 44> H -3.8966788974 -2.7150254005 0.6659355636
| 45> H -5.3457379968 -2.9017404689 -0.3394926057
| 46> H -3.8371359232 -2.3239797529 -1.0587476236
| 47> *
| 48>
| 49>                          ****END OF INPUT****

CARTESIAN COORDINATES (ANGSTROEM)
---------------------------------
  C      2.807021   -0.900825    3.154879
  C      2.066893    0.340436    2.704573
  O      1.411386    0.156694    1.426387
  P      2.168146   -0.208835    0.087157
  S      2.667014   -2.084785   -0.224917
  O      3.381651    0.813833    0.106979
  C      4.476017    0.727112   -0.827409
  C      5.712884    1.293523   -0.158986
  S      0.835800    0.583296   -1.362337
  C     -0.150814   -0.921118   -1.567397
  S     -1.170200   -1.285748   -0.120893
  P     -2.561754    0.307076   -0.433374
  S     -3.030625    0.677164   -2.293000
  O     -1.936866    1.567515    0.277065
  C     -1.626749    1.611430    1.692855
  C     -0.724892    2.806258    1.921984
  O     -3.766927   -0.051029    0.540829
  C     -4.876783   -0.874700    0.135791
  C     -4.459992   -2.299222   -0.165802
  H      2.135448   -1.756152    3.174997
  H      3.622850   -1.122703    2.468107
  H      3.213555   -0.738419    4.148211
  H      2.743690    1.192996    2.621327
  H      1.243777    0.581240    3.379159
  H      4.616686   -0.322937   -1.105789
  H      4.203009    1.301010   -1.716099
  H      6.538047    1.269636   -0.863114
  H      5.532655    2.319681    0.147999
  H      5.973034    0.702534    0.714841
  H      0.514034   -1.773518   -1.710242
  H     -0.792947   -0.761515   -2.434029
  H     -2.567583    1.701298    2.239150
  H     -1.135226    0.673559    1.968977
  H     -0.512963    2.898762    2.982293
  H      0.206118    2.680699    1.375044
  H     -1.214367    3.710287    1.571227
  H     -5.557798   -0.825059    0.986615
  H     -5.341368   -0.416304   -0.742318
  H     -3.896679   -2.715025    0.665936
  H     -5.345738   -2.901740   -0.339493
  H     -3.837136   -2.323980   -1.058748

 Total Charge           Charge          ....    0
 Multiplicity           Mult            ....    1
 Number of Electrons    NEL             ....  202
 Basis Dimension        Dim             ....  334

ORBITAL ENERGIES
----------------

  NO   OCC          E(Eh)            E(eV)
   0   2.0000     -88.038511     -2395.6497
   1   2.0000     -88.037127     -2395.6120
   2   2.0000     -87.989215     -2394.3083
   3   2.0000     -87.983263     -2394.1463
   4   2.0000     -76.430203     -2079.7716
   5   2.0000     -76.422691     -2079.5671
   6   2.0000     -18.801981      -511.6279
   7   2.0000     -18.796293      -511.4731
   8   2.0000     -18.793036      -511.3845
   9   2.0000     -18.786415      -511.2044
  10   2.0000      -9.962383      -271.0902
  11   2.0000      -9.957765      -270.9646
  12   2.0000      -9.952750      -270.8281
  13   2.0000      -9.949935      -270.7515
  14   2.0000      -9.947362      -270.6815
  15   2.0000      -9.893767      -269.2231
  16   2.0000      -9.888720      -269.0857
  17   2.0000      -9.884250      -268.9641
  18   2.0000      -9.882609      -268.9195
  19   2.0000      -7.683818      -209.0873
  20   2.0000      -7.681945      -209.0363
  21   2.0000      -7.634219      -207.7377
  22   2.0000      -7.628609      -207.5850
  23   2.0000      -6.427718      -174.9071
  24   2.0000      -6.420231      -174.7034
  25   2.0000      -5.711649      -155.4219
  26   2.0000      -5.709634      -155.3670
  27   2.0000      -5.708537      -155.3372
  28   2.0000      -5.706600      -155.2845
  29   2.0000      -5.700617      -155.1217
  30   2.0000      -5.698996      -155.0776
  31   2.0000      -5.663005      -154.0982
  32   2.0000      -5.657536      -153.9494
  33   2.0000      -5.654971      -153.8796
  34   2.0000      -5.654391      -153.8638
  35   2.0000      -5.649143      -153.7210
  36   2.0000      -5.648796      -153.7116
  37   2.0000      -4.650764      -126.5537
  38   2.0000      -4.649253      -126.5126
  39   2.0000      -4.647936      -126.4768
  40   2.0000      -4.643159      -126.3468
  41   2.0000      -4.641845      -126.3110
  42   2.0000      -4.640524      -126.2751
  43   2.0000      -0.994801       -27.0699
  44   2.0000      -0.985459       -26.8157
  45   2.0000      -0.951118       -25.8812
  46   2.0000      -0.941553       -25.6210
  47   2.0000      -0.762132       -20.7387
  48   2.0000      -0.723666       -19.6919
  49   2.0000      -0.710913       -19.3449
  50   2.0000      -0.696354       -18.9488
  51   2.0000      -0.687525       -18.7085
  52   2.0000      -0.674420       -18.3519
  53   2.0000      -0.650014       -17.6878
  54   2.0000      -0.636152       -17.3106
  55   2.0000      -0.599158       -16.3039
  56   2.0000      -0.590444       -16.0668
  57   2.0000      -0.579056       -15.7569
  58   2.0000      -0.568513       -15.4700
  59   2.0000      -0.558156       -15.1882
  60   2.0000      -0.511318       -13.9137
  61   2.0000      -0.501410       -13.6441
  62   2.0000      -0.480487       -13.0747
  63   2.0000      -0.472349       -12.8533
  64   2.0000      -0.460920       -12.5423
  65   2.0000      -0.446776       -12.1574
  66   2.0000      -0.444747       -12.1022
  67   2.0000      -0.436285       -11.8719
  68   2.0000      -0.428639       -11.6639
  69   2.0000      -0.418082       -11.3766
  70   2.0000      -0.412969       -11.2375
  71   2.0000      -0.402482       -10.9521
  72   2.0000      -0.389246       -10.5919
  73   2.0000      -0.382689       -10.4135
  74   2.0000      -0.375081       -10.2065
  75   2.0000      -0.374706       -10.1963
  76   2.0000      -0.363326        -9.8866
  77   2.0000      -0.360459        -9.8086
  78   2.0000      -0.358387        -9.7522
  79   2.0000      -0.353591        -9.6217
  80   2.0000      -0.351766        -9.5720
  81   2.0000      -0.345350        -9.3975
  82   2.0000      -0.343684        -9.3521
  83   2.0000      -0.338173        -9.2022
  84   2.0000      -0.336589        -9.1590
  85   2.0000      -0.323554        -8.8043
  86   2.0000      -0.311150        -8.4668
  87   2.0000      -0.305889        -8.3237
  88   2.0000      -0.299040        -8.1373
  89   2.0000      -0.295091        -8.0298
  90   2.0000      -0.293021        -7.9735
  91   2.0000      -0.280730        -7.6391
  92   2.0000      -0.267317        -7.2741
  93   2.0000      -0.262807        -7.1513
  94   2.0000      -0.257402        -7.0043
  95   2.0000      -0.234305        -6.3758
  96   2.0000      -0.215814        -5.8726
  97   2.0000      -0.212867        -5.7924
  98   2.0000      -0.202686        -5.5154
  99   2.0000      -0.198614        -5.4046
 100   2.0000      -0.197397        -5.3715
 101   0.0000      -0.044388        -1.2078
 102   0.0000      -0.022248        -0.6054
 103   0.0000      -0.001684        -0.0458
 104   0.0000       0.002241         0.0610
 105   0.0000       0.014170         0.3856

MULLIKEN ATOMIC CHARGES
-----------------------
   0 C :   -0.310039
   1 C :   -0.009698
   2 O :   -0.365775
   3 P :    0.627998
   4 S :   -0.331757
   5 O :   -0.389200
   6 C :   -0.010518
   7 C :   -0.286688
   8 S :   -0.069844
   9 C :   -0.383021
  10 S :   -0.086524
  11 P :    0.607248
  12 S :   -0.316434
  13 O :   -0.354782
  14 C :   -0.018770
  15 C :   -0.285823
  16 O :   -0.388042
  17 C :    0.000867
  18 C :   -0.318504
  19 H :    0.127743
  20 H :    0.128458
  21 H :    0.110758
  22 H :    0.111631
  23 H :    0.107088
  24 H :    0.110334
  25 H :    0.107835
  26 H :    0.115669
  27 H :    0.117339
  28 H :    0.117854
  29 H :    0.196495
  30 H :    0.193664
  31 H :    0.103883
  32 H :    0.115154
  33 H :    0.102448
  34 H :    0.125420
  35 H :    0.119569
  36 H :    0.103748
  37 H :    0.113030
  38 H :    0.118024
  39 H :    0.113278
  40 H :    0.129885
Sum of atomic charges:   -0.0000000

LOEWDIN ATOMIC CHARGES
----------------------
   0 C :   -0.366323
   1 C :   -0.109511
   2 O :   -0.239089
   3 P :    0.571414
   4 S :   -0.315613
   5 O :   -0.248911
   6 C :   -0.119655
   7 C :   -0.351309
   8 S :    0.085580
   9 C :   -0.491052
  10 S :    0.079271
  11 P :    0.572347
  12 S :   -0.311843
  13 O :   -0.234773
  14 C :   -0.115822
  15 C :   -0.352328
  16 O :   -0.250635
  17 C :   -0.115339
  18 C :   -0.371102
  19 H :    0.131797
  20 H :    0.121448
  21 H :    0.129743
  22 H :    0.113603
  23 H :    0.117059
  24 H :    0.108789
  25 H :    0.114924
  26 H :    0.132857
  27 H :    0.126688
  28 H :    0.126593
  29 H :    0.127630
  30 H :    0.127980
  31 H :    0.112050
  32 H :    0.105363
  33 H :    0.124752
  34 H :    0.125598
  35 H :    0.129168
  36 H :    0.118126
  37 H :    0.113439
  38 H :    0.123485
  39 H :    0.131259
  40 H :    0.122344

  Mayer bond orders larger than 0.100000
B(  0-C ,  1-C ) :   1.1702 B(  0-C , 19-H ) :   0.9440 B(  0-C , 20-H ) :   0.9341
B(  0-C , 21-H ) :   0.9352 B(  1-C ,  2-O ) :   0.8999 B(  1-C , 22-H ) :   0.9298
B(  1-C , 23-H ) :   0.9291 B(  2-O ,  3-P ) :   1.1147 B(  3-P ,  4-S ) :   1.6172
B(  3-P ,  5-O ) :   1.0883 B(  3-P ,  8-S ) :   0.9648 B(  4-S ,  8-S ) :   0.1188
B(  5-O ,  6-C ) :   0.8994 B(  6-C ,  7-C ) :   1.1602 B(  6-C , 24-H ) :   0.9044
B(  6-C , 25-H ) :   0.9315 B(  7-C , 26-H ) :   0.9415 B(  7-C , 27-H ) :   0.9505
B(  7-C , 28-H ) :   0.9512 B(  8-S ,  9-C ) :   1.0045 B(  9-C , 10-S ) :   1.0073
B(  9-C , 29-H ) :   0.8707 B(  9-C , 30-H ) :   0.8702 B( 10-S , 11-P ) :   0.9471
B( 10-S , 12-S ) :   0.1089 B( 11-P , 12-S ) :   1.6347 B( 11-P , 13-O ) :   1.1415
B( 11-P , 16-O ) :   1.0849 B( 13-O , 14-C ) :   0.8912 B( 14-C , 15-C ) :   1.1683
B( 14-C , 31-H ) :   0.9292 B( 14-C , 32-H ) :   0.9071 B( 15-C , 33-H ) :   0.9395
B( 15-C , 34-H ) :   0.9422 B( 15-C , 35-H ) :   0.9481 B( 16-O , 17-C ) :   0.9072
B( 17-C , 18-C ) :   1.1661 B( 17-C , 36-H ) :   0.9345 B( 17-C , 37-H ) :   0.9197
B( 18-C , 38-H ) :   0.9436 B( 18-C , 39-H ) :   0.9367 B( 18-C , 40-H ) :   0.9343

Dispersion correction           -0.064694649
FINAL SINGLE POINT ENERGY     -2929.521646734225

DIPOLE MOMENT
-------------

Method             : SCF
Type of density    : Electron Density
Multiplicity       :   1
Irrep              :   0
Energy             : -2929.6422754454943060 Eh
Relativity type    :
Basis              : AO
                                X                 Y                 Z
Electronic contribution:     -9.407443194      -2.829957169     -16.193399750
Nuclear contribution   :     10.060136217       3.175853659      17.791825273
                        -----------------------------------------
Total Dipole Moment    :      0.652693023       0.345896489       1.598425523
                        -----------------------------------------
Magnitude (a.u.)       :      1.760856813
Magnitude (Debye)      :      4.475742325

Rotational constants in cm-1:             0.013522             0.004555             0.004415
Rotational constants in MHz :           405.392393           136.567851           132.365933

                             ****ORCA TERMINATED NORMALLY****
TOTAL RUN TIME: 0 days 0 hours 0 minutes 21 seconds 332 msec
