                         Program Version 6.0.0  -   RELEASE  -
|  1> ! pbe def2-sv(p) def2/J RI DEFGRID1 loosescf d4 GCP(DFT/SV(P)) printgap
|  2> %output
|  3>     printlevel normal
|  4> end
|  5> * xyz 0 1
|  6> C 4.2617442811 0.2968275532 -1.5579600463
|  7> C 2.8639494757 0.87184438 -1.617702449
|  8> O 2.2940895567 1.1137156057 -0.3083762154
|  9> P 2.1714316804 0.0853376113 0.88061496
| 10> S 0.9109111876 0.7243874465 2.2360433782
| 11> O 3.6696448715 -0.0659437917 1.3835755641
| 12> C 4.0027950571 -0.5699004412 2.6881742029
| 13> C 3.6338772128 -2.0300086026 2.8543562763
| 14> S 1.7002968446 -1.8042324428 0.0028242689
| 15> C -0.0736959734 -1.5502911237 -0.0941037582
| 16> S -0.5035839889 -0.4988547951 -1.5411931812
| 17> P -2.3655643404 0.2043924745 -0.8810924372
| 18> S -3.4880174263 1.1533258133 -2.1763303433
| 19> O -2.1008965143 1.0297850224 0.4633336603
| 20> C -1.9932707494 2.4606001342 0.4649478973
| 21> C -0.8025540542 2.9479046421 -0.3347920361
| 22> O -2.9121421647 -1.1635874987 -0.289251683
| 23> C -4.2528049354 -1.268301898 0.2465793295
| 24> C -5.1994531954 -1.829401814 -0.7954342032
| 25> H 4.2422903049 -0.7030191139 -1.1293428362
| 26> H 4.6613475707 0.2409308334 -2.5658785104
| 27> H 4.9039465969 0.9290999618 -0.9505025682
| 28> H 2.1856782007 0.2088154058 -2.1634215853
| 29> H 2.8535509782 1.861178063 -2.0774704169
| 30> H 5.0806685375 -0.4169114315 2.7571920871
| 31> H 3.4924074322 0.0434420134 3.4375376432
| 32> H 4.0281246722 -2.3930306584 3.7981364883
| 33> H 2.5511411954 -2.1437582142 2.8586325982
| 34> H 4.045426326 -2.6203456375 2.039853174
| 35> H -0.4183396956 -1.0492340949 0.8129395677
| 36> H -0.5367408251 -2.524542071 -0.2207350864
| 37> H -2.9202181997 2.8747450388 0.0556309605
| 38> H -1.8979635949 2.7150711515 1.5216230481
| 39> H -0.7504601452 4.0302534052 -0.2788969239
| 40> H 0.1198612741 2.5261095454 0.0585271805
| 41> H -0.9114118494 2.6503607681 -1.3783364357
| 42> H -4.1549912046 -1.9393103926 1.1017891003
| 43> H -4.581313128 -0.2840456917 0.5909685212
| 44> H -4.8342144557 -2.7875503362 -1.1542246118
| 45> H -6.1815024315 -1.9604761569 -0.3523801481
| 46> H -5.2783324848 -1.1462607981 -1.6385459289
| 47> *
| 48>
| 49>                          ****END OF INPUT****

CARTESIAN COORDINATES (ANGSTROEM)
---------------------------------
  C      4.261744    0.296828   -1.557960
  C      2.863949    0.871844   -1.617702
  O      2.294090    1.113716   -0.308376
  P      2.171432    0.085338    0.880615
  S      0.910911    0.724387    2.236043
  O      3.669645   -0.065944    1.383576
  C      4.002795   -0.569900    2.688174
  C      3.633877   -2.030009    2.854356
  S      1.700297   -1.804232    0.002824
  C     -0.073696   -1.550291   -0.094104
  S     -0.503584   -0.498855   -1.541193
  P     -2.365564    0.204392   -0.881092
  S     -3.488017    1.153326   -2.176330
  O     -2.100897    1.029785    0.463334
  C     -1.993271    2.460600    0.464948
  C     -0.802554    2.947905   -0.334792
  O     -2.912142   -1.163587   -0.289252
  C     -4.252805   -1.268302    0.246579
  C     -5.199453   -1.829402   -0.795434
  H      4.242290   -0.703019   -1.129343
  H      4.661348    0.240931   -2.565879
  H      4.903947    0.929100   -0.950503
  H      2.185678    0.208815   -2.163422
  H      2.853551    1.861178   -2.077470
  H      5.080669   -0.416911    2.757192
  H      3.492407    0.043442    3.437538
  H      4.028125   -2.393031    3.798136
  H      2.551141   -2.143758    2.858633
  H      4.045426   -2.620346    2.039853
  H     -0.418340   -1.049234    0.812940
  H     -0.536741   -2.524542   -0.220735
  H     -2.920218    2.874745    0.055631
  H     -1.897964    2.715071    1.521623
  H     -0.750460    4.030253   -0.278897
  H      0.119861    2.526110    0.058527
  H     -0.911412    2.650361   -1.378336
  H     -4.154991   -1.939310    1.101789
  H     -4.581313   -0.284046    0.590969
  H     -4.834214   -2.787550   -1.154225
  H     -6.181502   -1.960476   -0.352380
  H     -5.278332   -1.146261   -1.638546

 Total Charge           Charge          ....    0
 Multiplicity           Mult            ....    1
 Number of Electrons    NEL             ....  202
 Basis Dimension        Dim             ....  334

ORBITAL ENERGIES
----------------

  NO   OCC          E(Eh)            E(eV)
   0   2.0000     -88.055256     -2396.1053
   1   2.0000     -88.040118     -2395.6934
   2   2.0000     -87.991115     -2394.3600
   3   2.0000     -87.983392     -2394.1498
   4   2.0000     -76.433675     -2079.8660
   5   2.0000     -76.421580     -2079.5369
   6   2.0000     -18.801508      -511.6150
   7   2.0000     -18.796375      -511.4754
   8   2.0000     -18.788999      -511.2746
   9   2.0000     -18.781013      -511.0574
  10   2.0000      -9.959470      -271.0110
  11   2.0000      -9.958357      -270.9807
  12   2.0000      -9.957299      -270.9519
  13   2.0000      -9.953600      -270.8512
  14   2.0000      -9.937797      -270.4212
  15   2.0000      -9.891100      -269.1505
  16   2.0000      -9.890459      -269.1331
  17   2.0000      -9.880033      -268.8494
  18   2.0000      -9.864872      -268.4368
  19   2.0000      -7.699901      -209.5250
  20   2.0000      -7.685418      -209.1309
  21   2.0000      -7.635979      -207.7855
  22   2.0000      -7.628515      -207.5824
  23   2.0000      -6.430906      -174.9938
  24   2.0000      -6.419343      -174.6792
  25   2.0000      -5.727633      -155.8568
  26   2.0000      -5.724367      -155.7679
  27   2.0000      -5.717136      -155.5712
  28   2.0000      -5.713777      -155.4798
  29   2.0000      -5.709794      -155.3714
  30   2.0000      -5.702019      -155.1598
  31   2.0000      -5.664964      -154.1515
  32   2.0000      -5.657484      -153.9480
  33   2.0000      -5.656550      -153.9226
  34   2.0000      -5.656095      -153.9102
  35   2.0000      -5.649397      -153.7279
  36   2.0000      -5.648371      -153.7000
  37   2.0000      -4.653654      -126.6324
  38   2.0000      -4.652723      -126.6070
  39   2.0000      -4.651196      -126.5655
  40   2.0000      -4.641878      -126.3119
  41   2.0000      -4.641197      -126.2934
  42   2.0000      -4.639789      -126.2551
  43   2.0000      -0.993812       -27.0430
  44   2.0000      -0.980891       -26.6914
  45   2.0000      -0.952357       -25.9150
  46   2.0000      -0.937238       -25.5035
  47   2.0000      -0.767062       -20.8728
  48   2.0000      -0.724189       -19.7062
  49   2.0000      -0.710501       -19.3337
  50   2.0000      -0.696203       -18.9447
  51   2.0000      -0.677591       -18.4382
  52   2.0000      -0.673663       -18.3313
  53   2.0000      -0.655089       -17.8259
  54   2.0000      -0.639031       -17.3889
  55   2.0000      -0.604116       -16.4388
  56   2.0000      -0.584839       -15.9143
  57   2.0000      -0.581246       -15.8165
  58   2.0000      -0.567638       -15.4462
  59   2.0000      -0.562972       -15.3192
  60   2.0000      -0.498629       -13.5684
  61   2.0000      -0.496068       -13.4987
  62   2.0000      -0.477305       -12.9881
  63   2.0000      -0.458346       -12.4722
  64   2.0000      -0.457512       -12.4495
  65   2.0000      -0.450629       -12.2622
  66   2.0000      -0.448125       -12.1941
  67   2.0000      -0.437170       -11.8960
  68   2.0000      -0.428935       -11.6719
  69   2.0000      -0.420109       -11.4318
  70   2.0000      -0.414844       -11.2885
  71   2.0000      -0.403218       -10.9721
  72   2.0000      -0.389174       -10.5900
  73   2.0000      -0.387608       -10.5473
  74   2.0000      -0.381617       -10.3843
  75   2.0000      -0.375038       -10.2053
  76   2.0000      -0.370021       -10.0688
  77   2.0000      -0.359802        -9.7907
  78   2.0000      -0.357131        -9.7180
  79   2.0000      -0.352214        -9.5842
  80   2.0000      -0.349199        -9.5022
  81   2.0000      -0.342102        -9.3091
  82   2.0000      -0.337277        -9.1778
  83   2.0000      -0.331394        -9.0177
  84   2.0000      -0.324145        -8.8204
  85   2.0000      -0.317543        -8.6408
  86   2.0000      -0.310409        -8.4467
  87   2.0000      -0.299372        -8.1463
  88   2.0000      -0.297314        -8.0903
  89   2.0000      -0.291517        -7.9326
  90   2.0000      -0.284718        -7.7476
  91   2.0000      -0.276760        -7.5310
  92   2.0000      -0.271264        -7.3815
  93   2.0000      -0.268778        -7.3138
  94   2.0000      -0.257456        -7.0057
  95   2.0000      -0.237996        -6.4762
  96   2.0000      -0.219638        -5.9767
  97   2.0000      -0.209343        -5.6965
  98   2.0000      -0.208210        -5.6657
  99   2.0000      -0.204008        -5.5513
 100   2.0000      -0.196034        -5.3343
 101   0.0000      -0.046631        -1.2689
 102   0.0000      -0.025620        -0.6972
 103   0.0000      -0.024673        -0.6714
 104   0.0000       0.004286         0.1166
 105   0.0000       0.014872         0.4047

MULLIKEN ATOMIC CHARGES
-----------------------
   0 C :   -0.307882
   1 C :   -0.007315
   2 O :   -0.351081
   3 P :    0.606753
   4 S :   -0.306005
   5 O :   -0.371706
   6 C :   -0.002376
   7 C :   -0.320412
   8 S :   -0.105259
   9 C :   -0.349363
  10 S :   -0.089591
  11 P :    0.613488
  12 S :   -0.320563
  13 O :   -0.375547
  14 C :    0.009391
  15 C :   -0.339673
  16 O :   -0.387115
  17 C :   -0.005061
  18 C :   -0.289526
  19 H :    0.117424
  20 H :    0.116921
  21 H :    0.123012
  22 H :    0.121761
  23 H :    0.113560
  24 H :    0.107487
  25 H :    0.115700
  26 H :    0.117039
  27 H :    0.129377
  28 H :    0.117382
  29 H :    0.205112
  30 H :    0.187670
  31 H :    0.103601
  32 H :    0.102027
  33 H :    0.102847
  34 H :    0.145824
  35 H :    0.111183
  36 H :    0.105922
  37 H :    0.105476
  38 H :    0.111985
  39 H :    0.107465
  40 H :    0.130066
Sum of atomic charges:    0.0000000

LOEWDIN ATOMIC CHARGES
----------------------
   0 C :   -0.366702
   1 C :   -0.114557
   2 O :   -0.228486
   3 P :    0.580119
   4 S :   -0.296378
   5 O :   -0.239237
   6 C :   -0.117261
   7 C :   -0.371190
   8 S :    0.087134
   9 C :   -0.476260
  10 S :    0.080877
  11 P :    0.567993
  12 S :   -0.319700
  13 O :   -0.245029
  14 C :   -0.120777
  15 C :   -0.378178
  16 O :   -0.249886
  17 C :   -0.111171
  18 C :   -0.361698
  19 H :    0.116801
  20 H :    0.133232
  21 H :    0.128869
  22 H :    0.105068
  23 H :    0.124981
  24 H :    0.120041
  25 H :    0.113894
  26 H :    0.133189
  27 H :    0.121932
  28 H :    0.123399
  29 H :    0.124898
  30 H :    0.136182
  31 H :    0.105684
  32 H :    0.117989
  33 H :    0.127534
  34 H :    0.121740
  35 H :    0.113969
  36 H :    0.118366
  37 H :    0.111788
  38 H :    0.125467
  39 H :    0.128606
  40 H :    0.126758

  Mayer bond orders larger than 0.100000
B(  0-C ,  1-C ) :   1.1706 B(  0-C , 19-H ) :   0.9381 B(  0-C , 20-H ) :   0.9357
B(  0-C , 21-H ) :   0.9425 B(  1-C ,  2-O ) :   0.8932 B(  1-C , 22-H ) :   0.9120
B(  1-C , 23-H ) :   0.9333 B(  2-O ,  3-P ) :   1.1438 B(  3-P ,  4-S ) :   1.6227
B(  3-P ,  5-O ) :   1.0996 B(  3-P ,  8-S ) :   0.9262 B(  4-S ,  8-S ) :   0.1072
B(  5-O ,  6-C ) :   0.9025 B(  6-C ,  7-C ) :   1.1656 B(  6-C , 24-H ) :   0.9335
B(  6-C , 25-H ) :   0.9165 B(  7-C , 26-H ) :   0.9373 B(  7-C , 27-H ) :   0.9345
B(  7-C , 28-H ) :   0.9446 B(  8-S ,  9-C ) :   1.0176 B(  9-C , 10-S ) :   0.9574
B(  9-C , 29-H ) :   0.8552 B(  9-C , 30-H ) :   0.9052 B( 10-S , 11-P ) :   0.9791
B( 11-P , 12-S ) :   1.6318 B( 11-P , 13-O ) :   1.0866 B( 11-P , 16-O ) :   1.0889
B( 13-O , 14-C ) :   0.9046 B( 14-C , 15-C ) :   1.1676 B( 14-C , 31-H ) :   0.9182
B( 14-C , 32-H ) :   0.9291 B( 15-C , 33-H ) :   0.9378 B( 15-C , 34-H ) :   0.9239
B( 15-C , 35-H ) :   0.9325 B( 16-O , 17-C ) :   0.8929 B( 17-C , 18-C ) :   1.1698
B( 17-C , 36-H ) :   0.9359 B( 17-C , 37-H ) :   0.9157 B( 18-C , 38-H ) :   0.9471
B( 18-C , 39-H ) :   0.9401 B( 18-C , 40-H ) :   0.9339

Dispersion correction           -0.065736852
FINAL SINGLE POINT ENERGY     -2929.519162061402

DIPOLE MOMENT
-------------

Method             : SCF
Type of density    : Electron Density
Multiplicity       :   1
Irrep              :   0
Energy             : -2929.6406654321185670 Eh
Relativity type    :
Basis              : AO
                                X                 Y                 Z
Electronic contribution:     -4.414587117       1.191340490      -4.203063962
Nuclear contribution   :      5.574096090      -2.004743024       4.868075211
                        -----------------------------------------
Total Dipole Moment    :      1.159508973      -0.813402534       0.665011249
                        -----------------------------------------
Magnitude (a.u.)       :      1.564712338
Magnitude (Debye)      :      3.977182692

Rotational constants in cm-1:             0.013647             0.004598             0.004402
Rotational constants in MHz :           409.125553           137.840113           131.978444

                             ****ORCA TERMINATED NORMALLY****
TOTAL RUN TIME: 0 days 0 hours 0 minutes 21 seconds 470 msec
