                         Program Version 6.0.0  -   RELEASE  -
|  1> ! pbe def2-sv(p) def2/J RI DEFGRID1 loosescf d4 GCP(DFT/SV(P)) printgap
|  2> %output
|  3>     printlevel normal
|  4> end
|  5> * xyz 0 1
|  6> C 1.4712836696 -0.5040218765 -2.8538001315
|  7> C 2.4960386009 0.1683364298 -1.9625431178
|  8> O 2.8330358583 -0.6813117795 -0.8528945168
|  9> P 2.2935611233 -0.4778636639 0.629298852
| 10> S 2.3438893849 1.3711956121 1.2959629737
| 11> O 3.1500944798 -1.5567444887 1.4090407669
| 12> C 4.5743910152 -1.7452989638 1.2604502783
| 13> C 5.3641534969 -0.5024607089 1.6135563042
| 14> S 0.427840981 -1.4583209353 0.7638783684
| 15> C -0.4673854308 -0.2832337558 1.8423136789
| 16> S -2.2185449004 -0.1986782776 1.4374886881
| 17> P -2.0244704183 0.5422532619 -0.556809971
| 18> S -0.6134429435 1.8568689307 -0.8806830731
| 19> O -3.4996784423 1.0131157742 -0.915661756
| 20> C -3.9883693555 2.3358118743 -0.6307856132
| 21> C -4.0865044344 2.6092756629 0.8559500749
| 22> O -1.8426817838 -0.7399174863 -1.4558993971
| 23> C -2.7433625997 -1.875610356 -1.4403467083
| 24> C -3.7618217824 -1.7677881224 -2.5563620292
| 25> H 1.3119688918 0.1101476783 -3.7343123407
| 26> H 1.8249986933 -1.4866380553 -3.1528635306
| 27> H 0.5233930737 -0.6128461394 -2.3303374114
| 28> H 2.126614112 1.1285296469 -1.5866622061
| 29> H 3.43690034 0.3262986095 -2.4936433004
| 30> H 4.7912525149 -2.5657525128 1.9465894049
| 31> H 4.7728402022 -2.0561388093 0.2325311022
| 32> H 5.1308472585 0.3019473571 0.9169959191
| 33> H 5.1146024149 -0.1678604134 2.6177598749
| 34> H 6.4259007791 -0.7216980456 1.560047924
| 35> H -0.0072204377 0.7031156944 1.7276180222
| 36> H -0.4086115618 -0.6268532628 2.8720296435
| 37> H -3.3234747941 3.0595152098 -1.1122947262
| 38> H -4.9688700052 2.3583956267 -1.1086295383
| 39> H -4.644219231 1.8184214618 1.3511451621
| 40> H -3.0904764045 2.6632343374 1.2929310472
| 41> H -4.5883208005 3.5588233118 1.0124025597
| 42> H -2.0902721964 -2.7401441259 -1.5730841408
| 43> H -3.2292741258 -1.9290219018 -0.4623701341
| 44> H -4.3708780016 -2.6662273605 -2.5665776442
| 45> H -4.4005850298 -0.9026816485 -2.4011791118
| 46> H -3.257399761 -1.6649795722 -3.5131179521
| 47> *
| 48>
| 49>                          ****END OF INPUT****

CARTESIAN COORDINATES (ANGSTROEM)
---------------------------------
  C      1.471284   -0.504022   -2.853800
  C      2.496039    0.168336   -1.962543
  O      2.833036   -0.681312   -0.852895
  P      2.293561   -0.477864    0.629299
  S      2.343889    1.371196    1.295963
  O      3.150094   -1.556744    1.409041
  C      4.574391   -1.745299    1.260450
  C      5.364153   -0.502461    1.613556
  S      0.427841   -1.458321    0.763878
  C     -0.467385   -0.283234    1.842314
  S     -2.218545   -0.198678    1.437489
  P     -2.024470    0.542253   -0.556810
  S     -0.613443    1.856869   -0.880683
  O     -3.499678    1.013116   -0.915662
  C     -3.988369    2.335812   -0.630786
  C     -4.086504    2.609276    0.855950
  O     -1.842682   -0.739917   -1.455899
  C     -2.743363   -1.875610   -1.440347
  C     -3.761822   -1.767788   -2.556362
  H      1.311969    0.110148   -3.734312
  H      1.824999   -1.486638   -3.152864
  H      0.523393   -0.612846   -2.330337
  H      2.126614    1.128530   -1.586662
  H      3.436900    0.326299   -2.493643
  H      4.791253   -2.565753    1.946589
  H      4.772840   -2.056139    0.232531
  H      5.130847    0.301947    0.916996
  H      5.114602   -0.167860    2.617760
  H      6.425901   -0.721698    1.560048
  H     -0.007220    0.703116    1.727618
  H     -0.408612   -0.626853    2.872030
  H     -3.323475    3.059515   -1.112295
  H     -4.968870    2.358396   -1.108630
  H     -4.644219    1.818421    1.351145
  H     -3.090476    2.663234    1.292931
  H     -4.588321    3.558823    1.012403
  H     -2.090272   -2.740144   -1.573084
  H     -3.229274   -1.929022   -0.462370
  H     -4.370878   -2.666227   -2.566578
  H     -4.400585   -0.902682   -2.401179
  H     -3.257400   -1.664980   -3.513118

 Total Charge           Charge          ....    0
 Multiplicity           Mult            ....    1
 Number of Electrons    NEL             ....  202
 Basis Dimension        Dim             ....  334

ORBITAL ENERGIES
----------------

  NO   OCC          E(Eh)            E(eV)
   0   2.0000     -88.046062     -2395.8552
   1   2.0000     -88.035815     -2395.5763
   2   2.0000     -87.984868     -2394.1900
   3   2.0000     -87.979073     -2394.0323
   4   2.0000     -76.428078     -2079.7137
   5   2.0000     -76.420369     -2079.5040
   6   2.0000     -18.797701      -511.5114
   7   2.0000     -18.794037      -511.4117
   8   2.0000     -18.788045      -511.2487
   9   2.0000     -18.782226      -511.0904
  10   2.0000      -9.956340      -270.9258
  11   2.0000      -9.956061      -270.9182
  12   2.0000      -9.949947      -270.7518
  13   2.0000      -9.949693      -270.7449
  14   2.0000      -9.940656      -270.4990
  15   2.0000      -9.887596      -269.0552
  16   2.0000      -9.885999      -269.0117
  17   2.0000      -9.878626      -268.8111
  18   2.0000      -9.869214      -268.5550
  19   2.0000      -7.690863      -209.2790
  20   2.0000      -7.680858      -209.0068
  21   2.0000      -7.629792      -207.6172
  22   2.0000      -7.624095      -207.4622
  23   2.0000      -6.425298      -174.8413
  24   2.0000      -6.417778      -174.6366
  25   2.0000      -5.718731      -155.6146
  26   2.0000      -5.715232      -155.5194
  27   2.0000      -5.708746      -155.3429
  28   2.0000      -5.708042      -155.3237
  29   2.0000      -5.705508      -155.2548
  30   2.0000      -5.697667      -155.0414
  31   2.0000      -5.658749      -153.9824
  32   2.0000      -5.652953      -153.8247
  33   2.0000      -5.650166      -153.7488
  34   2.0000      -5.650128      -153.7478
  35   2.0000      -5.644787      -153.6025
  36   2.0000      -5.644234      -153.5874
  37   2.0000      -4.648189      -126.4837
  38   2.0000      -4.647080      -126.4535
  39   2.0000      -4.645489      -126.4102
  40   2.0000      -4.640626      -126.2778
  41   2.0000      -4.639271      -126.2410
  42   2.0000      -4.638281      -126.2140
  43   2.0000      -0.991226       -26.9726
  44   2.0000      -0.981050       -26.6957
  45   2.0000      -0.948703       -25.8155
  46   2.0000      -0.936589       -25.4859
  47   2.0000      -0.760343       -20.6900
  48   2.0000      -0.720144       -19.5961
  49   2.0000      -0.707852       -19.2616
  50   2.0000      -0.692493       -18.8437
  51   2.0000      -0.680065       -18.5055
  52   2.0000      -0.671740       -18.2790
  53   2.0000      -0.650005       -17.6875
  54   2.0000      -0.630782       -17.1645
  55   2.0000      -0.597398       -16.2560
  56   2.0000      -0.587504       -15.9868
  57   2.0000      -0.577118       -15.7042
  58   2.0000      -0.567403       -15.4398
  59   2.0000      -0.557297       -15.1648
  60   2.0000      -0.502231       -13.6664
  61   2.0000      -0.491562       -13.3761
  62   2.0000      -0.477007       -12.9800
  63   2.0000      -0.466761       -12.7012
  64   2.0000      -0.451532       -12.2868
  65   2.0000      -0.449657       -12.2358
  66   2.0000      -0.441864       -12.0237
  67   2.0000      -0.430723       -11.7206
  68   2.0000      -0.418633       -11.3916
  69   2.0000      -0.414972       -11.2920
  70   2.0000      -0.408583       -11.1181
  71   2.0000      -0.403689       -10.9849
  72   2.0000      -0.393642       -10.7115
  73   2.0000      -0.380690       -10.3591
  74   2.0000      -0.379804       -10.3350
  75   2.0000      -0.368679       -10.0323
  76   2.0000      -0.364055        -9.9064
  77   2.0000      -0.355793        -9.6816
  78   2.0000      -0.354411        -9.6440
  79   2.0000      -0.348811        -9.4916
  80   2.0000      -0.343985        -9.3603
  81   2.0000      -0.342341        -9.3156
  82   2.0000      -0.340119        -9.2551
  83   2.0000      -0.332695        -9.0531
  84   2.0000      -0.324935        -8.8419
  85   2.0000      -0.317246        -8.6327
  86   2.0000      -0.309155        -8.4125
  87   2.0000      -0.299385        -8.1467
  88   2.0000      -0.294684        -8.0188
  89   2.0000      -0.285174        -7.7600
  90   2.0000      -0.282322        -7.6824
  91   2.0000      -0.274640        -7.4733
  92   2.0000      -0.268367        -7.3026
  93   2.0000      -0.265059        -7.2126
  94   2.0000      -0.254746        -6.9320
  95   2.0000      -0.232367        -6.3230
  96   2.0000      -0.221746        -6.0340
  97   2.0000      -0.208978        -5.6866
  98   2.0000      -0.202321        -5.5054
  99   2.0000      -0.192704        -5.2437
 100   2.0000      -0.185905        -5.0587
 101   0.0000      -0.040835        -1.1112
 102   0.0000      -0.029217        -0.7950
 103   0.0000      -0.009735        -0.2649
 104   0.0000       0.013230         0.3600
 105   0.0000       0.016789         0.4568

MULLIKEN ATOMIC CHARGES
-----------------------
   0 C :   -0.310976
   1 C :   -0.011154
   2 O :   -0.385481
   3 P :    0.635169
   4 S :   -0.316963
   5 O :   -0.373482
   6 C :    0.002389
   7 C :   -0.314391
   8 S :   -0.108855
   9 C :   -0.351185
  10 S :   -0.107798
  11 P :    0.600509
  12 S :   -0.299617
  13 O :   -0.379883
  14 C :    0.000969
  15 C :   -0.321764
  16 O :   -0.346979
  17 C :   -0.009846
  18 C :   -0.289798
  19 H :    0.105019
  20 H :    0.100425
  21 H :    0.146544
  22 H :    0.122400
  23 H :    0.096123
  24 H :    0.105123
  25 H :    0.107070
  26 H :    0.128730
  27 H :    0.122936
  28 H :    0.107420
  29 H :    0.214365
  30 H :    0.182354
  31 H :    0.114069
  32 H :    0.104762
  33 H :    0.117567
  34 H :    0.134115
  35 H :    0.115576
  36 H :    0.111135
  37 H :    0.102697
  38 H :    0.109978
  39 H :    0.121578
  40 H :    0.119150
Sum of atomic charges:   -0.0000000

LOEWDIN ATOMIC CHARGES
----------------------
   0 C :   -0.367101
   1 C :   -0.118189
   2 O :   -0.245357
   3 P :    0.567979
   4 S :   -0.299390
   5 O :   -0.248877
   6 C :   -0.110085
   7 C :   -0.367728
   8 S :    0.072207
   9 C :   -0.481261
  10 S :    0.079592
  11 P :    0.568318
  12 S :   -0.290866
  13 O :   -0.247650
  14 C :   -0.116297
  15 C :   -0.371246
  16 O :   -0.228841
  17 C :   -0.116524
  18 C :   -0.359292
  19 H :    0.129099
  20 H :    0.119019
  21 H :    0.122947
  22 H :    0.108007
  23 H :    0.113234
  24 H :    0.119447
  25 H :    0.112271
  26 H :    0.122378
  27 H :    0.129128
  28 H :    0.127756
  29 H :    0.122831
  30 H :    0.135237
  31 H :    0.113885
  32 H :    0.118354
  33 H :    0.123044
  34 H :    0.123777
  35 H :    0.132402
  36 H :    0.120733
  37 H :    0.102943
  38 H :    0.129656
  39 H :    0.126034
  40 H :    0.128426

  Mayer bond orders larger than 0.100000
B(  0-C ,  1-C ) :   1.1723 B(  0-C , 19-H ) :   0.9402 B(  0-C , 20-H ) :   0.9460
B(  0-C , 21-H ) :   0.9239 B(  1-C ,  2-O ) :   0.8980 B(  1-C , 22-H ) :   0.9021
B(  1-C , 23-H ) :   0.9344 B(  2-O ,  3-P ) :   1.0960 B(  3-P ,  4-S ) :   1.6319
B(  3-P ,  5-O ) :   1.1238 B(  3-P ,  8-S ) :   0.9556 B(  4-S ,  8-S ) :   0.1269
B(  5-O ,  6-C ) :   0.9120 B(  6-C ,  7-C ) :   1.1663 B(  6-C , 24-H ) :   0.9359
B(  6-C , 25-H ) :   0.9295 B(  7-C , 26-H ) :   0.9357 B(  7-C , 27-H ) :   0.9452
B(  7-C , 28-H ) :   0.9359 B(  8-S ,  9-C ) :   0.9930 B(  9-C , 10-S ) :   1.0038
B(  9-C , 29-H ) :   0.8421 B(  9-C , 30-H ) :   0.9093 B( 10-S , 11-P ) :   0.9407
B( 10-S , 12-S ) :   0.1080 B( 11-P , 12-S ) :   1.6508 B( 11-P , 13-O ) :   1.0843
B( 11-P , 16-O ) :   1.1199 B( 13-O , 14-C ) :   0.9042 B( 14-C , 15-C ) :   1.1665
B( 14-C , 31-H ) :   0.9182 B( 14-C , 32-H ) :   0.9341 B( 15-C , 33-H ) :   0.9434
B( 15-C , 34-H ) :   0.9349 B( 15-C , 35-H ) :   0.9369 B( 16-O , 17-C ) :   0.8895
B( 17-C , 18-C ) :   1.1647 B( 17-C , 36-H ) :   0.9343 B( 17-C , 37-H ) :   0.9101
B( 18-C , 38-H ) :   0.9399 B( 18-C , 39-H ) :   0.9420 B( 18-C , 40-H ) :   0.9476

Dispersion correction           -0.065897499
FINAL SINGLE POINT ENERGY     -2929.519707999567

DIPOLE MOMENT
-------------

Method             : SCF
Type of density    : Electron Density
Multiplicity       :   1
Irrep              :   0
Energy             : -2929.6390739800749543 Eh
Relativity type    :
Basis              : AO
                                X                 Y                 Z
Electronic contribution:      2.214390576       1.284677364       9.587443945
Nuclear contribution   :     -2.968927934      -2.113916595     -10.022915387
                        -----------------------------------------
Total Dipole Moment    :     -0.754537358      -0.829239231      -0.435471442
                        -----------------------------------------
Magnitude (a.u.)       :      1.202746733
Magnitude (Debye)      :      3.057139242

Rotational constants in cm-1:             0.013765             0.004756             0.004519
Rotational constants in MHz :           412.657034           142.588718           135.467879

                             ****ORCA TERMINATED NORMALLY****
TOTAL RUN TIME: 0 days 0 hours 0 minutes 21 seconds 5 msec
