                         Program Version 6.0.0  -   RELEASE  -
|  1> ! pbe def2-sv(p) def2/J RI DEFGRID1 loosescf d4 GCP(DFT/SV(P)) printgap
|  2> %output
|  3>     printlevel normal
|  4> end
|  5> * xyz 0 1
|  6> C 4.3673794029 -0.3238171831 -2.0574530554
|  7> C 4.3911051687 0.7711175741 -1.0101838201
|  8> O 3.6280632849 0.4273584352 0.1577021348
|  9> P 2.0488086333 0.2610127665 0.1386055029
| 10> S 1.1047141609 1.5855449522 -0.9618253924
| 11> O 1.6673547373 0.4178933483 1.6610412582
| 12> C 1.86379812 -0.5656317483 2.7108169777
| 13> C 3.2988792528 -1.0302333608 2.820338723
| 14> S 1.7425444536 -1.7836468216 -0.3565814881
| 15> C -0.007527191 -1.6849573725 -0.7889583002
| 16> S -1.0264502516 -1.0713606675 0.5918874226
| 17> P -2.2075547992 0.3930110311 -0.4057046426
| 18> S -2.0768770125 0.4496664196 -2.356857662
| 19> O -1.9095117455 1.7821634185 0.2734550135
| 20> C -1.5323151329 2.0245909282 1.6479031165
| 21> C -2.4809775023 1.3883876025 2.6401324937
| 22> O -3.684270006 0.1068420191 0.1222856794
| 23> C -4.5857241122 -0.8006670064 -0.5313724461
| 24> C -4.1021806012 -2.2361404572 -0.4833052781
| 25> H 5.0634779584 -0.0745056662 -2.8519441572
| 26> H 4.6475747616 -1.2771668186 -1.6168685116
| 27> H 3.368597103 -0.4113336169 -2.4829156331
| 28> H 3.9934822358 1.7045587699 -1.4213789245
| 29> H 5.3974723371 0.9360176815 -0.6226607706
| 30> H 1.5423839372 -0.0345035115 3.6077577196
| 31> H 1.1889080591 -1.4043086812 2.5166357539
| 32> H 3.5873198943 -1.5825075463 1.9284147887
| 33> H 3.9630996855 -0.1779003717 2.9361379873
| 34> H 3.3929446022 -1.6804400246 3.6845724354
| 35> H -0.3128156754 -2.7005528062 -1.0287813828
| 36> H -0.1530624868 -1.0162045498 -1.64239569
| 37> H -0.5081607114 1.6645350031 1.786318447
| 38> H -1.5415749699 3.1137395313 1.716263138
| 39> H -3.4987399811 1.717653966 2.4474677184
| 40> H -2.4401598816 0.3030798254 2.5597182902
| 41> H -2.1898075758 1.6807704175 3.6442346087
| 42> H -5.5217661069 -0.6719504504 0.0138839872
| 43> H -4.7108035618 -0.4741149149 -1.5686041964
| 44> H -3.213386698 -2.3458940512 -1.1032571412
| 45> H -3.8637711769 -2.5238302215 0.5374271589
| 46> H -4.879790442 -2.8869660107 -0.8698992347
| 47> *
| 48>
| 49>                          ****END OF INPUT****

CARTESIAN COORDINATES (ANGSTROEM)
---------------------------------
  C      4.367379   -0.323817   -2.057453
  C      4.391105    0.771118   -1.010184
  O      3.628063    0.427358    0.157702
  P      2.048809    0.261013    0.138606
  S      1.104714    1.585545   -0.961825
  O      1.667355    0.417893    1.661041
  C      1.863798   -0.565632    2.710817
  C      3.298879   -1.030233    2.820339
  S      1.742544   -1.783647   -0.356581
  C     -0.007527   -1.684957   -0.788958
  S     -1.026450   -1.071361    0.591887
  P     -2.207555    0.393011   -0.405705
  S     -2.076877    0.449666   -2.356858
  O     -1.909512    1.782163    0.273455
  C     -1.532315    2.024591    1.647903
  C     -2.480978    1.388388    2.640132
  O     -3.684270    0.106842    0.122286
  C     -4.585724   -0.800667   -0.531372
  C     -4.102181   -2.236140   -0.483305
  H      5.063478   -0.074506   -2.851944
  H      4.647575   -1.277167   -1.616869
  H      3.368597   -0.411334   -2.482916
  H      3.993482    1.704559   -1.421379
  H      5.397472    0.936018   -0.622661
  H      1.542384   -0.034504    3.607758
  H      1.188908   -1.404309    2.516636
  H      3.587320   -1.582508    1.928415
  H      3.963100   -0.177900    2.936138
  H      3.392945   -1.680440    3.684572
  H     -0.312816   -2.700553   -1.028781
  H     -0.153062   -1.016205   -1.642396
  H     -0.508161    1.664535    1.786318
  H     -1.541575    3.113740    1.716263
  H     -3.498740    1.717654    2.447468
  H     -2.440160    0.303080    2.559718
  H     -2.189808    1.680770    3.644235
  H     -5.521766   -0.671950    0.013884
  H     -4.710804   -0.474115   -1.568604
  H     -3.213387   -2.345894   -1.103257
  H     -3.863771   -2.523830    0.537427
  H     -4.879790   -2.886966   -0.869899

 Total Charge           Charge          ....    0
 Multiplicity           Mult            ....    1
 Number of Electrons    NEL             ....  202
 Basis Dimension        Dim             ....  334

ORBITAL ENERGIES
----------------

  NO   OCC          E(Eh)            E(eV)
   0   2.0000     -88.048296     -2395.9159
   1   2.0000     -88.043226     -2395.7780
   2   2.0000     -87.980043     -2394.0587
   3   2.0000     -87.978647     -2394.0207
   4   2.0000     -76.426323     -2079.6660
   5   2.0000     -76.421181     -2079.5261
   6   2.0000     -18.793000      -511.3835
   7   2.0000     -18.792789      -511.3778
   8   2.0000     -18.783035      -511.1124
   9   2.0000     -18.781724      -511.0767
  10   2.0000      -9.959011      -270.9985
  11   2.0000      -9.955605      -270.9058
  12   2.0000      -9.952851      -270.8308
  13   2.0000      -9.947152      -270.6758
  14   2.0000      -9.945519      -270.6313
  15   2.0000      -9.890803      -269.1424
  16   2.0000      -9.884378      -268.9676
  17   2.0000      -9.884197      -268.9627
  18   2.0000      -9.881734      -268.8956
  19   2.0000      -7.693052      -209.3386
  20   2.0000      -7.687245      -209.1806
  21   2.0000      -7.624698      -207.4786
  22   2.0000      -7.623859      -207.4558
  23   2.0000      -6.423341      -174.7880
  24   2.0000      -6.418172      -174.6473
  25   2.0000      -5.720926      -155.6743
  26   2.0000      -5.717391      -155.5781
  27   2.0000      -5.715127      -155.5165
  28   2.0000      -5.711787      -155.4256
  29   2.0000      -5.710250      -155.3838
  30   2.0000      -5.704299      -155.2219
  31   2.0000      -5.653799      -153.8477
  32   2.0000      -5.652883      -153.8228
  33   2.0000      -5.645149      -153.6123
  34   2.0000      -5.644908      -153.6058
  35   2.0000      -5.644556      -153.5962
  36   2.0000      -5.643781      -153.5751
  37   2.0000      -4.646097      -126.4267
  38   2.0000      -4.645284      -126.4046
  39   2.0000      -4.643514      -126.3564
  40   2.0000      -4.640803      -126.2827
  41   2.0000      -4.639961      -126.2598
  42   2.0000      -4.638664      -126.2245
  43   2.0000      -0.987844       -26.8806
  44   2.0000      -0.978265       -26.6199
  45   2.0000      -0.946716       -25.7614
  46   2.0000      -0.935794       -25.4643
  47   2.0000      -0.763614       -20.7790
  48   2.0000      -0.718551       -19.5528
  49   2.0000      -0.709206       -19.2985
  50   2.0000      -0.691961       -18.8292
  51   2.0000      -0.684924       -18.6377
  52   2.0000      -0.679046       -18.4778
  53   2.0000      -0.649279       -17.6678
  54   2.0000      -0.632126       -17.2010
  55   2.0000      -0.599104       -16.3024
  56   2.0000      -0.591917       -16.1069
  57   2.0000      -0.578716       -15.7477
  58   2.0000      -0.569849       -15.5064
  59   2.0000      -0.563144       -15.3239
  60   2.0000      -0.495883       -13.4937
  61   2.0000      -0.485960       -13.2236
  62   2.0000      -0.473177       -12.8758
  63   2.0000      -0.463300       -12.6070
  64   2.0000      -0.450898       -12.2695
  65   2.0000      -0.448120       -12.1940
  66   2.0000      -0.442740       -12.0476
  67   2.0000      -0.436155       -11.8684
  68   2.0000      -0.434547       -11.8246
  69   2.0000      -0.422086       -11.4856
  70   2.0000      -0.412939       -11.2366
  71   2.0000      -0.400799       -10.9063
  72   2.0000      -0.392049       -10.6682
  73   2.0000      -0.387975       -10.5573
  74   2.0000      -0.380394       -10.3510
  75   2.0000      -0.366150        -9.9634
  76   2.0000      -0.364684        -9.9236
  77   2.0000      -0.360969        -9.8225
  78   2.0000      -0.355735        -9.6800
  79   2.0000      -0.352738        -9.5985
  80   2.0000      -0.348500        -9.4832
  81   2.0000      -0.347810        -9.4644
  82   2.0000      -0.341976        -9.3056
  83   2.0000      -0.337670        -9.1885
  84   2.0000      -0.333303        -9.0696
  85   2.0000      -0.316624        -8.6158
  86   2.0000      -0.304774        -8.2933
  87   2.0000      -0.294553        -8.0152
  88   2.0000      -0.291864        -7.9420
  89   2.0000      -0.288675        -7.8552
  90   2.0000      -0.284510        -7.7419
  91   2.0000      -0.278057        -7.5663
  92   2.0000      -0.264786        -7.2052
  93   2.0000      -0.261913        -7.1270
  94   2.0000      -0.255642        -6.9564
  95   2.0000      -0.237223        -6.4552
  96   2.0000      -0.217733        -5.9248
  97   2.0000      -0.209116        -5.6903
  98   2.0000      -0.197302        -5.3689
  99   2.0000      -0.195068        -5.3081
 100   2.0000      -0.183264        -4.9869
 101   0.0000      -0.046675        -1.2701
 102   0.0000      -0.034922        -0.9503
 103   0.0000      -0.009845        -0.2679
 104   0.0000       0.006169         0.1679
 105   0.0000       0.019477         0.5300

MULLIKEN ATOMIC CHARGES
-----------------------
   0 C :   -0.320815
   1 C :    0.000611
   2 O :   -0.372272
   3 P :    0.586615
   4 S :   -0.286098
   5 O :   -0.355733
   6 C :   -0.001932
   7 C :   -0.303914
   8 S :   -0.117893
   9 C :   -0.326907
  10 S :   -0.144158
  11 P :    0.614274
  12 S :   -0.297478
  13 O :   -0.351140
  14 C :   -0.019407
  15 C :   -0.315719
  16 O :   -0.375649
  17 C :    0.003135
  18 C :   -0.313626
  19 H :    0.114851
  20 H :    0.114573
  21 H :    0.133145
  22 H :    0.114712
  23 H :    0.103973
  24 H :    0.106629
  25 H :    0.110021
  26 H :    0.120162
  27 H :    0.123425
  28 H :    0.114012
  29 H :    0.180217
  30 H :    0.207807
  31 H :    0.136522
  32 H :    0.108392
  33 H :    0.122836
  34 H :    0.119805
  35 H :    0.110868
  36 H :    0.101614
  37 H :    0.111394
  38 H :    0.116888
  39 H :    0.115538
  40 H :    0.110722
Sum of atomic charges:   -0.0000000

LOEWDIN ATOMIC CHARGES
----------------------
   0 C :   -0.371183
   1 C :   -0.117653
   2 O :   -0.242975
   3 P :    0.563455
   4 S :   -0.292137
   5 O :   -0.233942
   6 C :   -0.115732
   7 C :   -0.366161
   8 S :    0.076585
   9 C :   -0.477925
  10 S :    0.066932
  11 P :    0.577119
  12 S :   -0.295797
  13 O :   -0.225568
  14 C :   -0.118160
  15 C :   -0.367530
  16 O :   -0.248253
  17 C :   -0.118243
  18 C :   -0.371009
  19 H :    0.131993
  20 H :    0.121956
  21 H :    0.123501
  22 H :    0.113623
  23 H :    0.118248
  24 H :    0.120636
  25 H :    0.102838
  26 H :    0.117682
  27 H :    0.129566
  28 H :    0.131820
  29 H :    0.134140
  30 H :    0.125718
  31 H :    0.113082
  32 H :    0.123427
  33 H :    0.128775
  34 H :    0.113499
  35 H :    0.130040
  36 H :    0.117210
  37 H :    0.111359
  38 H :    0.117653
  39 H :    0.122017
  40 H :    0.129390

  Mayer bond orders larger than 0.100000
B(  0-C ,  1-C ) :   1.1655 B(  0-C , 19-H ) :   0.9374 B(  0-C , 20-H ) :   0.9447
B(  0-C , 21-H ) :   0.9346 B(  1-C ,  2-O ) :   0.9051 B(  1-C , 22-H ) :   0.9155
B(  1-C , 23-H ) :   0.9340 B(  2-O ,  3-P ) :   1.0935 B(  3-P ,  4-S ) :   1.6509
B(  3-P ,  5-O ) :   1.1161 B(  3-P ,  8-S ) :   0.9329 B(  4-S ,  8-S ) :   0.1073
B(  5-O ,  6-C ) :   0.8953 B(  6-C ,  7-C ) :   1.1732 B(  6-C , 24-H ) :   0.9335
B(  6-C , 25-H ) :   0.9128 B(  7-C , 26-H ) :   0.9377 B(  7-C , 27-H ) :   0.9427
B(  7-C , 28-H ) :   0.9360 B(  8-S ,  9-C ) :   1.0004 B(  9-C , 10-S ) :   0.9985
B(  9-C , 29-H ) :   0.9071 B(  9-C , 30-H ) :   0.8451 B( 10-S , 11-P ) :   0.9265
B( 10-S , 12-S ) :   0.1121 B( 11-P , 12-S ) :   1.6182 B( 11-P , 13-O ) :   1.1554
B( 11-P , 16-O ) :   1.0806 B( 12-S , 30-H ) :   0.1025 B( 13-O , 14-C ) :   0.8962
B( 14-C , 15-C ) :   1.1637 B( 14-C , 31-H ) :   0.9081 B( 14-C , 32-H ) :   0.9335
B( 15-C , 33-H ) :   0.9415 B( 15-C , 34-H ) :   0.9376 B( 15-C , 35-H ) :   0.9364
B( 16-O , 17-C ) :   0.9177 B( 17-C , 18-C ) :   1.1644 B( 17-C , 36-H ) :   0.9344
B( 17-C , 37-H ) :   0.9162 B( 18-C , 38-H ) :   0.9365 B( 18-C , 39-H ) :   0.9428
B( 18-C , 40-H ) :   0.9377

Dispersion correction           -0.069109989
FINAL SINGLE POINT ENERGY     -2929.514184525707

DIPOLE MOMENT
-------------

Method             : SCF
Type of density    : Electron Density
Multiplicity       :   1
Irrep              :   0
Energy             : -2929.6319283328243728 Eh
Relativity type    :
Basis              : AO
                                X                 Y                 Z
Electronic contribution:     -2.689341486       7.043546165     -10.280506137
Nuclear contribution   :      3.251516345      -8.158577711      11.778376108
                        -----------------------------------------
Total Dipole Moment    :      0.562174859      -1.115031546       1.497869971
                        -----------------------------------------
Magnitude (a.u.)       :      1.950115476
Magnitude (Debye)      :      4.956799618

Rotational constants in cm-1:             0.012952             0.005366             0.005039
Rotational constants in MHz :           388.291388           160.866171           151.052334

                             ****ORCA TERMINATED NORMALLY****
TOTAL RUN TIME: 0 days 0 hours 0 minutes 23 seconds 197 msec
