                         Program Version 6.0.1  -  RELEASE   -
|  1> ! pbe def2-sv(p) def2/J RI DEFGRID1 loosescf d4 GCP(DFT/SV(P)) printgap
|  2> %output
|  3>     printlevel normal
|  4> end
|  5> * xyz 0 1
|  6> C 4.0452389252 -3.3880876333 0.2986659137
|  7> C 4.1361862173 -2.6486619311 -1.0262649166
|  8> O 2.8228755559 -2.2929970172 -1.506461583
|  9> C 2.2972559221 -1.1521086169 -1.1191181805
| 10> O 2.8507467173 -0.3403155966 -0.4058174294
| 11> C 0.8963657452 -0.9674812376 -1.6604632602
| 12> C 0.441744248 0.4689455961 -1.4354407994
| 13> H 0.8847091899 1.1655052139 -2.14749015
| 14> C 0.7397936681 0.9273551104 -0.02267283
| 15> O 0.3786168707 0.2760336754 0.9403000182
| 16> O 1.2809262465 2.1138749319 0.0136080219
| 17> C 1.5776634447 2.700015544 1.2984859614
| 18> C 3.0084378717 2.3886110486 1.7022566518
| 19> S -1.3665142762 0.6211610172 -1.6319612828
| 20> P -2.1785739311 0.1180628801 0.2691232365
| 21> S -2.1957900995 1.3986100412 1.7631188629
| 22> O -3.6756220797 -0.1710472945 -0.2239456578
| 23> C -4.5822623526 0.8826894691 -0.5598359882
| 24> O -1.7620372839 -1.3919353518 0.5321256212
| 25> C -1.40890711 -1.9015540974 1.8245298615
| 26> H 3.622000759 -2.7386775051 1.0621637218
| 27> H 3.4164073598 -4.267884757 0.1947519428
| 28> H 5.0392690894 -3.692535407 0.6089044873
| 29> H 4.5480618805 -3.2848117756 -1.8094254598
| 30> H 4.7285158326 -1.7354022352 -0.9224564041
| 31> H 0.2457834483 -1.6578724263 -1.1152133018
| 32> H 0.8584875689 -1.2339721298 -2.715708229
| 33> H 1.4235021839 3.7695229874 1.1524863477
| 34> H 0.8626276635 2.3127234985 2.0306072657
| 35> H 3.2092202971 2.8209444339 2.6766197206
| 36> H 3.1523540382 1.3115643201 1.7482984733
| 37> H 3.6996736163 2.7982310232 0.9715904826
| 38> H -4.3367778898 1.2853684567 -1.5422530652
| 39> H -4.5318977129 1.6735576139 0.1913536461
| 40> H -5.5699664409 0.428718026 -0.5669774453
| 41> H -1.8636520727 -1.3016079934 2.6133157332
| 42> H -0.3251019688 -1.8713534536 1.9332031182
| 43> H -1.7814630902 -2.922304438 1.8550850955
| 44> *
| 45>
| 46>                          ****END OF INPUT****

CARTESIAN COORDINATES (ANGSTROEM)
---------------------------------
  C      4.045239   -3.388088    0.298666
  C      4.136186   -2.648662   -1.026265
  O      2.822876   -2.292997   -1.506462
  C      2.297256   -1.152109   -1.119118
  O      2.850747   -0.340316   -0.405817
  C      0.896366   -0.967481   -1.660463
  C      0.441744    0.468946   -1.435441
  H      0.884709    1.165505   -2.147490
  C      0.739794    0.927355   -0.022673
  O      0.378617    0.276034    0.940300
  O      1.280926    2.113875    0.013608
  C      1.577663    2.700016    1.298486
  C      3.008438    2.388611    1.702257
  S     -1.366514    0.621161   -1.631961
  P     -2.178574    0.118063    0.269123
  S     -2.195790    1.398610    1.763119
  O     -3.675622   -0.171047   -0.223946
  C     -4.582262    0.882689   -0.559836
  O     -1.762037   -1.391935    0.532126
  C     -1.408907   -1.901554    1.824530
  H      3.622001   -2.738678    1.062164
  H      3.416407   -4.267885    0.194752
  H      5.039269   -3.692535    0.608904
  H      4.548062   -3.284812   -1.809425
  H      4.728516   -1.735402   -0.922456
  H      0.245783   -1.657872   -1.115213
  H      0.858488   -1.233972   -2.715708
  H      1.423502    3.769523    1.152486
  H      0.862628    2.312723    2.030607
  H      3.209220    2.820944    2.676620
  H      3.152354    1.311564    1.748298
  H      3.699674    2.798231    0.971590
  H     -4.336778    1.285368   -1.542253
  H     -4.531898    1.673558    0.191354
  H     -5.569966    0.428718   -0.566977
  H     -1.863652   -1.301608    2.613316
  H     -0.325102   -1.871353    1.933203
  H     -1.781463   -2.922304    1.855085

 Total Charge           Charge          ....    0
 Multiplicity           Mult            ....    1
 Number of Electrons    NEL             ....  174
 Basis Dimension        Dim             ....  316

ORBITAL ENERGIES
----------------

  NO   OCC          E(Eh)            E(eV)
   0   2.0000     -88.036431     -2395.5931
   1   2.0000     -87.970068     -2393.7872
   2   2.0000     -76.418389     -2079.4501
   3   2.0000     -18.815630      -511.9993
   4   2.0000     -18.802418      -511.6398
   5   2.0000     -18.783775      -511.1325
   6   2.0000     -18.776976      -510.9475
   7   2.0000     -18.754623      -510.3392
   8   2.0000     -18.735708      -509.8245
   9   2.0000     -10.023776      -272.7608
  10   2.0000     -10.014507      -272.5086
  11   2.0000      -9.958280      -270.9786
  12   2.0000      -9.946342      -270.6537
  13   2.0000      -9.938202      -270.4322
  14   2.0000      -9.933861      -270.3141
  15   2.0000      -9.932986      -270.2903
  16   2.0000      -9.915148      -269.8049
  17   2.0000      -9.895795      -269.2783
  18   2.0000      -9.877086      -268.7692
  19   2.0000      -7.681513      -209.0246
  20   2.0000      -7.615240      -207.2212
  21   2.0000      -6.414604      -174.5503
  22   2.0000      -5.709663      -155.3678
  23   2.0000      -5.705897      -155.2654
  24   2.0000      -5.698304      -155.0587
  25   2.0000      -5.644319      -153.5897
  26   2.0000      -5.635991      -153.3631
  27   2.0000      -5.635079      -153.3383
  28   2.0000      -4.637160      -126.1835
  29   2.0000      -4.636675      -126.1703
  30   2.0000      -4.635034      -126.1257
  31   2.0000      -1.024721       -27.8841
  32   2.0000      -1.011169       -27.5153
  33   2.0000      -0.973621       -26.4936
  34   2.0000      -0.932338       -25.3702
  35   2.0000      -0.931324       -25.3426
  36   2.0000      -0.916744       -24.9459
  37   2.0000      -0.763726       -20.7820
  38   2.0000      -0.720482       -19.6053
  39   2.0000      -0.698550       -19.0085
  40   2.0000      -0.689447       -18.7608
  41   2.0000      -0.657656       -17.8957
  42   2.0000      -0.623166       -16.9572
  43   2.0000      -0.617436       -16.8013
  44   2.0000      -0.611864       -16.6497
  45   2.0000      -0.600802       -16.3486
  46   2.0000      -0.558903       -15.2085
  47   2.0000      -0.510368       -13.8878
  48   2.0000      -0.505248       -13.7485
  49   2.0000      -0.491871       -13.3845
  50   2.0000      -0.481539       -13.1033
  51   2.0000      -0.467215       -12.7136
  52   2.0000      -0.461673       -12.5628
  53   2.0000      -0.440406       -11.9841
  54   2.0000      -0.438827       -11.9411
  55   2.0000      -0.434357       -11.8194
  56   2.0000      -0.427119       -11.6225
  57   2.0000      -0.416379       -11.3303
  58   2.0000      -0.413176       -11.2431
  59   2.0000      -0.405658       -11.0385
  60   2.0000      -0.400718       -10.9041
  61   2.0000      -0.397748       -10.8233
  62   2.0000      -0.388960       -10.5842
  63   2.0000      -0.381681       -10.3861
  64   2.0000      -0.378417       -10.2973
  65   2.0000      -0.370268       -10.0755
  66   2.0000      -0.360784        -9.8174
  67   2.0000      -0.357364        -9.7244
  68   2.0000      -0.348753        -9.4900
  69   2.0000      -0.340037        -9.2529
  70   2.0000      -0.332034        -9.0351
  71   2.0000      -0.328489        -8.9386
  72   2.0000      -0.320187        -8.7127
  73   2.0000      -0.307300        -8.3621
  74   2.0000      -0.299753        -8.1567
  75   2.0000      -0.293811        -7.9950
  76   2.0000      -0.286872        -7.8062
  77   2.0000      -0.281288        -7.6542
  78   2.0000      -0.274274        -7.4634
  79   2.0000      -0.266006        -7.2384
  80   2.0000      -0.255806        -6.9608
  81   2.0000      -0.250505        -6.8166
  82   2.0000      -0.240437        -6.5426
  83   2.0000      -0.227802        -6.1988
  84   2.0000      -0.222001        -6.0410
  85   2.0000      -0.187632        -5.1057
  86   2.0000      -0.180906        -4.9227
  87   0.0000      -0.045811        -1.2466
  88   0.0000      -0.036410        -0.9908
  89   0.0000      -0.018231        -0.4961
  90   0.0000       0.004501         0.1225
  91   0.0000       0.033422         0.9094

MULLIKEN ATOMIC CHARGES
-----------------------
   0 C :   -0.306393
   1 C :   -0.015833
   2 O :   -0.224692
   3 C :    0.130739
   4 O :   -0.203164
   5 C :   -0.068989
   6 C :   -0.263634
   7 H :    0.130868
   8 C :    0.184827
   9 O :   -0.220205
  10 O :   -0.206207
  11 C :   -0.028066
  12 C :   -0.294217
  13 S :   -0.097183
  14 P :    0.607646
  15 S :   -0.326916
  16 O :   -0.373847
  17 C :   -0.103435
  18 O :   -0.371390
  19 C :   -0.093027
  20 H :    0.129906
  21 H :    0.118030
  22 H :    0.117110
  23 H :    0.107770
  24 H :    0.112621
  25 H :    0.146188
  26 H :    0.122796
  27 H :    0.103247
  28 H :    0.126776
  29 H :    0.108378
  30 H :    0.129557
  31 H :    0.108924
  32 H :    0.112932
  33 H :    0.115086
  34 H :    0.121801
  35 H :    0.120449
  36 H :    0.125060
  37 H :    0.116486
Sum of atomic charges:   -0.0000000

LOEWDIN ATOMIC CHARGES
----------------------
   0 C :   -0.355231
   1 C :   -0.109443
   2 O :   -0.053782
   3 C :    0.044169
   4 O :   -0.153087
   5 C :   -0.256528
   6 C :   -0.256403
   7 H :    0.141326
   8 C :    0.006691
   9 O :   -0.176144
  10 O :   -0.033011
  11 C :   -0.108793
  12 C :   -0.354586
  13 S :    0.104065
  14 P :    0.578754
  15 S :   -0.321130
  16 O :   -0.259970
  17 C :   -0.219568
  18 O :   -0.243829
  19 C :   -0.209905
  20 H :    0.131690
  21 H :    0.126755
  22 H :    0.132817
  23 H :    0.120251
  24 H :    0.121267
  25 H :    0.154544
  26 H :    0.144799
  27 H :    0.118242
  28 H :    0.123238
  29 H :    0.127961
  30 H :    0.131649
  31 H :    0.123473
  32 H :    0.107826
  33 H :    0.107540
  34 H :    0.120765
  35 H :    0.111922
  36 H :    0.114410
  37 H :    0.117257

  Mayer bond orders larger than 0.100000
B(  0-C ,  1-C ) :   1.1750 B(  0-C , 20-H ) :   0.9461 B(  0-C , 21-H ) :   0.9487
B(  0-C , 22-H ) :   0.9435 B(  1-C ,  2-O ) :   0.9077 B(  1-C , 23-H ) :   0.9366
B(  1-C , 24-H ) :   0.9140 B(  2-O ,  3-C ) :   1.2532 B(  3-C ,  4-O ) :   1.9690
B(  3-C ,  5-C ) :   1.0091 B(  5-C ,  6-C ) :   1.0040 B(  5-C , 25-H ) :   0.8675
B(  5-C , 26-H ) :   0.9003 B(  6-C ,  7-H ) :   0.8868 B(  6-C ,  8-C ) :   0.9106
B(  6-C , 13-S ) :   1.0125 B(  8-C ,  9-O ) :   1.8945 B(  8-C , 10-O ) :   1.2920
B( 10-O , 11-C ) :   0.9053 B( 11-C , 12-C ) :   1.1725 B( 11-C , 27-H ) :   0.9381
B( 11-C , 28-H ) :   0.9078 B( 12-C , 29-H ) :   0.9441 B( 12-C , 30-H ) :   0.9413
B( 12-C , 31-H ) :   0.9488 B( 13-S , 14-P ) :   0.9491 B( 13-S , 15-S ) :   0.1150
B( 14-P , 15-S ) :   1.5949 B( 14-P , 16-O ) :   1.0827 B( 14-P , 18-O ) :   1.1106
B( 16-O , 17-C ) :   0.9392 B( 17-C , 32-H ) :   0.9496 B( 17-C , 33-H ) :   0.9279
B( 17-C , 34-H ) :   0.9596 B( 18-O , 19-C ) :   0.9143 B( 19-C , 35-H ) :   0.9350
B( 19-C , 36-H ) :   0.9470 B( 19-C , 37-H ) :   0.9561

Dispersion correction           -0.051791771
FINAL SINGLE POINT ENERGY     -1979.011615332159

DIPOLE MOMENT
-------------

Method             : SCF
Type of density    : Electron Density
Multiplicity       :   1
Irrep              :   0
Energy             : -1979.1437588357080131 Eh
Relativity type    :
Basis              : AO
                                X                 Y                 Z
Electronic contribution:    -17.070056626       6.046765817      -6.182569720
Nuclear contribution   :     18.291012561      -6.889524871       5.580462671
                        -----------------------------------------
Total Dipole Moment    :      1.220955935      -0.842759054      -0.602107049
                        -----------------------------------------
Magnitude (a.u.)       :      1.601096224
Magnitude (Debye)      :      4.069663180

Rotational constants in cm-1:             0.014249             0.006559             0.005690
Rotational constants in MHz :           427.172089           196.628914           170.575175

                             ****ORCA TERMINATED NORMALLY****
TOTAL RUN TIME: 0 days 0 hours 0 minutes 38 seconds 383 msec
