                         Program Version 6.0.0  -   RELEASE  -
|  1> ! pbe def2-sv(p) def2/J RI DEFGRID1 loosescf d4 GCP(DFT/SV(P)) printgap
|  2> %output
|  3>     printlevel normal
|  4> end
|  5> * xyz 0 1
|  6> C 1.3823070925 0.5384972065 -2.7592951471
|  7> C 2.4288736309 0.8805648105 -1.7172857198
|  8> O 2.7967138199 -0.2856572046 -0.9594212659
|  9> P 2.2206525986 -0.6417639231 0.4767587114
| 10> S 2.3197059534 0.7873679403 1.8242752088
| 11> O 3.0521795942 -1.9408437356 0.8325030509
| 12> C 4.3121389043 -1.8868719153 1.5312516566
| 13> C 5.4039793515 -1.2730454308 0.6806561428
| 14> S 0.3551207603 -1.5543150884 0.1216368539
| 15> C -0.4993918792 -1.0687545399 1.6636494199
| 16> S -2.2577765598 -0.7449223499 1.3949342087
| 17> P -2.0623503642 0.7556202448 -0.0859209549
| 18> S -0.5959652812 2.0405560943 0.0339357052
| 19> O -3.5312157421 1.3510460926 0.1058771169
| 20> C -3.8615865032 2.6954163629 -0.2917278052
| 21> C -3.9236528929 2.8331893531 -1.7999792013
| 22> O -2.0416218605 0.0202506064 -1.4954112469
| 23> C -3.058215576 -0.9381168864 -1.878258267
| 24> C -2.4824784973 -2.3396046358 -1.901190291
| 25> H 0.4382312002 0.279504896 -2.2839611954
| 26> H 1.2246215407 1.4023520743 -3.39704218
| 27> H 1.7185551855 -0.3018701052 -3.3598913588
| 28> H 2.0693901176 1.659340393 -1.0363295162
| 29> H 3.3578562343 1.2104658264 -2.1865369466
| 30> H 4.1713559097 -1.311956007 2.4522071881
| 31> H 4.5210997917 -2.9303326247 1.7701652377
| 32> H 6.3529584587 -1.3481172978 1.2023048003
| 33> H 5.4709239243 -1.788617506 -0.2736298537
| 34> H 5.1821595645 -0.2222811319 0.498164029
| 35> H -0.0121288211 -0.1705623311 2.0543184557
| 36> H -0.4486960144 -1.8857318847 2.3791794693
| 37> H -4.8306299959 2.8786213782 0.1745537759
| 38> H -3.1139761506 3.376784253 0.1266971196
| 39> H -2.9415424405 2.6322105479 -2.2274180189
| 40> H -4.6430613836 2.1320182865 -2.2148363362
| 41> H -4.2194576209 3.8456896489 -2.0562430651
| 42> H -3.8976273703 -0.8656525554 -1.1808851194
| 43> H -3.3763070936 -0.6262802229 -2.8746301777
| 44> H -1.6116960799 -2.375426835 -2.5493161746
| 45> H -2.1791793175 -2.6464779449 -0.9030868907
| 46> H -3.2371447648 -3.0256749426 -2.2718870999
| 47> *
| 48>
| 49>                          ****END OF INPUT****

CARTESIAN COORDINATES (ANGSTROEM)
---------------------------------
  C      1.382307    0.538497   -2.759295
  C      2.428874    0.880565   -1.717286
  O      2.796714   -0.285657   -0.959421
  P      2.220653   -0.641764    0.476759
  S      2.319706    0.787368    1.824275
  O      3.052180   -1.940844    0.832503
  C      4.312139   -1.886872    1.531252
  C      5.403979   -1.273045    0.680656
  S      0.355121   -1.554315    0.121637
  C     -0.499392   -1.068755    1.663649
  S     -2.257777   -0.744922    1.394934
  P     -2.062350    0.755620   -0.085921
  S     -0.595965    2.040556    0.033936
  O     -3.531216    1.351046    0.105877
  C     -3.861587    2.695416   -0.291728
  C     -3.923653    2.833189   -1.799979
  O     -2.041622    0.020251   -1.495411
  C     -3.058216   -0.938117   -1.878258
  C     -2.482478   -2.339605   -1.901190
  H      0.438231    0.279505   -2.283961
  H      1.224622    1.402352   -3.397042
  H      1.718555   -0.301870   -3.359891
  H      2.069390    1.659340   -1.036330
  H      3.357856    1.210466   -2.186537
  H      4.171356   -1.311956    2.452207
  H      4.521100   -2.930333    1.770165
  H      6.352958   -1.348117    1.202305
  H      5.470924   -1.788618   -0.273630
  H      5.182160   -0.222281    0.498164
  H     -0.012129   -0.170562    2.054318
  H     -0.448696   -1.885732    2.379179
  H     -4.830630    2.878621    0.174554
  H     -3.113976    3.376784    0.126697
  H     -2.941542    2.632211   -2.227418
  H     -4.643061    2.132018   -2.214836
  H     -4.219458    3.845690   -2.056243
  H     -3.897627   -0.865653   -1.180885
  H     -3.376307   -0.626280   -2.874630
  H     -1.611696   -2.375427   -2.549316
  H     -2.179179   -2.646478   -0.903087
  H     -3.237145   -3.025675   -2.271887

 Total Charge           Charge          ....    0
 Multiplicity           Mult            ....    1
 Number of Electrons    NEL             ....  202
 Basis Dimension        Dim             ....  334

ORBITAL ENERGIES
----------------

  NO   OCC          E(Eh)            E(eV)
   0   2.0000     -88.046672     -2395.8717
   1   2.0000     -88.039483     -2395.6761
   2   2.0000     -87.985946     -2394.2193
   3   2.0000     -87.982853     -2394.1351
   4   2.0000     -76.426652     -2079.6749
   5   2.0000     -76.420916     -2079.5189
   6   2.0000     -18.794373      -511.4209
   7   2.0000     -18.793924      -511.4087
   8   2.0000     -18.787414      -511.2315
   9   2.0000     -18.782476      -511.0972
  10   2.0000      -9.958700      -270.9900
  11   2.0000      -9.954596      -270.8783
  12   2.0000      -9.953034      -270.8358
  13   2.0000      -9.946213      -270.6502
  14   2.0000      -9.942065      -270.5374
  15   2.0000      -9.888573      -269.0818
  16   2.0000      -9.886357      -269.0214
  17   2.0000      -9.879187      -268.8263
  18   2.0000      -9.870911      -268.6011
  19   2.0000      -7.691838      -209.3056
  20   2.0000      -7.684221      -209.0983
  21   2.0000      -7.630900      -207.6473
  22   2.0000      -7.627724      -207.5609
  23   2.0000      -6.424364      -174.8158
  24   2.0000      -6.418708      -174.6619
  25   2.0000      -5.719768      -155.6428
  26   2.0000      -5.716381      -155.5506
  27   2.0000      -5.712084      -155.4337
  28   2.0000      -5.708875      -155.3464
  29   2.0000      -5.708711      -155.3419
  30   2.0000      -5.701045      -155.1333
  31   2.0000      -5.659940      -154.0148
  32   2.0000      -5.656560      -153.9228
  33   2.0000      -5.651608      -153.7881
  34   2.0000      -5.650797      -153.7660
  35   2.0000      -5.648463      -153.7025
  36   2.0000      -5.647861      -153.6861
  37   2.0000      -4.647259      -126.4583
  38   2.0000      -4.645886      -126.4210
  39   2.0000      -4.644783      -126.3910
  40   2.0000      -4.641048      -126.2893
  41   2.0000      -4.640370      -126.2709
  42   2.0000      -4.639442      -126.2456
  43   2.0000      -0.987293       -26.8656
  44   2.0000      -0.980610       -26.6838
  45   2.0000      -0.946526       -25.7563
  46   2.0000      -0.938991       -25.5512
  47   2.0000      -0.762734       -20.7550
  48   2.0000      -0.721104       -19.6222
  49   2.0000      -0.706785       -19.2326
  50   2.0000      -0.694044       -18.8859
  51   2.0000      -0.679870       -18.5002
  52   2.0000      -0.671149       -18.2629
  53   2.0000      -0.650779       -17.7086
  54   2.0000      -0.632998       -17.2248
  55   2.0000      -0.599449       -16.3118
  56   2.0000      -0.589562       -16.0428
  57   2.0000      -0.577308       -15.7094
  58   2.0000      -0.562276       -15.3003
  59   2.0000      -0.558232       -15.1903
  60   2.0000      -0.502948       -13.6859
  61   2.0000      -0.490325       -13.3424
  62   2.0000      -0.480490       -13.0748
  63   2.0000      -0.469764       -12.7829
  64   2.0000      -0.452381       -12.3099
  65   2.0000      -0.448304       -12.1990
  66   2.0000      -0.438972       -11.9450
  67   2.0000      -0.429195       -11.6790
  68   2.0000      -0.428805       -11.6684
  69   2.0000      -0.411447       -11.1960
  70   2.0000      -0.404063       -10.9951
  71   2.0000      -0.393458       -10.7065
  72   2.0000      -0.391151       -10.6438
  73   2.0000      -0.385115       -10.4795
  74   2.0000      -0.378935       -10.3114
  75   2.0000      -0.374601       -10.1934
  76   2.0000      -0.368746       -10.0341
  77   2.0000      -0.359518        -9.7830
  78   2.0000      -0.351750        -9.5716
  79   2.0000      -0.349442        -9.5088
  80   2.0000      -0.346971        -9.4416
  81   2.0000      -0.341999        -9.3063
  82   2.0000      -0.337838        -9.1930
  83   2.0000      -0.335681        -9.1343
  84   2.0000      -0.326610        -8.8875
  85   2.0000      -0.320418        -8.7190
  86   2.0000      -0.311274        -8.4702
  87   2.0000      -0.307290        -8.3618
  88   2.0000      -0.285589        -7.7713
  89   2.0000      -0.282841        -7.6965
  90   2.0000      -0.279744        -7.6122
  91   2.0000      -0.273942        -7.4543
  92   2.0000      -0.271377        -7.3845
  93   2.0000      -0.268017        -7.2931
  94   2.0000      -0.257409        -7.0045
  95   2.0000      -0.230257        -6.2656
  96   2.0000      -0.225279        -6.1302
  97   2.0000      -0.210805        -5.7363
  98   2.0000      -0.199722        -5.4347
  99   2.0000      -0.197532        -5.3751
 100   2.0000      -0.189680        -5.1614
 101   0.0000      -0.046592        -1.2678
 102   0.0000      -0.034030        -0.9260
 103   0.0000      -0.003448        -0.0938
 104   0.0000       0.009549         0.2599
 105   0.0000       0.019900         0.5415

MULLIKEN ATOMIC CHARGES
-----------------------
   0 C :   -0.315223
   1 C :   -0.010815
   2 O :   -0.373445
   3 P :    0.629483
   4 S :   -0.317339
   5 O :   -0.368505
   6 C :   -0.003179
   7 C :   -0.305142
   8 S :   -0.112637
   9 C :   -0.342106
  10 S :   -0.098274
  11 P :    0.618830
  12 S :   -0.297363
  13 O :   -0.389767
  14 C :   -0.006248
  15 C :   -0.315733
  16 O :   -0.360643
  17 C :   -0.028747
  18 C :   -0.280457
  19 H :    0.147706
  20 H :    0.104106
  21 H :    0.103465
  22 H :    0.120457
  23 H :    0.099247
  24 H :    0.108507
  25 H :    0.102669
  26 H :    0.109505
  27 H :    0.116015
  28 H :    0.122907
  29 H :    0.209925
  30 H :    0.181215
  31 H :    0.106850
  32 H :    0.116564
  33 H :    0.130059
  34 H :    0.112517
  35 H :    0.115113
  36 H :    0.107151
  37 H :    0.110005
  38 H :    0.122415
  39 H :    0.122012
  40 H :    0.108898
Sum of atomic charges:    0.0000000

LOEWDIN ATOMIC CHARGES
----------------------
   0 C :   -0.368732
   1 C :   -0.117147
   2 O :   -0.240664
   3 P :    0.570384
   4 S :   -0.303060
   5 O :   -0.246681
   6 C :   -0.117908
   7 C :   -0.364466
   8 S :    0.085646
   9 C :   -0.475959
  10 S :    0.088521
  11 P :    0.566520
  12 S :   -0.286028
  13 O :   -0.258128
  14 C :   -0.117085
  15 C :   -0.365556
  16 O :   -0.240364
  17 C :   -0.119153
  18 C :   -0.360534
  19 H :    0.120936
  20 H :    0.128602
  21 H :    0.120300
  22 H :    0.108234
  23 H :    0.115235
  24 H :    0.108962
  25 H :    0.117623
  26 H :    0.129003
  27 H :    0.126134
  28 H :    0.123509
  29 H :    0.123985
  30 H :    0.134955
  31 H :    0.119352
  32 H :    0.112586
  33 H :    0.125972
  34 H :    0.122566
  35 H :    0.132143
  36 H :    0.107704
  37 H :    0.119270
  38 H :    0.128817
  39 H :    0.115272
  40 H :    0.129231

  Mayer bond orders larger than 0.100000
B(  0-C ,  1-C ) :   1.1722 B(  0-C , 19-H ) :   0.9229 B(  0-C , 20-H ) :   0.9401
B(  0-C , 21-H ) :   0.9462 B(  1-C ,  2-O ) :   0.8983 B(  1-C , 22-H ) :   0.9045
B(  1-C , 23-H ) :   0.9344 B(  2-O ,  3-P ) :   1.1206 B(  3-P ,  4-S ) :   1.6098
B(  3-P ,  5-O ) :   1.1275 B(  3-P ,  8-S ) :   0.9513 B(  4-S ,  8-S ) :   0.1171
B(  5-O ,  6-C ) :   0.9132 B(  6-C ,  7-C ) :   1.1635 B(  6-C , 24-H ) :   0.9154
B(  6-C , 25-H ) :   0.9351 B(  7-C , 26-H ) :   0.9388 B(  7-C , 27-H ) :   0.9465
B(  7-C , 28-H ) :   0.9374 B(  8-S ,  9-C ) :   0.9941 B(  9-C , 10-S ) :   1.0093
B(  9-C , 29-H ) :   0.8511 B(  9-C , 30-H ) :   0.9106 B( 10-S , 11-P ) :   0.9434
B( 10-S , 12-S ) :   0.1045 B( 11-P , 12-S ) :   1.6474 B( 11-P , 13-O ) :   1.0822
B( 11-P , 16-O ) :   1.0849 B( 13-O , 14-C ) :   0.9084 B( 14-C , 15-C ) :   1.1608
B( 14-C , 31-H ) :   0.9347 B( 14-C , 32-H ) :   0.9143 B( 15-C , 33-H ) :   0.9358
B( 15-C , 34-H ) :   0.9463 B( 15-C , 35-H ) :   0.9391 B( 16-O , 17-C ) :   0.8971
B( 17-C , 18-C ) :   1.1682 B( 17-C , 36-H ) :   0.9136 B( 17-C , 37-H ) :   0.9321
B( 18-C , 38-H ) :   0.9457 B( 18-C , 39-H ) :   0.9310 B( 18-C , 40-H ) :   0.9387

Dispersion correction           -0.066910144
FINAL SINGLE POINT ENERGY     -2929.521760006058

DIPOLE MOMENT
-------------

Method             : SCF
Type of density    : Electron Density
Multiplicity       :   1
Irrep              :   0
Energy             : -2929.6403602497298380 Eh
Relativity type    :
Basis              : AO
                                X                 Y                 Z
Electronic contribution:     -0.621424299      -0.310990030      16.546158654
Nuclear contribution   :     -0.136205965      -0.206625458     -17.504786125
                        -----------------------------------------
Total Dipole Moment    :     -0.757630264      -0.517615488      -0.958627471
                        -----------------------------------------
Magnitude (a.u.)       :      1.326987581
Magnitude (Debye)      :      3.372934379

Rotational constants in cm-1:             0.013870             0.004833             0.004703
Rotational constants in MHz :           415.809922           144.897217           140.978703

                             ****ORCA TERMINATED NORMALLY****
TOTAL RUN TIME: 0 days 0 hours 0 minutes 21 seconds 485 msec
