                         Program Version 6.0.0  -   RELEASE  -
|  1> ! pbe def2-sv(p) def2/J RI DEFGRID1 loosescf d4 GCP(DFT/SV(P)) printgap
|  2> %output
|  3>     printlevel normal
|  4> end
|  5> * xyz 0 1
|  6> C -0.7884102631 -1.1942590242 0.1932692296
|  7> C 0.7627395979 -1.1713202463 0.234879985
|  8> O 1.2585512394 3.91732e-05 -0.3917993602
|  9> C 0.762365214 1.1782643972 0.221859433
| 10> C -0.7892722408 1.1865380189 0.2088217576
| 11> N -1.3168245302 0.0003053069 -0.4449822574
| 12> H -1.1943932517 -1.2307879081 1.2075042531
| 13> H -1.1476682794 -2.063577512 -0.3566613899
| 14> H 1.1310804156 -1.2124834753 1.2699456042
| 15> H 1.1957000682 -1.9969498 -0.3303167357
| 16> H 1.1493027941 1.2434383239 1.2489521537
| 17> H 1.1768395457 1.9965405492 -0.367504893
| 18> H -1.1777987379 1.1969821396 1.2304279344
| 19> H -1.1663293698 2.0640293035 -0.315704964
| 20> H -1.0185844409 0.0072010003 -1.4177586761
| 21> *
| 22>
| 23>                          ****END OF INPUT****

CARTESIAN COORDINATES (ANGSTROEM)
---------------------------------
  C     -0.788410   -1.194259    0.193269
  C      0.762740   -1.171320    0.234880
  O      1.258551    0.000039   -0.391799
  C      0.762365    1.178264    0.221859
  C     -0.789272    1.186538    0.208822
  N     -1.316825    0.000305   -0.444982
  H     -1.194393   -1.230788    1.207504
  H     -1.147668   -2.063578   -0.356661
  H      1.131080   -1.212483    1.269946
  H      1.195700   -1.996950   -0.330317
  H      1.149303    1.243438    1.248952
  H      1.176840    1.996541   -0.367505
  H     -1.177799    1.196982    1.230428
  H     -1.166329    2.064029   -0.315705
  H     -1.018584    0.007201   -1.417759

 Total Charge           Charge          ....    0
 Multiplicity           Mult            ....    1
 Number of Electrons    NEL             ....   48
 Basis Dimension        Dim             ....  102

ORBITAL ENERGIES
----------------

  NO   OCC          E(Eh)            E(eV)
   0   2.0000     -18.753691      -510.3139
   1   2.0000     -13.976286      -380.3141
   2   2.0000      -9.927032      -270.1283
   3   2.0000      -9.926977      -270.1268
   4   2.0000      -9.908667      -269.6286
   5   2.0000      -9.908542      -269.6251
   6   2.0000      -0.939971       -25.5779
   7   2.0000      -0.818591       -22.2750
   8   2.0000      -0.689156       -18.7529
   9   2.0000      -0.605673       -16.4812
  10   2.0000      -0.584386       -15.9020
  11   2.0000      -0.504899       -13.7390
  12   2.0000      -0.461287       -12.5522
  13   2.0000      -0.438210       -11.9243
  14   2.0000      -0.427683       -11.6378
  15   2.0000      -0.398461       -10.8427
  16   2.0000      -0.375345       -10.2136
  17   2.0000      -0.350866        -9.5475
  18   2.0000      -0.340996        -9.2790
  19   2.0000      -0.326760        -8.8916
  20   2.0000      -0.292620        -7.9626
  21   2.0000      -0.266586        -7.2542
  22   2.0000      -0.216643        -5.8952
  23   2.0000      -0.174745        -4.7550
  24   0.0000       0.023465         0.6385
  25   0.0000       0.049514         1.3474
  26   0.0000       0.069792         1.8991
  27   0.0000       0.072037         1.9602
  28   0.0000       0.091217         2.4821

MULLIKEN ATOMIC CHARGES
-----------------------
   0 C :   -0.096056
   1 C :    0.009348
   2 O :   -0.339805
   3 C :    0.010943
   4 C :   -0.099159
   5 N :   -0.336755
   6 H :    0.079535
   7 H :    0.093146
   8 H :    0.060843
   9 H :    0.090691
  10 H :    0.061051
  11 H :    0.090369
  12 H :    0.079892
  13 H :    0.093660
  14 H :    0.202296
Sum of atomic charges:   -0.0000000

LOEWDIN ATOMIC CHARGES
----------------------
   0 C :   -0.193890
   1 C :   -0.134449
   2 O :   -0.173736
   3 C :   -0.134457
   4 C :   -0.194148
   5 N :   -0.246464
   6 H :    0.111835
   7 H :    0.116635
   8 H :    0.093410
   9 H :    0.112837
  10 H :    0.093522
  11 H :    0.112559
  12 H :    0.111912
  13 H :    0.116809
  14 H :    0.207626

  Mayer bond orders larger than 0.100000
B(  0-C ,  1-C ) :   1.0607 B(  0-C ,  5-N ) :   1.1215 B(  0-C ,  6-H ) :   0.9190
B(  0-C ,  7-H ) :   0.9344 B(  1-C ,  2-O ) :   1.0514 B(  1-C ,  8-H ) :   0.9095
B(  1-C ,  9-H ) :   0.9352 B(  2-O ,  3-C ) :   1.0515 B(  3-C ,  4-C ) :   1.0616
B(  3-C , 10-H ) :   0.9099 B(  3-C , 11-H ) :   0.9349 B(  4-C ,  5-N ) :   1.1208
B(  4-C , 12-H ) :   0.9189 B(  4-C , 13-H ) :   0.9343 B(  5-N , 14-H ) :   0.8764

Dispersion correction           -0.011700185
FINAL SINGLE POINT ENERGY      -287.124305666375

DIPOLE MOMENT
-------------

Method             : SCF
Type of density    : Electron Density
Multiplicity       :   1
Irrep              :   0
Energy             :  -287.1883419070057357 Eh
Relativity type    :
Basis              : AO
                                X                 Y                 Z
Electronic contribution:      0.988373391      -0.001678714      -1.864839460
Nuclear contribution   :     -0.975365369       0.004123301       2.026513247
                        -----------------------------------------
Total Dipole Moment    :      0.013008022       0.002444588       0.161673787
                        -----------------------------------------
Magnitude (a.u.)       :      0.162214666
Magnitude (Debye)      :      0.412316914

Rotational constants in cm-1:             0.159189             0.157898             0.093407
Rotational constants in MHz :          4772.374859          4733.663368          2800.278520

                             ****ORCA TERMINATED NORMALLY****
TOTAL RUN TIME: 0 days 0 hours 0 minutes 6 seconds 208 msec
