                         Program Version 6.0.0  -   RELEASE  -
|  1> ! wb97x-v def2-tzvp def2/J RIJCOSX DEFGRID2 scfconv7 GCP(DFT/TZ) printgap
|  2> %output
|  3>     printlevel normal
|  4> end
|  5> * xyz 0 1
|  6> C -3.094396525969422 0.36908830001355936 0.0007465938557885939
|  7> C -1.6305790687305153 0.028285878101097815 -0.00030417161013781386
|  8> C -1.188249281976459 -1.2950139254194024 -5.640581421510264e-05
|  9> C 0.1767519599096869 -1.5837470129452256 0.00046971382638050354
| 10> C 1.1436722692487964 -0.5804676624523596 0.0004967165956773705
| 11> C 0.6846280943621859 0.7454931304515634 -8.31521674612667e-05
| 12> C -0.6731311067386772 1.047812187538251 -0.0004020026755919204
| 13> O 1.6455160121776675 1.736381577424446 -0.000687732800876178
| 14> C 2.6127737389376775 -0.8819507615157292 0.0003954700019818706
| 15> H -3.358713803926411 0.9760372228302144 -0.872056664988186
| 16> H -3.7089111327278474 -0.5343718823336634 -0.012609453684510519
| 17> H -3.362797179777729 0.9518432463953576 0.8887985237766891
| 18> H -1.9118263553141555 -2.104784705608285 -0.0002332290445438072
| 19> H 0.5045720323649348 -2.620081022545044 0.0007169431878980681
| 20> H -0.986076922147804 2.0899960638778707 -0.0007877606347318403
| 21> H 1.2063782608956077 2.598453092550401 -0.0008207022765398132
| 22> H 3.1080356092731978 -0.4624664076366833 -0.8824712011774298
| 23> H 3.1104213135295895 -0.45193944282782744 0.8767611943207718
| 24> H 2.7804616798932154 -1.9615111316079175 0.006507629154045073
| 25> *
| 26>
| 27>                          ****END OF INPUT****

CARTESIAN COORDINATES (ANGSTROEM)
---------------------------------
  C     -3.094397    0.369088    0.000747
  C     -1.630579    0.028286   -0.000304
  C     -1.188249   -1.295014   -0.000056
  C      0.176752   -1.583747    0.000470
  C      1.143672   -0.580468    0.000497
  C      0.684628    0.745493   -0.000083
  C     -0.673131    1.047812   -0.000402
  O      1.645516    1.736382   -0.000688
  C      2.612774   -0.881951    0.000395
  H     -3.358714    0.976037   -0.872057
  H     -3.708911   -0.534372   -0.012609
  H     -3.362797    0.951843    0.888799
  H     -1.911826   -2.104785   -0.000233
  H      0.504572   -2.620081    0.000717
  H     -0.986077    2.089996   -0.000788
  H      1.206378    2.598453   -0.000821
  H      3.108036   -0.462466   -0.882471
  H      3.110421   -0.451939    0.876761
  H      2.780462   -1.961511    0.006508

 Total Charge           Charge          ....    0
 Multiplicity           Mult            ....    1
 Number of Electrons    NEL             ....   66
 Basis Dimension        Dim             ....  339

ORBITAL ENERGIES
----------------

  NO   OCC          E(Eh)            E(eV)
   0   2.0000     -21.701396      -590.5250
   1   2.0000     -12.107946      -329.4740
   2   2.0000     -12.059153      -328.1462
   3   2.0000     -12.050638      -327.9145
   4   2.0000     -12.046679      -327.8068
   5   2.0000     -12.044976      -327.7605
   6   2.0000     -12.043431      -327.7184
   7   2.0000     -12.037816      -327.5656
   8   2.0000     -12.036298      -327.5243
   9   2.0000      -1.713419       -46.6245
  10   2.0000      -1.385074       -37.6898
  11   2.0000      -1.308562       -35.6078
  12   2.0000      -1.271986       -34.6125
  13   2.0000      -1.221496       -33.2386
  14   2.0000      -1.170790       -31.8588
  15   2.0000      -1.145428       -31.1687
  16   2.0000      -1.083051       -29.4713
  17   2.0000      -1.054129       -28.6843
  18   2.0000      -0.995366       -27.0853
  19   2.0000      -0.945023       -25.7154
  20   2.0000      -0.943697       -25.6793
  21   2.0000      -0.933422       -25.3997
  22   2.0000      -0.888453       -24.1760
  23   2.0000      -0.866948       -23.5908
  24   2.0000      -0.838477       -22.8161
  25   2.0000      -0.837510       -22.7898
  26   2.0000      -0.827954       -22.5298
  27   2.0000      -0.820546       -22.3282
  28   2.0000      -0.810711       -22.0606
  29   2.0000      -0.797874       -21.7113
  30   2.0000      -0.749470       -20.3941
  31   2.0000      -0.635447       -17.2914
  32   2.0000      -0.624883       -17.0039
  33   0.0000      -0.240950        -6.5566
  34   0.0000      -0.238147        -6.4803
  35   0.0000      -0.146946        -3.9986
  36   0.0000      -0.072956        -1.9852
  37   0.0000      -0.069256        -1.8845

MULLIKEN ATOMIC CHARGES
-----------------------
   0 C :   -0.368320
   1 C :    0.144200
   2 C :   -0.220702
   3 C :   -0.140623
   4 C :    0.002147
   5 C :    0.259767
   6 C :   -0.288597
   7 O :   -0.396246
   8 C :   -0.334254
   9 H :    0.121535
  10 H :    0.117472
  11 H :    0.121798
  12 H :    0.107297
  13 H :    0.109703
  14 H :    0.099909
  15 H :    0.310214
  16 H :    0.121979
  17 H :    0.122176
  18 H :    0.110545
Sum of atomic charges:    0.0000000

LOEWDIN ATOMIC CHARGES
----------------------
   0 C :   -0.251779
   1 C :   -0.171818
   2 C :   -0.137766
   3 C :   -0.111192
   4 C :   -0.157949
   5 C :   -0.228838
   6 C :   -0.123819
   7 O :    0.066019
   8 C :   -0.249976
   9 H :    0.126358
  10 H :    0.124616
  11 H :    0.126483
  12 H :    0.141053
  13 H :    0.144017
  14 H :    0.140993
  15 H :    0.184059
  16 H :    0.128342
  17 H :    0.128342
  18 H :    0.122855

  Mayer bond orders larger than 0.100000
B(  0-C ,  1-C ) :   0.9060 B(  0-C ,  9-H ) :   0.9770 B(  0-C , 10-H ) :   0.9968
B(  0-C , 11-H ) :   0.9759 B(  1-C ,  2-C ) :   1.4246 B(  1-C ,  6-C ) :   1.3773
B(  2-C ,  3-C ) :   1.4289 B(  2-C , 12-H ) :   0.9709 B(  3-C ,  4-C ) :   1.4453
B(  3-C , 13-H ) :   0.9706 B(  4-C ,  5-C ) :   1.3377 B(  4-C ,  8-C ) :   0.9594
B(  5-C ,  6-C ) :   1.3997 B(  5-C ,  7-O ) :   1.1695 B(  6-C , 14-H ) :   0.9607
B(  7-O , 15-H ) :   0.8902 B(  8-C , 16-H ) :   0.9670 B(  8-C , 17-H ) :   0.9673
B(  8-C , 18-H ) :   0.9946

FINAL SINGLE POINT ENERGY      -386.123282679821

DIPOLE MOMENT
-------------

Method             : SCF
Type of density    : Electron Density
Multiplicity       :   1
Irrep              :   0
Energy             :  -386.1344242745211091 Eh
Relativity type    :
Basis              : AO
                                X                 Y                 Z
Electronic contribution:      2.044396246       1.794996472      -0.002434373
Nuclear contribution   :     -2.435560374      -1.431530426       0.002944548
                        -----------------------------------------
Total Dipole Moment    :     -0.391164128       0.363466046       0.000510176
                        -----------------------------------------
Magnitude (a.u.)       :      0.533963671
Magnitude (Debye)      :      1.357227791

Rotational constants in cm-1:             0.101809             0.043246             0.030698
Rotational constants in MHz :          3052.167225          1296.492572           920.311045

                             ****ORCA TERMINATED NORMALLY****
TOTAL RUN TIME: 0 days 0 hours 3 minutes 45 seconds 836 msec
