                         Program Version 6.0.0  -   RELEASE  -
|  1> ! wb97x-v def2-tzvp def2/J RIJCOSX DEFGRID2 scfconv7 GCP(DFT/TZ) printgap
|  2> %output
|  3>     printlevel normal
|  4> end
|  5> %cpcm
|  6>     smd true
|  7>     smdsolvent "water"
|  8> end
|  9> * xyz 0 1
| 10> C -3.094396525969422 0.36908830001355936 0.0007465938557885939
| 11> C -1.6305790687305153 0.028285878101097815 -0.00030417161013781386
| 12> C -1.188249281976459 -1.2950139254194024 -5.640581421510264e-05
| 13> C 0.1767519599096869 -1.5837470129452256 0.00046971382638050354
| 14> C 1.1436722692487964 -0.5804676624523596 0.0004967165956773705
| 15> C 0.6846280943621859 0.7454931304515634 -8.31521674612667e-05
| 16> C -0.6731311067386772 1.047812187538251 -0.0004020026755919204
| 17> O 1.6455160121776675 1.736381577424446 -0.000687732800876178
| 18> C 2.6127737389376775 -0.8819507615157292 0.0003954700019818706
| 19> H -3.358713803926411 0.9760372228302144 -0.872056664988186
| 20> H -3.7089111327278474 -0.5343718823336634 -0.012609453684510519
| 21> H -3.362797179777729 0.9518432463953576 0.8887985237766891
| 22> H -1.9118263553141555 -2.104784705608285 -0.0002332290445438072
| 23> H 0.5045720323649348 -2.620081022545044 0.0007169431878980681
| 24> H -0.986076922147804 2.0899960638778707 -0.0007877606347318403
| 25> H 1.2063782608956077 2.598453092550401 -0.0008207022765398132
| 26> H 3.1080356092731978 -0.4624664076366833 -0.8824712011774298
| 27> H 3.1104213135295895 -0.45193944282782744 0.8767611943207718
| 28> H 2.7804616798932154 -1.9615111316079175 0.006507629154045073
| 29> *
| 30>
| 31>                          ****END OF INPUT****

CARTESIAN COORDINATES (ANGSTROEM)
---------------------------------
  C     -3.094397    0.369088    0.000747
  C     -1.630579    0.028286   -0.000304
  C     -1.188249   -1.295014   -0.000056
  C      0.176752   -1.583747    0.000470
  C      1.143672   -0.580468    0.000497
  C      0.684628    0.745493   -0.000083
  C     -0.673131    1.047812   -0.000402
  O      1.645516    1.736382   -0.000688
  C      2.612774   -0.881951    0.000395
  H     -3.358714    0.976037   -0.872057
  H     -3.708911   -0.534372   -0.012609
  H     -3.362797    0.951843    0.888799
  H     -1.911826   -2.104785   -0.000233
  H      0.504572   -2.620081    0.000717
  H     -0.986077    2.089996   -0.000788
  H      1.206378    2.598453   -0.000821
  H      3.108036   -0.462466   -0.882471
  H      3.110421   -0.451939    0.876761
  H      2.780462   -1.961511    0.006508

 Total Charge           Charge          ....    0
 Multiplicity           Mult            ....    1
 Number of Electrons    NEL             ....   66
 Basis Dimension        Dim             ....  339

ORBITAL ENERGIES
----------------

  NO   OCC          E(Eh)            E(eV)
   0   2.0000     -21.699627      -590.4769
   1   2.0000     -12.108027      -329.4762
   2   2.0000     -12.057803      -328.1095
   3   2.0000     -12.051604      -327.9408
   4   2.0000     -12.045987      -327.7880
   5   2.0000     -12.041213      -327.6581
   6   2.0000     -12.036817      -327.5384
   7   2.0000     -12.034275      -327.4693
   8   2.0000     -12.033346      -327.4440
   9   2.0000      -1.712024       -46.5865
  10   2.0000      -1.385594       -37.7039
  11   2.0000      -1.307606       -35.5818
  12   2.0000      -1.271539       -34.6003
  13   2.0000      -1.218072       -33.1454
  14   2.0000      -1.167666       -31.7738
  15   2.0000      -1.143881       -31.1266
  16   2.0000      -1.081605       -29.4320
  17   2.0000      -1.052794       -28.6480
  18   2.0000      -0.996210       -27.1082
  19   2.0000      -0.946023       -25.7426
  20   2.0000      -0.943616       -25.6771
  21   2.0000      -0.930056       -25.3081
  22   2.0000      -0.884214       -24.0607
  23   2.0000      -0.863735       -23.5034
  24   2.0000      -0.833603       -22.6835
  25   2.0000      -0.832399       -22.6507
  26   2.0000      -0.825736       -22.4694
  27   2.0000      -0.816582       -22.2203
  28   2.0000      -0.805210       -21.9109
  29   2.0000      -0.793886       -21.6027
  30   2.0000      -0.750006       -20.4087
  31   2.0000      -0.636342       -17.3158
  32   2.0000      -0.626474       -17.0472
  33   0.0000      -0.242662        -6.6032
  34   0.0000      -0.238337        -6.4855
  35   0.0000      -0.145190        -3.9508
  36   0.0000      -0.072895        -1.9836
  37   0.0000      -0.040899        -1.1129

MULLIKEN ATOMIC CHARGES
-----------------------
   0 C :   -0.393547
   1 C :    0.134747
   2 C :   -0.275940
   3 C :   -0.185659
   4 C :   -0.015863
   5 C :    0.261064
   6 C :   -0.339715
   7 O :   -0.473116
   8 C :   -0.394555
   9 H :    0.140184
  10 H :    0.141010
  11 H :    0.140142
  12 H :    0.153591
  13 H :    0.155569
  14 H :    0.160166
  15 H :    0.374755
  16 H :    0.137796
  17 H :    0.137716
  18 H :    0.141654
Sum of atomic charges:    0.0000000

LOEWDIN ATOMIC CHARGES
----------------------
   0 C :   -0.253455
   1 C :   -0.181043
   2 C :   -0.151439
   3 C :   -0.124405
   4 C :   -0.171386
   5 C :   -0.239001
   6 C :   -0.118524
   7 O :    0.042832
   8 C :   -0.257364
   9 H :    0.131606
  10 H :    0.129387
  11 H :    0.131688
  12 H :    0.150040
  13 H :    0.153598
  14 H :    0.158046
  15 H :    0.208996
  16 H :    0.129935
  17 H :    0.129859
  18 H :    0.130631

  Mayer bond orders larger than 0.100000
B(  0-C ,  1-C ) :   0.9228 B(  0-C ,  9-H ) :   0.9703 B(  0-C , 10-H ) :   0.9923
B(  0-C , 11-H ) :   0.9692 B(  1-C ,  2-C ) :   1.3927 B(  1-C ,  6-C ) :   1.3250
B(  2-C ,  3-C ) :   1.4114 B(  2-C , 12-H ) :   0.9806 B(  3-C ,  4-C ) :   1.4273
B(  3-C , 13-H ) :   0.9754 B(  4-C ,  5-C ) :   1.3204 B(  4-C ,  8-C ) :   0.9499
B(  5-C ,  6-C ) :   1.4142 B(  5-C ,  7-O ) :   1.1345 B(  6-C , 14-H ) :   0.9782
B(  7-O , 15-H ) :   0.8497 B(  8-C , 16-H ) :   0.9676 B(  8-C , 17-H ) :   0.9678
B(  8-C , 18-H ) :   0.9884

FINAL SINGLE POINT ENERGY      -386.131451788199

DIPOLE MOMENT
-------------

Method             : SCF
Type of density    : Electron Density
Multiplicity       :   1
Irrep              :   0
Energy             :  -386.1425933828989514 Eh
Relativity type    :
Basis              : AO
                                X                 Y                 Z
Electronic contribution:      1.832905640       1.961244048      -0.002293318
Nuclear contribution   :     -2.435560374      -1.431530426       0.002944548
                        -----------------------------------------
Total Dipole Moment    :     -0.602654735       0.529713622       0.000651230
                        -----------------------------------------
Magnitude (a.u.)       :      0.802365051
Magnitude (Debye)      :      2.039449881

Rotational constants in cm-1:             0.101809             0.043246             0.030698
Rotational constants in MHz :          3052.167225          1296.492572           920.311045

                             ****ORCA TERMINATED NORMALLY****
TOTAL RUN TIME: 0 days 0 hours 3 minutes 46 seconds 932 msec
