                         Program Version 6.0.0  -   RELEASE  -
|  1> ! wb97x-v def2-tzvp def2/J RIJCOSX DEFGRID2 scfconv7 GCP(DFT/TZ) printgap
|  2> %output
|  3>     printlevel normal
|  4> end
|  5> * xyz 0 1
|  6> C 1.4282755489268346 0.524833636327839 -0.00013946062674883693
|  7> O 0.5816122297036833 -0.6603666411272404 -0.0001703599820328485
|  8> C -0.7442905684540678 -0.4934376993740933 0.000782751900422414
|  9> O -1.3384801327690943 0.5652556936235615 0.0009327739954449483
| 10> H 0.8278515977060413 1.4341693457564582 -0.004334815526316226
| 11> H 2.052736243108974 0.4719201989317482 -0.89328506138531
| 12> H 2.0470175178452688 0.4764960773766657 0.8972744054283383
| 13> H -1.2348447417180959 -1.4767757240205643 -0.0008215284588786013
| 14> *
| 15>
| 16>                          ****END OF INPUT****

CARTESIAN COORDINATES (ANGSTROEM)
---------------------------------
  C      1.428276    0.524834   -0.000139
  O      0.581612   -0.660367   -0.000170
  C     -0.744291   -0.493438    0.000783
  O     -1.338480    0.565256    0.000933
  H      0.827852    1.434169   -0.004335
  H      2.052736    0.471920   -0.893285
  H      2.047018    0.476496    0.897274
  H     -1.234845   -1.476776   -0.000822

 Total Charge           Charge          ....    0
 Multiplicity           Mult            ....    1
 Number of Electrons    NEL             ....   32
 Basis Dimension        Dim             ....  148

ORBITAL ENERGIES
----------------

  NO   OCC          E(Eh)            E(eV)
   0   2.0000     -21.731587      -591.3465
   1   2.0000     -21.668539      -589.6309
   2   2.0000     -12.183781      -331.5375
   3   2.0000     -12.110659      -329.5478
   4   2.0000      -1.767986       -48.1093
   5   2.0000      -1.705305       -46.4037
   6   2.0000      -1.294391       -35.2222
   7   2.0000      -1.139316       -31.0024
   8   2.0000      -1.074961       -29.2512
   9   2.0000      -1.045266       -28.4431
  10   2.0000      -1.002087       -27.2682
  11   2.0000      -0.955191       -25.9921
  12   2.0000      -0.907754       -24.7012
  13   2.0000      -0.857020       -23.3207
  14   2.0000      -0.847478       -23.0610
  15   2.0000      -0.835340       -22.7308
  16   0.0000      -0.312635        -8.5072
  17   0.0000      -0.190165        -5.1746
  18   0.0000      -0.098565        -2.6821
  19   0.0000      -0.000915        -0.0249
  20   0.0000       0.015605         0.4246

MULLIKEN ATOMIC CHARGES
-----------------------
   0 C :   -0.180417
   1 O :   -0.233638
   2 C :    0.245434
   3 O :   -0.340228
   4 H :    0.154282
   5 H :    0.126701
   6 H :    0.126638
   7 H :    0.101228
Sum of atomic charges:   -0.0000000

LOEWDIN ATOMIC CHARGES
----------------------
   0 C :   -0.279922
   1 O :    0.206631
   2 C :   -0.436359
   3 O :    0.059014
   4 H :    0.115822
   5 H :    0.110664
   6 H :    0.110654
   7 H :    0.113495

  Mayer bond orders larger than 0.100000
B(  0-C ,  1-O ) :   0.8836 B(  0-C ,  4-H ) :   0.9679 B(  0-C ,  5-H ) :   0.9749
B(  0-C ,  6-H ) :   0.9750 B(  1-O ,  2-C ) :   1.1973 B(  2-C ,  3-O ) :   2.0485
B(  2-C ,  7-H ) :   0.9580

FINAL SINGLE POINT ENERGY      -229.077826293784

DIPOLE MOMENT
-------------

Method             : SCF
Type of density    : Electron Density
Multiplicity       :   1
Irrep              :   0
Energy             :  -229.0828259880837550 Eh
Relativity type    :
Basis              : AO
                                X                 Y                 Z
Electronic contribution:     -2.682169917      -1.158500462       0.001787578
Nuclear contribution   :      3.464067992       0.862985242      -0.002264397
                        -----------------------------------------
Total Dipole Moment    :      0.781898074      -0.295515220      -0.000476819
                        -----------------------------------------
Magnitude (a.u.)       :      0.835879221
Magnitude (Debye)      :      2.124636131

Rotational constants in cm-1:             0.683570             0.217390             0.170322
Rotational constants in MHz :         20492.902336          6517.198043          5106.137836

                             ****ORCA TERMINATED NORMALLY****
TOTAL RUN TIME: 0 days 0 hours 0 minutes 32 seconds 850 msec
