                         Program Version 6.0.0  -   RELEASE  -
|  1> ! wb97x-v def2-tzvp def2/J RIJCOSX DEFGRID2 scfconv7 GCP(DFT/TZ) printgap
|  2> %output
|  3>     printlevel normal
|  4> end
|  5> %cpcm
|  6>     smd true
|  7>     smdsolvent "water"
|  8> end
|  9> * xyz 0 1
| 10> C 1.4282755489268346 0.524833636327839 -0.00013946062674883693
| 11> O 0.5816122297036833 -0.6603666411272404 -0.0001703599820328485
| 12> C -0.7442905684540678 -0.4934376993740933 0.000782751900422414
| 13> O -1.3384801327690943 0.5652556936235615 0.0009327739954449483
| 14> H 0.8278515977060413 1.4341693457564582 -0.004334815526316226
| 15> H 2.052736243108974 0.4719201989317482 -0.89328506138531
| 16> H 2.0470175178452688 0.4764960773766657 0.8972744054283383
| 17> H -1.2348447417180959 -1.4767757240205643 -0.0008215284588786013
| 18> *
| 19>
| 20>                          ****END OF INPUT****

CARTESIAN COORDINATES (ANGSTROEM)
---------------------------------
  C      1.428276    0.524834   -0.000139
  O      0.581612   -0.660367   -0.000170
  C     -0.744291   -0.493438    0.000783
  O     -1.338480    0.565256    0.000933
  H      0.827852    1.434169   -0.004335
  H      2.052736    0.471920   -0.893285
  H      2.047018    0.476496    0.897274
  H     -1.234845   -1.476776   -0.000822

 Total Charge           Charge          ....    0
 Multiplicity           Mult            ....    1
 Number of Electrons    NEL             ....   32
 Basis Dimension        Dim             ....  148

ORBITAL ENERGIES
----------------

  NO   OCC          E(Eh)            E(eV)
   0   2.0000     -21.730451      -591.3156
   1   2.0000     -21.676284      -589.8417
   2   2.0000     -12.186344      -331.6073
   3   2.0000     -12.093899      -329.0917
   4   2.0000      -1.769284       -48.1447
   5   2.0000      -1.711533       -46.5732
   6   2.0000      -1.287162       -35.0255
   7   2.0000      -1.138964       -30.9928
   8   2.0000      -1.079101       -29.3638
   9   2.0000      -1.042522       -28.3685
  10   2.0000      -0.998740       -27.1771
  11   2.0000      -0.954896       -25.9840
  12   2.0000      -0.918929       -25.0053
  13   2.0000      -0.860132       -23.4054
  14   2.0000      -0.834950       -22.7201
  15   2.0000      -0.819964       -22.3124
  16   0.0000      -0.311701        -8.4818
  17   0.0000      -0.177488        -4.8297
  18   0.0000      -0.096833        -2.6350
  19   0.0000       0.017614         0.4793
  20   0.0000       0.030411         0.8275

MULLIKEN ATOMIC CHARGES
-----------------------
   0 C :   -0.195548
   1 O :   -0.258133
   2 C :    0.293437
   3 O :   -0.451216
   4 H :    0.148477
   5 H :    0.153761
   6 H :    0.153716
   7 H :    0.155506
Sum of atomic charges:    0.0000000

LOEWDIN ATOMIC CHARGES
----------------------
   0 C :   -0.273016
   1 O :    0.203345
   2 C :   -0.411122
   3 O :   -0.004182
   4 H :    0.115028
   5 H :    0.119228
   6 H :    0.119214
   7 H :    0.131505

  Mayer bond orders larger than 0.100000
B(  0-C ,  1-O ) :   0.8562 B(  0-C ,  4-H ) :   0.9691 B(  0-C ,  5-H ) :   0.9691
B(  0-C ,  6-H ) :   0.9691 B(  1-O ,  2-C ) :   1.2195 B(  2-C ,  3-O ) :   1.9445
B(  2-C ,  7-H ) :   0.9512

FINAL SINGLE POINT ENERGY      -229.081926155973

DIPOLE MOMENT
-------------

Method             : SCF
Type of density    : Electron Density
Multiplicity       :   1
Irrep              :   0
Energy             :  -229.0869258502727064 Eh
Relativity type    :
Basis              : AO
                                X                 Y                 Z
Electronic contribution:     -2.447005414      -1.329635072       0.001711027
Nuclear contribution   :      3.464067992       0.862985242      -0.002264397
                        -----------------------------------------
Total Dipole Moment    :      1.017062578      -0.466649830      -0.000553369
                        -----------------------------------------
Magnitude (a.u.)       :      1.119007890
Magnitude (Debye)      :      2.844292016

Rotational constants in cm-1:             0.683570             0.217390             0.170322
Rotational constants in MHz :         20492.902336          6517.198043          5106.137836

                             ****ORCA TERMINATED NORMALLY****
TOTAL RUN TIME: 0 days 0 hours 0 minutes 34 seconds 112 msec
