                         Program Version 6.0.0  -   RELEASE  -
|  1> ! pbe def2-sv(p) def2/J RI DEFGRID1 loosescf d4 GCP(DFT/SV(P)) printgap
|  2> %output
|  3>     printlevel normal
|  4> end
|  5> * xyz 0 1
|  6> C 2.5197779968 0.9051117533 -2.5328453084
|  7> C 1.9321818389 -0.4397761893 -2.1543712596
|  8> O 2.5921640445 -1.0043414521 -1.0099696025
|  9> P 2.2752778348 -0.6645902817 0.5110358067
| 10> S 2.5497030726 1.1719276775 1.1544048263
| 11> O 3.1831422949 -1.7395869492 1.235724661
| 12> C 4.5176945721 -1.4370096548 1.6886618635
| 13> C 5.4665061863 -1.2308088029 0.5271452143
| 14> S 0.385665117 -1.5461326728 0.8324086874
| 15> C -0.3530760692 -0.3117966174 1.9627053614
| 16> S -2.1141535186 -0.1085793464 1.6476256506
| 17> P -1.9741610945 0.6099154517 -0.3592930041
| 18> S -0.5298654792 1.8793439204 -0.7130146366
| 19> O -3.4445934925 1.1493984487 -0.6150074948
| 20> C -3.919492759 2.3520192259 0.0262463386
| 21> C -5.1807542526 2.7914537087 -0.6889771719
| 22> O -1.8898580219 -0.6495256623 -1.297758557
| 23> C -2.8501202812 -1.7375635046 -1.2690264578
| 24> C -3.8940870604 -1.5542830676 -2.3506115936
| 25> H 2.0560740701 1.2508011953 -3.4511011872
| 26> H 2.3230521428 1.6371879787 -1.7515592122
| 27> H 3.5932805797 0.8200954115 -2.6775563044
| 28> H 2.0926152055 -1.1792889853 -2.9413465879
| 29> H 0.8597424083 -0.3506605264 -1.9523386804
| 30> H 4.4755629996 -0.540887819 2.3161585987
| 31> H 4.7915122661 -2.3034986974 2.2915689
| 32> H 5.1670832211 -0.3470602076 -0.0355263189
| 33> H 6.4744448386 -1.0865706388 0.9032606406
| 34> H 5.4433336695 -2.0922585072 -0.1349646765
| 35> H 0.1649231813 0.6415834155 1.8196003484
| 36> H -0.2630133026 -0.6610996601 2.988154717
| 37> H -4.1128530807 2.1234163839 1.0775976776
| 38> H -3.1351787736 3.113425878 -0.0369747147
| 39> H -5.5581290546 3.6944009745 -0.2205256343
| 40> H -4.9660676524 2.993626827 -1.7345759685
| 41> H -5.9347699775 2.0123973115 -0.6261819597
| 42> H -2.2489140585 -2.6334383485 -1.4342300057
| 43> H -3.3073819056 -1.7794383341 -0.2768088955
| 44> H -3.415145802 -1.4776896255 -3.3227891046
| 45> H -4.5622163502 -2.4097474625 -2.3458780218
| 46> H -4.467146424 -0.6489741658 -2.169802494
| 47> *
| 48>
| 49>                          ****END OF INPUT****

CARTESIAN COORDINATES (ANGSTROEM)
---------------------------------
  C      2.519778    0.905112   -2.532845
  C      1.932182   -0.439776   -2.154371
  O      2.592164   -1.004341   -1.009970
  P      2.275278   -0.664590    0.511036
  S      2.549703    1.171928    1.154405
  O      3.183142   -1.739587    1.235725
  C      4.517695   -1.437010    1.688662
  C      5.466506   -1.230809    0.527145
  S      0.385665   -1.546133    0.832409
  C     -0.353076   -0.311797    1.962705
  S     -2.114154   -0.108579    1.647626
  P     -1.974161    0.609915   -0.359293
  S     -0.529865    1.879344   -0.713015
  O     -3.444593    1.149398   -0.615007
  C     -3.919493    2.352019    0.026246
  C     -5.180754    2.791454   -0.688977
  O     -1.889858   -0.649526   -1.297759
  C     -2.850120   -1.737564   -1.269026
  C     -3.894087   -1.554283   -2.350612
  H      2.056074    1.250801   -3.451101
  H      2.323052    1.637188   -1.751559
  H      3.593281    0.820095   -2.677556
  H      2.092615   -1.179289   -2.941347
  H      0.859742   -0.350661   -1.952339
  H      4.475563   -0.540888    2.316159
  H      4.791512   -2.303499    2.291569
  H      5.167083   -0.347060   -0.035526
  H      6.474445   -1.086571    0.903261
  H      5.443334   -2.092259   -0.134965
  H      0.164923    0.641583    1.819600
  H     -0.263013   -0.661100    2.988155
  H     -4.112853    2.123416    1.077598
  H     -3.135179    3.113426   -0.036975
  H     -5.558129    3.694401   -0.220526
  H     -4.966068    2.993627   -1.734576
  H     -5.934770    2.012397   -0.626182
  H     -2.248914   -2.633438   -1.434230
  H     -3.307382   -1.779438   -0.276809
  H     -3.415146   -1.477690   -3.322789
  H     -4.562216   -2.409747   -2.345878
  H     -4.467146   -0.648974   -2.169802

 Total Charge           Charge          ....    0
 Multiplicity           Mult            ....    1
 Number of Electrons    NEL             ....  202
 Basis Dimension        Dim             ....  334

ORBITAL ENERGIES
----------------

  NO   OCC          E(Eh)            E(eV)
   0   2.0000     -88.046181     -2395.8584
   1   2.0000     -88.037552     -2395.6236
   2   2.0000     -87.983447     -2394.1513
   3   2.0000     -87.982393     -2394.1226
   4   2.0000     -76.427613     -2079.7011
   5   2.0000     -76.420219     -2079.4999
   6   2.0000     -18.799126      -511.5502
   7   2.0000     -18.796506      -511.4789
   8   2.0000     -18.785083      -511.1681
   9   2.0000     -18.780512      -511.0437
  10   2.0000      -9.958119      -270.9742
  11   2.0000      -9.957782      -270.9650
  12   2.0000      -9.952076      -270.8097
  13   2.0000      -9.944662      -270.6080
  14   2.0000      -9.940026      -270.4819
  15   2.0000      -9.892971      -269.2014
  16   2.0000      -9.889201      -269.0988
  17   2.0000      -9.877675      -268.7852
  18   2.0000      -9.868061      -268.5236
  19   2.0000      -7.691209      -209.2884
  20   2.0000      -7.682697      -209.0568
  21   2.0000      -7.628426      -207.5800
  22   2.0000      -7.627249      -207.5480
  23   2.0000      -6.425061      -174.8348
  24   2.0000      -6.417796      -174.6371
  25   2.0000      -5.719004      -155.6220
  26   2.0000      -5.715545      -155.5279
  27   2.0000      -5.710595      -155.3932
  28   2.0000      -5.708492      -155.3360
  29   2.0000      -5.707325      -155.3042
  30   2.0000      -5.699488      -155.0910
  31   2.0000      -5.657377      -153.9450
  32   2.0000      -5.656020      -153.9081
  33   2.0000      -5.648837      -153.7127
  34   2.0000      -5.648718      -153.7094
  35   2.0000      -5.648097      -153.6925
  36   2.0000      -5.647314      -153.6712
  37   2.0000      -4.647929      -126.4766
  38   2.0000      -4.646941      -126.4497
  39   2.0000      -4.645106      -126.3998
  40   2.0000      -4.640118      -126.2640
  41   2.0000      -4.639564      -126.2490
  42   2.0000      -4.638509      -126.2202
  43   2.0000      -0.993371       -27.0310
  44   2.0000      -0.978737       -26.6328
  45   2.0000      -0.950636       -25.8681
  46   2.0000      -0.936574       -25.4855
  47   2.0000      -0.761468       -20.7206
  48   2.0000      -0.722077       -19.6487
  49   2.0000      -0.707746       -19.2587
  50   2.0000      -0.696520       -18.9533
  51   2.0000      -0.676946       -18.4206
  52   2.0000      -0.670508       -18.2454
  53   2.0000      -0.649057       -17.6617
  54   2.0000      -0.633244       -17.2314
  55   2.0000      -0.593265       -16.1436
  56   2.0000      -0.589848       -16.0506
  57   2.0000      -0.573394       -15.6028
  58   2.0000      -0.565241       -15.3810
  59   2.0000      -0.559852       -15.2343
  60   2.0000      -0.511731       -13.9249
  61   2.0000      -0.490090       -13.3360
  62   2.0000      -0.485138       -13.2013
  63   2.0000      -0.464624       -12.6431
  64   2.0000      -0.450213       -12.2509
  65   2.0000      -0.444445       -12.0940
  66   2.0000      -0.442433       -12.0392
  67   2.0000      -0.433317       -11.7912
  68   2.0000      -0.428495       -11.6599
  69   2.0000      -0.411325       -11.1927
  70   2.0000      -0.403389       -10.9768
  71   2.0000      -0.395899       -10.7730
  72   2.0000      -0.391834       -10.6624
  73   2.0000      -0.385525       -10.4907
  74   2.0000      -0.383759       -10.4426
  75   2.0000      -0.368410       -10.0249
  76   2.0000      -0.364971        -9.9314
  77   2.0000      -0.359616        -9.7857
  78   2.0000      -0.355788        -9.6815
  79   2.0000      -0.349500        -9.5104
  80   2.0000      -0.347520        -9.4565
  81   2.0000      -0.343077        -9.3356
  82   2.0000      -0.334869        -9.1123
  83   2.0000      -0.332597        -9.0504
  84   2.0000      -0.324264        -8.8237
  85   2.0000      -0.320360        -8.7174
  86   2.0000      -0.306937        -8.3522
  87   2.0000      -0.304211        -8.2780
  88   2.0000      -0.296064        -8.0563
  89   2.0000      -0.286695        -7.8014
  90   2.0000      -0.279374        -7.6021
  91   2.0000      -0.277690        -7.5563
  92   2.0000      -0.267135        -7.2691
  93   2.0000      -0.263629        -7.1737
  94   2.0000      -0.255877        -6.9628
  95   2.0000      -0.236579        -6.4376
  96   2.0000      -0.220213        -5.9923
  97   2.0000      -0.210401        -5.7253
  98   2.0000      -0.201828        -5.4920
  99   2.0000      -0.194975        -5.3055
 100   2.0000      -0.187522        -5.1027
 101   0.0000      -0.041939        -1.1412
 102   0.0000      -0.031428        -0.8552
 103   0.0000      -0.006962        -0.1895
 104   0.0000       0.014450         0.3932
 105   0.0000       0.019486         0.5302

MULLIKEN ATOMIC CHARGES
-----------------------
   0 C :   -0.302601
   1 C :   -0.022714
   2 O :   -0.373999
   3 P :    0.628230
   4 S :   -0.318443
   5 O :   -0.368021
   6 C :   -0.004991
   7 C :   -0.306630
   8 S :   -0.107047
   9 C :   -0.350637
  10 S :   -0.115352
  11 P :    0.594963
  12 S :   -0.298521
  13 O :   -0.381598
  14 C :   -0.013856
  15 C :   -0.283262
  16 O :   -0.345572
  17 C :   -0.011103
  18 C :   -0.290824
  19 H :    0.105307
  20 H :    0.140936
  21 H :    0.107661
  22 H :    0.097268
  23 H :    0.124667
  24 H :    0.109254
  25 H :    0.102334
  26 H :    0.125859
  27 H :    0.108777
  28 H :    0.115498
  29 H :    0.214147
  30 H :    0.182174
  31 H :    0.106544
  32 H :    0.109909
  33 H :    0.115202
  34 H :    0.123403
  35 H :    0.116352
  36 H :    0.111882
  37 H :    0.102174
  38 H :    0.119192
  39 H :    0.110748
  40 H :    0.122690
Sum of atomic charges:   -0.0000000

LOEWDIN ATOMIC CHARGES
----------------------
   0 C :   -0.364870
   1 C :   -0.120419
   2 O :   -0.240727
   3 P :    0.569021
   4 S :   -0.296817
   5 O :   -0.246499
   6 C :   -0.118581
   7 C :   -0.365025
   8 S :    0.074032
   9 C :   -0.477795
  10 S :    0.064257
  11 P :    0.562174
  12 S :   -0.290675
  13 O :   -0.249643
  14 C :   -0.120042
  15 C :   -0.350414
  16 O :   -0.230235
  17 C :   -0.115288
  18 C :   -0.359360
  19 H :    0.128746
  20 H :    0.123637
  21 H :    0.121110
  22 H :    0.114735
  23 H :    0.106626
  24 H :    0.108421
  25 H :    0.117428
  26 H :    0.123102
  27 H :    0.128710
  28 H :    0.125882
  29 H :    0.124166
  30 H :    0.134858
  31 H :    0.109540
  32 H :    0.112069
  33 H :    0.132574
  34 H :    0.130056
  35 H :    0.125771
  36 H :    0.121234
  37 H :    0.103850
  38 H :    0.128452
  39 H :    0.130024
  40 H :    0.125914

  Mayer bond orders larger than 0.100000
B(  0-C ,  1-C ) :   1.1705 B(  0-C , 19-H ) :   0.9392 B(  0-C , 20-H ) :   0.9305
B(  0-C , 21-H ) :   0.9461 B(  1-C ,  2-O ) :   0.9019 B(  1-C , 22-H ) :   0.9355
B(  1-C , 23-H ) :   0.9043 B(  2-O ,  3-P ) :   1.1178 B(  3-P ,  4-S ) :   1.6094
B(  3-P ,  5-O ) :   1.1281 B(  3-P ,  8-S ) :   0.9562 B(  4-S ,  8-S ) :   0.1202
B(  5-O ,  6-C ) :   0.9135 B(  6-C ,  7-C ) :   1.1635 B(  6-C , 24-H ) :   0.9141
B(  6-C , 25-H ) :   0.9347 B(  7-C , 26-H ) :   0.9351 B(  7-C , 27-H ) :   0.9386
B(  7-C , 28-H ) :   0.9464 B(  8-S ,  9-C ) :   0.9935 B(  9-C , 10-S ) :   1.0046
B(  9-C , 29-H ) :   0.8452 B(  9-C , 30-H ) :   0.9098 B( 10-S , 11-P ) :   0.9413
B( 10-S , 12-S ) :   0.1090 B( 11-P , 12-S ) :   1.6628 B( 11-P , 13-O ) :   1.0803
B( 11-P , 16-O ) :   1.1316 B( 13-O , 14-C ) :   0.9015 B( 14-C , 15-C ) :   1.1602
B( 14-C , 31-H ) :   0.9278 B( 14-C , 32-H ) :   0.9109 B( 15-C , 33-H ) :   0.9416
B( 15-C , 34-H ) :   0.9507 B( 15-C , 35-H ) :   0.9507 B( 16-O , 17-C ) :   0.8883
B( 17-C , 18-C ) :   1.1646 B( 17-C , 36-H ) :   0.9341 B( 17-C , 37-H ) :   0.9114
B( 18-C , 38-H ) :   0.9472 B( 18-C , 39-H ) :   0.9399 B( 18-C , 40-H ) :   0.9415

Dispersion correction           -0.064779116
FINAL SINGLE POINT ENERGY     -2929.522343920954

DIPOLE MOMENT
-------------

Method             : SCF
Type of density    : Electron Density
Multiplicity       :   1
Irrep              :   0
Energy             : -2929.6418239299687230 Eh
Relativity type    :
Basis              : AO
                                X                 Y                 Z
Electronic contribution:      3.394956155      -1.405575264      12.889064515
Nuclear contribution   :     -4.520114068       0.703514572     -13.112929582
                        -----------------------------------------
Total Dipole Moment    :     -1.125157913      -0.702060692      -0.223865068
                        -----------------------------------------
Magnitude (a.u.)       :      1.344985172
Magnitude (Debye)      :      3.418680621

Rotational constants in cm-1:             0.014389             0.004432             0.004418
Rotational constants in MHz :           431.384954           132.870915           132.441538

                             ****ORCA TERMINATED NORMALLY****
TOTAL RUN TIME: 0 days 0 hours 0 minutes 21 seconds 890 msec
