                         Program Version 6.0.1  -  RELEASE   -
|  1> ! r2scan-3c def2/J RI DEFGRID2 scfconv6 printgap
|  2> %output
|  3>     printlevel normal
|  4> end
|  5> * xyz 0 1
|  6> C 3.9536918062 -3.0858897481 -2.7650450047
|  7> C 2.8688559929 -3.2892783305 -1.7263889124
|  8> O 2.7756488609 -2.0866773162 -0.9361007003
|  9> C 1.8457975463 -2.0339263557 -0.0087054201
| 10> O 1.0739317106 -2.9358178037 0.2361608598
| 11> C 1.8214495679 -0.6879295601 0.6884564952
| 12> C 1.2543891683 0.3628162853 -0.2680872987
| 13> H 1.9580694094 0.5244444647 -1.0917547999
| 14> C 1.0461466743 1.6975513454 0.431050394
| 15> O 1.8323371076 2.1301782961 1.2379361448
| 16> O -0.0448254248 2.3149530615 0.0211185967
| 17> C -0.3354843595 3.6168168463 0.5689667786
| 18> C 0.341515515 4.7046216455 -0.2467954053
| 19> S -0.2618506018 -0.2112942439 -1.1041181397
| 20> P -1.7175034195 0.0922433615 0.4169587618
| 21> S -1.1596804608 0.3618964536 2.276535959
| 22> O -2.6736023102 1.2426423422 -0.0879715743
| 23> C -3.2736227332 1.2294062709 -1.3995568952
| 24> O -2.6599826668 -1.1865405302 0.2036722971
| 25> C -2.2793747852 -2.4780714898 0.6893815519
| 26> H 4.9006887838 -2.8744751969 -2.2777096836
| 27> H 4.0512576743 -3.9868216555 -3.3613126151
| 28> H 3.6986092478 -2.2534743855 -3.4136143886
| 29> H 3.0974643874 -4.1231080456 -1.0556418234
| 30> H 1.8923786327 -3.4728448442 -2.185073359
| 31> H 2.8300016638 -0.3904608231 0.9752892014
| 32> H 1.1987550043 -0.7648898051 1.5818257186
| 33> H -1.4226111688 3.6917811906 0.5263198594
| 34> H -0.000420526 3.6320986564 1.6100185301
| 35> H 1.4222598821 4.608691929 -0.1731561602
| 36> H 0.045760575 4.6305046267 -1.2895790457
| 37> H 0.0466943308 5.6734686637 0.1420637452
| 38> H -3.8087263121 2.1722562401 -1.4756430471
| 39> H -3.9575283255 0.3874753676 -1.4854311098
| 40> H -2.4970817861 1.1610404865 -2.1612938767
| 41> H -3.0782742252 -3.1499889646 0.3880240889
| 42> H -2.1873519105 -2.4533572968 1.7758819838
| 43> H -1.3283117193 -2.7934223947 0.2571719044
| 44> *
| 45>
| 46>                          ****END OF INPUT****

CARTESIAN COORDINATES (ANGSTROEM)
---------------------------------
  C      3.953692   -3.085890   -2.765045
  C      2.868856   -3.289278   -1.726389
  O      2.775649   -2.086677   -0.936101
  C      1.845798   -2.033926   -0.008705
  O      1.073932   -2.935818    0.236161
  C      1.821450   -0.687930    0.688456
  C      1.254389    0.362816   -0.268087
  H      1.958069    0.524444   -1.091755
  C      1.046147    1.697551    0.431050
  O      1.832337    2.130178    1.237936
  O     -0.044825    2.314953    0.021119
  C     -0.335484    3.616817    0.568967
  C      0.341516    4.704622   -0.246795
  S     -0.261851   -0.211294   -1.104118
  P     -1.717503    0.092243    0.416959
  S     -1.159680    0.361896    2.276536
  O     -2.673602    1.242642   -0.087972
  C     -3.273623    1.229406   -1.399557
  O     -2.659983   -1.186541    0.203672
  C     -2.279375   -2.478071    0.689382
  H      4.900689   -2.874475   -2.277710
  H      4.051258   -3.986822   -3.361313
  H      3.698609   -2.253474   -3.413614
  H      3.097464   -4.123108   -1.055642
  H      1.892379   -3.472845   -2.185073
  H      2.830002   -0.390461    0.975289
  H      1.198755   -0.764890    1.581826
  H     -1.422611    3.691781    0.526320
  H     -0.000421    3.632099    1.610019
  H      1.422260    4.608692   -0.173156
  H      0.045761    4.630505   -1.289579
  H      0.046694    5.673469    0.142064
  H     -3.808726    2.172256   -1.475643
  H     -3.957528    0.387475   -1.485431
  H     -2.497082    1.161040   -2.161294
  H     -3.078274   -3.149989    0.388024
  H     -2.187352   -2.453357    1.775882
  H     -1.328312   -2.793422    0.257172

 Total Charge           Charge          ....    0
 Multiplicity           Mult            ....    1
 Number of Electrons    NEL             ....  174
 Basis Dimension        Dim             ....  510

ORBITAL ENERGIES
----------------

  NO   OCC          E(Eh)            E(eV)
   0   2.0000     -88.574050     -2410.2224
   1   2.0000     -88.517998     -2408.6972
   2   2.0000     -76.913852     -2092.9323
   3   2.0000     -19.007221      -517.2128
   4   2.0000     -19.003556      -517.1130
   5   2.0000     -18.994435      -516.8649
   6   2.0000     -18.986208      -516.6410
   7   2.0000     -18.938444      -515.3413
   8   2.0000     -18.934343      -515.2297
   9   2.0000     -10.166439      -276.6429
  10   2.0000     -10.159561      -276.4557
  11   2.0000     -10.103509      -274.9304
  12   2.0000     -10.099025      -274.8085
  13   2.0000     -10.098830      -274.8031
  14   2.0000     -10.091022      -274.5907
  15   2.0000     -10.078321      -274.2451
  16   2.0000     -10.050141      -273.4782
  17   2.0000     -10.037979      -273.1473
  18   2.0000     -10.030921      -272.9552
  19   2.0000      -7.868737      -214.1192
  20   2.0000      -7.812725      -212.5951
  21   2.0000      -6.591981      -179.3769
  22   2.0000      -5.815766      -158.2550
  23   2.0000      -5.812564      -158.1679
  24   2.0000      -5.805633      -157.9793
  25   2.0000      -5.760697      -156.7565
  26   2.0000      -5.752953      -156.5458
  27   2.0000      -5.752470      -156.5327
  28   2.0000      -4.737675      -128.9187
  29   2.0000      -4.737036      -128.9013
  30   2.0000      -4.735511      -128.8598
  31   2.0000      -1.083679       -29.4884
  32   2.0000      -1.082560       -29.4580
  33   2.0000      -1.048721       -28.5371
  34   2.0000      -1.005715       -27.3669
  35   2.0000      -0.989046       -26.9133
  36   2.0000      -0.983334       -26.7579
  37   2.0000      -0.812895       -22.1200
  38   2.0000      -0.759998       -20.6806
  39   2.0000      -0.742235       -20.1972
  40   2.0000      -0.731586       -19.9075
  41   2.0000      -0.696389       -18.9497
  42   2.0000      -0.670931       -18.2570
  43   2.0000      -0.659064       -17.9340
  44   2.0000      -0.651186       -17.7197
  45   2.0000      -0.627273       -17.0690
  46   2.0000      -0.599472       -16.3125
  47   2.0000      -0.545401       -14.8411
  48   2.0000      -0.537985       -14.6393
  49   2.0000      -0.527525       -14.3547
  50   2.0000      -0.503422       -13.6988
  51   2.0000      -0.491928       -13.3860
  52   2.0000      -0.474403       -12.9092
  53   2.0000      -0.464050       -12.6274
  54   2.0000      -0.458806       -12.4847
  55   2.0000      -0.452935       -12.3250
  56   2.0000      -0.448283       -12.1984
  57   2.0000      -0.442053       -12.0289
  58   2.0000      -0.438033       -11.9195
  59   2.0000      -0.424767       -11.5585
  60   2.0000      -0.421269       -11.4633
  61   2.0000      -0.416460       -11.3324
  62   2.0000      -0.414708       -11.2848
  63   2.0000      -0.404237       -10.9999
  64   2.0000      -0.390894       -10.6368
  65   2.0000      -0.381640       -10.3849
  66   2.0000      -0.377855       -10.2820
  67   2.0000      -0.371007       -10.0956
  68   2.0000      -0.360487        -9.8094
  69   2.0000      -0.356241        -9.6938
  70   2.0000      -0.350901        -9.5485
  71   2.0000      -0.345342        -9.3972
  72   2.0000      -0.335315        -9.1244
  73   2.0000      -0.330186        -8.9848
  74   2.0000      -0.323466        -8.8019
  75   2.0000      -0.321388        -8.7454
  76   2.0000      -0.312679        -8.5084
  77   2.0000      -0.309909        -8.4331
  78   2.0000      -0.288056        -7.8384
  79   2.0000      -0.281634        -7.6636
  80   2.0000      -0.278422        -7.5762
  81   2.0000      -0.274064        -7.4577
  82   2.0000      -0.255301        -6.9471
  83   2.0000      -0.241110        -6.5609
  84   2.0000      -0.227776        -6.1981
  85   2.0000      -0.215562        -5.8657
  86   2.0000      -0.214834        -5.8459
  87   0.0000      -0.044565        -1.2127
  88   0.0000      -0.033069        -0.8998
  89   0.0000      -0.014571        -0.3965
  90   0.0000       0.003388         0.0922
  91   0.0000       0.013358         0.3635

MULLIKEN ATOMIC CHARGES
-----------------------
   0 C :   -0.443198
   1 C :   -0.149580
   2 O :   -0.149741
   3 C :    0.397753
   4 O :   -0.392691
   5 C :   -0.463098
   6 C :    0.005992
   7 H :    0.200415
   8 C :    0.268543
   9 O :   -0.396561
  10 O :   -0.141655
  11 C :   -0.152725
  12 C :   -0.470567
  13 S :   -0.190374
  14 P :    0.786848
  15 S :   -0.434577
  16 O :   -0.315867
  17 C :   -0.294206
  18 O :   -0.362534
  19 C :   -0.300792
  20 H :    0.155075
  21 H :    0.149546
  22 H :    0.151716
  23 H :    0.157970
  24 H :    0.162014
  25 H :    0.188460
  26 H :    0.219282
  27 H :    0.165346
  28 H :    0.181267
  29 H :    0.169920
  30 H :    0.151812
  31 H :    0.150749
  32 H :    0.154864
  33 H :    0.171241
  34 H :    0.167241
  35 H :    0.144027
  36 H :    0.169416
  37 H :    0.188666
Sum of atomic charges:    0.0000000

LOEWDIN ATOMIC CHARGES
----------------------
   0 C :   -0.385610
   1 C :    0.035713
   2 O :   -0.591226
   3 C :    0.336121
   4 O :   -0.435535
   5 C :   -0.207229
   6 C :   -0.187193
   7 H :    0.206024
   8 C :    0.339883
   9 O :   -0.410842
  10 O :   -0.635647
  11 C :    0.031691
  12 C :   -0.387533
  13 S :    0.219262
  14 P :    0.411325
  15 S :   -0.056357
  16 O :   -0.654314
  17 C :   -0.052475
  18 O :   -0.685058
  19 C :   -0.057910
  20 H :    0.160667
  21 H :    0.160727
  22 H :    0.159009
  23 H :    0.180254
  24 H :    0.181736
  25 H :    0.193587
  26 H :    0.201065
  27 H :    0.185721
  28 H :    0.194926
  29 H :    0.164290
  30 H :    0.156925
  31 H :    0.160469
  32 H :    0.179133
  33 H :    0.174753
  34 H :    0.173336
  35 H :    0.173573
  36 H :    0.176039
  37 H :    0.190700

  Mayer bond orders larger than 0.100000
B(  0-C ,  1-C ) :   0.9447 B(  0-C , 20-H ) :   0.9710 B(  0-C , 21-H ) :   0.9676
B(  0-C , 22-H ) :   0.9729 B(  1-C ,  2-O ) :   0.7987 B(  1-C , 23-H ) :   0.9510
B(  1-C , 24-H ) :   0.9542 B(  2-O ,  3-C ) :   1.0561 B(  3-C ,  4-O ) :   1.7952
B(  3-C ,  5-C ) :   0.8856 B(  5-C ,  6-C ) :   0.8975 B(  5-C , 25-H ) :   0.9474
B(  5-C , 26-H ) :   0.9822 B(  6-C ,  7-H ) :   0.8819 B(  6-C ,  8-C ) :   0.9502
B(  6-C , 13-S ) :   0.8499 B(  8-C ,  9-O ) :   1.8642 B(  8-C , 10-O ) :   1.1002
B( 10-O , 11-C ) :   0.7909 B( 11-C , 12-C ) :   0.9234 B( 11-C , 27-H ) :   0.9566
B( 11-C , 28-H ) :   0.9629 B( 12-C , 29-H ) :   0.9726 B( 12-C , 30-H ) :   0.9768
B( 12-C , 31-H ) :   0.9658 B( 13-S , 14-P ) :   1.0105 B( 14-P , 15-S ) :   1.7643
B( 14-P , 16-O ) :   1.1423 B( 14-P , 18-O ) :   1.0381 B( 16-O , 17-C ) :   0.8014
B( 17-C , 32-H ) :   0.9655 B( 17-C , 33-H ) :   0.9609 B( 17-C , 34-H ) :   0.9552
B( 18-O , 19-C ) :   0.8317 B( 19-C , 35-H ) :   0.9680 B( 19-C , 36-H ) :   0.9576
B( 19-C , 37-H ) :   0.9414

Dispersion correction           -0.017833527
FINAL SINGLE POINT ENERGY     -1981.452943504861

DIPOLE MOMENT
-------------

Method             : SCF
Type of density    : Electron Density
Multiplicity       :   1
Irrep              :   0
Energy             : -1981.4724806884269128 Eh
Relativity type    :
Basis              : AO
                                X                 Y                 Z
Electronic contribution:     -8.013521031      -0.079624907      10.313578760
Nuclear contribution   :      8.017634696       0.110883140     -12.324050317
                        -----------------------------------------
Total Dipole Moment    :      0.004113665       0.031258232      -2.010471557
                        -----------------------------------------
Magnitude (a.u.)       :      2.010718747
Magnitude (Debye)      :      5.110840890

Rotational constants in cm-1:             0.012742             0.007391             0.005900
Rotational constants in MHz :           381.982418           221.577993           176.862713

                             ****ORCA TERMINATED NORMALLY****
TOTAL RUN TIME: 0 days 0 hours 1 minutes 22 seconds 526 msec
