                         Program Version 6.0.1  -  RELEASE   -
|  1> ! r2scan-3c def2/J RI DEFGRID2 scfconv6 printgap
|  2> %output
|  3>     printlevel normal
|  4> end
|  5> %cpcm
|  6>     smd true
|  7>     smdsolvent "water"
|  8> end
|  9> * xyz 0 1
| 10> C 3.9536918062 -3.0858897481 -2.7650450047
| 11> C 2.8688559929 -3.2892783305 -1.7263889124
| 12> O 2.7756488609 -2.0866773162 -0.9361007003
| 13> C 1.8457975463 -2.0339263557 -0.0087054201
| 14> O 1.0739317106 -2.9358178037 0.2361608598
| 15> C 1.8214495679 -0.6879295601 0.6884564952
| 16> C 1.2543891683 0.3628162853 -0.2680872987
| 17> H 1.9580694094 0.5244444647 -1.0917547999
| 18> C 1.0461466743 1.6975513454 0.431050394
| 19> O 1.8323371076 2.1301782961 1.2379361448
| 20> O -0.0448254248 2.3149530615 0.0211185967
| 21> C -0.3354843595 3.6168168463 0.5689667786
| 22> C 0.341515515 4.7046216455 -0.2467954053
| 23> S -0.2618506018 -0.2112942439 -1.1041181397
| 24> P -1.7175034195 0.0922433615 0.4169587618
| 25> S -1.1596804608 0.3618964536 2.276535959
| 26> O -2.6736023102 1.2426423422 -0.0879715743
| 27> C -3.2736227332 1.2294062709 -1.3995568952
| 28> O -2.6599826668 -1.1865405302 0.2036722971
| 29> C -2.2793747852 -2.4780714898 0.6893815519
| 30> H 4.9006887838 -2.8744751969 -2.2777096836
| 31> H 4.0512576743 -3.9868216555 -3.3613126151
| 32> H 3.6986092478 -2.2534743855 -3.4136143886
| 33> H 3.0974643874 -4.1231080456 -1.0556418234
| 34> H 1.8923786327 -3.4728448442 -2.185073359
| 35> H 2.8300016638 -0.3904608231 0.9752892014
| 36> H 1.1987550043 -0.7648898051 1.5818257186
| 37> H -1.4226111688 3.6917811906 0.5263198594
| 38> H -0.000420526 3.6320986564 1.6100185301
| 39> H 1.4222598821 4.608691929 -0.1731561602
| 40> H 0.045760575 4.6305046267 -1.2895790457
| 41> H 0.0466943308 5.6734686637 0.1420637452
| 42> H -3.8087263121 2.1722562401 -1.4756430471
| 43> H -3.9575283255 0.3874753676 -1.4854311098
| 44> H -2.4970817861 1.1610404865 -2.1612938767
| 45> H -3.0782742252 -3.1499889646 0.3880240889
| 46> H -2.1873519105 -2.4533572968 1.7758819838
| 47> H -1.3283117193 -2.7934223947 0.2571719044
| 48> *
| 49>
| 50>                          ****END OF INPUT****

CARTESIAN COORDINATES (ANGSTROEM)
---------------------------------
  C      3.953692   -3.085890   -2.765045
  C      2.868856   -3.289278   -1.726389
  O      2.775649   -2.086677   -0.936101
  C      1.845798   -2.033926   -0.008705
  O      1.073932   -2.935818    0.236161
  C      1.821450   -0.687930    0.688456
  C      1.254389    0.362816   -0.268087
  H      1.958069    0.524444   -1.091755
  C      1.046147    1.697551    0.431050
  O      1.832337    2.130178    1.237936
  O     -0.044825    2.314953    0.021119
  C     -0.335484    3.616817    0.568967
  C      0.341516    4.704622   -0.246795
  S     -0.261851   -0.211294   -1.104118
  P     -1.717503    0.092243    0.416959
  S     -1.159680    0.361896    2.276536
  O     -2.673602    1.242642   -0.087972
  C     -3.273623    1.229406   -1.399557
  O     -2.659983   -1.186541    0.203672
  C     -2.279375   -2.478071    0.689382
  H      4.900689   -2.874475   -2.277710
  H      4.051258   -3.986822   -3.361313
  H      3.698609   -2.253474   -3.413614
  H      3.097464   -4.123108   -1.055642
  H      1.892379   -3.472845   -2.185073
  H      2.830002   -0.390461    0.975289
  H      1.198755   -0.764890    1.581826
  H     -1.422611    3.691781    0.526320
  H     -0.000421    3.632099    1.610019
  H      1.422260    4.608692   -0.173156
  H      0.045761    4.630505   -1.289579
  H      0.046694    5.673469    0.142064
  H     -3.808726    2.172256   -1.475643
  H     -3.957528    0.387475   -1.485431
  H     -2.497082    1.161040   -2.161294
  H     -3.078274   -3.149989    0.388024
  H     -2.187352   -2.453357    1.775882
  H     -1.328312   -2.793422    0.257172

 Total Charge           Charge          ....    0
 Multiplicity           Mult            ....    1
 Number of Electrons    NEL             ....  174
 Basis Dimension        Dim             ....  510

ORBITAL ENERGIES
----------------

  NO   OCC          E(Eh)            E(eV)
   0   2.0000     -88.579645     -2410.3747
   1   2.0000     -88.531522     -2409.0652
   2   2.0000     -76.922872     -2093.1778
   3   2.0000     -19.011371      -517.3257
   4   2.0000     -19.009272      -517.2686
   5   2.0000     -18.998273      -516.9693
   6   2.0000     -18.994286      -516.8608
   7   2.0000     -18.954659      -515.7825
   8   2.0000     -18.947916      -515.5990
   9   2.0000     -10.179514      -276.9987
  10   2.0000     -10.169535      -276.7271
  11   2.0000     -10.104264      -274.9510
  12   2.0000     -10.087335      -274.4903
  13   2.0000     -10.087029      -274.4820
  14   2.0000     -10.085301      -274.4350
  15   2.0000     -10.079498      -274.2771
  16   2.0000     -10.053073      -273.5580
  17   2.0000     -10.020213      -272.6638
  18   2.0000     -10.019841      -272.6537
  19   2.0000      -7.874211      -214.2682
  20   2.0000      -7.826609      -212.9728
  21   2.0000      -6.601095      -179.6249
  22   2.0000      -5.821277      -158.4050
  23   2.0000      -5.818046      -158.3171
  24   2.0000      -5.811083      -158.1276
  25   2.0000      -5.774439      -157.1305
  26   2.0000      -5.766879      -156.9248
  27   2.0000      -5.766380      -156.9112
  28   2.0000      -4.746738      -129.1653
  29   2.0000      -4.746119      -129.1485
  30   2.0000      -4.744738      -129.1109
  31   2.0000      -1.092233       -29.7212
  32   2.0000      -1.087658       -29.5967
  33   2.0000      -1.054073       -28.6828
  34   2.0000      -1.011493       -27.5241
  35   2.0000      -1.003442       -27.3051
  36   2.0000      -0.994555       -27.0632
  37   2.0000      -0.816023       -22.2051
  38   2.0000      -0.753739       -20.5103
  39   2.0000      -0.739265       -20.1164
  40   2.0000      -0.731864       -19.9150
  41   2.0000      -0.696110       -18.9421
  42   2.0000      -0.670387       -18.2422
  43   2.0000      -0.662674       -18.0323
  44   2.0000      -0.653871       -17.7927
  45   2.0000      -0.621328       -16.9072
  46   2.0000      -0.596201       -16.2234
  47   2.0000      -0.544455       -14.8154
  48   2.0000      -0.536568       -14.6008
  49   2.0000      -0.528156       -14.3718
  50   2.0000      -0.507566       -13.8116
  51   2.0000      -0.493205       -13.4208
  52   2.0000      -0.473018       -12.8715
  53   2.0000      -0.470634       -12.8066
  54   2.0000      -0.464720       -12.6457
  55   2.0000      -0.458673       -12.4811
  56   2.0000      -0.450593       -12.2613
  57   2.0000      -0.445942       -12.1347
  58   2.0000      -0.441409       -12.0114
  59   2.0000      -0.427329       -11.6282
  60   2.0000      -0.422902       -11.5078
  61   2.0000      -0.414667       -11.2837
  62   2.0000      -0.410854       -11.1799
  63   2.0000      -0.406193       -11.0531
  64   2.0000      -0.390958       -10.6385
  65   2.0000      -0.378976       -10.3124
  66   2.0000      -0.367636       -10.0039
  67   2.0000      -0.365855        -9.9554
  68   2.0000      -0.360174        -9.8008
  69   2.0000      -0.355552        -9.6751
  70   2.0000      -0.349549        -9.5117
  71   2.0000      -0.345970        -9.4143
  72   2.0000      -0.332588        -9.0502
  73   2.0000      -0.328354        -8.9350
  74   2.0000      -0.323311        -8.7978
  75   2.0000      -0.320806        -8.7296
  76   2.0000      -0.314987        -8.5712
  77   2.0000      -0.310490        -8.4489
  78   2.0000      -0.291405        -7.9295
  79   2.0000      -0.285015        -7.7557
  80   2.0000      -0.284113        -7.7311
  81   2.0000      -0.281138        -7.6502
  82   2.0000      -0.268176        -7.2974
  83   2.0000      -0.255872        -6.9626
  84   2.0000      -0.238533        -6.4908
  85   2.0000      -0.229894        -6.2557
  86   2.0000      -0.227802        -6.1988
  87   0.0000      -0.052380        -1.4253
  88   0.0000      -0.042155        -1.1471
  89   0.0000      -0.022838        -0.6215
  90   0.0000      -0.000707        -0.0192
  91   0.0000       0.006149         0.1673

MULLIKEN ATOMIC CHARGES
-----------------------
   0 C :   -0.491560
   1 C :   -0.151270
   2 O :   -0.155429
   3 C :    0.424088
   4 O :   -0.462056
   5 C :   -0.480268
   6 C :    0.025510
   7 H :    0.250848
   8 C :    0.285815
   9 O :   -0.465005
  10 O :   -0.154602
  11 C :   -0.147249
  12 C :   -0.498690
  13 S :   -0.186966
  14 P :    0.809845
  15 S :   -0.491791
  16 O :   -0.350999
  17 C :   -0.299338
  18 O :   -0.381694
  19 C :   -0.321411
  20 H :    0.166163
  21 H :    0.170859
  22 H :    0.166262
  23 H :    0.175215
  24 H :    0.175565
  25 H :    0.208535
  26 H :    0.216412
  27 H :    0.182663
  28 H :    0.179118
  29 H :    0.170731
  30 H :    0.169031
  31 H :    0.173479
  32 H :    0.183965
  33 H :    0.186342
  34 H :    0.178907
  35 H :    0.177422
  36 H :    0.179955
  37 H :    0.181595
Sum of atomic charges:    0.0000000

LOEWDIN ATOMIC CHARGES
----------------------
   0 C :   -0.388365
   1 C :    0.039699
   2 O :   -0.585401
   3 C :    0.344585
   4 O :   -0.485064
   5 C :   -0.207392
   6 C :   -0.181623
   7 H :    0.226018
   8 C :    0.348681
   9 O :   -0.460529
  10 O :   -0.635222
  11 C :    0.035093
  12 C :   -0.387441
  13 S :    0.231878
  14 P :    0.412226
  15 S :   -0.099050
  16 O :   -0.671507
  17 C :   -0.042962
  18 O :   -0.693365
  19 C :   -0.057329
  20 H :    0.163474
  21 H :    0.169219
  22 H :    0.163063
  23 H :    0.186191
  24 H :    0.186816
  25 H :    0.203162
  26 H :    0.196966
  27 H :    0.193145
  28 H :    0.193513
  29 H :    0.163825
  30 H :    0.163723
  31 H :    0.169124
  32 H :    0.191828
  33 H :    0.181829
  34 H :    0.179468
  35 H :    0.187471
  36 H :    0.177660
  37 H :    0.186591

  Mayer bond orders larger than 0.100000
B(  0-C ,  1-C ) :   0.9444 B(  0-C , 20-H ) :   0.9692 B(  0-C , 21-H ) :   0.9614
B(  0-C , 22-H ) :   0.9704 B(  1-C ,  2-O ) :   0.7850 B(  1-C , 23-H ) :   0.9437
B(  1-C , 24-H ) :   0.9463 B(  2-O ,  3-C ) :   1.0921 B(  3-C ,  4-O ) :   1.7408
B(  3-C ,  5-C ) :   0.9049 B(  5-C ,  6-C ) :   0.8750 B(  5-C , 25-H ) :   0.9251
B(  5-C , 26-H ) :   0.9923 B(  6-C ,  7-H ) :   0.8603 B(  6-C ,  8-C ) :   0.9599
B(  6-C , 13-S ) :   0.8282 B(  8-C ,  9-O ) :   1.8158 B(  8-C , 10-O ) :   1.1211
B( 10-O , 11-C ) :   0.7715 B( 11-C , 12-C ) :   0.9323 B( 11-C , 27-H ) :   0.9475
B( 11-C , 28-H ) :   0.9544 B( 12-C , 29-H ) :   0.9691 B( 12-C , 30-H ) :   0.9722
B( 12-C , 31-H ) :   0.9598 B( 13-S , 14-P ) :   1.0277 B( 14-P , 15-S ) :   1.7334
B( 14-P , 16-O ) :   1.1475 B( 14-P , 18-O ) :   1.0341 B( 16-O , 17-C ) :   0.7924
B( 17-C , 32-H ) :   0.9542 B( 17-C , 33-H ) :   0.9521 B( 17-C , 34-H ) :   0.9465
B( 18-O , 19-C ) :   0.8234 B( 19-C , 35-H ) :   0.9573 B( 19-C , 36-H ) :   0.9548
B( 19-C , 37-H ) :   0.9422

Dispersion correction           -0.017833527
FINAL SINGLE POINT ENERGY     -1981.466888086100

DIPOLE MOMENT
-------------

Method             : SCF
Type of density    : Electron Density
Multiplicity       :   1
Irrep              :   0
Energy             : -1981.4864252696663698 Eh
Relativity type    :
Basis              : AO
                                X                 Y                 Z
Electronic contribution:     -7.964457845       0.010088059       9.340237132
Nuclear contribution   :      8.017634696       0.110883140     -12.324050317
                        -----------------------------------------
Total Dipole Moment    :      0.053176851       0.120971199      -2.983813185
                        -----------------------------------------
Magnitude (a.u.)       :      2.986737841
Magnitude (Debye)      :      7.591684271

Rotational constants in cm-1:             0.012742             0.007391             0.005900
Rotational constants in MHz :           381.982418           221.577993           176.862713

                             ****ORCA TERMINATED NORMALLY****
TOTAL RUN TIME: 0 days 0 hours 1 minutes 50 seconds 837 msec
