                         Program Version 6.0.1  -  RELEASE   -
|  1> ! pbe def2-sv(p) def2/J RI DEFGRID1 loosescf d4 GCP(DFT/SV(P)) printgap
|  2> %output
|  3>     printlevel normal
|  4> end
|  5> * xyz 0 1
|  6> C 4.9578417308 -3.5983953144 -1.4345972911
|  7> C 4.2375670553 -2.5305430547 -0.6357517718
|  8> O 3.2364410191 -1.9368407289 -1.4878769657
|  9> C 2.3880109085 -1.0937680587 -0.9473188153
| 10> O 2.3875882042 -0.7817701961 0.22667201
| 11> C 1.4103794323 -0.5378702549 -1.9606819857
| 12> C 0.3091804633 0.2262218926 -1.2384160677
| 13> H -0.2996117924 0.7959838034 -1.948425488
| 14> C 0.9266748415 1.2190067853 -0.2662040251
| 15> O 1.8393714808 1.945725682 -0.5886493804
| 16> O 0.3046037951 1.2464867746 0.8934851938
| 17> C 0.7955259149 2.123717348 1.925754696
| 18> C 1.6305296639 1.3344734443 2.9195261725
| 19> S -0.8016061011 -0.9405675783 -0.3830823138
| 20> P -2.2613186558 0.44744854 0.2935893871
| 21> S -2.3737204599 2.1484704807 -0.6701046291
| 22> O -3.59860894 -0.4336467166 0.2087420953
| 23> C -4.1592985914 -0.8117872442 -1.0532161242
| 24> O -2.1581037093 0.6184694449 1.8603423935
| 25> C -2.0782748876 -0.5117501281 2.7504873275
| 26> H 4.2548165405 -4.3603427516 -1.7569077529
| 27> H 5.4224606795 -3.156553163 -2.3107145697
| 28> H 5.7223619519 -4.0546654034 -0.814822155
| 29> H 4.9186773654 -1.7395053045 -0.3070186008
| 30> H 3.7379068534 -2.9441574264 0.2456101435
| 31> H 1.0043497617 -1.3479742422 -2.5652484875
| 32> H 1.9593668344 0.1476411299 -2.6101854824
| 33> H 1.3829847418 2.9124518409 1.4475423358
| 34> H -0.0992534841 2.5460078582 2.3870259594
| 35> H 2.4409027974 0.8314326983 2.396002033
| 36> H 2.0437687721 2.0123522351 3.6586523223
| 37> H 1.0196433986 0.5859241478 3.4157235551
| 38> H -4.2466625167 0.0620324868 -1.700840883
| 39> H -5.1423829163 -1.2164255641 -0.8268506247
| 40> H -3.5306905734 -1.5660763166 -1.5260360109
| 41> H -2.969687086 -1.1281432978 2.6518069545
| 42> H -2.0130082184 -0.0837368254 3.7474745336
| 43> H -1.1890265773 -1.099699802 2.5221705232
| 44> *
| 45>
| 46>                          ****END OF INPUT****

CARTESIAN COORDINATES (ANGSTROEM)
---------------------------------
  C      4.957842   -3.598395   -1.434597
  C      4.237567   -2.530543   -0.635752
  O      3.236441   -1.936841   -1.487877
  C      2.388011   -1.093768   -0.947319
  O      2.387588   -0.781770    0.226672
  C      1.410379   -0.537870   -1.960682
  C      0.309180    0.226222   -1.238416
  H     -0.299612    0.795984   -1.948425
  C      0.926675    1.219007   -0.266204
  O      1.839371    1.945726   -0.588649
  O      0.304604    1.246487    0.893485
  C      0.795526    2.123717    1.925755
  C      1.630530    1.334473    2.919526
  S     -0.801606   -0.940568   -0.383082
  P     -2.261319    0.447449    0.293589
  S     -2.373720    2.148470   -0.670105
  O     -3.598609   -0.433647    0.208742
  C     -4.159299   -0.811787   -1.053216
  O     -2.158104    0.618469    1.860342
  C     -2.078275   -0.511750    2.750487
  H      4.254817   -4.360343   -1.756908
  H      5.422461   -3.156553   -2.310715
  H      5.722362   -4.054665   -0.814822
  H      4.918677   -1.739505   -0.307019
  H      3.737907   -2.944157    0.245610
  H      1.004350   -1.347974   -2.565248
  H      1.959367    0.147641   -2.610185
  H      1.382985    2.912452    1.447542
  H     -0.099253    2.546008    2.387026
  H      2.440903    0.831433    2.396002
  H      2.043769    2.012352    3.658652
  H      1.019643    0.585924    3.415724
  H     -4.246663    0.062032   -1.700841
  H     -5.142383   -1.216426   -0.826851
  H     -3.530691   -1.566076   -1.526036
  H     -2.969687   -1.128143    2.651807
  H     -2.013008   -0.083737    3.747475
  H     -1.189027   -1.099700    2.522171

 Total Charge           Charge          ....    0
 Multiplicity           Mult            ....    1
 Number of Electrons    NEL             ....  174
 Basis Dimension        Dim             ....  316

ORBITAL ENERGIES
----------------

  NO   OCC          E(Eh)            E(eV)
   0   2.0000     -88.036911     -2395.6061
   1   2.0000     -87.978602     -2394.0195
   2   2.0000     -76.422833     -2079.5710
   3   2.0000     -18.812103      -511.9034
   4   2.0000     -18.796262      -511.4723
   5   2.0000     -18.791623      -511.3461
   6   2.0000     -18.788147      -511.2515
   7   2.0000     -18.751571      -510.2562
   8   2.0000     -18.725133      -509.5368
   9   2.0000     -10.019565      -272.6462
  10   2.0000     -10.007145      -272.3083
  11   2.0000      -9.956755      -270.9371
  12   2.0000      -9.948872      -270.7226
  13   2.0000      -9.942504      -270.5493
  14   2.0000      -9.942049      -270.5369
  15   2.0000      -9.935500      -270.3587
  16   2.0000      -9.918801      -269.9043
  17   2.0000      -9.896043      -269.2850
  18   2.0000      -9.876701      -268.7587
  19   2.0000      -7.681515      -209.0246
  20   2.0000      -7.623828      -207.4549
  21   2.0000      -6.419596      -174.6861
  22   2.0000      -5.709208      -155.3554
  23   2.0000      -5.706212      -155.2739
  24   2.0000      -5.698567      -155.0659
  25   2.0000      -5.652986      -153.8256
  26   2.0000      -5.644297      -153.5891
  27   2.0000      -5.643870      -153.5775
  28   2.0000      -4.642340      -126.3245
  29   2.0000      -4.641526      -126.3023
  30   2.0000      -4.639899      -126.2581
  31   2.0000      -1.022173       -27.8147
  32   2.0000      -1.003367       -27.3030
  33   2.0000      -0.984173       -26.7807
  34   2.0000      -0.939717       -25.5710
  35   2.0000      -0.927362       -25.2348
  36   2.0000      -0.907162       -24.6851
  37   2.0000      -0.764053       -20.7909
  38   2.0000      -0.721986       -19.6462
  39   2.0000      -0.697089       -18.9687
  40   2.0000      -0.692290       -18.8382
  41   2.0000      -0.660671       -17.9778
  42   2.0000      -0.634564       -17.2674
  43   2.0000      -0.619363       -16.8537
  44   2.0000      -0.610739       -16.6190
  45   2.0000      -0.593485       -16.1495
  46   2.0000      -0.558529       -15.1984
  47   2.0000      -0.518542       -14.1103
  48   2.0000      -0.512707       -13.9515
  49   2.0000      -0.491635       -13.3781
  50   2.0000      -0.480205       -13.0670
  51   2.0000      -0.472762       -12.8645
  52   2.0000      -0.466157       -12.6848
  53   2.0000      -0.454425       -12.3655
  54   2.0000      -0.433700       -11.8016
  55   2.0000      -0.427300       -11.6274
  56   2.0000      -0.425238       -11.5713
  57   2.0000      -0.419191       -11.4068
  58   2.0000      -0.417321       -11.3559
  59   2.0000      -0.411657       -11.2018
  60   2.0000      -0.399806       -10.8793
  61   2.0000      -0.396056       -10.7772
  62   2.0000      -0.390008       -10.6126
  63   2.0000      -0.379417       -10.3245
  64   2.0000      -0.372548       -10.1375
  65   2.0000      -0.366651        -9.9771
  66   2.0000      -0.362189        -9.8557
  67   2.0000      -0.355200        -9.6655
  68   2.0000      -0.345077        -9.3900
  69   2.0000      -0.339869        -9.2483
  70   2.0000      -0.330727        -8.9995
  71   2.0000      -0.323521        -8.8035
  72   2.0000      -0.318588        -8.6692
  73   2.0000      -0.317507        -8.6398
  74   2.0000      -0.309739        -8.4284
  75   2.0000      -0.300910        -8.1882
  76   2.0000      -0.295633        -8.0446
  77   2.0000      -0.285598        -7.7715
  78   2.0000      -0.271970        -7.4007
  79   2.0000      -0.267399        -7.2763
  80   2.0000      -0.257471        -7.0061
  81   2.0000      -0.249867        -6.7992
  82   2.0000      -0.238531        -6.4907
  83   2.0000      -0.231825        -6.3083
  84   2.0000      -0.204992        -5.5781
  85   2.0000      -0.198116        -5.3910
  86   2.0000      -0.194591        -5.2951
  87   0.0000      -0.039392        -1.0719
  88   0.0000      -0.027079        -0.7369
  89   0.0000      -0.011726        -0.3191
  90   0.0000       0.008700         0.2367
  91   0.0000       0.021769         0.5924

MULLIKEN ATOMIC CHARGES
-----------------------
   0 C :   -0.273723
   1 C :   -0.031803
   2 O :   -0.225963
   3 C :    0.116644
   4 O :   -0.197960
   5 C :   -0.097018
   6 C :   -0.303286
   7 H :    0.151793
   8 C :    0.236092
   9 O :   -0.207196
  10 O :   -0.235149
  11 C :   -0.011837
  12 C :   -0.300707
  13 S :   -0.105613
  14 P :    0.624658
  15 S :   -0.321259
  16 O :   -0.390869
  17 C :   -0.097830
  18 O :   -0.363320
  19 C :   -0.115233
  20 H :    0.116892
  21 H :    0.118632
  22 H :    0.114458
  23 H :    0.112245
  24 H :    0.111037
  25 H :    0.128337
  26 H :    0.145750
  27 H :    0.112286
  28 H :    0.107164
  29 H :    0.132355
  30 H :    0.106511
  31 H :    0.105619
  32 H :    0.117112
  33 H :    0.123560
  34 H :    0.110986
  35 H :    0.125057
  36 H :    0.130553
  37 H :    0.131028
Sum of atomic charges:    0.0000000

LOEWDIN ATOMIC CHARGES
----------------------
   0 C :   -0.350245
   1 C :   -0.104886
   2 O :   -0.056518
   3 C :    0.038814
   4 O :   -0.150070
   5 C :   -0.248991
   6 C :   -0.267415
   7 H :    0.143006
   8 C :    0.018985
   9 O :   -0.170180
  10 O :   -0.054603
  11 C :   -0.108083
  12 C :   -0.354097
  13 S :    0.085896
  14 P :    0.579570
  15 S :   -0.316170
  16 O :   -0.263513
  17 C :   -0.217352
  18 O :   -0.235203
  19 C :   -0.212465
  20 H :    0.127681
  21 H :    0.128556
  22 H :    0.132308
  23 H :    0.119905
  24 H :    0.118814
  25 H :    0.142781
  26 H :    0.160836
  27 H :    0.121230
  28 H :    0.118133
  29 H :    0.133485
  30 H :    0.126997
  31 H :    0.119682
  32 H :    0.111381
  33 H :    0.121519
  34 H :    0.106396
  35 H :    0.115731
  36 H :    0.124880
  37 H :    0.113206

  Mayer bond orders larger than 0.100000
B(  0-C ,  1-C ) :   1.1544 B(  0-C , 20-H ) :   0.9506 B(  0-C , 21-H ) :   0.9488
B(  0-C , 22-H ) :   0.9434 B(  1-C ,  2-O ) :   0.8999 B(  1-C , 23-H ) :   0.9338
B(  1-C , 24-H ) :   0.9289 B(  2-O ,  3-C ) :   1.2520 B(  3-C ,  4-O ) :   1.9883
B(  3-C ,  5-C ) :   1.0033 B(  5-C ,  6-C ) :   1.0648 B(  5-C , 25-H ) :   0.9009
B(  5-C , 26-H ) :   0.8724 B(  6-C ,  7-H ) :   0.8489 B(  6-C ,  8-C ) :   0.8652
B(  6-C , 13-S ) :   1.0190 B(  8-C ,  9-O ) :   2.0580 B(  8-C , 10-O ) :   1.2328
B( 10-O , 11-C ) :   0.9009 B( 11-C , 12-C ) :   1.1783 B( 11-C , 27-H ) :   0.9103
B( 11-C , 28-H ) :   0.9306 B( 12-C , 29-H ) :   0.9391 B( 12-C , 30-H ) :   0.9445
B( 12-C , 31-H ) :   0.9498 B( 13-S , 14-P ) :   0.9581 B( 13-S , 15-S ) :   0.1137
B( 14-P , 15-S ) :   1.6381 B( 14-P , 16-O ) :   1.0652 B( 14-P , 18-O ) :   1.1171
B( 16-O , 17-C ) :   0.9345 B( 17-C , 32-H ) :   0.9354 B( 17-C , 33-H ) :   0.9587
B( 17-C , 34-H ) :   0.9455 B( 18-O , 19-C ) :   0.9188 B( 19-C , 35-H ) :   0.9454
B( 19-C , 36-H ) :   0.9583 B( 19-C , 37-H ) :   0.9353

Dispersion correction           -0.052425919
FINAL SINGLE POINT ENERGY     -1979.021354948733

DIPOLE MOMENT
-------------

Method             : SCF
Type of density    : Electron Density
Multiplicity       :   1
Irrep              :   0
Energy             : -1979.1518141285123420 Eh
Relativity type    :
Basis              : AO
                                X                 Y                 Z
Electronic contribution:    -15.179991893      10.445726805      -5.214256428
Nuclear contribution   :     15.667749524     -12.436847531       5.512140745
                        -----------------------------------------
Total Dipole Moment    :      0.487757631      -1.991120726       0.297884317
                        -----------------------------------------
Magnitude (a.u.)       :      2.071522223
Magnitude (Debye)      :      5.265391043

Rotational constants in cm-1:             0.015222             0.006124             0.005522
Rotational constants in MHz :           456.353150           183.593030           165.542817

                             ****ORCA TERMINATED NORMALLY****
TOTAL RUN TIME: 0 days 0 hours 0 minutes 45 seconds 420 msec
