                         Program Version 6.0.1  -  RELEASE   -
|  1> ! pbe def2-sv(p) def2/J RI DEFGRID1 loosescf d4 GCP(DFT/SV(P)) printgap
|  2> %output
|  3>     printlevel normal
|  4> end
|  5> * xyz 0 1
|  6> C 3.3161526291 -3.4106880045 0.1048833324
|  7> C 2.9539696186 -2.0574998023 0.6958057484
|  8> O 2.7194089504 -1.0833801533 -0.3388844247
|  9> C 1.5538199138 -1.0724979435 -0.9460712769
| 10> O 0.6321476076 -1.8242144014 -0.6962600621
| 11> C 1.4754538224 0.0112392223 -2.0009336101
| 12> C 0.3294861444 0.9748760036 -1.6937474085
| 13> H 0.2336900569 1.6991890984 -2.5089406668
| 14> C 0.5062705416 1.7506849755 -0.4009367384
| 15> O -0.4397867699 2.0811113075 0.2871259351
| 16> O 1.7585797425 2.0111669846 -0.1428589936
| 17> C 2.0717331028 2.736626264 1.0651536338
| 18> C 1.8924775522 4.2323491145 0.8677613374
| 19> S -1.3020832898 0.1555488201 -1.6344658174
| 20> P -1.6124206601 -0.2838590944 0.4301479814
| 21> S -0.2574384959 -0.459044623 1.8369022328
| 22> O -2.7398225006 0.7132750262 0.9252325426
| 23> C -3.9444342268 0.9820004428 0.1880767751
| 24> O -2.5208132953 -1.6001411199 0.2789492655
| 25> C -2.0232477331 -2.9102542098 0.0098345569
| 26> H 3.5506012993 -4.0986511976 0.9102409946
| 27> H 2.4790697885 -3.8077949105 -0.4646151236
| 28> H 4.1787053115 -3.3141292023 -0.5488285772
| 29> H 3.7788848177 -1.6405009145 1.2728643261
| 30> H 2.0583389374 -2.1228007464 1.321121115
| 31> H 1.2790904136 -0.4624356986 -2.9637397624
| 32> H 2.4189088982 0.554634955 -2.0263677292
| 33> H 1.4292955812 2.3624991287 1.8679529304
| 34> H 3.1118057304 2.4787076996 1.2627959757
| 35> H 0.8467479375 4.4631344638 0.6772672826
| 36> H 2.2061311015 4.7484963752 1.7689208823
| 37> H 2.493471896 4.5743419837 0.0297977254
| 38> H -4.5386754713 0.0734188765 0.1047853732
| 39> H -3.6990641288 1.3628987084 -0.803530749
| 40> H -4.4665939879 1.7366425641 0.7704707272
| 41> H -2.8607162624 -3.5799624101 0.1892145529
| 42> H -1.1935352762 -3.1410358812 0.6779862342
| 43> H -1.6823842517 -2.9763271162 -1.0222614032
| 44> *
| 45>
| 46>                          ****END OF INPUT****

CARTESIAN COORDINATES (ANGSTROEM)
---------------------------------
  C      3.316153   -3.410688    0.104883
  C      2.953970   -2.057500    0.695806
  O      2.719409   -1.083380   -0.338884
  C      1.553820   -1.072498   -0.946071
  O      0.632148   -1.824214   -0.696260
  C      1.475454    0.011239   -2.000934
  C      0.329486    0.974876   -1.693747
  H      0.233690    1.699189   -2.508941
  C      0.506271    1.750685   -0.400937
  O     -0.439787    2.081111    0.287126
  O      1.758580    2.011167   -0.142859
  C      2.071733    2.736626    1.065154
  C      1.892478    4.232349    0.867761
  S     -1.302083    0.155549   -1.634466
  P     -1.612421   -0.283859    0.430148
  S     -0.257438   -0.459045    1.836902
  O     -2.739823    0.713275    0.925233
  C     -3.944434    0.982000    0.188077
  O     -2.520813   -1.600141    0.278949
  C     -2.023248   -2.910254    0.009835
  H      3.550601   -4.098651    0.910241
  H      2.479070   -3.807795   -0.464615
  H      4.178705   -3.314129   -0.548829
  H      3.778885   -1.640501    1.272864
  H      2.058339   -2.122801    1.321121
  H      1.279090   -0.462436   -2.963740
  H      2.418909    0.554635   -2.026368
  H      1.429296    2.362499    1.867953
  H      3.111806    2.478708    1.262796
  H      0.846748    4.463134    0.677267
  H      2.206131    4.748496    1.768921
  H      2.493472    4.574342    0.029798
  H     -4.538675    0.073419    0.104785
  H     -3.699064    1.362899   -0.803531
  H     -4.466594    1.736643    0.770471
  H     -2.860716   -3.579962    0.189215
  H     -1.193535   -3.141036    0.677986
  H     -1.682384   -2.976327   -1.022261

 Total Charge           Charge          ....    0
 Multiplicity           Mult            ....    1
 Number of Electrons    NEL             ....  174
 Basis Dimension        Dim             ....  316

ORBITAL ENERGIES
----------------

  NO   OCC          E(Eh)            E(eV)
   0   2.0000     -88.029770     -2395.4118
   1   2.0000     -87.965148     -2393.6534
   2   2.0000     -76.413743     -2079.3237
   3   2.0000     -18.814919      -511.9800
   4   2.0000     -18.802306      -511.6368
   5   2.0000     -18.773388      -510.8499
   6   2.0000     -18.769446      -510.7426
   7   2.0000     -18.744171      -510.0548
   8   2.0000     -18.736299      -509.8406
   9   2.0000     -10.019760      -272.6515
  10   2.0000     -10.009086      -272.3611
  11   2.0000      -9.953307      -270.8433
  12   2.0000      -9.950269      -270.7606
  13   2.0000      -9.941561      -270.5236
  14   2.0000      -9.931637      -270.2536
  15   2.0000      -9.924104      -270.0486
  16   2.0000      -9.911942      -269.7177
  17   2.0000      -9.888873      -269.0899
  18   2.0000      -9.883897      -268.9545
  19   2.0000      -7.674658      -208.8381
  20   2.0000      -7.610375      -207.0888
  21   2.0000      -6.409182      -174.4027
  22   2.0000      -5.702922      -155.1844
  23   2.0000      -5.699313      -155.0862
  24   2.0000      -5.691062      -154.8617
  25   2.0000      -5.639775      -153.4661
  26   2.0000      -5.630813      -153.2222
  27   2.0000      -5.630094      -153.2027
  28   2.0000      -4.631970      -126.0423
  29   2.0000      -4.631349      -126.0254
  30   2.0000      -4.629552      -125.9765
  31   2.0000      -1.023414       -27.8485
  32   2.0000      -1.008973       -27.4555
  33   2.0000      -0.966050       -26.2876
  34   2.0000      -0.925847       -25.1936
  35   2.0000      -0.919939       -25.0328
  36   2.0000      -0.914209       -24.8769
  37   2.0000      -0.764173       -20.7942
  38   2.0000      -0.707873       -19.2622
  39   2.0000      -0.705756       -19.2046
  40   2.0000      -0.683311       -18.5938
  41   2.0000      -0.653240       -17.7756
  42   2.0000      -0.623024       -16.9533
  43   2.0000      -0.617829       -16.8120
  44   2.0000      -0.603147       -16.4125
  45   2.0000      -0.595718       -16.2103
  46   2.0000      -0.567934       -15.4543
  47   2.0000      -0.509210       -13.8563
  48   2.0000      -0.499234       -13.5848
  49   2.0000      -0.493358       -13.4250
  50   2.0000      -0.479066       -13.0360
  51   2.0000      -0.458975       -12.4893
  52   2.0000      -0.453577       -12.3424
  53   2.0000      -0.444350       -12.0914
  54   2.0000      -0.433930       -11.8078
  55   2.0000      -0.425368       -11.5749
  56   2.0000      -0.416764       -11.3407
  57   2.0000      -0.415877       -11.3166
  58   2.0000      -0.410174       -11.1614
  59   2.0000      -0.399757       -10.8780
  60   2.0000      -0.395992       -10.7755
  61   2.0000      -0.390920       -10.6375
  62   2.0000      -0.388028       -10.5588
  63   2.0000      -0.380774       -10.3614
  64   2.0000      -0.375540       -10.2190
  65   2.0000      -0.368396       -10.0246
  66   2.0000      -0.361769        -9.8442
  67   2.0000      -0.353139        -9.6094
  68   2.0000      -0.347684        -9.4610
  69   2.0000      -0.335075        -9.1179
  70   2.0000      -0.333310        -9.0698
  71   2.0000      -0.325749        -8.8641
  72   2.0000      -0.318865        -8.6768
  73   2.0000      -0.305501        -8.3131
  74   2.0000      -0.300246        -8.1701
  75   2.0000      -0.291677        -7.9369
  76   2.0000      -0.283193        -7.7061
  77   2.0000      -0.279706        -7.6112
  78   2.0000      -0.265826        -7.2335
  79   2.0000      -0.262725        -7.1491
  80   2.0000      -0.253049        -6.8858
  81   2.0000      -0.245770        -6.6877
  82   2.0000      -0.235424        -6.4062
  83   2.0000      -0.228729        -6.2240
  84   2.0000      -0.196258        -5.3405
  85   2.0000      -0.182915        -4.9774
  86   2.0000      -0.176174        -4.7939
  87   0.0000      -0.043367        -1.1801
  88   0.0000      -0.034801        -0.9470
  89   0.0000      -0.026718        -0.7270
  90   0.0000       0.006201         0.1687
  91   0.0000       0.036305         0.9879

MULLIKEN ATOMIC CHARGES
-----------------------
   0 C :   -0.308688
   1 C :   -0.024386
   2 O :   -0.219965
   3 C :    0.092031
   4 O :   -0.200212
   5 C :   -0.003507
   6 C :   -0.314938
   7 H :    0.155260
   8 C :    0.188006
   9 O :   -0.182991
  10 O :   -0.217876
  11 C :   -0.010606
  12 C :   -0.311362
  13 S :   -0.098255
  14 P :    0.641467
  15 S :   -0.332498
  16 O :   -0.357264
  17 C :   -0.102219
  18 O :   -0.398817
  19 C :   -0.087424
  20 H :    0.113100
  21 H :    0.126189
  22 H :    0.109018
  23 H :    0.098339
  24 H :    0.131679
  25 H :    0.116161
  26 H :    0.110818
  27 H :    0.129201
  28 H :    0.103740
  29 H :    0.132288
  30 H :    0.117223
  31 H :    0.110785
  32 H :    0.115591
  33 H :    0.113873
  34 H :    0.124271
  35 H :    0.111195
  36 H :    0.116385
  37 H :    0.114388
Sum of atomic charges:   -0.0000000

LOEWDIN ATOMIC CHARGES
----------------------
   0 C :   -0.357882
   1 C :   -0.114295
   2 O :   -0.046424
   3 C :    0.025923
   4 O :   -0.170044
   5 C :   -0.250840
   6 C :   -0.259032
   7 H :    0.152727
   8 C :    0.003227
   9 O :   -0.155720
  10 O :   -0.036522
  11 C :   -0.106619
  12 C :   -0.357440
  13 S :    0.103874
  14 P :    0.594400
  15 S :   -0.312690
  16 O :   -0.236978
  17 C :   -0.213276
  18 O :   -0.261977
  19 C :   -0.211954
  20 H :    0.130962
  21 H :    0.129099
  22 H :    0.122263
  23 H :    0.116853
  24 H :    0.120424
  25 H :    0.144141
  26 H :    0.138992
  27 H :    0.127745
  28 H :    0.119315
  29 H :    0.132293
  30 H :    0.133280
  31 H :    0.123235
  32 H :    0.111405
  33 H :    0.104872
  34 H :    0.122831
  35 H :    0.113882
  36 H :    0.110309
  37 H :    0.109643

  Mayer bond orders larger than 0.100000
B(  0-C ,  1-C ) :   1.1666 B(  0-C , 20-H ) :   0.9445 B(  0-C , 21-H ) :   0.9455
B(  0-C , 22-H ) :   0.9478 B(  1-C ,  2-O ) :   0.9108 B(  1-C , 23-H ) :   0.9387
B(  1-C , 24-H ) :   0.9069 B(  2-O ,  3-C ) :   1.2566 B(  3-C ,  4-O ) :   1.9676
B(  3-C ,  5-C ) :   1.0069 B(  5-C ,  6-C ) :   1.0316 B(  5-C , 25-H ) :   0.8854
B(  5-C , 26-H ) :   0.8809 B(  6-C ,  7-H ) :   0.8713 B(  6-C ,  8-C ) :   0.8937
B(  6-C , 13-S ) :   1.0372 B(  8-C ,  9-O ) :   1.9963 B(  8-C , 10-O ) :   1.2753
B( 10-O , 11-C ) :   0.8990 B( 11-C , 12-C ) :   1.1713 B( 11-C , 27-H ) :   0.9113
B( 11-C , 28-H ) :   0.9373 B( 12-C , 29-H ) :   0.9440 B( 12-C , 30-H ) :   0.9439
B( 12-C , 31-H ) :   0.9477 B( 13-S , 14-P ) :   0.9271 B( 13-S , 15-S ) :   0.1199
B( 14-P , 15-S ) :   1.5705 B( 14-P , 16-O ) :   1.1242 B( 14-P , 18-O ) :   1.0681
B( 16-O , 17-C ) :   0.9313 B( 17-C , 32-H ) :   0.9468 B( 17-C , 33-H ) :   0.9357
B( 17-C , 34-H ) :   0.9604 B( 18-O , 19-C ) :   0.9348 B( 19-C , 35-H ) :   0.9562
B( 19-C , 36-H ) :   0.9404 B( 19-C , 37-H ) :   0.9489

Dispersion correction           -0.055603282
FINAL SINGLE POINT ENERGY     -1979.002146362967

DIPOLE MOMENT
-------------

Method             : SCF
Type of density    : Electron Density
Multiplicity       :   1
Irrep              :   0
Energy             : -1979.1306399420691378 Eh
Relativity type    :
Basis              : AO
                                X                 Y                 Z
Electronic contribution:    -11.397397004       1.050115070      -1.055695492
Nuclear contribution   :     12.382202230      -0.755474597       0.097723747
                        -----------------------------------------
Total Dipole Moment    :      0.984805226       0.294640473      -0.957971745
                        -----------------------------------------
Magnitude (a.u.)       :      1.405120709
Magnitude (Debye)      :      3.571533008

Rotational constants in cm-1:             0.011347             0.009918             0.006956
Rotational constants in MHz :           340.179160           297.339097           208.542001

                             ****ORCA TERMINATED NORMALLY****
TOTAL RUN TIME: 0 days 0 hours 1 minutes 32 seconds 287 msec
