                         Program Version 6.0.0  -   RELEASE  -
|  1> ! pbe def2-sv(p) def2/J RI DEFGRID1 loosescf d4 GCP(DFT/SV(P)) printgap
|  2> %output
|  3>     printlevel normal
|  4> end
|  5> * xyz 0 1
|  6> C 4.1186425384 -1.5519010946 -1.8782043153
|  7> C 4.6553833124 -0.5480766385 -0.8786695245
|  8> O 3.6573703004 0.4124256297 -0.4537055155
|  9> P 2.4002736758 0.1291317423 0.457425543
| 10> S 1.8580103672 1.8124374708 1.297341571
| 11> O 2.9170189667 -1.0457919727 1.3904617756
| 12> C 2.0731361623 -1.9168782175 2.166361577
| 13> C 1.0969687949 -1.1602567617 3.0426332401
| 14> S 0.9322148858 -0.843787903 -0.7657270785
| 15> C 0.4376375596 0.6078648654 -1.7200550493
| 16> S -0.7630347689 1.6768874515 -0.8767969855
| 17> P -2.284691232 0.2193201467 -0.7131452096
| 18> S -2.5404320512 -0.9756874371 -2.2373803113
| 19> O -3.5943029735 1.0643773786 -0.4279440347
| 20> C -3.6710674874 2.2894415373 0.3365043493
| 21> C -3.2083397478 2.1183736272 1.7682268652
| 22> O -1.8775334051 -0.5125996731 0.649828059
| 23> C -2.1441188816 -1.9091700172 0.8711991487
| 24> C -3.6126255974 -2.1443315328 1.1599321713
| 25> H 4.9425724915 -2.1593760111 -2.23992731
| 26> H 3.3795207283 -2.2007821028 -1.4142146309
| 27> H 3.6583773889 -1.0424961735 -2.7213058542
| 28> H 5.4288913659 0.0814880817 -1.3217021557
| 29> H 5.0471445536 -1.0487446909 0.007888527
| 30> H 1.5431069473 -2.578604914 1.4752836507
| 31> H 2.7808084998 -2.4940758035 2.7642981497
| 32> H 0.3882476905 -0.6073673351 2.4266345206
| 33> H 0.5558654914 -1.8609971466 3.6707825962
| 34> H 1.6260755236 -0.4484126736 3.6718812736
| 35> H -0.0102797101 0.2298205651 -2.6388619093
| 36> H 1.3074493605 1.229470813 -1.9243998527
| 37> H -3.0761991575 3.0510505943 -0.1749930117
| 38> H -4.7295112735 2.5500664575 0.2831388385
| 39> H -3.7678237799 1.3236636184 2.2545566601
| 40> H -2.1473032847 1.8761589206 1.7975199527
| 41> H -3.3676050648 3.0487208244 2.3045802749
| 42> H -1.8277796353 -2.4705537852 -0.0138378438
| 43> H -1.5156339455 -2.1730067819 1.7225381592
| 44> H -3.7821325386 -3.2017331429 1.3358856164
| 45> H -3.9227708753 -1.5781283643 2.0340568064
| 46> H -4.2078999704 -1.8262884186 0.3040520524
| 47> *
| 48>
| 49>                          ****END OF INPUT****

CARTESIAN COORDINATES (ANGSTROEM)
---------------------------------
  C      4.118643   -1.551901   -1.878204
  C      4.655383   -0.548077   -0.878670
  O      3.657370    0.412426   -0.453706
  P      2.400274    0.129132    0.457426
  S      1.858010    1.812437    1.297342
  O      2.917019   -1.045792    1.390462
  C      2.073136   -1.916878    2.166362
  C      1.096969   -1.160257    3.042633
  S      0.932215   -0.843788   -0.765727
  C      0.437638    0.607865   -1.720055
  S     -0.763035    1.676887   -0.876797
  P     -2.284691    0.219320   -0.713145
  S     -2.540432   -0.975687   -2.237380
  O     -3.594303    1.064377   -0.427944
  C     -3.671067    2.289442    0.336504
  C     -3.208340    2.118374    1.768227
  O     -1.877533   -0.512600    0.649828
  C     -2.144119   -1.909170    0.871199
  C     -3.612626   -2.144332    1.159932
  H      4.942572   -2.159376   -2.239927
  H      3.379521   -2.200782   -1.414215
  H      3.658377   -1.042496   -2.721306
  H      5.428891    0.081488   -1.321702
  H      5.047145   -1.048745    0.007889
  H      1.543107   -2.578605    1.475284
  H      2.780808   -2.494076    2.764298
  H      0.388248   -0.607367    2.426635
  H      0.555865   -1.860997    3.670783
  H      1.626076   -0.448413    3.671881
  H     -0.010280    0.229821   -2.638862
  H      1.307449    1.229471   -1.924400
  H     -3.076199    3.051051   -0.174993
  H     -4.729511    2.550066    0.283139
  H     -3.767824    1.323664    2.254557
  H     -2.147303    1.876159    1.797520
  H     -3.367605    3.048721    2.304580
  H     -1.827780   -2.470554   -0.013838
  H     -1.515634   -2.173007    1.722538
  H     -3.782133   -3.201733    1.335886
  H     -3.922771   -1.578128    2.034057
  H     -4.207900   -1.826288    0.304052

 Total Charge           Charge          ....    0
 Multiplicity           Mult            ....    1
 Number of Electrons    NEL             ....  202
 Basis Dimension        Dim             ....  334

ORBITAL ENERGIES
----------------

  NO   OCC          E(Eh)            E(eV)
   0   2.0000     -88.043544     -2395.7866
   1   2.0000     -88.038554     -2395.6509
   2   2.0000     -87.982486     -2394.1252
   3   2.0000     -87.978874     -2394.0269
   4   2.0000     -76.427149     -2079.6885
   5   2.0000     -76.423135     -2079.5792
   6   2.0000     -18.799863      -511.5703
   7   2.0000     -18.790922      -511.3270
   8   2.0000     -18.790790      -511.3234
   9   2.0000     -18.787849      -511.2434
  10   2.0000      -9.965059      -271.1631
  11   2.0000      -9.958455      -270.9833
  12   2.0000      -9.958095      -270.9735
  13   2.0000      -9.957898      -270.9682
  14   2.0000      -9.948892      -270.7231
  15   2.0000      -9.889994      -269.1204
  16   2.0000      -9.886631      -269.0289
  17   2.0000      -9.886236      -269.0182
  18   2.0000      -9.883070      -268.9320
  19   2.0000      -7.687851      -209.1971
  20   2.0000      -7.683636      -209.0824
  21   2.0000      -7.627789      -207.5627
  22   2.0000      -7.624088      -207.4620
  23   2.0000      -6.424042      -174.8071
  24   2.0000      -6.420761      -174.7178
  25   2.0000      -5.715563      -155.5284
  26   2.0000      -5.712530      -155.4458
  27   2.0000      -5.711506      -155.4180
  28   2.0000      -5.708279      -155.3302
  29   2.0000      -5.704912      -155.2385
  30   2.0000      -5.700454      -155.1172
  31   2.0000      -5.656772      -153.9286
  32   2.0000      -5.653193      -153.8312
  33   2.0000      -5.648554      -153.7050
  34   2.0000      -5.647664      -153.6807
  35   2.0000      -5.644843      -153.6040
  36   2.0000      -5.643931      -153.5792
  37   2.0000      -4.647277      -126.4588
  38   2.0000      -4.645962      -126.4230
  39   2.0000      -4.643816      -126.3647
  40   2.0000      -4.643596      -126.3587
  41   2.0000      -4.642276      -126.3228
  42   2.0000      -4.641242      -126.2946
  43   2.0000      -0.991624       -26.9834
  44   2.0000      -0.981389       -26.7050
  45   2.0000      -0.947318       -25.7778
  46   2.0000      -0.943289       -25.6682
  47   2.0000      -0.764302       -20.7977
  48   2.0000      -0.721929       -19.6447
  49   2.0000      -0.711645       -19.3648
  50   2.0000      -0.695494       -18.9253
  51   2.0000      -0.690845       -18.7988
  52   2.0000      -0.675020       -18.3682
  53   2.0000      -0.650332       -17.6964
  54   2.0000      -0.637888       -17.3578
  55   2.0000      -0.594892       -16.1878
  56   2.0000      -0.591343       -16.0913
  57   2.0000      -0.583985       -15.8911
  58   2.0000      -0.575279       -15.6541
  59   2.0000      -0.564908       -15.3719
  60   2.0000      -0.503851       -13.7105
  61   2.0000      -0.492685       -13.4067
  62   2.0000      -0.476160       -12.9570
  63   2.0000      -0.474110       -12.9012
  64   2.0000      -0.461848       -12.5675
  65   2.0000      -0.449902       -12.2424
  66   2.0000      -0.441877       -12.0241
  67   2.0000      -0.437784       -11.9127
  68   2.0000      -0.431658       -11.7460
  69   2.0000      -0.416709       -11.3392
  70   2.0000      -0.411823       -11.2063
  71   2.0000      -0.410600       -11.1730
  72   2.0000      -0.390844       -10.6354
  73   2.0000      -0.386698       -10.5226
  74   2.0000      -0.386165       -10.5081
  75   2.0000      -0.373760       -10.1705
  76   2.0000      -0.360481        -9.8092
  77   2.0000      -0.358627        -9.7587
  78   2.0000      -0.356083        -9.6895
  79   2.0000      -0.350658        -9.5419
  80   2.0000      -0.348333        -9.4786
  81   2.0000      -0.344801        -9.3825
  82   2.0000      -0.344270        -9.3681
  83   2.0000      -0.342775        -9.3274
  84   2.0000      -0.336089        -9.1454
  85   2.0000      -0.325825        -8.8662
  86   2.0000      -0.313966        -8.5434
  87   2.0000      -0.304136        -8.2760
  88   2.0000      -0.301285        -8.1984
  89   2.0000      -0.294735        -8.0201
  90   2.0000      -0.280199        -7.6246
  91   2.0000      -0.278674        -7.5831
  92   2.0000      -0.272753        -7.4220
  93   2.0000      -0.265527        -7.2253
  94   2.0000      -0.259552        -7.0628
  95   2.0000      -0.232938        -6.3386
  96   2.0000      -0.214656        -5.8411
  97   2.0000      -0.208060        -5.6616
  98   2.0000      -0.199307        -5.4234
  99   2.0000      -0.196143        -5.3373
 100   2.0000      -0.183426        -4.9913
 101   0.0000      -0.044620        -1.2142
 102   0.0000      -0.026726        -0.7272
 103   0.0000      -0.009491        -0.2583
 104   0.0000       0.002156         0.0587
 105   0.0000       0.015102         0.4109

MULLIKEN ATOMIC CHARGES
-----------------------
   0 C :   -0.309067
   1 C :    0.000002
   2 O :   -0.363459
   3 P :    0.597012
   4 S :   -0.305375
   5 O :   -0.384688
   6 C :   -0.015727
   7 C :   -0.336742
   8 S :   -0.107496
   9 C :   -0.338771
  10 S :   -0.068913
  11 P :    0.610262
  12 S :   -0.324570
  13 O :   -0.371338
  14 C :   -0.021646
  15 C :   -0.322721
  16 O :   -0.373699
  17 C :   -0.018039
  18 C :   -0.305678
  19 H :    0.112730
  20 H :    0.122958
  21 H :    0.117868
  22 H :    0.110700
  23 H :    0.110682
  24 H :    0.114383
  25 H :    0.110225
  26 H :    0.156647
  27 H :    0.112520
  28 H :    0.129733
  29 H :    0.195482
  30 H :    0.185332
  31 H :    0.122694
  32 H :    0.113618
  33 H :    0.119054
  34 H :    0.145818
  35 H :    0.114756
  36 H :    0.112744
  37 H :    0.100166
  38 H :    0.109527
  39 H :    0.114391
  40 H :    0.128624
Sum of atomic charges:   -0.0000000

LOEWDIN ATOMIC CHARGES
----------------------
   0 C :   -0.367032
   1 C :   -0.109777
   2 O :   -0.241947
   3 P :    0.563891
   4 S :   -0.310382
   5 O :   -0.245517
   6 C :   -0.112820
   7 C :   -0.374941
   8 S :    0.078142
   9 C :   -0.474731
  10 S :    0.096595
  11 P :    0.569039
  12 S :   -0.318346
  13 O :   -0.243670
  14 C :   -0.115280
  15 C :   -0.368868
  16 O :   -0.247970
  17 C :   -0.125941
  18 C :   -0.363774
  19 H :    0.130708
  20 H :    0.117450
  21 H :    0.126356
  22 H :    0.122237
  23 H :    0.114795
  24 H :    0.107714
  25 H :    0.121568
  26 H :    0.127066
  27 H :    0.128320
  28 H :    0.132072
  29 H :    0.133578
  30 H :    0.134105
  31 H :    0.111549
  32 H :    0.123741
  33 H :    0.125360
  34 H :    0.127896
  35 H :    0.132435
  36 H :    0.106654
  37 H :    0.112348
  38 H :    0.129643
  39 H :    0.122107
  40 H :    0.125626

  Mayer bond orders larger than 0.100000
B(  0-C ,  1-C ) :   1.1697 B(  0-C , 19-H ) :   0.9361 B(  0-C , 20-H ) :   0.9393
B(  0-C , 21-H ) :   0.9461 B(  1-C ,  2-O ) :   0.9012 B(  1-C , 22-H ) :   0.9352
B(  1-C , 23-H ) :   0.9265 B(  2-O ,  3-P ) :   1.1176 B(  3-P ,  4-S ) :   1.6757
B(  3-P ,  5-O ) :   1.0762 B(  3-P ,  8-S ) :   0.9292 B(  4-S ,  8-S ) :   0.1164
B(  5-O ,  6-C ) :   0.9122 B(  6-C ,  7-C ) :   1.1709 B(  6-C , 24-H ) :   0.9267
B(  6-C , 25-H ) :   0.9333 B(  7-C , 26-H ) :   0.9184 B(  7-C , 27-H ) :   0.9298
B(  7-C , 28-H ) :   0.9385 B(  8-S ,  9-C ) :   1.0009 B(  9-C , 10-S ) :   1.0111
B(  9-C , 29-H ) :   0.8827 B(  9-C , 30-H ) :   0.8960 B( 10-S , 11-P ) :   0.9745
B( 11-P , 12-S ) :   1.6115 B( 11-P , 13-O ) :   1.1262 B( 11-P , 16-O ) :   1.0682
B( 13-O , 14-C ) :   0.9063 B( 14-C , 15-C ) :   1.1648 B( 14-C , 31-H ) :   0.9206
B( 14-C , 32-H ) :   0.9345 B( 15-C , 33-H ) :   0.9431 B( 15-C , 34-H ) :   0.9332
B( 15-C , 35-H ) :   0.9352 B( 16-O , 17-C ) :   0.9055 B( 17-C , 18-C ) :   1.1647
B( 17-C , 36-H ) :   0.9080 B( 17-C , 37-H ) :   0.9255 B( 18-C , 38-H ) :   0.9401
B( 18-C , 39-H ) :   0.9446 B( 18-C , 40-H ) :   0.9351

Dispersion correction           -0.066746412
FINAL SINGLE POINT ENERGY     -2929.510994862052

DIPOLE MOMENT
-------------

Method             : SCF
Type of density    : Electron Density
Multiplicity       :   1
Irrep              :   0
Energy             : -2929.6297326999833786 Eh
Relativity type    :
Basis              : AO
                                X                 Y                 Z
Electronic contribution:      2.178646017      10.947672327     -12.247359776
Nuclear contribution   :     -1.664051795     -11.900522235      13.083157342
                        -----------------------------------------
Total Dipole Moment    :      0.514594222      -0.952849908       0.835797566
                        -----------------------------------------
Magnitude (a.u.)       :      1.367950193
Magnitude (Debye)      :      3.477053065

Rotational constants in cm-1:             0.012036             0.005140             0.005036
Rotational constants in MHz :           360.830084           154.098448           150.961748

                             ****ORCA TERMINATED NORMALLY****
TOTAL RUN TIME: 0 days 0 hours 0 minutes 21 seconds 482 msec
