                         Program Version 6.0.0  -   RELEASE  -
|  1> ! pbe def2-sv(p) def2/J RI DEFGRID1 loosescf d4 GCP(DFT/SV(P)) printgap
|  2> %output
|  3>     printlevel normal
|  4> end
|  5> * xyz 0 1
|  6> C 2.9188367697 2.1593954388 -1.6760462304
|  7> C 2.0448507097 0.9233028678 -1.6910483531
|  8> O 1.3177437665 0.8029431333 -0.4381176094
|  9> P 1.7996647135 -0.1431324832 0.73630497
| 10> S 0.9149988667 0.3137596119 2.4213262097
| 11> O 3.3736564843 0.0703136818 0.7187859842
| 12> C 4.3389084548 -0.8643773074 1.2381847169
| 13> C 4.0529177465 -1.2791884827 2.6656349781
| 14> S 1.6284279027 -2.1318268451 -0.0277379732
| 15> C -0.0459555131 -2.0932427981 -0.7230116589
| 16> S -1.3426223928 -1.5499340923 0.4356229986
| 17> P -1.9038564229 0.2696185564 -0.4698184614
| 18> S -1.3962291165 0.5455393001 -2.344925689
| 19> O -1.3785999686 1.3230214665 0.5826548017
| 20> C -1.1750261193 2.7123472746 0.2658550825
| 21> C -2.4813387899 3.438801703 0.0260889443
| 22> O -3.472252835 0.3428700693 -0.2088170554
| 23> C -4.4415663567 -0.1881566012 -1.1290597468
| 24> C -4.3924567468 -1.7000057498 -1.2165417018
| 25> H 3.6645404277 2.0831501532 -0.8890241076
| 26> H 3.4143713562 2.2511119014 -2.6373945263
| 27> H 2.3135034347 3.0445790249 -1.4996424489
| 28> H 2.6389723424 0.0195725854 -1.8466874604
| 29> H 1.2701298872 0.9917652091 -2.458733015
| 30> H 4.3539513535 -1.737766642 0.5800688484
| 31> H 5.284234772 -0.3242453983 1.1619725205
| 32> H 3.9784187854 -0.4054301456 3.3086951137
| 33> H 3.1101320477 -1.8226863787 2.7164378877
| 34> H 4.8517788321 -1.9222670066 3.0204056754
| 35> H -0.2582130563 -3.1253702377 -0.9919657028
| 36> H -0.0721030314 -1.4456210334 -1.6036012562
| 37> H -0.6436427191 3.0978483592 1.137965426
| 38> H -0.5262303051 2.7711922916 -0.6141849105
| 39> H -2.2835556161 4.498957738 -0.0978832085
| 40> H -2.9588707987 3.058474632 -0.8762983288
| 41> H -3.1513801127 3.2901584037 0.8689877552
| 42> H -5.3953298354 0.1614548106 -0.7314302512
| 43> H -4.262393598 0.2582612926 -2.1127846711
| 44> H -4.4500219315 -2.138296205 -0.2232791183
| 45> H -5.2277677096 -2.0497843538 -1.8146667829
| 46> H -3.4631858943 -2.0176849035 -1.6873850511
| 47> *
| 48>
| 49>                          ****END OF INPUT****

CARTESIAN COORDINATES (ANGSTROEM)
---------------------------------
  C      2.918837    2.159395   -1.676046
  C      2.044851    0.923303   -1.691048
  O      1.317744    0.802943   -0.438118
  P      1.799665   -0.143132    0.736305
  S      0.914999    0.313760    2.421326
  O      3.373656    0.070314    0.718786
  C      4.338908   -0.864377    1.238185
  C      4.052918   -1.279188    2.665635
  S      1.628428   -2.131827   -0.027738
  C     -0.045956   -2.093243   -0.723012
  S     -1.342622   -1.549934    0.435623
  P     -1.903856    0.269619   -0.469818
  S     -1.396229    0.545539   -2.344926
  O     -1.378600    1.323021    0.582655
  C     -1.175026    2.712347    0.265855
  C     -2.481339    3.438802    0.026089
  O     -3.472253    0.342870   -0.208817
  C     -4.441566   -0.188157   -1.129060
  C     -4.392457   -1.700006   -1.216542
  H      3.664540    2.083150   -0.889024
  H      3.414371    2.251112   -2.637395
  H      2.313503    3.044579   -1.499642
  H      2.638972    0.019573   -1.846687
  H      1.270130    0.991765   -2.458733
  H      4.353951   -1.737767    0.580069
  H      5.284235   -0.324245    1.161973
  H      3.978419   -0.405430    3.308695
  H      3.110132   -1.822686    2.716438
  H      4.851779   -1.922267    3.020406
  H     -0.258213   -3.125370   -0.991966
  H     -0.072103   -1.445621   -1.603601
  H     -0.643643    3.097848    1.137965
  H     -0.526230    2.771192   -0.614185
  H     -2.283556    4.498958   -0.097883
  H     -2.958871    3.058475   -0.876298
  H     -3.151380    3.290158    0.868988
  H     -5.395330    0.161455   -0.731430
  H     -4.262394    0.258261   -2.112785
  H     -4.450022   -2.138296   -0.223279
  H     -5.227768   -2.049784   -1.814667
  H     -3.463186   -2.017685   -1.687385

 Total Charge           Charge          ....    0
 Multiplicity           Mult            ....    1
 Number of Electrons    NEL             ....  202
 Basis Dimension        Dim             ....  334

ORBITAL ENERGIES
----------------

  NO   OCC          E(Eh)            E(eV)
   0   2.0000     -88.042409     -2395.7557
   1   2.0000     -88.040567     -2395.7056
   2   2.0000     -87.992193     -2394.3893
   3   2.0000     -87.973301     -2393.8752
   4   2.0000     -76.424962     -2079.6289
   5   2.0000     -76.421978     -2079.5478
   6   2.0000     -18.790916      -511.3268
   7   2.0000     -18.790072      -511.3038
   8   2.0000     -18.789153      -511.2788
   9   2.0000     -18.780607      -511.0463
  10   2.0000      -9.958891      -270.9952
  11   2.0000      -9.957918      -270.9687
  12   2.0000      -9.951304      -270.7888
  13   2.0000      -9.946417      -270.6558
  14   2.0000      -9.942199      -270.5410
  15   2.0000      -9.883524      -268.9444
  16   2.0000      -9.882480      -268.9160
  17   2.0000      -9.882084      -268.9052
  18   2.0000      -9.878192      -268.7993
  19   2.0000      -7.687322      -209.1827
  20   2.0000      -7.685716      -209.1390
  21   2.0000      -7.636978      -207.8127
  22   2.0000      -7.618514      -207.3103
  23   2.0000      -6.422567      -174.7669
  24   2.0000      -6.419039      -174.6709
  25   2.0000      -5.715193      -155.5183
  26   2.0000      -5.713584      -155.4745
  27   2.0000      -5.712011      -155.4317
  28   2.0000      -5.710063      -155.3787
  29   2.0000      -5.704064      -155.2155
  30   2.0000      -5.702880      -155.1832
  31   2.0000      -5.665533      -154.1670
  32   2.0000      -5.657957      -153.9608
  33   2.0000      -5.657099      -153.9375
  34   2.0000      -5.647768      -153.6836
  35   2.0000      -5.638779      -153.4390
  36   2.0000      -5.638690      -153.4365
  37   2.0000      -4.644738      -126.3898
  38   2.0000      -4.644204      -126.3752
  39   2.0000      -4.643529      -126.3568
  40   2.0000      -4.642168      -126.3198
  41   2.0000      -4.641217      -126.2939
  42   2.0000      -4.638650      -126.2241
  43   2.0000      -0.986031       -26.8313
  44   2.0000      -0.982232       -26.7279
  45   2.0000      -0.942395       -25.6439
  46   2.0000      -0.939248       -25.5582
  47   2.0000      -0.760727       -20.7004
  48   2.0000      -0.717225       -19.5167
  49   2.0000      -0.706878       -19.2351
  50   2.0000      -0.689446       -18.7608
  51   2.0000      -0.684072       -18.6145
  52   2.0000      -0.672806       -18.3080
  53   2.0000      -0.649182       -17.6651
  54   2.0000      -0.638823       -17.3833
  55   2.0000      -0.600489       -16.3401
  56   2.0000      -0.583671       -15.8825
  57   2.0000      -0.570557       -15.5256
  58   2.0000      -0.568554       -15.4712
  59   2.0000      -0.563932       -15.3454
  60   2.0000      -0.501937       -13.6584
  61   2.0000      -0.488449       -13.2914
  62   2.0000      -0.471953       -12.8425
  63   2.0000      -0.468215       -12.7408
  64   2.0000      -0.453049       -12.3281
  65   2.0000      -0.448066       -12.1925
  66   2.0000      -0.436931       -11.8895
  67   2.0000      -0.431214       -11.7339
  68   2.0000      -0.429841       -11.6966
  69   2.0000      -0.415346       -11.3022
  70   2.0000      -0.409656       -11.1473
  71   2.0000      -0.396760       -10.7964
  72   2.0000      -0.386509       -10.5175
  73   2.0000      -0.385538       -10.4910
  74   2.0000      -0.384974       -10.4757
  75   2.0000      -0.381536       -10.3821
  76   2.0000      -0.356497        -9.7008
  77   2.0000      -0.354018        -9.6333
  78   2.0000      -0.350580        -9.5398
  79   2.0000      -0.346151        -9.4192
  80   2.0000      -0.344744        -9.3810
  81   2.0000      -0.342003        -9.3064
  82   2.0000      -0.338346        -9.2069
  83   2.0000      -0.336183        -9.1480
  84   2.0000      -0.332774        -9.0552
  85   2.0000      -0.318425        -8.6648
  86   2.0000      -0.309219        -8.4143
  87   2.0000      -0.295786        -8.0488
  88   2.0000      -0.293996        -8.0000
  89   2.0000      -0.290371        -7.9014
  90   2.0000      -0.276211        -7.5161
  91   2.0000      -0.275125        -7.4865
  92   2.0000      -0.265562        -7.2263
  93   2.0000      -0.264672        -7.2021
  94   2.0000      -0.254103        -6.9145
  95   2.0000      -0.238414        -6.4876
  96   2.0000      -0.221998        -6.0409
  97   2.0000      -0.209889        -5.7114
  98   2.0000      -0.205556        -5.5935
  99   2.0000      -0.188080        -5.1179
 100   2.0000      -0.181439        -4.9372
 101   0.0000      -0.045485        -1.2377
 102   0.0000      -0.031528        -0.8579
 103   0.0000      -0.016567        -0.4508
 104   0.0000       0.007737         0.2105
 105   0.0000       0.020519         0.5583

MULLIKEN ATOMIC CHARGES
-----------------------
   0 C :   -0.287359
   1 C :   -0.022069
   2 O :   -0.361183
   3 P :    0.586687
   4 S :   -0.279558
   5 O :   -0.380723
   6 C :   -0.014377
   7 C :   -0.310173
   8 S :   -0.130196
   9 C :   -0.346593
  10 S :   -0.063038
  11 P :    0.628605
  12 S :   -0.346171
  13 O :   -0.341507
  14 C :   -0.005642
  15 C :   -0.304298
  16 O :   -0.371611
  17 C :   -0.003567
  18 C :   -0.308813
  19 H :    0.119207
  20 H :    0.107474
  21 H :    0.117519
  22 H :    0.094479
  23 H :    0.121222
  24 H :    0.114113
  25 H :    0.109432
  26 H :    0.128310
  27 H :    0.129589
  28 H :    0.110564
  29 H :    0.181544
  30 H :    0.197790
  31 H :    0.107871
  32 H :    0.113933
  33 H :    0.108639
  34 H :    0.117000
  35 H :    0.118539
  36 H :    0.105863
  37 H :    0.109384
  38 H :    0.120867
  39 H :    0.111461
  40 H :    0.116784
Sum of atomic charges:   -0.0000000

LOEWDIN ATOMIC CHARGES
----------------------
   0 C :   -0.357001
   1 C :   -0.126560
   2 O :   -0.234869
   3 P :    0.560468
   4 S :   -0.292814
   5 O :   -0.246895
   6 C :   -0.116384
   7 C :   -0.370603
   8 S :    0.048774
   9 C :   -0.479649
  10 S :    0.112100
  11 P :    0.577474
  12 S :   -0.308032
  13 O :   -0.221154
  14 C :   -0.115572
  15 C :   -0.364881
  16 O :   -0.243975
  17 C :   -0.119040
  18 C :   -0.369333
  19 H :    0.125082
  20 H :    0.129023
  21 H :    0.125764
  22 H :    0.103312
  23 H :    0.109824
  24 H :    0.107033
  25 H :    0.121307
  26 H :    0.130960
  27 H :    0.122495
  28 H :    0.129614
  29 H :    0.138049
  30 H :    0.120405
  31 H :    0.119980
  32 H :    0.107690
  33 H :    0.128776
  34 H :    0.119994
  35 H :    0.127281
  36 H :    0.119131
  37 H :    0.108914
  38 H :    0.125428
  39 H :    0.129953
  40 H :    0.117931

  Mayer bond orders larger than 0.100000
B(  0-C ,  1-C ) :   1.1692 B(  0-C , 19-H ) :   0.9420 B(  0-C , 20-H ) :   0.9402
B(  0-C , 21-H ) :   0.9486 B(  1-C ,  2-O ) :   0.8841 B(  1-C , 22-H ) :   0.9123
B(  1-C , 23-H ) :   0.9076 B(  2-O ,  3-P ) :   1.1051 B(  3-P ,  4-S ) :   1.7006
B(  3-P ,  5-O ) :   1.0618 B(  3-P ,  8-S ) :   0.9393 B(  4-S ,  8-S ) :   0.1131
B(  5-O ,  6-C ) :   0.9174 B(  6-C ,  7-C ) :   1.1675 B(  6-C , 24-H ) :   0.9234
B(  6-C , 25-H ) :   0.9333 B(  7-C , 26-H ) :   0.9413 B(  7-C , 27-H ) :   0.9324
B(  7-C , 28-H ) :   0.9338 B(  8-S ,  9-C ) :   0.9913 B(  9-C , 10-S ) :   1.0144
B(  9-C , 29-H ) :   0.9127 B(  9-C , 30-H ) :   0.8546 B( 10-S , 11-P ) :   0.9734
B( 10-S , 12-S ) :   0.1148 B( 11-P , 12-S ) :   1.5480 B( 11-P , 13-O ) :   1.1657
B( 11-P , 16-O ) :   1.1026 B( 12-S , 30-H ) :   0.1077 B( 13-O , 14-C ) :   0.9029
B( 14-C , 15-C ) :   1.1585 B( 14-C , 31-H ) :   0.9304 B( 14-C , 32-H ) :   0.9169
B( 15-C , 33-H ) :   0.9399 B( 15-C , 34-H ) :   0.9388 B( 15-C , 35-H ) :   0.9451
B( 16-O , 17-C ) :   0.9139 B( 17-C , 18-C ) :   1.1672 B( 17-C , 36-H ) :   0.9341
B( 17-C , 37-H ) :   0.9163 B( 18-C , 38-H ) :   0.9432 B( 18-C , 39-H ) :   0.9375
B( 18-C , 40-H ) :   0.9388

Dispersion correction           -0.069469899
FINAL SINGLE POINT ENERGY     -2929.512852997811

DIPOLE MOMENT
-------------

Method             : SCF
Type of density    : Electron Density
Multiplicity       :   1
Irrep              :   0
Energy             : -2929.6310563947508854 Eh
Relativity type    :
Basis              : AO
                                X                 Y                 Z
Electronic contribution:     -1.786030650      -8.181048820       6.214487049
Nuclear contribution   :      2.148490792       8.015815358      -7.082106018
                        -----------------------------------------
Total Dipole Moment    :      0.362460141      -0.165233462      -0.867618969
                        -----------------------------------------
Magnitude (a.u.)       :      0.954694782
Magnitude (Debye)      :      2.426641286

Rotational constants in cm-1:             0.012782             0.005655             0.005181
Rotational constants in MHz :           383.193047           169.525288           155.327156

                             ****ORCA TERMINATED NORMALLY****
TOTAL RUN TIME: 0 days 0 hours 0 minutes 22 seconds 413 msec
