                         Program Version 6.0.0  -   RELEASE  -
|  1> ! r2scan-3c def2/J RI DEFGRID2 scfconv6 printgap
|  2> %output
|  3>     printlevel normal
|  4> end
|  5> * xyz 0 1
|  6> C -2.4145651533 -0.7021647705 -0.0002817522
|  7> C -2.4145541499 0.7021008813 0.0001233643
|  8> C -1.2349087954 1.3922662335 0.0002862087
|  9> C 8.5299e-06 0.7099202358 5.8176e-05
| 10> C 1.2348863694 1.3923559436 -0.0001963986
| 11> C 2.4144599443 0.7021651846 -0.0002541217
| 12> C 2.414573967 -0.7021754754 0.0001382856
| 13> C 1.2349416724 -1.3923185662 0.000252975
| 14> C 3.51019e-05 -0.7098856179 6.78037e-05
| 15> C -1.2348624471 -1.3922544635 -0.0001756081
| 16> H -3.3559393114 -1.2312815552 -0.0007709745
| 17> H -3.3560010205 1.2310797643 0.0003925702
| 18> H -1.2295035962 2.4728046522 0.0007174741
| 19> H 1.2294632101 2.4728385301 -0.0005783117
| 20> H 3.3558844535 1.2311600628 -0.0005577868
| 21> H 3.3559577477 -1.2310554956 7.42557e-05
| 22> H 1.2293873846 -2.4728504422 0.0008651987
| 23> H -1.2294280865 -2.4728097441 -0.0003680439
| 24> *
| 25>
| 26>                          ****END OF INPUT****

CARTESIAN COORDINATES (ANGSTROEM)
---------------------------------
  C     -2.414565   -0.702165   -0.000282
  C     -2.414554    0.702101    0.000123
  C     -1.234909    1.392266    0.000286
  C      0.000009    0.709920    0.000058
  C      1.234886    1.392356   -0.000196
  C      2.414460    0.702165   -0.000254
  C      2.414574   -0.702175    0.000138
  C      1.234942   -1.392319    0.000253
  C      0.000035   -0.709886    0.000068
  C     -1.234862   -1.392254   -0.000176
  H     -3.355939   -1.231282   -0.000771
  H     -3.356001    1.231080    0.000393
  H     -1.229504    2.472805    0.000717
  H      1.229463    2.472839   -0.000578
  H      3.355884    1.231160   -0.000558
  H      3.355958   -1.231055    0.000074
  H      1.229387   -2.472850    0.000865
  H     -1.229428   -2.472810   -0.000368

 Total Charge           Charge          ....    0
 Multiplicity           Mult            ....    1
 Number of Electrons    NEL             ....   68
 Basis Dimension        Dim             ....  230

ORBITAL ENERGIES
----------------

  NO   OCC          E(Eh)            E(eV)
   0   2.0000     -10.047289      -273.4006
   1   2.0000     -10.046953      -273.3915
   2   2.0000     -10.037983      -273.1474
   3   2.0000     -10.037977      -273.1472
   4   2.0000     -10.037960      -273.1468
   5   2.0000     -10.037953      -273.1466
   6   2.0000     -10.037161      -273.1250
   7   2.0000     -10.037158      -273.1249
   8   2.0000     -10.036802      -273.1153
   9   2.0000     -10.036800      -273.1152
  10   2.0000      -0.848267       -23.0825
  11   2.0000      -0.794509       -21.6197
  12   2.0000      -0.746150       -20.3038
  13   2.0000      -0.714068       -19.4308
  14   2.0000      -0.690925       -18.8010
  15   2.0000      -0.598770       -16.2934
  16   2.0000      -0.583405       -15.8753
  17   2.0000      -0.569321       -15.4920
  18   2.0000      -0.488105       -13.2820
  19   2.0000      -0.481038       -13.0897
  20   2.0000      -0.467210       -12.7134
  21   2.0000      -0.418884       -11.3984
  22   2.0000      -0.413698       -11.2573
  23   2.0000      -0.388795       -10.5796
  24   2.0000      -0.388476       -10.5710
  25   2.0000      -0.372250       -10.1294
  26   2.0000      -0.370824       -10.0906
  27   2.0000      -0.340109        -9.2548
  28   2.0000      -0.310888        -8.4597
  29   2.0000      -0.308753        -8.4016
  30   2.0000      -0.301802        -8.2124
  31   2.0000      -0.270710        -7.3664
  32   2.0000      -0.233949        -6.3661
  33   2.0000      -0.205225        -5.5845
  34   0.0000      -0.067913        -1.8480
  35   0.0000      -0.037308        -1.0152
  36   0.0000      -0.004937        -0.1343
  37   0.0000       0.065923         1.7938
  38   0.0000       0.083109         2.2615

MULLIKEN ATOMIC CHARGES
-----------------------
   0 C :   -0.147362
   1 C :   -0.147346
   2 C :   -0.231121
   3 C :    0.177238
   4 C :   -0.231151
   5 C :   -0.147304
   6 C :   -0.147369
   7 C :   -0.231118
   8 C :    0.177240
   9 C :   -0.231100
  10 H :    0.145927
  11 H :    0.145925
  12 H :    0.143926
  13 H :    0.143924
  14 H :    0.145918
  15 H :    0.145920
  16 H :    0.143927
  17 H :    0.143924
Sum of atomic charges:    0.0000000

LOEWDIN ATOMIC CHARGES
----------------------
   0 C :   -0.164446
   1 C :   -0.164432
   2 C :   -0.144230
   3 C :   -0.059464
   4 C :   -0.144226
   5 C :   -0.164423
   6 C :   -0.164429
   7 C :   -0.144207
   8 C :   -0.059477
   9 C :   -0.144225
  10 H :    0.167824
  11 H :    0.167820
  12 H :    0.170575
  13 H :    0.170572
  14 H :    0.167813
  15 H :    0.167809
  16 H :    0.170574
  17 H :    0.170573

  Mayer bond orders larger than 0.100000
B(  0-C ,  1-C ) :   1.2762 B(  0-C ,  9-C ) :   1.5176 B(  0-C , 10-H ) :   0.9490
B(  1-C ,  2-C ) :   1.5176 B(  1-C , 11-H ) :   0.9490 B(  2-C ,  3-C ) :   1.2027
B(  2-C , 12-H ) :   0.9523 B(  3-C ,  4-C ) :   1.2027 B(  3-C ,  8-C ) :   1.4737
B(  4-C ,  5-C ) :   1.5178 B(  4-C , 13-H ) :   0.9523 B(  5-C ,  6-C ) :   1.2761
B(  5-C , 14-H ) :   0.9491 B(  6-C ,  7-C ) :   1.5177 B(  6-C , 15-H ) :   0.9491
B(  7-C ,  8-C ) :   1.2027 B(  7-C , 16-H ) :   0.9523 B(  8-C ,  9-C ) :   1.2028
B(  9-C , 17-H ) :   0.9523

Dispersion correction           -0.006937585
FINAL SINGLE POINT ENERGY      -385.783378566151

DIPOLE MOMENT
-------------

Method             : SCF
Type of density    : Electron Density
Multiplicity       :   1
Irrep              :   0
Energy             :  -385.7799662452807183 Eh
Relativity type    :
Basis              : AO
                                X                 Y                 Z
Electronic contribution:      0.000216712       0.000086271       0.000179316
Nuclear contribution   :     -0.000168138      -0.000107165      -0.000211668
                        -----------------------------------------
Total Dipole Moment    :      0.000048574      -0.000020894      -0.000032353
                        -----------------------------------------
Magnitude (a.u.)       :      0.000061989
Magnitude (Debye)      :      0.000157564

Rotational constants in cm-1:             0.105563             0.041638             0.029860
Rotational constants in MHz :          3164.707855          1248.261367           895.175665

                             ****ORCA TERMINATED NORMALLY****
TOTAL RUN TIME: 0 days 0 hours 0 minutes 22 seconds 305 msec
