                         Program Version 6.0.0  -   RELEASE  -
|  1> ! r2scan-3c def2/J RI DEFGRID2 scfconv6 printgap
|  2> %output
|  3>     printlevel normal
|  4> end
|  5> %cpcm
|  6>     smd true
|  7>     smdsolvent "water"
|  8> end
|  9> * xyz 0 1
| 10> C -2.4145651533 -0.7021647705 -0.0002817522
| 11> C -2.4145541499 0.7021008813 0.0001233643
| 12> C -1.2349087954 1.3922662335 0.0002862087
| 13> C 8.5299e-06 0.7099202358 5.8176e-05
| 14> C 1.2348863694 1.3923559436 -0.0001963986
| 15> C 2.4144599443 0.7021651846 -0.0002541217
| 16> C 2.414573967 -0.7021754754 0.0001382856
| 17> C 1.2349416724 -1.3923185662 0.000252975
| 18> C 3.51019e-05 -0.7098856179 6.78037e-05
| 19> C -1.2348624471 -1.3922544635 -0.0001756081
| 20> H -3.3559393114 -1.2312815552 -0.0007709745
| 21> H -3.3560010205 1.2310797643 0.0003925702
| 22> H -1.2295035962 2.4728046522 0.0007174741
| 23> H 1.2294632101 2.4728385301 -0.0005783117
| 24> H 3.3558844535 1.2311600628 -0.0005577868
| 25> H 3.3559577477 -1.2310554956 7.42557e-05
| 26> H 1.2293873846 -2.4728504422 0.0008651987
| 27> H -1.2294280865 -2.4728097441 -0.0003680439
| 28> *
| 29>
| 30>                          ****END OF INPUT****

CARTESIAN COORDINATES (ANGSTROEM)
---------------------------------
  C     -2.414565   -0.702165   -0.000282
  C     -2.414554    0.702101    0.000123
  C     -1.234909    1.392266    0.000286
  C      0.000009    0.709920    0.000058
  C      1.234886    1.392356   -0.000196
  C      2.414460    0.702165   -0.000254
  C      2.414574   -0.702175    0.000138
  C      1.234942   -1.392319    0.000253
  C      0.000035   -0.709886    0.000068
  C     -1.234862   -1.392254   -0.000176
  H     -3.355939   -1.231282   -0.000771
  H     -3.356001    1.231080    0.000393
  H     -1.229504    2.472805    0.000717
  H      1.229463    2.472839   -0.000578
  H      3.355884    1.231160   -0.000558
  H      3.355958   -1.231055    0.000074
  H      1.229387   -2.472850    0.000865
  H     -1.229428   -2.472810   -0.000368

 Total Charge           Charge          ....    0
 Multiplicity           Mult            ....    1
 Number of Electrons    NEL             ....   68
 Basis Dimension        Dim             ....  230

ORBITAL ENERGIES
----------------

  NO   OCC          E(Eh)            E(eV)
   0   2.0000     -10.046304      -273.3738
   1   2.0000     -10.045968      -273.3647
   2   2.0000     -10.035464      -273.0789
   3   2.0000     -10.035459      -273.0787
   4   2.0000     -10.035432      -273.0780
   5   2.0000     -10.035426      -273.0778
   6   2.0000     -10.034741      -273.0592
   7   2.0000     -10.034737      -273.0591
   8   2.0000     -10.034392      -273.0497
   9   2.0000     -10.034390      -273.0496
  10   2.0000      -0.848378       -23.0855
  11   2.0000      -0.793867       -21.6022
  12   2.0000      -0.744857       -20.2686
  13   2.0000      -0.712960       -19.4006
  14   2.0000      -0.689146       -18.7526
  15   2.0000      -0.596230       -16.2242
  16   2.0000      -0.581087       -15.8122
  17   2.0000      -0.566030       -15.4025
  18   2.0000      -0.484005       -13.1704
  19   2.0000      -0.476678       -12.9711
  20   2.0000      -0.463848       -12.6220
  21   2.0000      -0.412918       -11.2361
  22   2.0000      -0.411008       -11.1841
  23   2.0000      -0.386088       -10.5060
  24   2.0000      -0.383895       -10.4463
  25   2.0000      -0.375200       -10.2097
  26   2.0000      -0.365647        -9.9498
  27   2.0000      -0.335190        -9.1210
  28   2.0000      -0.312997        -8.5171
  29   2.0000      -0.305091        -8.3019
  30   2.0000      -0.296971        -8.0810
  31   2.0000      -0.272635        -7.4188
  32   2.0000      -0.236067        -6.4237
  33   2.0000      -0.206670        -5.6238
  34   0.0000      -0.068752        -1.8708
  35   0.0000      -0.038742        -1.0542
  36   0.0000      -0.005833        -0.1587
  37   0.0000       0.065997         1.7959
  38   0.0000       0.093278         2.5382

MULLIKEN ATOMIC CHARGES
-----------------------
   0 C :   -0.179211
   1 C :   -0.179162
   2 C :   -0.248319
   3 C :    0.139177
   4 C :   -0.248321
   5 C :   -0.179142
   6 C :   -0.179194
   7 C :   -0.248300
   8 C :    0.139137
   9 C :   -0.248260
  10 H :    0.179125
  11 H :    0.179120
  12 H :    0.178781
  13 H :    0.178779
  14 H :    0.179113
  15 H :    0.179114
  16 H :    0.178782
  17 H :    0.178780
Sum of atomic charges:    0.0000000

LOEWDIN ATOMIC CHARGES
----------------------
   0 C :   -0.172896
   1 C :   -0.172886
   2 C :   -0.151922
   3 C :   -0.073879
   4 C :   -0.151913
   5 C :   -0.172876
   6 C :   -0.172875
   7 C :   -0.151898
   8 C :   -0.073893
   9 C :   -0.151918
  10 H :    0.178942
  11 H :    0.178937
  12 H :    0.182807
  13 H :    0.182804
  14 H :    0.178929
  15 H :    0.178925
  16 H :    0.182807
  17 H :    0.182806

  Mayer bond orders larger than 0.100000
B(  0-C ,  1-C ) :   1.2396 B(  0-C ,  9-C ) :   1.4815 B(  0-C , 10-H ) :   0.9596
B(  1-C ,  2-C ) :   1.4815 B(  1-C , 11-H ) :   0.9597 B(  2-C ,  3-C ) :   1.1955
B(  2-C , 12-H ) :   0.9614 B(  3-C ,  4-C ) :   1.1955 B(  3-C ,  8-C ) :   1.3806
B(  4-C ,  5-C ) :   1.4816 B(  4-C , 13-H ) :   0.9614 B(  5-C ,  6-C ) :   1.2395
B(  5-C , 14-H ) :   0.9597 B(  6-C ,  7-C ) :   1.4816 B(  6-C , 15-H ) :   0.9597
B(  7-C ,  8-C ) :   1.1955 B(  7-C , 16-H ) :   0.9614 B(  8-C ,  9-C ) :   1.1956
B(  9-C , 17-H ) :   0.9614

Dispersion correction           -0.006937585
FINAL SINGLE POINT ENERGY      -385.787073268735

DIPOLE MOMENT
-------------

Method             : SCF
Type of density    : Electron Density
Multiplicity       :   1
Irrep              :   0
Energy             :  -385.7836609478647460 Eh
Relativity type    :
Basis              : AO
                                X                 Y                 Z
Electronic contribution:      0.000234298       0.000073622       0.000175742
Nuclear contribution   :     -0.000168138      -0.000107165      -0.000211668
                        -----------------------------------------
Total Dipole Moment    :      0.000066160      -0.000033543      -0.000035927
                        -----------------------------------------
Magnitude (a.u.)       :      0.000082420
Magnitude (Debye)      :      0.000209496

Rotational constants in cm-1:             0.105563             0.041638             0.029860
Rotational constants in MHz :          3164.707855          1248.261367           895.175665

                             ****ORCA TERMINATED NORMALLY****
TOTAL RUN TIME: 0 days 0 hours 0 minutes 26 seconds 489 msec
