                         Program Version 6.0.0  -   RELEASE  -
|  1> ! r2scan-3c def2/J RI DEFGRID2 scfconv6 printgap
|  2> %output
|  3>     printlevel normal
|  4> end
|  5> * xyz 0 1
|  6> C 4.5656053705 -1.7122979275 -0.6761225822
|  7> C 4.6416769865 -0.2540682527 -0.2718108439
|  8> O 3.4874139832 0.1664312211 0.4750808782
|  9> P 2.0415704952 0.2914170734 -0.1775016518
| 10> S 2.0408588357 0.9561690275 -2.0255852089
| 11> O 1.2898809015 1.1524809487 0.9191432272
| 12> C 1.27828795 2.5921101809 0.906562801
| 13> C 2.6536204896 3.1781490917 1.1425876151
| 14> S 1.2010386859 -1.6025425972 0.1815029419
| 15> C 0.0060694644 -1.7110359068 -1.1971366911
| 16> S -1.6953119128 -1.9389818456 -0.6377576124
| 17> P -2.0141870186 0.0127645099 0.1399055399
| 18> S -1.4337751939 1.5000495634 -0.9911675931
| 19> O -1.3060557749 0.0386156374 1.547795521
| 20> C -1.4542845229 -0.9705070694 2.5773727187
| 21> C -2.6107595449 -0.6493137828 3.5006085375
| 22> O -3.5583533405 0.0153490908 0.5164327581
| 23> C -4.5875352849 0.3714313787 -0.4241553452
| 24> C -4.7242821065 -0.6424602269 -1.5412866074
| 25> H 4.3566586065 -2.3348471342 0.1901370317
| 26> H 3.7738715905 -1.853118702 -1.4105903149
| 27> H 5.5111601893 -2.0107602546 -1.117281941
| 28> H 4.7303813522 0.3840485644 -1.1570307391
| 29> H 5.4740591764 -0.0668031611 0.4078553738
| 30> H 0.868392327 2.9258655525 -0.0530104729
| 31> H 0.579620622 2.8498605281 1.7043455628
| 32> H 3.0876992581 2.7628066099 2.0484109443
| 33> H 3.3043037072 2.9481578376 0.2996594609
| 34> H 2.5699583912 4.2561763853 1.2390545405
| 35> H 0.2489513411 -2.5931772428 -1.783601115
| 36> H 0.0834452992 -0.8022018114 -1.800486624
| 37> H -1.5870203994 -1.9461744712 2.1010091282
| 38> H -0.4984931143 -0.948362807 3.1049353605
| 39> H -2.489596735 0.3458411443 3.9199387007
| 40> H -3.5507887233 -0.6895897792 2.9572517548
| 41> H -2.6301168659 -1.3775283801 4.3054776943
| 42> H -5.4900113532 0.4217637368 0.1866785751
| 43> H -4.3566801731 1.3619082891 -0.8283794725
| 44> H -4.8207590124 -1.6453572219 -1.1332021455
| 45> H -5.6036834052 -0.4061641987 -2.1317740789
| 46> H -3.84841798 -0.6082987281 -2.187078154
| 47> *
| 48>
| 49>                          ****END OF INPUT****

CARTESIAN COORDINATES (ANGSTROEM)
---------------------------------
  C      4.565605   -1.712298   -0.676123
  C      4.641677   -0.254068   -0.271811
  O      3.487414    0.166431    0.475081
  P      2.041570    0.291417   -0.177502
  S      2.040859    0.956169   -2.025585
  O      1.289881    1.152481    0.919143
  C      1.278288    2.592110    0.906563
  C      2.653620    3.178149    1.142588
  S      1.201039   -1.602543    0.181503
  C      0.006069   -1.711036   -1.197137
  S     -1.695312   -1.938982   -0.637758
  P     -2.014187    0.012765    0.139906
  S     -1.433775    1.500050   -0.991168
  O     -1.306056    0.038616    1.547796
  C     -1.454285   -0.970507    2.577373
  C     -2.610760   -0.649314    3.500609
  O     -3.558353    0.015349    0.516433
  C     -4.587535    0.371431   -0.424155
  C     -4.724282   -0.642460   -1.541287
  H      4.356659   -2.334847    0.190137
  H      3.773872   -1.853119   -1.410590
  H      5.511160   -2.010760   -1.117282
  H      4.730381    0.384049   -1.157031
  H      5.474059   -0.066803    0.407855
  H      0.868392    2.925866   -0.053010
  H      0.579621    2.849861    1.704346
  H      3.087699    2.762807    2.048411
  H      3.304304    2.948158    0.299659
  H      2.569958    4.256176    1.239055
  H      0.248951   -2.593177   -1.783601
  H      0.083445   -0.802202   -1.800487
  H     -1.587020   -1.946174    2.101009
  H     -0.498493   -0.948363    3.104935
  H     -2.489597    0.345841    3.919939
  H     -3.550789   -0.689590    2.957252
  H     -2.630117   -1.377528    4.305478
  H     -5.490011    0.421764    0.186679
  H     -4.356680    1.361908   -0.828379
  H     -4.820759   -1.645357   -1.133202
  H     -5.603683   -0.406164   -2.131774
  H     -3.848418   -0.608299   -2.187078

 Total Charge           Charge          ....    0
 Multiplicity           Mult            ....    1
 Number of Electrons    NEL             ....  202
 Basis Dimension        Dim             ....  539

ORBITAL ENERGIES
----------------

  NO   OCC          E(Eh)            E(eV)
   0   2.0000     -88.575895     -2410.2726
   1   2.0000     -88.571633     -2410.1567
   2   2.0000     -88.514475     -2408.6013
   3   2.0000     -88.513618     -2408.5780
   4   2.0000     -76.911391     -2092.8654
   5   2.0000     -76.907631     -2092.7630
   6   2.0000     -18.993081      -516.8280
   7   2.0000     -18.986883      -516.6594
   8   2.0000     -18.986055      -516.6368
   9   2.0000     -18.977901      -516.4149
  10   2.0000     -10.105757      -274.9916
  11   2.0000     -10.099065      -274.8095
  12   2.0000     -10.097114      -274.7564
  13   2.0000     -10.093900      -274.6690
  14   2.0000     -10.084091      -274.4021
  15   2.0000     -10.029108      -272.9059
  16   2.0000     -10.028846      -272.8988
  17   2.0000     -10.025034      -272.7950
  18   2.0000     -10.019936      -272.6563
  19   2.0000      -7.870482      -214.1667
  20   2.0000      -7.866354      -214.0544
  21   2.0000      -7.809154      -212.4979
  22   2.0000      -7.808446      -212.4786
  23   2.0000      -6.589738      -179.3159
  24   2.0000      -6.586076      -179.2162
  25   2.0000      -5.817329      -158.2976
  26   2.0000      -5.814130      -158.2105
  27   2.0000      -5.813175      -158.1845
  28   2.0000      -5.810287      -158.1060
  29   2.0000      -5.807772      -158.0375
  30   2.0000      -5.803361      -157.9175
  31   2.0000      -5.756787      -156.6501
  32   2.0000      -5.756218      -156.6347
  33   2.0000      -5.749670      -156.4565
  34   2.0000      -5.748955      -156.4370
  35   2.0000      -5.748617      -156.4278
  36   2.0000      -5.748429      -156.4227
  37   2.0000      -4.735585      -128.8618
  38   2.0000      -4.734758      -128.8393
  39   2.0000      -4.733083      -128.7937
  40   2.0000      -4.731361      -128.7469
  41   2.0000      -4.730867      -128.7334
  42   2.0000      -4.730147      -128.7138
  43   2.0000      -1.048697       -28.5365
  44   2.0000      -1.041852       -28.3502
  45   2.0000      -1.008749       -27.4495
  46   2.0000      -1.001545       -27.2534
  47   2.0000      -0.798579       -21.7304
  48   2.0000      -0.755226       -20.5507
  49   2.0000      -0.745213       -20.2783
  50   2.0000      -0.733557       -19.9611
  51   2.0000      -0.725024       -19.7289
  52   2.0000      -0.709355       -19.3025
  53   2.0000      -0.683971       -18.6118
  54   2.0000      -0.662353       -18.0235
  55   2.0000      -0.630630       -17.1603
  56   2.0000      -0.621113       -16.9013
  57   2.0000      -0.606705       -16.5093
  58   2.0000      -0.598296       -16.2805
  59   2.0000      -0.589528       -16.0419
  60   2.0000      -0.522275       -14.2118
  61   2.0000      -0.510014       -13.8782
  62   2.0000      -0.492636       -13.4053
  63   2.0000      -0.483774       -13.1642
  64   2.0000      -0.467885       -12.7318
  65   2.0000      -0.461457       -12.5569
  66   2.0000      -0.458477       -12.4758
  67   2.0000      -0.451721       -12.2920
  68   2.0000      -0.444430       -12.0935
  69   2.0000      -0.432309       -11.7637
  70   2.0000      -0.428041       -11.6476
  71   2.0000      -0.408088       -11.1046
  72   2.0000      -0.403144       -10.9701
  73   2.0000      -0.399657       -10.8752
  74   2.0000      -0.393893       -10.7184
  75   2.0000      -0.392790       -10.6884
  76   2.0000      -0.381752       -10.3880
  77   2.0000      -0.371045       -10.0967
  78   2.0000      -0.367186        -9.9916
  79   2.0000      -0.364400        -9.9158
  80   2.0000      -0.361388        -9.8339
  81   2.0000      -0.356795        -9.7089
  82   2.0000      -0.351046        -9.5524
  83   2.0000      -0.349983        -9.5235
  84   2.0000      -0.345311        -9.3964
  85   2.0000      -0.327296        -8.9062
  86   2.0000      -0.319648        -8.6981
  87   2.0000      -0.309003        -8.4084
  88   2.0000      -0.304498        -8.2858
  89   2.0000      -0.303680        -8.2636
  90   2.0000      -0.289575        -7.8797
  91   2.0000      -0.284341        -7.7373
  92   2.0000      -0.278406        -7.5758
  93   2.0000      -0.275429        -7.4948
  94   2.0000      -0.271215        -7.3801
  95   2.0000      -0.247767        -6.7421
  96   2.0000      -0.230091        -6.2611
  97   2.0000      -0.227095        -6.1796
  98   2.0000      -0.215921        -5.8755
  99   2.0000      -0.205967        -5.6047
 100   2.0000      -0.198622        -5.4048
 101   0.0000      -0.040914        -1.1133
 102   0.0000      -0.029592        -0.8052
 103   0.0000      -0.009251        -0.2517
 104   0.0000       0.015899         0.4326
 105   0.0000       0.020196         0.5496

MULLIKEN ATOMIC CHARGES
-----------------------
   0 C :   -0.445264
   1 C :   -0.157954
   2 O :   -0.298970
   3 P :    0.653958
   4 S :   -0.463592
   5 O :   -0.267015
   6 C :   -0.156447
   7 C :   -0.448922
   8 S :   -0.127908
   9 C :   -0.221771
  10 S :   -0.159895
  11 P :    0.659817
  12 S :   -0.418564
  13 O :   -0.252561
  14 C :   -0.127198
  15 C :   -0.455530
  16 O :   -0.303313
  17 C :   -0.164641
  18 C :   -0.459094
  19 H :    0.153868
  20 H :    0.173258
  21 H :    0.146268
  22 H :    0.172734
  23 H :    0.146828
  24 H :    0.181866
  25 H :    0.155173
  26 H :    0.154475
  27 H :    0.165050
  28 H :    0.145827
  29 H :    0.196120
  30 H :    0.218068
  31 H :    0.166383
  32 H :    0.163573
  33 H :    0.156213
  34 H :    0.163073
  35 H :    0.145948
  36 H :    0.147185
  37 H :    0.176988
  38 H :    0.153503
  39 H :    0.148887
  40 H :    0.183572
Sum of atomic charges:    0.0000000

LOEWDIN ATOMIC CHARGES
----------------------
   0 C :   -0.408293
   1 C :    0.017586
   2 O :   -0.667987
   3 P :    0.373915
   4 S :   -0.126151
   5 O :   -0.666959
   6 C :    0.013080
   7 C :   -0.401075
   8 S :    0.175191
   9 C :   -0.412674
  10 S :    0.126293
  11 P :    0.381366
  12 S :   -0.074111
  13 O :   -0.655367
  14 C :    0.015312
  15 C :   -0.395282
  16 O :   -0.672125
  17 C :    0.020497
  18 C :   -0.408945
  19 H :    0.160019
  20 H :    0.164075
  21 H :    0.157985
  22 H :    0.179673
  23 H :    0.178588
  24 H :    0.184445
  25 H :    0.182935
  26 H :    0.160205
  27 H :    0.163734
  28 H :    0.158504
  29 H :    0.180195
  30 H :    0.202461
  31 H :    0.177310
  32 H :    0.183625
  33 H :    0.161216
  34 H :    0.166030
  35 H :    0.158136
  36 H :    0.178808
  37 H :    0.181545
  38 H :    0.159212
  39 H :    0.159842
  40 H :    0.167188

  Mayer bond orders larger than 0.100000
B(  0-C ,  1-C ) :   0.9215 B(  0-C , 19-H ) :   0.9678 B(  0-C , 20-H ) :   0.9660
B(  0-C , 21-H ) :   0.9595 B(  1-C ,  2-O ) :   0.8222 B(  1-C , 22-H ) :   0.9671
B(  1-C , 23-H ) :   0.9593 B(  2-O ,  3-P ) :   1.0536 B(  3-P ,  4-S ) :   1.7532
B(  3-P ,  5-O ) :   1.1709 B(  3-P ,  8-S ) :   1.1227 B(  5-O ,  6-C ) :   0.8076
B(  6-C ,  7-C ) :   0.9086 B(  6-C , 24-H ) :   0.9632 B(  6-C , 25-H ) :   0.9631
B(  7-C , 26-H ) :   0.9731 B(  7-C , 27-H ) :   0.9631 B(  7-C , 28-H ) :   0.9612
B(  8-S ,  9-C ) :   0.8923 B(  9-C , 10-S ) :   0.9126 B(  9-C , 29-H ) :   0.9133
B(  9-C , 30-H ) :   0.9056 B( 10-S , 11-P ) :   1.0207 B( 11-P , 12-S ) :   1.8370
B( 11-P , 13-O ) :   1.1308 B( 11-P , 16-O ) :   1.0483 B( 13-O , 14-C ) :   0.7479
B( 14-C , 15-C ) :   0.9350 B( 14-C , 31-H ) :   0.9601 B( 14-C , 32-H ) :   0.9639
B( 15-C , 33-H ) :   0.9749 B( 15-C , 34-H ) :   0.9643 B( 15-C , 35-H ) :   0.9663
B( 16-O , 17-C ) :   0.8209 B( 17-C , 18-C ) :   0.9123 B( 17-C , 36-H ) :   0.9615
B( 17-C , 37-H ) :   0.9675 B( 18-C , 38-H ) :   0.9683 B( 18-C , 39-H ) :   0.9572
B( 18-C , 40-H ) :   0.9629

Dispersion correction           -0.022307923
FINAL SINGLE POINT ENERGY     -2932.458393173523

DIPOLE MOMENT
-------------

Method             : SCF
Type of density    : Electron Density
Multiplicity       :   1
Irrep              :   0
Energy             : -2932.4827537454525554 Eh
Relativity type    :
Basis              : AO
                                X                 Y                 Z
Electronic contribution:     -0.017125091      -1.465388734      -7.482837714
Nuclear contribution   :     -0.298340185       0.693782650       8.499724479
                        -----------------------------------------
Total Dipole Moment    :     -0.315465276      -0.771606084       1.016886766
                        -----------------------------------------
Magnitude (a.u.)       :      1.314896567
Magnitude (Debye)      :      3.342201465

Rotational constants in cm-1:             0.012823             0.005237             0.005092
Rotational constants in MHz :           384.429126           156.998272           152.653516

                             ****ORCA TERMINATED NORMALLY****
TOTAL RUN TIME: 0 days 0 hours 1 minutes 21 seconds 749 msec
