                         Program Version 6.0.0  -   RELEASE  -
|  1> ! r2scan-3c def2/J RI DEFGRID2 scfconv6 printgap
|  2> %output
|  3>     printlevel normal
|  4> end
|  5> %cpcm
|  6>     smd true
|  7>     smdsolvent "water"
|  8> end
|  9> * xyz 0 1
| 10> C 4.5656053705 -1.7122979275 -0.6761225822
| 11> C 4.6416769865 -0.2540682527 -0.2718108439
| 12> O 3.4874139832 0.1664312211 0.4750808782
| 13> P 2.0415704952 0.2914170734 -0.1775016518
| 14> S 2.0408588357 0.9561690275 -2.0255852089
| 15> O 1.2898809015 1.1524809487 0.9191432272
| 16> C 1.27828795 2.5921101809 0.906562801
| 17> C 2.6536204896 3.1781490917 1.1425876151
| 18> S 1.2010386859 -1.6025425972 0.1815029419
| 19> C 0.0060694644 -1.7110359068 -1.1971366911
| 20> S -1.6953119128 -1.9389818456 -0.6377576124
| 21> P -2.0141870186 0.0127645099 0.1399055399
| 22> S -1.4337751939 1.5000495634 -0.9911675931
| 23> O -1.3060557749 0.0386156374 1.547795521
| 24> C -1.4542845229 -0.9705070694 2.5773727187
| 25> C -2.6107595449 -0.6493137828 3.5006085375
| 26> O -3.5583533405 0.0153490908 0.5164327581
| 27> C -4.5875352849 0.3714313787 -0.4241553452
| 28> C -4.7242821065 -0.6424602269 -1.5412866074
| 29> H 4.3566586065 -2.3348471342 0.1901370317
| 30> H 3.7738715905 -1.853118702 -1.4105903149
| 31> H 5.5111601893 -2.0107602546 -1.117281941
| 32> H 4.7303813522 0.3840485644 -1.1570307391
| 33> H 5.4740591764 -0.0668031611 0.4078553738
| 34> H 0.868392327 2.9258655525 -0.0530104729
| 35> H 0.579620622 2.8498605281 1.7043455628
| 36> H 3.0876992581 2.7628066099 2.0484109443
| 37> H 3.3043037072 2.9481578376 0.2996594609
| 38> H 2.5699583912 4.2561763853 1.2390545405
| 39> H 0.2489513411 -2.5931772428 -1.783601115
| 40> H 0.0834452992 -0.8022018114 -1.800486624
| 41> H -1.5870203994 -1.9461744712 2.1010091282
| 42> H -0.4984931143 -0.948362807 3.1049353605
| 43> H -2.489596735 0.3458411443 3.9199387007
| 44> H -3.5507887233 -0.6895897792 2.9572517548
| 45> H -2.6301168659 -1.3775283801 4.3054776943
| 46> H -5.4900113532 0.4217637368 0.1866785751
| 47> H -4.3566801731 1.3619082891 -0.8283794725
| 48> H -4.8207590124 -1.6453572219 -1.1332021455
| 49> H -5.6036834052 -0.4061641987 -2.1317740789
| 50> H -3.84841798 -0.6082987281 -2.187078154
| 51> *
| 52>
| 53>                          ****END OF INPUT****

CARTESIAN COORDINATES (ANGSTROEM)
---------------------------------
  C      4.565605   -1.712298   -0.676123
  C      4.641677   -0.254068   -0.271811
  O      3.487414    0.166431    0.475081
  P      2.041570    0.291417   -0.177502
  S      2.040859    0.956169   -2.025585
  O      1.289881    1.152481    0.919143
  C      1.278288    2.592110    0.906563
  C      2.653620    3.178149    1.142588
  S      1.201039   -1.602543    0.181503
  C      0.006069   -1.711036   -1.197137
  S     -1.695312   -1.938982   -0.637758
  P     -2.014187    0.012765    0.139906
  S     -1.433775    1.500050   -0.991168
  O     -1.306056    0.038616    1.547796
  C     -1.454285   -0.970507    2.577373
  C     -2.610760   -0.649314    3.500609
  O     -3.558353    0.015349    0.516433
  C     -4.587535    0.371431   -0.424155
  C     -4.724282   -0.642460   -1.541287
  H      4.356659   -2.334847    0.190137
  H      3.773872   -1.853119   -1.410590
  H      5.511160   -2.010760   -1.117282
  H      4.730381    0.384049   -1.157031
  H      5.474059   -0.066803    0.407855
  H      0.868392    2.925866   -0.053010
  H      0.579621    2.849861    1.704346
  H      3.087699    2.762807    2.048411
  H      3.304304    2.948158    0.299659
  H      2.569958    4.256176    1.239055
  H      0.248951   -2.593177   -1.783601
  H      0.083445   -0.802202   -1.800487
  H     -1.587020   -1.946174    2.101009
  H     -0.498493   -0.948363    3.104935
  H     -2.489597    0.345841    3.919939
  H     -3.550789   -0.689590    2.957252
  H     -2.630117   -1.377528    4.305478
  H     -5.490011    0.421764    0.186679
  H     -4.356680    1.361908   -0.828379
  H     -4.820759   -1.645357   -1.133202
  H     -5.603683   -0.406164   -2.131774
  H     -3.848418   -0.608299   -2.187078

 Total Charge           Charge          ....    0
 Multiplicity           Mult            ....    1
 Number of Electrons    NEL             ....  202
 Basis Dimension        Dim             ....  539

ORBITAL ENERGIES
----------------

  NO   OCC          E(Eh)            E(eV)
   0   2.0000     -88.578401     -2410.3408
   1   2.0000     -88.576082     -2410.2777
   2   2.0000     -88.525222     -2408.8937
   3   2.0000     -88.523266     -2408.8405
   4   2.0000     -76.917352     -2093.0275
   5   2.0000     -76.916424     -2093.0023
   6   2.0000     -18.994400      -516.8639
   7   2.0000     -18.991915      -516.7963
   8   2.0000     -18.991879      -516.7953
   9   2.0000     -18.987796      -516.6842
  10   2.0000     -10.104716      -274.9633
  11   2.0000     -10.089920      -274.5607
  12   2.0000     -10.089649      -274.5533
  13   2.0000     -10.087869      -274.5049
  14   2.0000     -10.085667      -274.4450
  15   2.0000     -10.018554      -272.6187
  16   2.0000     -10.017483      -272.5896
  17   2.0000     -10.017218      -272.5824
  18   2.0000     -10.017193      -272.5817
  19   2.0000      -7.872902      -214.2326
  20   2.0000      -7.870753      -214.1741
  21   2.0000      -7.820225      -212.7991
  22   2.0000      -7.818444      -212.7507
  23   2.0000      -6.595748      -179.4794
  24   2.0000      -6.594924      -179.4570
  25   2.0000      -5.819775      -158.3641
  26   2.0000      -5.817593      -158.3048
  27   2.0000      -5.816574      -158.2770
  28   2.0000      -5.814696      -158.2259
  29   2.0000      -5.810158      -158.1024
  30   2.0000      -5.807747      -158.0368
  31   2.0000      -5.767791      -156.9496
  32   2.0000      -5.766108      -156.9038
  33   2.0000      -5.760732      -156.7575
  34   2.0000      -5.760041      -156.7387
  35   2.0000      -5.758696      -156.7021
  36   2.0000      -5.758386      -156.6937
  37   2.0000      -4.741553      -129.0242
  38   2.0000      -4.740727      -129.0017
  39   2.0000      -4.740193      -128.9872
  40   2.0000      -4.739716      -128.9742
  41   2.0000      -4.739210      -128.9605
  42   2.0000      -4.739038      -128.9558
  43   2.0000      -1.051603       -28.6156
  44   2.0000      -1.049074       -28.5468
  45   2.0000      -1.011468       -27.5234
  46   2.0000      -1.008735       -27.4491
  47   2.0000      -0.800371       -21.7792
  48   2.0000      -0.754593       -20.5335
  49   2.0000      -0.743154       -20.2223
  50   2.0000      -0.725256       -19.7352
  51   2.0000      -0.721982       -19.6461
  52   2.0000      -0.710333       -19.3292
  53   2.0000      -0.688806       -18.7434
  54   2.0000      -0.669562       -18.2197
  55   2.0000      -0.632645       -17.2152
  56   2.0000      -0.619511       -16.8578
  57   2.0000      -0.602020       -16.3818
  58   2.0000      -0.597553       -16.2602
  59   2.0000      -0.588602       -16.0167
  60   2.0000      -0.519924       -14.1479
  61   2.0000      -0.510998       -13.9050
  62   2.0000      -0.489777       -13.3275
  63   2.0000      -0.485922       -13.2226
  64   2.0000      -0.469689       -12.7809
  65   2.0000      -0.460427       -12.5289
  66   2.0000      -0.458853       -12.4860
  67   2.0000      -0.451659       -12.2903
  68   2.0000      -0.438366       -11.9286
  69   2.0000      -0.432779       -11.7765
  70   2.0000      -0.424577       -11.5533
  71   2.0000      -0.406584       -11.0637
  72   2.0000      -0.403570       -10.9817
  73   2.0000      -0.400749       -10.9049
  74   2.0000      -0.394323       -10.7301
  75   2.0000      -0.390903       -10.6370
  76   2.0000      -0.380402       -10.3513
  77   2.0000      -0.366367        -9.9694
  78   2.0000      -0.363976        -9.9043
  79   2.0000      -0.360644        -9.8136
  80   2.0000      -0.353623        -9.6226
  81   2.0000      -0.353263        -9.6128
  82   2.0000      -0.349794        -9.5184
  83   2.0000      -0.346496        -9.4286
  84   2.0000      -0.343641        -9.3510
  85   2.0000      -0.324053        -8.8179
  86   2.0000      -0.321721        -8.7545
  87   2.0000      -0.305747        -8.3198
  88   2.0000      -0.303419        -8.2564
  89   2.0000      -0.300498        -8.1770
  90   2.0000      -0.294558        -8.0153
  91   2.0000      -0.286731        -7.8024
  92   2.0000      -0.282250        -7.6804
  93   2.0000      -0.276946        -7.5361
  94   2.0000      -0.274876        -7.4797
  95   2.0000      -0.251168        -6.8346
  96   2.0000      -0.238752        -6.4968
  97   2.0000      -0.236400        -6.4328
  98   2.0000      -0.226267        -6.1570
  99   2.0000      -0.214378        -5.8335
 100   2.0000      -0.209669        -5.7054
 101   0.0000      -0.045480        -1.2376
 102   0.0000      -0.035708        -0.9717
 103   0.0000      -0.012749        -0.3469
 104   0.0000       0.010620         0.2890
 105   0.0000       0.015885         0.4322

MULLIKEN ATOMIC CHARGES
-----------------------
   0 C :   -0.479431
   1 C :   -0.158263
   2 O :   -0.326535
   3 P :    0.693064
   4 S :   -0.519362
   5 O :   -0.296270
   6 C :   -0.156281
   7 C :   -0.492123
   8 S :   -0.126729
   9 C :   -0.221711
  10 S :   -0.157427
  11 P :    0.675840
  12 S :   -0.472395
  13 O :   -0.286738
  14 C :   -0.108724
  15 C :   -0.501315
  16 O :   -0.323580
  17 C :   -0.158845
  18 C :   -0.494034
  19 H :    0.166008
  20 H :    0.171693
  21 H :    0.171074
  22 H :    0.176949
  23 H :    0.173659
  24 H :    0.181365
  25 H :    0.176700
  26 H :    0.168932
  27 H :    0.168466
  28 H :    0.170847
  29 H :    0.237596
  30 H :    0.210783
  31 H :    0.176489
  32 H :    0.179930
  33 H :    0.168265
  34 H :    0.168685
  35 H :    0.170259
  36 H :    0.175164
  37 H :    0.179145
  38 H :    0.169799
  39 H :    0.173270
  40 H :    0.175786
Sum of atomic charges:    0.0000000

LOEWDIN ATOMIC CHARGES
----------------------
   0 C :   -0.410789
   1 C :    0.023022
   2 O :   -0.680405
   3 P :    0.378993
   4 S :   -0.160239
   5 O :   -0.686097
   6 C :    0.013330
   7 C :   -0.403410
   8 S :    0.178992
   9 C :   -0.406537
  10 S :    0.135967
  11 P :    0.383792
  12 S :   -0.113009
  13 O :   -0.677196
  14 C :    0.021730
  15 C :   -0.397771
  16 O :   -0.678304
  17 C :    0.025591
  18 C :   -0.411501
  19 H :    0.163136
  20 H :    0.161079
  21 H :    0.167098
  22 H :    0.181049
  23 H :    0.189923
  24 H :    0.183242
  25 H :    0.190266
  26 H :    0.164033
  27 H :    0.162850
  28 H :    0.167998
  29 H :    0.196798
  30 H :    0.199380
  31 H :    0.182320
  32 H :    0.190094
  33 H :    0.163709
  34 H :    0.166175
  35 H :    0.168069
  36 H :    0.190737
  37 H :    0.181589
  38 H :    0.163735
  39 H :    0.168675
  40 H :    0.161886

  Mayer bond orders larger than 0.100000
B(  0-C ,  1-C ) :   0.9102 B(  0-C , 19-H ) :   0.9654 B(  0-C , 20-H ) :   0.9660
B(  0-C , 21-H ) :   0.9543 B(  1-C ,  2-O ) :   0.8093 B(  1-C , 22-H ) :   0.9652
B(  1-C , 23-H ) :   0.9495 B(  2-O ,  3-P ) :   1.0625 B(  3-P ,  4-S ) :   1.6987
B(  3-P ,  5-O ) :   1.1689 B(  3-P ,  8-S ) :   1.1482 B(  5-O ,  6-C ) :   0.7922
B(  6-C ,  7-C ) :   0.9061 B(  6-C , 24-H ) :   0.9599 B(  6-C , 25-H ) :   0.9516
B(  7-C , 26-H ) :   0.9712 B(  7-C , 27-H ) :   0.9621 B(  7-C , 28-H ) :   0.9545
B(  8-S ,  9-C ) :   0.8858 B(  9-C , 10-S ) :   0.9072 B(  9-C , 29-H ) :   0.8972
B(  9-C , 30-H ) :   0.9103 B( 10-S , 11-P ) :   1.0385 B( 11-P , 12-S ) :   1.8100
B( 11-P , 13-O ) :   1.1321 B( 11-P , 16-O ) :   1.0576 B( 13-O , 14-C ) :   0.7378
B( 14-C , 15-C ) :   0.9272 B( 14-C , 31-H ) :   0.9513 B( 14-C , 32-H ) :   0.9550
B( 15-C , 33-H ) :   0.9735 B( 15-C , 34-H ) :   0.9640 B( 15-C , 35-H ) :   0.9593
B( 16-O , 17-C ) :   0.8101 B( 17-C , 18-C ) :   0.9012 B( 17-C , 36-H ) :   0.9510
B( 17-C , 37-H ) :   0.9663 B( 18-C , 38-H ) :   0.9651 B( 18-C , 39-H ) :   0.9519
B( 18-C , 40-H ) :   0.9651

Dispersion correction           -0.022307923
FINAL SINGLE POINT ENERGY     -2932.467060202885

DIPOLE MOMENT
-------------

Method             : SCF
Type of density    : Electron Density
Multiplicity       :   1
Irrep              :   0
Energy             : -2932.4914207748142871 Eh
Relativity type    :
Basis              : AO
                                X                 Y                 Z
Electronic contribution:     -0.092000425      -2.004369361      -7.191194887
Nuclear contribution   :     -0.298340185       0.693782650       8.499724479
                        -----------------------------------------
Total Dipole Moment    :     -0.390340609      -1.310586711       1.308529592
                        -----------------------------------------
Magnitude (a.u.)       :      1.892684076
Magnitude (Debye)      :      4.810820599

Rotational constants in cm-1:             0.012823             0.005237             0.005092
Rotational constants in MHz :           384.429126           156.998272           152.653516

                             ****ORCA TERMINATED NORMALLY****
TOTAL RUN TIME: 0 days 0 hours 1 minutes 51 seconds 440 msec
