                         Program Version 6.0.0  -   RELEASE  -
|  1> ! pbe def2-sv(p) def2/J RI DEFGRID1 loosescf d4 GCP(DFT/SV(P)) printgap
|  2> %output
|  3>     printlevel normal
|  4> end
|  5> * xyz 0 1
|  6> C 2.4122664063 -3.6070471731 -1.048322895
|  7> C 1.7110622045 -2.3608600786 -0.5483433848
|  8> O 2.7050757986 -1.3304608537 -0.3865579235
|  9> P 2.3024129186 0.1792423229 -0.084231582
| 10> S 1.0522799375 0.9788267552 -1.3631360311
| 11> O 3.6873321045 0.9164275885 -0.0783366351
| 12> C 4.7828185408 0.5735150716 0.8118664182
| 13> C 5.7185053223 -0.4255083771 0.1642046874
| 14> S 1.6924960817 0.146562528 1.9659031944
| 15> C -0.0326425868 0.6323962921 1.7919015714
| 16> S -1.0499598167 -0.6672745446 1.0178816619
| 17> P -2.3007644185 0.5397064019 -0.2233241809
| 18> S -2.1546724517 2.4746987326 0.013369793
| 19> O -3.7297820694 -0.1269407738 0.0062518426
| 20> C -4.3460558269 -0.374203802 1.2831415117
| 21> C -4.5234445815 0.8852909373 2.1052150149
| 22> O -2.0256478604 0.1437926531 -1.7193131814
| 23> C -2.0290920513 -1.2200793541 -2.2061249915
| 24> C -3.3340161729 -1.533055164 -2.9089463379
| 25> H 3.1575906535 -3.9286999976 -0.3269917982
| 26> H 1.680175117 -4.3962225673 -1.1832460049
| 27> H 2.901927401 -3.404426384 -1.9965571302
| 28> H 1.2274051892 -2.5329442864 0.418436494
| 29> H 0.9596757968 -2.0069406488 -1.2619294889
| 30> H 5.2817551462 1.5264005402 0.9963845811
| 31> H 4.3685922215 0.1860465748 1.7466468518
| 32> H 6.5629775792 -0.5971274027 0.8243461261
| 33> H 5.2042639242 -1.3653368189 -0.0146293641
| 34> H 6.0779920989 -0.0368507684 -0.7846664367
| 35> H -0.1185420312 1.5383149282 1.1864769278
| 36> H -0.392831104 0.7999492421 2.8041420176
| 37> H -5.3094957471 -0.8147069057 1.0205245792
| 38> H -3.7372717298 -1.1066989564 1.820909353
| 39> H -5.0647848231 0.6479787683 3.015327644
| 40> H -3.5541412366 1.3077909127 2.3653864538
| 41> H -5.0759818176 1.6319671817 1.5400482792
| 42> H -1.1831561576 -1.2635166336 -2.8958558129
| 43> H -1.8569215229 -1.8990415049 -1.3652363311
| 44> H -3.4983467298 -0.824069491 -3.7157227872
| 45> H -3.2851710217 -2.5377773323 -3.3167265482
| 46> H -4.1632553564 -1.4653489203 -2.2100178642
| 47> *
| 48>
| 49>                          ****END OF INPUT****

CARTESIAN COORDINATES (ANGSTROEM)
---------------------------------
  C      2.412266   -3.607047   -1.048323
  C      1.711062   -2.360860   -0.548343
  O      2.705076   -1.330461   -0.386558
  P      2.302413    0.179242   -0.084232
  S      1.052280    0.978827   -1.363136
  O      3.687332    0.916428   -0.078337
  C      4.782819    0.573515    0.811866
  C      5.718505   -0.425508    0.164205
  S      1.692496    0.146563    1.965903
  C     -0.032643    0.632396    1.791902
  S     -1.049960   -0.667275    1.017882
  P     -2.300764    0.539706   -0.223324
  S     -2.154672    2.474699    0.013370
  O     -3.729782   -0.126941    0.006252
  C     -4.346056   -0.374204    1.283142
  C     -4.523445    0.885291    2.105215
  O     -2.025648    0.143793   -1.719313
  C     -2.029092   -1.220079   -2.206125
  C     -3.334016   -1.533055   -2.908946
  H      3.157591   -3.928700   -0.326992
  H      1.680175   -4.396223   -1.183246
  H      2.901927   -3.404426   -1.996557
  H      1.227405   -2.532944    0.418436
  H      0.959676   -2.006941   -1.261929
  H      5.281755    1.526401    0.996385
  H      4.368592    0.186047    1.746647
  H      6.562978   -0.597127    0.824346
  H      5.204264   -1.365337   -0.014629
  H      6.077992   -0.036851   -0.784666
  H     -0.118542    1.538315    1.186477
  H     -0.392831    0.799949    2.804142
  H     -5.309496   -0.814707    1.020525
  H     -3.737272   -1.106699    1.820909
  H     -5.064785    0.647979    3.015328
  H     -3.554141    1.307791    2.365386
  H     -5.075982    1.631967    1.540048
  H     -1.183156   -1.263517   -2.895856
  H     -1.856922   -1.899042   -1.365236
  H     -3.498347   -0.824069   -3.715723
  H     -3.285171   -2.537777   -3.316727
  H     -4.163255   -1.465349   -2.210018

 Total Charge           Charge          ....    0
 Multiplicity           Mult            ....    1
 Number of Electrons    NEL             ....  202
 Basis Dimension        Dim             ....  334

ORBITAL ENERGIES
----------------

  NO   OCC          E(Eh)            E(eV)
   0   2.0000     -88.043766     -2395.7927
   1   2.0000     -88.041604     -2395.7338
   2   2.0000     -87.979751     -2394.0507
   3   2.0000     -87.978457     -2394.0155
   4   2.0000     -76.422830     -2079.5709
   5   2.0000     -76.422804     -2079.5702
   6   2.0000     -18.792871      -511.3800
   7   2.0000     -18.790427      -511.3135
   8   2.0000     -18.789850      -511.2978
   9   2.0000     -18.785719      -511.1854
  10   2.0000      -9.961268      -271.0599
  11   2.0000      -9.954913      -270.8870
  12   2.0000      -9.954668      -270.8803
  13   2.0000      -9.953344      -270.8443
  14   2.0000      -9.952670      -270.8259
  15   2.0000      -9.890984      -269.1474
  16   2.0000      -9.888853      -269.0894
  17   2.0000      -9.885175      -268.9893
  18   2.0000      -9.881738      -268.8957
  19   2.0000      -7.688849      -209.2242
  20   2.0000      -7.686019      -209.1472
  21   2.0000      -7.624572      -207.4751
  22   2.0000      -7.623797      -207.4541
  23   2.0000      -6.420543      -174.7119
  24   2.0000      -6.419771      -174.6909
  25   2.0000      -5.716747      -155.5606
  26   2.0000      -5.713821      -155.4810
  27   2.0000      -5.713167      -155.4632
  28   2.0000      -5.710552      -155.3920
  29   2.0000      -5.706023      -155.2688
  30   2.0000      -5.703157      -155.1908
  31   2.0000      -5.653710      -153.8453
  32   2.0000      -5.652970      -153.8251
  33   2.0000      -5.645004      -153.6084
  34   2.0000      -5.644739      -153.6012
  35   2.0000      -5.644345      -153.5904
  36   2.0000      -5.643705      -153.5730
  37   2.0000      -4.643289      -126.3503
  38   2.0000      -4.642454      -126.3276
  39   2.0000      -4.642345      -126.3246
  40   2.0000      -4.641804      -126.3099
  41   2.0000      -4.640728      -126.2806
  42   2.0000      -4.639964      -126.2598
  43   2.0000      -0.988439       -26.8968
  44   2.0000      -0.984817       -26.7982
  45   2.0000      -0.945731       -25.7346
  46   2.0000      -0.940530       -25.5931
  47   2.0000      -0.760336       -20.6898
  48   2.0000      -0.721152       -19.6235
  49   2.0000      -0.712773       -19.3956
  50   2.0000      -0.694598       -18.9010
  51   2.0000      -0.688844       -18.7444
  52   2.0000      -0.675165       -18.3722
  53   2.0000      -0.646483       -17.5917
  54   2.0000      -0.634736       -17.2720
  55   2.0000      -0.590147       -16.0587
  56   2.0000      -0.586624       -15.9628
  57   2.0000      -0.573778       -15.6133
  58   2.0000      -0.572720       -15.5845
  59   2.0000      -0.566565       -15.4170
  60   2.0000      -0.510009       -13.8781
  61   2.0000      -0.499094       -13.5811
  62   2.0000      -0.484649       -13.1880
  63   2.0000      -0.472003       -12.8439
  64   2.0000      -0.449444       -12.2300
  65   2.0000      -0.447513       -12.1775
  66   2.0000      -0.442782       -12.0487
  67   2.0000      -0.437810       -11.9134
  68   2.0000      -0.433720       -11.8021
  69   2.0000      -0.418960       -11.4005
  70   2.0000      -0.406857       -11.0711
  71   2.0000      -0.405008       -11.0208
  72   2.0000      -0.389689       -10.6040
  73   2.0000      -0.389039       -10.5863
  74   2.0000      -0.384178       -10.4540
  75   2.0000      -0.364361        -9.9148
  76   2.0000      -0.358882        -9.7657
  77   2.0000      -0.355971        -9.6865
  78   2.0000      -0.355209        -9.6657
  79   2.0000      -0.353120        -9.6089
  80   2.0000      -0.347748        -9.4627
  81   2.0000      -0.346791        -9.4367
  82   2.0000      -0.344954        -9.3867
  83   2.0000      -0.340468        -9.2646
  84   2.0000      -0.335425        -9.1274
  85   2.0000      -0.318963        -8.6794
  86   2.0000      -0.316704        -8.6180
  87   2.0000      -0.299108        -8.1391
  88   2.0000      -0.294282        -8.0078
  89   2.0000      -0.292003        -7.9458
  90   2.0000      -0.283477        -7.7138
  91   2.0000      -0.277590        -7.5536
  92   2.0000      -0.275577        -7.4988
  93   2.0000      -0.262983        -7.1561
  94   2.0000      -0.254619        -6.9285
  95   2.0000      -0.236433        -6.4337
  96   2.0000      -0.220194        -5.9918
  97   2.0000      -0.206695        -5.6245
  98   2.0000      -0.196743        -5.3536
  99   2.0000      -0.192446        -5.2367
 100   2.0000      -0.185079        -5.0363
 101   0.0000      -0.043885        -1.1942
 102   0.0000      -0.033504        -0.9117
 103   0.0000      -0.011950        -0.3252
 104   0.0000       0.005630         0.1532
 105   0.0000       0.013653         0.3715

MULLIKEN ATOMIC CHARGES
-----------------------
   0 C :   -0.274508
   1 C :   -0.031698
   2 O :   -0.382668
   3 P :    0.592340
   4 S :   -0.286382
   5 O :   -0.349345
   6 C :   -0.022480
   7 C :   -0.293765
   8 S :   -0.140308
   9 C :   -0.320818
  10 S :   -0.144048
  11 P :    0.608955
  12 S :   -0.290206
  13 O :   -0.380603
  14 C :   -0.004509
  15 C :   -0.307039
  16 O :   -0.342481
  17 C :   -0.032685
  18 C :   -0.274516
  19 H :    0.115722
  20 H :    0.109417
  21 H :    0.120087
  22 H :    0.105160
  23 H :    0.114905
  24 H :    0.116407
  25 H :    0.111736
  26 H :    0.110399
  27 H :    0.126239
  28 H :    0.122820
  29 H :    0.210860
  30 H :    0.178377
  31 H :    0.104492
  32 H :    0.105361
  33 H :    0.108359
  34 H :    0.120555
  35 H :    0.125730
  36 H :    0.123329
  37 H :    0.099292
  38 H :    0.122473
  39 H :    0.105803
  40 H :    0.119242
Sum of atomic charges:   -0.0000000

LOEWDIN ATOMIC CHARGES
----------------------
   0 C :   -0.350442
   1 C :   -0.124885
   2 O :   -0.250970
   3 P :    0.559768
   4 S :   -0.285676
   5 O :   -0.231873
   6 C :   -0.111178
   7 C :   -0.360913
   8 S :    0.055130
   9 C :   -0.476880
  10 S :    0.052485
  11 P :    0.569092
  12 S :   -0.286464
  13 O :   -0.248668
  14 C :   -0.119321
  15 C :   -0.368125
  16 O :   -0.224730
  17 C :   -0.114554
  18 C :   -0.357672
  19 H :    0.125347
  20 H :    0.129756
  21 H :    0.128508
  22 H :    0.102136
  23 H :    0.107462
  24 H :    0.124526
  25 H :    0.105271
  26 H :    0.129823
  27 H :    0.126433
  28 H :    0.130757
  29 H :    0.125903
  30 H :    0.133695
  31 H :    0.118425
  32 H :    0.103454
  33 H :    0.128433
  34 H :    0.118939
  35 H :    0.130623
  36 H :    0.121471
  37 H :    0.100344
  38 H :    0.130787
  39 H :    0.127601
  40 H :    0.126184

  Mayer bond orders larger than 0.100000
B(  0-C ,  1-C ) :   1.1555 B(  0-C , 19-H ) :   0.9502 B(  0-C , 20-H ) :   0.9424
B(  0-C , 21-H ) :   0.9503 B(  1-C ,  2-O ) :   0.9093 B(  1-C , 22-H ) :   0.9179
B(  1-C , 23-H ) :   0.9115 B(  2-O ,  3-P ) :   1.0687 B(  3-P ,  4-S ) :   1.6775
B(  3-P ,  5-O ) :   1.1532 B(  3-P ,  8-S ) :   0.9272 B(  4-S ,  8-S ) :   0.1128
B(  5-O ,  6-C ) :   0.8930 B(  6-C ,  7-C ) :   1.1642 B(  6-C , 24-H ) :   0.9357
B(  6-C , 25-H ) :   0.9155 B(  7-C , 26-H ) :   0.9387 B(  7-C , 27-H ) :   0.9391
B(  7-C , 28-H ) :   0.9462 B(  8-S ,  9-C ) :   1.0130 B(  9-C , 10-S ) :   0.9833
B(  9-C , 29-H ) :   0.8482 B(  9-C , 30-H ) :   0.9083 B( 10-S , 11-P ) :   0.9322
B( 10-S , 12-S ) :   0.1169 B( 11-P , 12-S ) :   1.6508 B( 11-P , 13-O ) :   1.0707
B( 11-P , 16-O ) :   1.1397 B( 13-O , 14-C ) :   0.9180 B( 14-C , 15-C ) :   1.1664
B( 14-C , 31-H ) :   0.9330 B( 14-C , 32-H ) :   0.9201 B( 15-C , 33-H ) :   0.9356
B( 15-C , 34-H ) :   0.9333 B( 15-C , 35-H ) :   0.9445 B( 16-O , 17-C ) :   0.8974
B( 17-C , 18-C ) :   1.1593 B( 17-C , 36-H ) :   0.9279 B( 17-C , 37-H ) :   0.9133
B( 18-C , 38-H ) :   0.9460 B( 18-C , 39-H ) :   0.9404 B( 18-C , 40-H ) :   0.9416

Dispersion correction           -0.064752969
FINAL SINGLE POINT ENERGY     -2929.512711876795

DIPOLE MOMENT
-------------

Method             : SCF
Type of density    : Electron Density
Multiplicity       :   1
Irrep              :   0
Energy             : -2929.6324106566794399 Eh
Relativity type    :
Basis              : AO
                                X                 Y                 Z
Electronic contribution:      0.082586849      17.864773439       1.897650436
Nuclear contribution   :      0.192447353     -20.004395006      -1.055289854
                        -----------------------------------------
Total Dipole Moment    :      0.275034202      -2.139621566       0.842360583
                        -----------------------------------------
Magnitude (a.u.)       :      2.315857425
Magnitude (Debye)      :      5.886441770

Rotational constants in cm-1:             0.013022             0.004793             0.004350
Rotational constants in MHz :           390.390047           143.696006           130.408789

                             ****ORCA TERMINATED NORMALLY****
TOTAL RUN TIME: 0 days 0 hours 0 minutes 20 seconds 999 msec
