                         Program Version 6.0.0  -   RELEASE  -
|  1> ! pbe def2-sv(p) def2/J RI DEFGRID1 loosescf d4 GCP(DFT/SV(P)) printgap
|  2> %output
|  3>     printlevel normal
|  4> end
|  5> * xyz 0 1
|  6> C 3.591846296 -1.5075701377 -2.734312701
|  7> C 3.9646731861 -0.1037318876 -2.3053382274
|  8> O 3.6327307665 0.1542836108 -0.9282832509
|  9> P 2.1362389456 0.1805022415 -0.392222311
| 10> S 0.8606067827 1.0389351041 -1.6044697243
| 11> O 2.2771020374 0.977198759 0.9582628908
| 12> C 3.2794878077 0.7170126739 1.9756945098
| 13> C 2.6845623301 -0.0644072448 3.1307960069
| 14> S 1.8217162564 -1.8583337819 0.1248636796
| 15> C 0.1711796766 -1.7576540602 0.8621006404
| 16> S -1.1590985213 -1.4876549391 -0.3540508126
| 17> P -1.8850221993 0.3491812065 0.3578474973
| 18> S -0.865021231 1.3250484525 1.7151376248
| 19> O -3.2739228598 -0.2011958446 0.9408501394
| 20> C -4.1756906322 0.6897638 1.6236744319
| 21> C -5.3913155899 -0.1134442964 2.0378387678
| 22> O -2.2575850571 1.293979053 -0.8590022376
| 23> C -2.6084647132 0.8674172455 -2.19615593
| 24> C -3.7970222587 -0.0703122382 -2.2215474533
| 25> H 3.9767543032 -1.6895831095 -3.7325317337
| 26> H 4.0086053707 -2.238506657 -2.0459200037
| 27> H 2.5082535692 -1.6159887546 -2.7495784275
| 28> H 3.4523965564 0.6377696454 -2.9259779678
| 29> H 5.0426434374 0.0593485131 -2.3438272872
| 30> H 4.1209889081 0.1921111987 1.5203692481
| 31> H 3.5914275106 1.7125050772 2.2952549527
| 32> H 3.3850592601 -0.0559462263 3.9597069571
| 33> H 1.7537607727 0.4027066956 3.4463014042
| 34> H 2.4887980238 -1.0947124976 2.8444598599
| 35> H 0.1391670015 -0.9430278669 1.5913557019
| 36> H -0.0004910948 -2.7225534076 1.3315253644
| 37> H -3.6538058221 1.1107193642 2.4897051717
| 38> H -4.4418665687 1.5090205221 0.9475027955
| 39> H -6.084791371 0.5348774267 2.5633420691
| 40> H -5.8786598289 -0.5307008459 1.1614707252
| 41> H -5.0899536411 -0.9261654276 2.6919167027
| 42> H -2.820099075 1.8082013986 -2.7070232811
| 43> H -1.7238448647 0.4060575583 -2.6434392889
| 44> H -4.0338477941 -0.3063233749 -3.2542718269
| 45> H -3.5633142101 -0.9936753467 -1.6933759098
| 46> H -4.6601458436 0.3979675264 -1.7544367356
| 47> *
| 48>
| 49>                          ****END OF INPUT****

CARTESIAN COORDINATES (ANGSTROEM)
---------------------------------
  C      3.591846   -1.507570   -2.734313
  C      3.964673   -0.103732   -2.305338
  O      3.632731    0.154284   -0.928283
  P      2.136239    0.180502   -0.392222
  S      0.860607    1.038935   -1.604470
  O      2.277102    0.977199    0.958263
  C      3.279488    0.717013    1.975695
  C      2.684562   -0.064407    3.130796
  S      1.821716   -1.858334    0.124864
  C      0.171180   -1.757654    0.862101
  S     -1.159099   -1.487655   -0.354051
  P     -1.885022    0.349181    0.357847
  S     -0.865021    1.325048    1.715138
  O     -3.273923   -0.201196    0.940850
  C     -4.175691    0.689764    1.623674
  C     -5.391316   -0.113444    2.037839
  O     -2.257585    1.293979   -0.859002
  C     -2.608465    0.867417   -2.196156
  C     -3.797022   -0.070312   -2.221547
  H      3.976754   -1.689583   -3.732532
  H      4.008605   -2.238507   -2.045920
  H      2.508254   -1.615989   -2.749578
  H      3.452397    0.637770   -2.925978
  H      5.042643    0.059349   -2.343827
  H      4.120989    0.192111    1.520369
  H      3.591428    1.712505    2.295255
  H      3.385059   -0.055946    3.959707
  H      1.753761    0.402707    3.446301
  H      2.488798   -1.094712    2.844460
  H      0.139167   -0.943028    1.591356
  H     -0.000491   -2.722553    1.331525
  H     -3.653806    1.110719    2.489705
  H     -4.441867    1.509021    0.947503
  H     -6.084791    0.534877    2.563342
  H     -5.878660   -0.530701    1.161471
  H     -5.089954   -0.926165    2.691917
  H     -2.820099    1.808201   -2.707023
  H     -1.723845    0.406058   -2.643439
  H     -4.033848   -0.306323   -3.254272
  H     -3.563314   -0.993675   -1.693376
  H     -4.660146    0.397968   -1.754437

 Total Charge           Charge          ....    0
 Multiplicity           Mult            ....    1
 Number of Electrons    NEL             ....  202
 Basis Dimension        Dim             ....  334

ORBITAL ENERGIES
----------------

  NO   OCC          E(Eh)            E(eV)
   0   2.0000     -88.041887     -2395.7415
   1   2.0000     -88.039006     -2395.6631
   2   2.0000     -87.977852     -2393.9991
   3   2.0000     -87.973977     -2393.8936
   4   2.0000     -76.421670     -2079.5394
   5   2.0000     -76.416292     -2079.3930
   6   2.0000     -18.789371      -511.2848
   7   2.0000     -18.784773      -511.1597
   8   2.0000     -18.782775      -511.1053
   9   2.0000     -18.776158      -510.9252
  10   2.0000      -9.955555      -270.9044
  11   2.0000      -9.951776      -270.8016
  12   2.0000      -9.951502      -270.7941
  13   2.0000      -9.950813      -270.7754
  14   2.0000      -9.942932      -270.5609
  15   2.0000      -9.888242      -269.0728
  16   2.0000      -9.883635      -268.9474
  17   2.0000      -9.882981      -268.9296
  18   2.0000      -9.881234      -268.8821
  19   2.0000      -7.686859      -209.1701
  20   2.0000      -7.684355      -209.1019
  21   2.0000      -7.622767      -207.4260
  22   2.0000      -7.619254      -207.3304
  23   2.0000      -6.418975      -174.6692
  24   2.0000      -6.414128      -174.5373
  25   2.0000      -5.714499      -155.4994
  26   2.0000      -5.712259      -155.4385
  27   2.0000      -5.711396      -155.4150
  28   2.0000      -5.709034      -155.3507
  29   2.0000      -5.704044      -155.2149
  30   2.0000      -5.701027      -155.1328
  31   2.0000      -5.651775      -153.7926
  32   2.0000      -5.648266      -153.6971
  33   2.0000      -5.643356      -153.5635
  34   2.0000      -5.642860      -153.5500
  35   2.0000      -5.640319      -153.4809
  36   2.0000      -5.638747      -153.4381
  37   2.0000      -4.642000      -126.3152
  38   2.0000      -4.640722      -126.2805
  39   2.0000      -4.639092      -126.2361
  40   2.0000      -4.637001      -126.1792
  41   2.0000      -4.635775      -126.1459
  42   2.0000      -4.634407      -126.1086
  43   2.0000      -0.983194       -26.7541
  44   2.0000      -0.974240       -26.5104
  45   2.0000      -0.939545       -25.5663
  46   2.0000      -0.933207       -25.3938
  47   2.0000      -0.760585       -20.6966
  48   2.0000      -0.717022       -19.5112
  49   2.0000      -0.707644       -19.2560
  50   2.0000      -0.689396       -18.7594
  51   2.0000      -0.687005       -18.6943
  52   2.0000      -0.672782       -18.3073
  53   2.0000      -0.646295       -17.5866
  54   2.0000      -0.629615       -17.1327
  55   2.0000      -0.593918       -16.1613
  56   2.0000      -0.583929       -15.8895
  57   2.0000      -0.573154       -15.5963
  58   2.0000      -0.570923       -15.5356
  59   2.0000      -0.553984       -15.0747
  60   2.0000      -0.498481       -13.5643
  61   2.0000      -0.495113       -13.4727
  62   2.0000      -0.471820       -12.8389
  63   2.0000      -0.467888       -12.7319
  64   2.0000      -0.450691       -12.2639
  65   2.0000      -0.444845       -12.1049
  66   2.0000      -0.439849       -11.9689
  67   2.0000      -0.430999       -11.7281
  68   2.0000      -0.427823       -11.6417
  69   2.0000      -0.421054       -11.4575
  70   2.0000      -0.404650       -11.0111
  71   2.0000      -0.400055       -10.8861
  72   2.0000      -0.389378       -10.5955
  73   2.0000      -0.375720       -10.2239
  74   2.0000      -0.374892       -10.2013
  75   2.0000      -0.365314        -9.9407
  76   2.0000      -0.360889        -9.8203
  77   2.0000      -0.353422        -9.6171
  78   2.0000      -0.352251        -9.5852
  79   2.0000      -0.350973        -9.5504
  80   2.0000      -0.348318        -9.4782
  81   2.0000      -0.344570        -9.3762
  82   2.0000      -0.340728        -9.2717
  83   2.0000      -0.334201        -9.0941
  84   2.0000      -0.330986        -9.0066
  85   2.0000      -0.314342        -8.5537
  86   2.0000      -0.307081        -8.3561
  87   2.0000      -0.305041        -8.3006
  88   2.0000      -0.295154        -8.0315
  89   2.0000      -0.290053        -7.8928
  90   2.0000      -0.273120        -7.4320
  91   2.0000      -0.265017        -7.2115
  92   2.0000      -0.264037        -7.1848
  93   2.0000      -0.258052        -7.0219
  94   2.0000      -0.256010        -6.9664
  95   2.0000      -0.239420        -6.5150
  96   2.0000      -0.217271        -5.9122
  97   2.0000      -0.201768        -5.4904
  98   2.0000      -0.195240        -5.3128
  99   2.0000      -0.186132        -5.0649
 100   2.0000      -0.179040        -4.8719
 101   0.0000      -0.039288        -1.0691
 102   0.0000      -0.028999        -0.7891
 103   0.0000      -0.009052        -0.2463
 104   0.0000       0.003561         0.0969
 105   0.0000       0.026137         0.7112

MULLIKEN ATOMIC CHARGES
-----------------------
   0 C :   -0.325016
   1 C :    0.002572
   2 O :   -0.383945
   3 P :    0.609646
   4 S :   -0.305059
   5 O :   -0.344835
   6 C :   -0.009707
   7 C :   -0.305788
   8 S :   -0.114914
   9 C :   -0.351599
  10 S :   -0.084258
  11 P :    0.613709
  12 S :   -0.308637
  13 O :   -0.383561
  14 C :   -0.017031
  15 C :   -0.274411
  16 O :   -0.371672
  17 C :   -0.012131
  18 C :   -0.325025
  19 H :    0.114169
  20 H :    0.118389
  21 H :    0.131618
  22 H :    0.112682
  23 H :    0.103863
  24 H :    0.106259
  25 H :    0.111653
  26 H :    0.108438
  27 H :    0.137328
  28 H :    0.117348
  29 H :    0.201508
  30 H :    0.183582
  31 H :    0.104572
  32 H :    0.096801
  33 H :    0.108627
  34 H :    0.111516
  35 H :    0.116830
  36 H :    0.110490
  37 H :    0.127350
  38 H :    0.115789
  39 H :    0.134419
  40 H :    0.118428
Sum of atomic charges:    0.0000000

LOEWDIN ATOMIC CHARGES
----------------------
   0 C :   -0.373497
   1 C :   -0.116625
   2 O :   -0.249660
   3 P :    0.567546
   4 S :   -0.299566
   5 O :   -0.227535
   6 C :   -0.109321
   7 C :   -0.365968
   8 S :    0.071266
   9 C :   -0.480411
  10 S :    0.087740
  11 P :    0.570596
  12 S :   -0.300213
  13 O :   -0.264443
  14 C :   -0.124023
  15 C :   -0.350730
  16 O :   -0.236520
  17 C :   -0.117357
  18 C :   -0.368066
  19 H :    0.131811
  20 H :    0.122676
  21 H :    0.122940
  22 H :    0.112837
  23 H :    0.118144
  24 H :    0.110171
  25 H :    0.123370
  26 H :    0.128936
  27 H :    0.132018
  28 H :    0.117071
  29 H :    0.122648
  30 H :    0.138575
  31 H :    0.108077
  32 H :    0.104979
  33 H :    0.128899
  34 H :    0.123750
  35 H :    0.127868
  36 H :    0.123136
  37 H :    0.110853
  38 H :    0.132895
  39 H :    0.119659
  40 H :    0.125473

  Mayer bond orders larger than 0.100000
B(  0-C ,  1-C ) :   1.1660 B(  0-C , 19-H ) :   0.9369 B(  0-C , 20-H ) :   0.9425
B(  0-C , 21-H ) :   0.9326 B(  1-C ,  2-O ) :   0.9060 B(  1-C , 22-H ) :   0.9169
B(  1-C , 23-H ) :   0.9340 B(  2-O ,  3-P ) :   1.0824 B(  3-P ,  4-S ) :   1.6431
B(  3-P ,  5-O ) :   1.1453 B(  3-P ,  8-S ) :   0.9445 B(  4-S ,  8-S ) :   0.1144
B(  5-O ,  6-C ) :   0.8959 B(  6-C ,  7-C ) :   1.1686 B(  6-C , 24-H ) :   0.9192
B(  6-C , 25-H ) :   0.9347 B(  7-C , 26-H ) :   0.9382 B(  7-C , 27-H ) :   0.9363
B(  7-C , 28-H ) :   0.9337 B(  8-S ,  9-C ) :   0.9868 B(  9-C , 10-S ) :   1.0076
B(  9-C , 29-H ) :   0.8416 B(  9-C , 30-H ) :   0.9118 B( 10-S , 11-P ) :   0.9606
B( 10-S , 12-S ) :   0.1123 B( 11-P , 12-S ) :   1.6256 B( 11-P , 13-O ) :   1.0697
B( 11-P , 16-O ) :   1.1168 B( 12-S , 29-H ) :   0.1131 B( 13-O , 14-C ) :   0.9145
B( 14-C , 15-C ) :   1.1565 B( 14-C , 31-H ) :   0.9163 B( 14-C , 32-H ) :   0.9232
B( 15-C , 33-H ) :   0.9428 B( 15-C , 34-H ) :   0.9519 B( 15-C , 35-H ) :   0.9500
B( 16-O , 17-C ) :   0.9039 B( 17-C , 18-C ) :   1.1604 B( 17-C , 36-H ) :   0.9357
B( 17-C , 37-H ) :   0.9142 B( 18-C , 38-H ) :   0.9360 B( 18-C , 39-H ) :   0.9350
B( 18-C , 40-H ) :   0.9435

Dispersion correction           -0.067483735
FINAL SINGLE POINT ENERGY     -2929.508447229075

DIPOLE MOMENT
-------------

Method             : SCF
Type of density    : Electron Density
Multiplicity       :   1
Irrep              :   0
Energy             : -2929.6261978955326413 Eh
Relativity type    :
Basis              : AO
                                X                 Y                 Z
Electronic contribution:      7.315269604       3.669678469      -1.134184582
Nuclear contribution   :     -7.258220588      -4.489106287       0.966963140
                        -----------------------------------------
Total Dipole Moment    :      0.057049015      -0.819427818      -0.167221442
                        -----------------------------------------
Magnitude (a.u.)       :      0.838259835
Magnitude (Debye)      :      2.130687171

Rotational constants in cm-1:             0.013000             0.005327             0.004655
Rotational constants in MHz :           389.741315           159.697689           139.547810

                             ****ORCA TERMINATED NORMALLY****
TOTAL RUN TIME: 0 days 0 hours 0 minutes 21 seconds 92 msec
