                         Program Version 6.0.0  -   RELEASE  -
|  1> ! pbe def2-sv(p) def2/J RI DEFGRID1 loosescf d4 GCP(DFT/SV(P)) printgap
|  2> %output
|  3>     printlevel normal
|  4> end
|  5> * xyz 0 1
|  6> C 5.027926847 0.1444618303 -2.0986791235
|  7> C 4.0081110587 -0.9688705775 -2.2108639939
|  8> O 3.2847137247 -1.1607413106 -0.9785159452
|  9> P 2.2258521783 -0.1161700155 -0.4330524116
| 10> S 1.1663401486 0.7416405511 -1.8535161541
| 11> O 3.1441447597 0.8335873287 0.440480258
| 12> C 2.7112242061 2.005019083 1.1550685404
| 13> C 2.4723761643 1.6820690995 2.6160753247
| 14> S 1.2254382784 -1.3723770935 0.9248104963
| 15> C -0.0785687829 -1.9719470929 -0.2083532023
| 16> S -1.7328607686 -1.8752717196 0.5054001443
| 17> P -2.0781198216 0.2262753271 0.3070318474
| 18> S -0.8271451998 1.4769141016 1.1389334672
| 19> O -3.5985489269 0.3408163698 0.7493916212
| 20> C -4.1534886548 -0.218494171 1.9559103225
| 21> C -3.3636555057 0.1482333272 3.1940941695
| 22> O -2.1399742999 0.5108891501 -1.2404340401
| 23> C -3.0355952537 -0.1600770187 -2.1598208697
| 24> C -4.2644220603 0.6870858798 -2.419270873
| 25> H 5.6798239328 -0.028523898 -1.2466165749
| 26> H 5.6199159768 0.1844762913 -3.0076860027
| 27> H 4.5195628959 1.098314758 -1.9640145742
| 28> H 4.480266215 -1.9360080148 -2.3877126894
| 29> H 3.2858521604 -0.7521240695 -3.0047307903
| 30> H 3.5296249299 2.7176902629 1.0352348861
| 31> H 1.8054888247 2.405110639 0.6892787998
| 32> H 3.350341656 1.2028949056 3.0397388028
| 33> H 2.263266331 2.602258657 3.1513859285
| 34> H 1.6165114212 1.0188793048 2.7202430221
| 35> H 0.0965880254 -3.0246711699 -0.413056279
| 36> H -0.0385735904 -1.372162593 -1.1217016244
| 37> H -5.162856258 0.1953519006 1.9899714168
| 38> H -4.1986199655 -1.3041310816 1.8339707323
| 39> H -2.3649914101 -0.2844984861 3.1446338348
| 40> H -3.2650591547 1.2282520694 3.2764474505
| 41> H -3.871778553 -0.2357552472 4.0727183938
| 42> H -2.443485765 -0.2904229978 -3.0682058316
| 43> H -3.3061772484 -1.1360650896 -1.7467572484
| 44> H -4.8280873409 0.8243776978 -1.5003516215
| 45> H -3.9691137871 1.6622953458 -2.7969014876
| 46> H -4.8888462693 0.1905157909 -3.1553175857
| 47> *
| 48>
| 49>                          ****END OF INPUT****

CARTESIAN COORDINATES (ANGSTROEM)
---------------------------------
  C      5.027927    0.144462   -2.098679
  C      4.008111   -0.968871   -2.210864
  O      3.284714   -1.160741   -0.978516
  P      2.225852   -0.116170   -0.433052
  S      1.166340    0.741641   -1.853516
  O      3.144145    0.833587    0.440480
  C      2.711224    2.005019    1.155069
  C      2.472376    1.682069    2.616075
  S      1.225438   -1.372377    0.924810
  C     -0.078569   -1.971947   -0.208353
  S     -1.732861   -1.875272    0.505400
  P     -2.078120    0.226275    0.307032
  S     -0.827145    1.476914    1.138933
  O     -3.598549    0.340816    0.749392
  C     -4.153489   -0.218494    1.955910
  C     -3.363656    0.148233    3.194094
  O     -2.139974    0.510889   -1.240434
  C     -3.035595   -0.160077   -2.159821
  C     -4.264422    0.687086   -2.419271
  H      5.679824   -0.028524   -1.246617
  H      5.619916    0.184476   -3.007686
  H      4.519563    1.098315   -1.964015
  H      4.480266   -1.936008   -2.387713
  H      3.285852   -0.752124   -3.004731
  H      3.529625    2.717690    1.035235
  H      1.805489    2.405111    0.689279
  H      3.350342    1.202895    3.039739
  H      2.263266    2.602259    3.151386
  H      1.616511    1.018879    2.720243
  H      0.096588   -3.024671   -0.413056
  H     -0.038574   -1.372163   -1.121702
  H     -5.162856    0.195352    1.989971
  H     -4.198620   -1.304131    1.833971
  H     -2.364991   -0.284498    3.144634
  H     -3.265059    1.228252    3.276447
  H     -3.871779   -0.235755    4.072718
  H     -2.443486   -0.290423   -3.068206
  H     -3.306177   -1.136065   -1.746757
  H     -4.828087    0.824378   -1.500352
  H     -3.969114    1.662295   -2.796901
  H     -4.888846    0.190516   -3.155318

 Total Charge           Charge          ....    0
 Multiplicity           Mult            ....    1
 Number of Electrons    NEL             ....  202
 Basis Dimension        Dim             ....  334

ORBITAL ENERGIES
----------------

  NO   OCC          E(Eh)            E(eV)
   0   2.0000     -88.045877     -2395.8501
   1   2.0000     -88.034904     -2395.5515
   2   2.0000     -87.979038     -2394.0313
   3   2.0000     -87.976205     -2393.9542
   4   2.0000     -76.424093     -2079.6053
   5   2.0000     -76.418919     -2079.4645
   6   2.0000     -18.794263      -511.4179
   7   2.0000     -18.787863      -511.2437
   8   2.0000     -18.787690      -511.2390
   9   2.0000     -18.778674      -510.9937
  10   2.0000      -9.960812      -271.0475
  11   2.0000      -9.955828      -270.9119
  12   2.0000      -9.952242      -270.8143
  13   2.0000      -9.944573      -270.6056
  14   2.0000      -9.944211      -270.5957
  15   2.0000      -9.883823      -268.9525
  16   2.0000      -9.883480      -268.9432
  17   2.0000      -9.878324      -268.8029
  18   2.0000      -9.874385      -268.6957
  19   2.0000      -7.690694      -209.2744
  20   2.0000      -7.680355      -208.9931
  21   2.0000      -7.623875      -207.4562
  22   2.0000      -7.621332      -207.3870
  23   2.0000      -6.421207      -174.7299
  24   2.0000      -6.416594      -174.6044
  25   2.0000      -5.718329      -155.6036
  26   2.0000      -5.715118      -155.5163
  27   2.0000      -5.708276      -155.3301
  28   2.0000      -5.708048      -155.3239
  29   2.0000      -5.705099      -155.2436
  30   2.0000      -5.696955      -155.0220
  31   2.0000      -5.652698      -153.8177
  32   2.0000      -5.650393      -153.7550
  33   2.0000      -5.644762      -153.6018
  34   2.0000      -5.643883      -153.5779
  35   2.0000      -5.641706      -153.5186
  36   2.0000      -5.641529      -153.5138
  37   2.0000      -4.644190      -126.3748
  38   2.0000      -4.643385      -126.3529
  39   2.0000      -4.640968      -126.2872
  40   2.0000      -4.639034      -126.2345
  41   2.0000      -4.638326      -126.2153
  42   2.0000      -4.637167      -126.1837
  43   2.0000      -0.987557       -26.8728
  44   2.0000      -0.979393       -26.6506
  45   2.0000      -0.944517       -25.7016
  46   2.0000      -0.937571       -25.5126
  47   2.0000      -0.760663       -20.6987
  48   2.0000      -0.718531       -19.5522
  49   2.0000      -0.707715       -19.2579
  50   2.0000      -0.691049       -18.8044
  51   2.0000      -0.681376       -18.5412
  52   2.0000      -0.670867       -18.2552
  53   2.0000      -0.648256       -17.6400
  54   2.0000      -0.630430       -17.1549
  55   2.0000      -0.594901       -16.1881
  56   2.0000      -0.586724       -15.9656
  57   2.0000      -0.573706       -15.6113
  58   2.0000      -0.563223       -15.3261
  59   2.0000      -0.562702       -15.3119
  60   2.0000      -0.502334       -13.6692
  61   2.0000      -0.490061       -13.3352
  62   2.0000      -0.473350       -12.8805
  63   2.0000      -0.469311       -12.7706
  64   2.0000      -0.454803       -12.3758
  65   2.0000      -0.447695       -12.1824
  66   2.0000      -0.436258       -11.8712
  67   2.0000      -0.433474       -11.7954
  68   2.0000      -0.428833       -11.6691
  69   2.0000      -0.412696       -11.2300
  70   2.0000      -0.404173       -10.9981
  71   2.0000      -0.396202       -10.7812
  72   2.0000      -0.390633       -10.6297
  73   2.0000      -0.385314       -10.4849
  74   2.0000      -0.383141       -10.4258
  75   2.0000      -0.370914       -10.0931
  76   2.0000      -0.356670        -9.7055
  77   2.0000      -0.354670        -9.6511
  78   2.0000      -0.350348        -9.5335
  79   2.0000      -0.347314        -9.4509
  80   2.0000      -0.342435        -9.3181
  81   2.0000      -0.341198        -9.2845
  82   2.0000      -0.338874        -9.2212
  83   2.0000      -0.336107        -9.1459
  84   2.0000      -0.327340        -8.9074
  85   2.0000      -0.319902        -8.7050
  86   2.0000      -0.307125        -8.3573
  87   2.0000      -0.296945        -8.0803
  88   2.0000      -0.287687        -7.8284
  89   2.0000      -0.285672        -7.7735
  90   2.0000      -0.277410        -7.5487
  91   2.0000      -0.275708        -7.5024
  92   2.0000      -0.266150        -7.2423
  93   2.0000      -0.262707        -7.1486
  94   2.0000      -0.256942        -6.9918
  95   2.0000      -0.240559        -6.5459
  96   2.0000      -0.220508        -6.0003
  97   2.0000      -0.201990        -5.4964
  98   2.0000      -0.198770        -5.4088
  99   2.0000      -0.184767        -5.0278
 100   2.0000      -0.179904        -4.8954
 101   0.0000      -0.039037        -1.0623
 102   0.0000      -0.028350        -0.7714
 103   0.0000      -0.015766        -0.4290
 104   0.0000       0.004046         0.1101
 105   0.0000       0.023038         0.6269

MULLIKEN ATOMIC CHARGES
-----------------------
   0 C :   -0.304872
   1 C :   -0.001445
   2 O :   -0.369691
   3 P :    0.614665
   4 S :   -0.318200
   5 O :   -0.372579
   6 C :   -0.013571
   7 C :   -0.309373
   8 S :   -0.072000
   9 C :   -0.344248
  10 S :   -0.125506
  11 P :    0.601768
  12 S :   -0.302595
  13 O :   -0.379648
  14 C :   -0.014092
  15 C :   -0.312056
  16 O :   -0.343052
  17 C :   -0.013803
  18 C :   -0.286436
  19 H :    0.115872
  20 H :    0.108564
  21 H :    0.122129
  22 H :    0.100651
  23 H :    0.104162
  24 H :    0.101849
  25 H :    0.126842
  26 H :    0.110481
  27 H :    0.109481
  28 H :    0.140354
  29 H :    0.184296
  30 H :    0.191195
  31 H :    0.110737
  32 H :    0.114828
  33 H :    0.129866
  34 H :    0.129288
  35 H :    0.111228
  36 H :    0.111234
  37 H :    0.094385
  38 H :    0.119353
  39 H :    0.122592
  40 H :    0.107344
Sum of atomic charges:    0.0000000

LOEWDIN ATOMIC CHARGES
----------------------
   0 C :   -0.364230
   1 C :   -0.119485
   2 O :   -0.249014
   3 P :    0.570072
   4 S :   -0.311127
   5 O :   -0.237410
   6 C :   -0.115524
   7 C :   -0.365757
   8 S :    0.086858
   9 C :   -0.478700
  10 S :    0.061366
  11 P :    0.568386
  12 S :   -0.295281
  13 O :   -0.245912
  14 C :   -0.114803
  15 C :   -0.371355
  16 O :   -0.225459
  17 C :   -0.117250
  18 C :   -0.358515
  19 H :    0.126013
  20 H :    0.128498
  21 H :    0.123620
  22 H :    0.116546
  23 H :    0.106633
  24 H :    0.116873
  25 H :    0.111170
  26 H :    0.123451
  27 H :    0.130663
  28 H :    0.121944
  29 H :    0.137101
  30 H :    0.121171
  31 H :    0.121868
  32 H :    0.108367
  33 H :    0.122453
  34 H :    0.131056
  35 H :    0.130092
  36 H :    0.121192
  37 H :    0.100571
  38 H :    0.125519
  39 H :    0.130046
  40 H :    0.128292

  Mayer bond orders larger than 0.100000
B(  0-C ,  1-C ) :   1.1647 B(  0-C , 19-H ) :   0.9467 B(  0-C , 20-H ) :   0.9392
B(  0-C , 21-H ) :   0.9383 B(  1-C ,  2-O ) :   0.9158 B(  1-C , 22-H ) :   0.9350
B(  1-C , 23-H ) :   0.9121 B(  2-O ,  3-P ) :   1.1154 B(  3-P ,  4-S ) :   1.5980
B(  3-P ,  5-O ) :   1.1261 B(  3-P ,  8-S ) :   0.9642 B(  4-S ,  8-S ) :   0.1172
B(  4-S , 30-H ) :   0.1088 B(  5-O ,  6-C ) :   0.8969 B(  6-C ,  7-C ) :   1.1723
B(  6-C , 24-H ) :   0.9338 B(  6-C , 25-H ) :   0.9060 B(  7-C , 26-H ) :   0.9467
B(  7-C , 27-H ) :   0.9404 B(  7-C , 28-H ) :   0.9303 B(  8-S ,  9-C ) :   0.9941
B(  9-C , 10-S ) :   1.0010 B(  9-C , 29-H ) :   0.9108 B(  9-C , 30-H ) :   0.8517
B( 10-S , 11-P ) :   0.9348 B( 10-S , 12-S ) :   0.1155 B( 11-P , 12-S ) :   1.6730
B( 11-P , 13-O ) :   1.0778 B( 11-P , 16-O ) :   1.1360 B( 13-O , 14-C ) :   0.9122
B( 14-C , 15-C ) :   1.1684 B( 14-C , 31-H ) :   0.9330 B( 14-C , 32-H ) :   0.9266
B( 15-C , 33-H ) :   0.9310 B( 15-C , 34-H ) :   0.9411 B( 15-C , 35-H ) :   0.9335
B( 16-O , 17-C ) :   0.8962 B( 17-C , 18-C ) :   1.1674 B( 17-C , 36-H ) :   0.9326
B( 17-C , 37-H ) :   0.9102 B( 18-C , 38-H ) :   0.9430 B( 18-C , 39-H ) :   0.9471
B( 18-C , 40-H ) :   0.9402

Dispersion correction           -0.066375608
FINAL SINGLE POINT ENERGY     -2929.511764279450

DIPOLE MOMENT
-------------

Method             : SCF
Type of density    : Electron Density
Multiplicity       :   1
Irrep              :   0
Energy             : -2929.6300685521478044 Eh
Relativity type    :
Basis              : AO
                                X                 Y                 Z
Electronic contribution:      1.460842598      -5.350810108       0.252369736
Nuclear contribution   :     -2.078010562       4.598191195      -0.354379538
                        -----------------------------------------
Total Dipole Moment    :     -0.617167964      -0.752618913      -0.102009801
                        -----------------------------------------
Magnitude (a.u.)       :      0.978640651
Magnitude (Debye)      :      2.487506849

Rotational constants in cm-1:             0.012727             0.005129             0.004612
Rotational constants in MHz :           381.550670           153.768705           138.267573

                             ****ORCA TERMINATED NORMALLY****
TOTAL RUN TIME: 0 days 0 hours 0 minutes 20 seconds 971 msec
