                         Program Version 6.0.1  -  RELEASE   -
|  1> ! wb97x-v def2-tzvp def2/J RIJCOSX DEFGRID2 scfconv7 GCP(DFT/TZ) printgap
|  2> %output
|  3>     printlevel normal
|  4> end
|  5> * xyz 0 1
|  6> C 5.254499169125892 -1.7064254044203524 -2.6042253145467638
|  7> C 4.802239540706984 -2.4977828977565806 -1.400184201326976
|  8> O 3.3384441355295156 -2.6042055996546067 -1.3665950144973542
|  9> C 2.666341596458965 -1.5649979755200505 -0.8596269228927175
| 10> O 3.18437691318762 -0.5628278983916103 -0.3967358429825926
| 11> C 1.1771400408788932 -1.7927154149465834 -0.928711261172097
| 12> C 0.43742972424444965 -0.6075290999070228 -0.3277102480308489
| 13> H 0.6057767464679297 0.30206705068477857 -0.9101906714617438
| 14> C 0.8114071696425877 -0.3855206936952823 1.1258827998617837
| 15> O 1.0793179613219974 -1.2815278536954928 1.9065905456392147
| 16> O 0.7604945806522435 0.9082176443946407 1.4411988951122792
| 17> C 0.9750989775284565 1.2501863739147119 2.8511707737419694
| 18> C 0.7664432954860804 2.736403739346143 2.979375002487055
| 19> S -1.3819634778365135 -0.9816273722954078 -0.37345447342694277
| 20> P -2.2342898012938934 0.967503229026968 -0.2881483145436102
| 21> S -1.4401162328730381 2.3119814853101475 -1.4382705927752357
| 22> O -3.7753105478226194 0.5666832366778103 -0.5351491741129862
| 23> C -4.260546099050503 0.31442918503325207 -1.8861546863407603
| 24> O -2.270270284984485 1.4487344034049847 1.2395961272573073
| 25> C -2.684641211029903 0.5662738745642963 2.324646166916627
| 26> H 4.889968148173363 -2.163571684805398 -3.528495875448944
| 27> H 4.907450939171221 -0.670946380209874 -2.5562624589913954
| 28> H 6.348690374024046 -1.7008258389560096 -2.632426114040849
| 29> H 5.140717748626227 -2.0554277270257493 -0.4602822101504364
| 30> H 5.135019797212093 -3.5355846444602337 -1.4518470910692538
| 31> H 0.9442979045736184 -2.726516473996936 -0.4058958066362338
| 32> H 0.8950550125759301 -1.9275722303745593 -1.9778140898200638
| 33> H 0.26108990562497814 0.6786603332969269 3.4513501243046925
| 34> H 1.9917278116130088 0.9494560385412528 3.1205531728706153
| 35> H 0.9233478004562409 3.027612632610402 4.0220425146589935
| 36> H 1.476607907366427 3.288533329549528 2.35739449223673
| 37> H -0.2517085546875586 3.0161454786940056 2.693395054687434
| 38> H -4.195382575799525 1.229772577382289 -2.4787067410714863
| 39> H -5.300526634996958 0.010697829262545774 -1.769395335422714
| 40> H -3.687152329373066 -0.48817153790560064 -2.3576255407805418
| 41> H -2.6825842838282012 1.1894068367674369 3.218816216912112
| 42> H -1.969667991734194 -0.25318214790613963 2.4350918475864676
| 43> H -3.6882635171360922 0.17693405477911495 2.1380140393781915
| 44> *
| 45>
| 46>                          ****END OF INPUT****

CARTESIAN COORDINATES (ANGSTROEM)
---------------------------------
  C      5.254499   -1.706425   -2.604225
  C      4.802240   -2.497783   -1.400184
  O      3.338444   -2.604206   -1.366595
  C      2.666342   -1.564998   -0.859627
  O      3.184377   -0.562828   -0.396736
  C      1.177140   -1.792715   -0.928711
  C      0.437430   -0.607529   -0.327710
  H      0.605777    0.302067   -0.910191
  C      0.811407   -0.385521    1.125883
  O      1.079318   -1.281528    1.906591
  O      0.760495    0.908218    1.441199
  C      0.975099    1.250186    2.851171
  C      0.766443    2.736404    2.979375
  S     -1.381963   -0.981627   -0.373454
  P     -2.234290    0.967503   -0.288148
  S     -1.440116    2.311981   -1.438271
  O     -3.775311    0.566683   -0.535149
  C     -4.260546    0.314429   -1.886155
  O     -2.270270    1.448734    1.239596
  C     -2.684641    0.566274    2.324646
  H      4.889968   -2.163572   -3.528496
  H      4.907451   -0.670946   -2.556262
  H      6.348690   -1.700826   -2.632426
  H      5.140718   -2.055428   -0.460282
  H      5.135020   -3.535585   -1.451847
  H      0.944298   -2.726516   -0.405896
  H      0.895055   -1.927572   -1.977814
  H      0.261090    0.678660    3.451350
  H      1.991728    0.949456    3.120553
  H      0.923348    3.027613    4.022043
  H      1.476608    3.288533    2.357394
  H     -0.251709    3.016145    2.693395
  H     -4.195383    1.229773   -2.478707
  H     -5.300527    0.010698   -1.769395
  H     -3.687152   -0.488172   -2.357626
  H     -2.682584    1.189407    3.218816
  H     -1.969668   -0.253182    2.435092
  H     -3.688264    0.176934    2.138014

 Total Charge           Charge          ....    0
 Multiplicity           Mult            ....    1
 Number of Electrons    NEL             ....  174
 Basis Dimension        Dim             ....  721

ORBITAL ENERGIES
----------------

  NO   OCC          E(Eh)            E(eV)
   0   2.0000     -88.883467     -2418.6421
   1   2.0000     -88.815892     -2416.8033
   2   2.0000     -77.214146     -2101.1037
   3   2.0000     -19.264825      -524.2226
   4   2.0000     -19.261225      -524.1246
   5   2.0000     -19.258868      -524.0604
   6   2.0000     -19.258496      -524.0503
   7   2.0000     -19.205463      -522.6072
   8   2.0000     -19.198046      -522.4054
   9   2.0000     -10.411087      -283.3001
  10   2.0000     -10.405801      -283.1562
  11   2.0000     -10.341020      -281.3934
  12   2.0000     -10.340993      -281.3927
  13   2.0000     -10.337238      -281.2906
  14   2.0000     -10.335160      -281.2340
  15   2.0000     -10.331465      -281.1335
  16   2.0000     -10.303050      -280.3603
  17   2.0000     -10.272349      -279.5248
  18   2.0000     -10.265580      -279.3406
  19   2.0000      -8.062171      -219.3828
  20   2.0000      -7.995876      -217.5788
  21   2.0000      -6.776626      -184.4014
  22   2.0000      -6.017657      -163.7488
  23   2.0000      -6.014746      -163.6696
  24   2.0000      -6.009237      -163.5197
  25   2.0000      -5.951768      -161.9558
  26   2.0000      -5.945588      -161.7877
  27   2.0000      -5.945229      -161.7779
  28   2.0000      -4.931500      -134.1929
  29   2.0000      -4.931013      -134.1797
  30   2.0000      -4.928809      -134.1197
  31   2.0000      -1.243098       -33.8264
  32   2.0000      -1.237541       -33.6752
  33   2.0000      -1.215182       -33.0668
  34   2.0000      -1.173271       -31.9263
  35   2.0000      -1.151393       -31.3310
  36   2.0000      -1.143976       -31.1292
  37   2.0000      -0.979537       -26.6546
  38   2.0000      -0.923903       -25.1407
  39   2.0000      -0.910554       -24.7774
  40   2.0000      -0.901042       -24.5186
  41   2.0000      -0.865684       -23.5565
  42   2.0000      -0.844108       -22.9694
  43   2.0000      -0.824832       -22.4448
  44   2.0000      -0.808954       -22.0127
  45   2.0000      -0.783338       -21.3157
  46   2.0000      -0.744755       -20.2658
  47   2.0000      -0.698850       -19.0167
  48   2.0000      -0.684936       -18.6380
  49   2.0000      -0.673701       -18.3323
  50   2.0000      -0.645083       -17.5536
  51   2.0000      -0.644824       -17.5466
  52   2.0000      -0.639304       -17.3963
  53   2.0000      -0.619158       -16.8481
  54   2.0000      -0.607916       -16.5422
  55   2.0000      -0.606894       -16.5144
  56   2.0000      -0.597937       -16.2707
  57   2.0000      -0.591547       -16.0968
  58   2.0000      -0.585213       -15.9245
  59   2.0000      -0.583231       -15.8705
  60   2.0000      -0.570185       -15.5155
  61   2.0000      -0.565286       -15.3822
  62   2.0000      -0.550274       -14.9737
  63   2.0000      -0.545187       -14.8353
  64   2.0000      -0.535798       -14.5798
  65   2.0000      -0.522417       -14.2157
  66   2.0000      -0.509966       -13.8769
  67   2.0000      -0.507134       -13.7998
  68   2.0000      -0.498411       -13.5624
  69   2.0000      -0.496621       -13.5137
  70   2.0000      -0.486138       -13.2285
  71   2.0000      -0.477481       -12.9929
  72   2.0000      -0.475384       -12.9358
  73   2.0000      -0.468974       -12.7614
  74   2.0000      -0.465453       -12.6656
  75   2.0000      -0.458264       -12.4700
  76   2.0000      -0.455966       -12.4075
  77   2.0000      -0.447082       -12.1657
  78   2.0000      -0.430265       -11.7081
  79   2.0000      -0.417900       -11.3716
  80   2.0000      -0.411807       -11.2058
  81   2.0000      -0.407703       -11.0942
  82   2.0000      -0.398679       -10.8486
  83   2.0000      -0.390946       -10.6382
  84   2.0000      -0.369995       -10.0681
  85   2.0000      -0.342177        -9.3111
  86   2.0000      -0.334810        -9.1106
  87   0.0000       0.054629         1.4865
  88   0.0000       0.083151         2.2626
  89   0.0000       0.091027         2.4770
  90   0.0000       0.105065         2.8590
  91   0.0000       0.112161         3.0521

MULLIKEN ATOMIC CHARGES
-----------------------
   0 C :   -0.359895
   1 C :   -0.025775
   2 O :   -0.240659
   3 C :    0.298412
   4 O :   -0.357255
   5 C :   -0.209418
   6 C :    0.035047
   7 H :    0.151857
   8 C :    0.252242
   9 O :   -0.352940
  10 O :   -0.207763
  11 C :   -0.048341
  12 C :   -0.324642
  13 S :   -0.187983
  14 P :    0.636832
  15 S :   -0.387740
  16 O :   -0.320705
  17 C :   -0.193774
  18 O :   -0.284356
  19 C :   -0.223898
  20 H :    0.114885
  21 H :    0.144489
  22 H :    0.117113
  23 H :    0.123951
  24 H :    0.117340
  25 H :    0.147988
  26 H :    0.148321
  27 H :    0.104566
  28 H :    0.125043
  29 H :    0.110622
  30 H :    0.122948
  31 H :    0.132274
  32 H :    0.147573
  33 H :    0.132787
  34 H :    0.129043
  35 H :    0.136827
  36 H :    0.148683
  37 H :    0.146300
Sum of atomic charges:    0.0000000

LOEWDIN ATOMIC CHARGES
----------------------
   0 C :   -0.304942
   1 C :   -0.278054
   2 O :    0.251827
   3 C :   -0.462115
   4 O :    0.100299
   5 C :   -0.225238
   6 C :   -0.389014
   7 H :    0.154983
   8 C :   -0.506059
   9 O :    0.089982
  10 O :    0.271636
  11 C :   -0.277390
  12 C :   -0.302477
  13 S :    0.404031
  14 P :   -0.035968
  15 S :   -0.096029
  16 O :    0.007588
  17 C :   -0.322913
  18 O :    0.023612
  19 C :   -0.325555
  20 H :    0.120499
  21 H :    0.126197
  22 H :    0.126353
  23 H :    0.130118
  24 H :    0.126094
  25 H :    0.161241
  26 H :    0.156911
  27 H :    0.122996
  28 H :    0.129373
  29 H :    0.123638
  30 H :    0.124829
  31 H :    0.123645
  32 H :    0.109166
  33 H :    0.111267
  34 H :    0.103363
  35 H :    0.112194
  36 H :    0.105565
  37 H :    0.108349

  Mayer bond orders larger than 0.100000
B(  0-C ,  1-C ) :   0.9920 B(  0-C , 20-H ) :   0.9724 B(  0-C , 21-H ) :   0.9761
B(  0-C , 22-H ) :   0.9692 B(  1-C ,  2-O ) :   0.8768 B(  1-C , 23-H ) :   0.9760
B(  1-C , 24-H ) :   0.9684 B(  2-O ,  3-C ) :   1.2516 B(  3-C ,  4-O ) :   1.9966
B(  3-C ,  5-C ) :   1.0098 B(  5-C ,  6-C ) :   0.9911 B(  5-C , 25-H ) :   0.9186
B(  5-C , 26-H ) :   0.9580 B(  6-C ,  7-H ) :   0.9535 B(  6-C ,  8-C ) :   0.9291
B(  6-C , 13-S ) :   0.9084 B(  8-C ,  9-O ) :   2.0428 B(  8-C , 10-O ) :   1.2463
B( 10-O , 11-C ) :   0.8647 B( 11-C , 12-C ) :   0.9980 B( 11-C , 27-H ) :   0.9776
B( 11-C , 28-H ) :   0.9687 B( 12-C , 29-H ) :   0.9733 B( 12-C , 30-H ) :   0.9724
B( 12-C , 31-H ) :   0.9742 B( 13-S , 14-P ) :   1.0509 B( 14-P , 15-S ) :   1.8850
B( 14-P , 16-O ) :   1.1570 B( 14-P , 18-O ) :   1.2092 B( 16-O , 17-C ) :   0.8964
B( 17-C , 32-H ) :   0.9722 B( 17-C , 33-H ) :   0.9710 B( 17-C , 34-H ) :   0.9703
B( 18-O , 19-C ) :   0.8850 B( 19-C , 35-H ) :   0.9731 B( 19-C , 36-H ) :   0.9669
B( 19-C , 37-H ) :   0.9690

FINAL SINGLE POINT ENERGY     -1981.628959966360

DIPOLE MOMENT
-------------

Method             : SCF
Type of density    : Electron Density
Multiplicity       :   1
Irrep              :   0
Energy             : -1981.6567254365597819 Eh
Relativity type    :
Basis              : AO
                                X                 Y                 Z
Electronic contribution:    -13.004518715       1.672304667      -3.699787094
Nuclear contribution   :     12.684841029      -2.592064803       3.695596085
                        -----------------------------------------
Total Dipole Moment    :     -0.319677687      -0.919760136      -0.004191009
                        -----------------------------------------
Magnitude (a.u.)       :      0.973740261
Magnitude (Debye)      :      2.475051048

Rotational constants in cm-1:             0.014008             0.005659             0.004844
Rotational constants in MHz :           419.937078           169.643293           145.230242

                             ****ORCA TERMINATED NORMALLY****
TOTAL RUN TIME: 0 days 0 hours 13 minutes 5 seconds 780 msec
