                         Program Version 6.0.1  -  RELEASE   -
|  1> ! wb97x-v def2-tzvp def2/J RIJCOSX DEFGRID2 scfconv7 GCP(DFT/TZ) printgap
|  2> %output
|  3>     printlevel normal
|  4> end
|  5> %cpcm
|  6>     smd true
|  7>     smdsolvent "water"
|  8> end
|  9> * xyz 0 1
| 10> C 5.254499169125892 -1.7064254044203524 -2.6042253145467638
| 11> C 4.802239540706984 -2.4977828977565806 -1.400184201326976
| 12> O 3.3384441355295156 -2.6042055996546067 -1.3665950144973542
| 13> C 2.666341596458965 -1.5649979755200505 -0.8596269228927175
| 14> O 3.18437691318762 -0.5628278983916103 -0.3967358429825926
| 15> C 1.1771400408788932 -1.7927154149465834 -0.928711261172097
| 16> C 0.43742972424444965 -0.6075290999070228 -0.3277102480308489
| 17> H 0.6057767464679297 0.30206705068477857 -0.9101906714617438
| 18> C 0.8114071696425877 -0.3855206936952823 1.1258827998617837
| 19> O 1.0793179613219974 -1.2815278536954928 1.9065905456392147
| 20> O 0.7604945806522435 0.9082176443946407 1.4411988951122792
| 21> C 0.9750989775284565 1.2501863739147119 2.8511707737419694
| 22> C 0.7664432954860804 2.736403739346143 2.979375002487055
| 23> S -1.3819634778365135 -0.9816273722954078 -0.37345447342694277
| 24> P -2.2342898012938934 0.967503229026968 -0.2881483145436102
| 25> S -1.4401162328730381 2.3119814853101475 -1.4382705927752357
| 26> O -3.7753105478226194 0.5666832366778103 -0.5351491741129862
| 27> C -4.260546099050503 0.31442918503325207 -1.8861546863407603
| 28> O -2.270270284984485 1.4487344034049847 1.2395961272573073
| 29> C -2.684641211029903 0.5662738745642963 2.324646166916627
| 30> H 4.889968148173363 -2.163571684805398 -3.528495875448944
| 31> H 4.907450939171221 -0.670946380209874 -2.5562624589913954
| 32> H 6.348690374024046 -1.7008258389560096 -2.632426114040849
| 33> H 5.140717748626227 -2.0554277270257493 -0.4602822101504364
| 34> H 5.135019797212093 -3.5355846444602337 -1.4518470910692538
| 35> H 0.9442979045736184 -2.726516473996936 -0.4058958066362338
| 36> H 0.8950550125759301 -1.9275722303745593 -1.9778140898200638
| 37> H 0.26108990562497814 0.6786603332969269 3.4513501243046925
| 38> H 1.9917278116130088 0.9494560385412528 3.1205531728706153
| 39> H 0.9233478004562409 3.027612632610402 4.0220425146589935
| 40> H 1.476607907366427 3.288533329549528 2.35739449223673
| 41> H -0.2517085546875586 3.0161454786940056 2.693395054687434
| 42> H -4.195382575799525 1.229772577382289 -2.4787067410714863
| 43> H -5.300526634996958 0.010697829262545774 -1.769395335422714
| 44> H -3.687152329373066 -0.48817153790560064 -2.3576255407805418
| 45> H -2.6825842838282012 1.1894068367674369 3.218816216912112
| 46> H -1.969667991734194 -0.25318214790613963 2.4350918475864676
| 47> H -3.6882635171360922 0.17693405477911495 2.1380140393781915
| 48> *
| 49>
| 50>                          ****END OF INPUT****

CARTESIAN COORDINATES (ANGSTROEM)
---------------------------------
  C      5.254499   -1.706425   -2.604225
  C      4.802240   -2.497783   -1.400184
  O      3.338444   -2.604206   -1.366595
  C      2.666342   -1.564998   -0.859627
  O      3.184377   -0.562828   -0.396736
  C      1.177140   -1.792715   -0.928711
  C      0.437430   -0.607529   -0.327710
  H      0.605777    0.302067   -0.910191
  C      0.811407   -0.385521    1.125883
  O      1.079318   -1.281528    1.906591
  O      0.760495    0.908218    1.441199
  C      0.975099    1.250186    2.851171
  C      0.766443    2.736404    2.979375
  S     -1.381963   -0.981627   -0.373454
  P     -2.234290    0.967503   -0.288148
  S     -1.440116    2.311981   -1.438271
  O     -3.775311    0.566683   -0.535149
  C     -4.260546    0.314429   -1.886155
  O     -2.270270    1.448734    1.239596
  C     -2.684641    0.566274    2.324646
  H      4.889968   -2.163572   -3.528496
  H      4.907451   -0.670946   -2.556262
  H      6.348690   -1.700826   -2.632426
  H      5.140718   -2.055428   -0.460282
  H      5.135020   -3.535585   -1.451847
  H      0.944298   -2.726516   -0.405896
  H      0.895055   -1.927572   -1.977814
  H      0.261090    0.678660    3.451350
  H      1.991728    0.949456    3.120553
  H      0.923348    3.027613    4.022043
  H      1.476608    3.288533    2.357394
  H     -0.251709    3.016145    2.693395
  H     -4.195383    1.229773   -2.478707
  H     -5.300527    0.010698   -1.769395
  H     -3.687152   -0.488172   -2.357626
  H     -2.682584    1.189407    3.218816
  H     -1.969668   -0.253182    2.435092
  H     -3.688264    0.176934    2.138014

 Total Charge           Charge          ....    0
 Multiplicity           Mult            ....    1
 Number of Electrons    NEL             ....  174
 Basis Dimension        Dim             ....  721

ORBITAL ENERGIES
----------------

  NO   OCC          E(Eh)            E(eV)
   0   2.0000     -88.888131     -2418.7690
   1   2.0000     -88.828551     -2417.1477
   2   2.0000     -77.220994     -2101.2901
   3   2.0000     -19.270808      -524.3853
   4   2.0000     -19.267503      -524.2954
   5   2.0000     -19.261616      -524.1352
   6   2.0000     -19.261190      -524.1236
   7   2.0000     -19.217006      -522.9213
   8   2.0000     -19.216488      -522.9072
   9   2.0000     -10.421816      -283.5920
  10   2.0000     -10.419712      -283.5348
  11   2.0000     -10.339166      -281.3430
  12   2.0000     -10.327131      -281.0155
  13   2.0000     -10.326466      -280.9974
  14   2.0000     -10.326082      -280.9870
  15   2.0000     -10.325712      -280.9769
  16   2.0000     -10.298736      -280.2428
  17   2.0000     -10.259362      -279.1714
  18   2.0000     -10.258728      -279.1542
  19   2.0000      -8.066676      -219.5054
  20   2.0000      -8.008962      -217.9349
  21   2.0000      -6.783535      -184.5894
  22   2.0000      -6.022227      -163.8731
  23   2.0000      -6.019295      -163.7933
  24   2.0000      -6.013639      -163.6394
  25   2.0000      -5.964738      -162.3088
  26   2.0000      -5.958685      -162.1441
  27   2.0000      -5.958383      -162.1359
  28   2.0000      -4.938348      -134.3793
  29   2.0000      -4.937851      -134.3658
  30   2.0000      -4.935904      -134.3128
  31   2.0000      -1.252144       -34.0726
  32   2.0000      -1.246717       -33.9249
  33   2.0000      -1.216355       -33.0987
  34   2.0000      -1.173574       -31.9346
  35   2.0000      -1.162657       -31.6375
  36   2.0000      -1.159043       -31.5392
  37   2.0000      -0.982620       -26.7384
  38   2.0000      -0.919634       -25.0245
  39   2.0000      -0.909844       -24.7581
  40   2.0000      -0.898051       -24.4372
  41   2.0000      -0.863125       -23.4868
  42   2.0000      -0.835746       -22.7418
  43   2.0000      -0.823587       -22.4110
  44   2.0000      -0.811899       -22.0929
  45   2.0000      -0.778275       -21.1779
  46   2.0000      -0.742047       -20.1921
  47   2.0000      -0.699470       -19.0336
  48   2.0000      -0.683323       -18.5942
  49   2.0000      -0.675880       -18.3916
  50   2.0000      -0.650465       -17.7001
  51   2.0000      -0.645656       -17.5692
  52   2.0000      -0.636154       -17.3106
  53   2.0000      -0.621353       -16.9079
  54   2.0000      -0.616380       -16.7725
  55   2.0000      -0.605245       -16.4696
  56   2.0000      -0.601581       -16.3698
  57   2.0000      -0.595391       -16.2014
  58   2.0000      -0.590458       -16.0672
  59   2.0000      -0.575961       -15.6727
  60   2.0000      -0.564570       -15.3627
  61   2.0000      -0.554923       -15.1002
  62   2.0000      -0.550689       -14.9850
  63   2.0000      -0.543749       -14.7962
  64   2.0000      -0.536240       -14.5918
  65   2.0000      -0.519940       -14.1483
  66   2.0000      -0.508348       -13.8329
  67   2.0000      -0.505035       -13.7427
  68   2.0000      -0.494006       -13.4426
  69   2.0000      -0.493644       -13.4327
  70   2.0000      -0.482802       -13.1377
  71   2.0000      -0.475399       -12.9363
  72   2.0000      -0.472301       -12.8520
  73   2.0000      -0.467895       -12.7321
  74   2.0000      -0.466235       -12.6869
  75   2.0000      -0.462232       -12.5780
  76   2.0000      -0.451072       -12.2743
  77   2.0000      -0.447094       -12.1660
  78   2.0000      -0.429747       -11.6940
  79   2.0000      -0.422313       -11.4917
  80   2.0000      -0.417598       -11.3634
  81   2.0000      -0.414554       -11.2806
  82   2.0000      -0.414293       -11.2735
  83   2.0000      -0.401971       -10.9382
  84   2.0000      -0.379174       -10.3179
  85   2.0000      -0.356266        -9.6945
  86   2.0000      -0.348062        -9.4712
  87   0.0000       0.047556         1.2941
  88   0.0000       0.075080         2.0430
  89   0.0000       0.085820         2.3353
  90   0.0000       0.103841         2.8257
  91   0.0000       0.113627         3.0919

MULLIKEN ATOMIC CHARGES
-----------------------
   0 C :   -0.390181
   1 C :   -0.036479
   2 O :   -0.264317
   3 C :    0.366346
   4 O :   -0.453455
   5 C :   -0.224622
   6 C :    0.029803
   7 H :    0.161132
   8 C :    0.310010
   9 O :   -0.447917
  10 O :   -0.240537
  11 C :   -0.055120
  12 C :   -0.380098
  13 S :   -0.174056
  14 P :    0.649620
  15 S :   -0.446455
  16 O :   -0.336740
  17 C :   -0.211838
  18 O :   -0.324627
  19 C :   -0.226040
  20 H :    0.131788
  21 H :    0.138644
  22 H :    0.142284
  23 H :    0.132960
  24 H :    0.144868
  25 H :    0.176063
  26 H :    0.182693
  27 H :    0.141068
  28 H :    0.144032
  29 H :    0.140695
  30 H :    0.134122
  31 H :    0.133640
  32 H :    0.153469
  33 H :    0.163029
  34 H :    0.150070
  35 H :    0.164400
  36 H :    0.155188
  37 H :    0.166557
Sum of atomic charges:    0.0000000

LOEWDIN ATOMIC CHARGES
----------------------
   0 C :   -0.306781
   1 C :   -0.272771
   2 O :    0.248616
   3 C :   -0.445764
   4 O :    0.050429
   5 C :   -0.216418
   6 C :   -0.389876
   7 H :    0.156924
   8 C :   -0.496565
   9 O :    0.043645
  10 O :    0.262036
  11 C :   -0.272675
  12 C :   -0.305666
  13 S :    0.416277
  14 P :   -0.033424
  15 S :   -0.140471
  16 O :    0.002501
  17 C :   -0.316365
  18 O :    0.006678
  19 C :   -0.314097
  20 H :    0.124722
  21 H :    0.123328
  22 H :    0.133190
  23 H :    0.131731
  24 H :    0.135227
  25 H :    0.168432
  26 H :    0.170963
  27 H :    0.133305
  28 H :    0.133555
  29 H :    0.133345
  30 H :    0.125073
  31 H :    0.122120
  32 H :    0.111160
  33 H :    0.121409
  34 H :    0.109775
  35 H :    0.121991
  36 H :    0.109907
  37 H :    0.114532

  Mayer bond orders larger than 0.100000
B(  0-C ,  1-C ) :   0.9927 B(  0-C , 20-H ) :   0.9689 B(  0-C , 21-H ) :   0.9750
B(  0-C , 22-H ) :   0.9654 B(  1-C ,  2-O ) :   0.8502 B(  1-C , 23-H ) :   0.9750
B(  1-C , 24-H ) :   0.9627 B(  2-O ,  3-C ) :   1.2689 B(  3-C ,  4-O ) :   1.8974
B(  3-C ,  5-C ) :   1.0173 B(  5-C ,  6-C ) :   0.9998 B(  5-C , 25-H ) :   0.9225
B(  5-C , 26-H ) :   0.9359 B(  6-C ,  7-H ) :   0.9498 B(  6-C ,  8-C ) :   0.9294
B(  6-C , 13-S ) :   0.9140 B(  8-C ,  9-O ) :   1.9403 B(  8-C , 10-O ) :   1.2675
B( 10-O , 11-C ) :   0.8345 B( 11-C , 12-C ) :   1.0064 B( 11-C , 27-H ) :   0.9692
B( 11-C , 28-H ) :   0.9600 B( 12-C , 29-H ) :   0.9700 B( 12-C , 30-H ) :   0.9700
B( 12-C , 31-H ) :   0.9728 B( 13-S , 14-P ) :   1.0647 B( 14-P , 15-S ) :   1.8463
B( 14-P , 16-O ) :   1.1745 B( 14-P , 18-O ) :   1.2173 B( 16-O , 17-C ) :   0.8669
B( 17-C , 32-H ) :   0.9699 B( 17-C , 33-H ) :   0.9651 B( 17-C , 34-H ) :   0.9662
B( 18-O , 19-C ) :   0.8503 B( 19-C , 35-H ) :   0.9662 B( 19-C , 36-H ) :   0.9665
B( 19-C , 37-H ) :   0.9642

FINAL SINGLE POINT ENERGY     -1981.647997853120

DIPOLE MOMENT
-------------

Method             : SCF
Type of density    : Electron Density
Multiplicity       :   1
Irrep              :   0
Energy             : -1981.6757633233198703 Eh
Relativity type    :
Basis              : AO
                                X                 Y                 Z
Electronic contribution:    -13.323689009       1.123408534      -3.748101346
Nuclear contribution   :     12.684841029      -2.592064803       3.695596085
                        -----------------------------------------
Total Dipole Moment    :     -0.638847980      -1.468656269      -0.052505261
                        -----------------------------------------
Magnitude (a.u.)       :      1.602446499
Magnitude (Debye)      :      4.073095306

Rotational constants in cm-1:             0.014008             0.005659             0.004844
Rotational constants in MHz :           419.937078           169.643293           145.230242

                             ****ORCA TERMINATED NORMALLY****
TOTAL RUN TIME: 0 days 0 hours 14 minutes 33 seconds 9 msec
