                         Program Version 6.0.0  -   RELEASE  -
|  1> ! r2scan-3c def2/J RI DEFGRID2 scfconv6 printgap
|  2> %output
|  3>     printlevel normal
|  4> end
|  5> * xyz 0 1
|  6> C 4.5948172124 -2.2444673119 0.0291194999
|  7> C 4.8372367569 -0.7493286496 -0.0010623247
|  8> O 3.6928629578 -0.0084232719 0.4591605363
|  9> P 2.3284533046 0.0507224004 -0.3563953445
| 10> S 2.555774806 0.1848783572 -2.3032381507
| 11> O 1.6080406198 1.270708308 0.3593984812
| 12> C 1.8050038149 2.6366562463 -0.0693717932
| 13> C 0.6124625871 3.4552909403 0.3809576444
| 14> S 1.1730423782 -1.5336350259 0.4005331043
| 15> C -0.0855708532 -1.5379081962 -0.9144533999
| 16> S -0.8763362093 0.0725267713 -1.1747501179
| 17> P -2.3507223739 -0.0421129575 0.3640427529
| 18> S -3.3918502279 1.601185322 0.5710983073
| 19> O -1.5815034176 -0.6045563948 1.6304929876
| 20> C -0.8748696595 0.2580064567 2.5425349394
| 21> C -1.759577468 0.6271838621 3.7163074496
| 22> O -3.1577303891 -1.3733479563 0.0631636473
| 23> C -4.36891117 -1.3564104744 -0.7125909488
| 24> C -4.1008504156 -1.0944608199 -2.1816143592
| 25> H 3.8369753157 -2.5124934381 -0.7059168747
| 26> H 5.5172714274 -2.7630164459 -0.2116150968
| 27> H 4.2524445154 -2.5523678097 1.0138794018
| 28> H 5.076147876 -0.4181515835 -1.0166729183
| 29> H 5.6328861473 -0.4541725274 0.6841523143
| 30> H 2.7315303926 2.9999813145 0.3810805066
| 31> H 1.905191074 2.6472890861 -1.1601209282
| 32> H -0.305046475 3.0607466421 -0.051607438
| 33> H 0.5291080107 3.4365221904 1.4642463382
| 34> H 0.7416589593 4.4810201691 0.0513374703
| 35> H -0.8319079362 -2.2745091144 -0.6254390062
| 36> H 0.3885430807 -1.7934591672 -1.8605813456
| 37> H -0.0079935622 -0.3248082954 2.8619990867
| 38> H -0.532882497 1.1518450646 2.0123652608
| 39> H -1.1862929727 1.2131281873 4.427457567
| 40> H -2.6098563042 1.2137302508 3.3746556436
| 41> H -2.1254194241 -0.2732062102 4.2013473257
| 42> H -4.7988232557 -2.3458962959 -0.5506823559
| 43> H -5.0346684861 -0.5903445999 -0.3027029538
| 44> H -3.3921428605 -1.8177276964 -2.5768533657
| 45> H -5.0322698362 -1.1674826533 -2.7338963548
| 46> H -3.69144206 -0.0930760054 -2.31232855
| 47> *
| 48>
| 49>                          ****END OF INPUT****

CARTESIAN COORDINATES (ANGSTROEM)
---------------------------------
  C      4.594817   -2.244467    0.029119
  C      4.837237   -0.749329   -0.001062
  O      3.692863   -0.008423    0.459161
  P      2.328453    0.050722   -0.356395
  S      2.555775    0.184878   -2.303238
  O      1.608041    1.270708    0.359398
  C      1.805004    2.636656   -0.069372
  C      0.612463    3.455291    0.380958
  S      1.173042   -1.533635    0.400533
  C     -0.085571   -1.537908   -0.914453
  S     -0.876336    0.072527   -1.174750
  P     -2.350722   -0.042113    0.364043
  S     -3.391850    1.601185    0.571098
  O     -1.581503   -0.604556    1.630493
  C     -0.874870    0.258006    2.542535
  C     -1.759577    0.627184    3.716307
  O     -3.157730   -1.373348    0.063164
  C     -4.368911   -1.356410   -0.712591
  C     -4.100850   -1.094461   -2.181614
  H      3.836975   -2.512493   -0.705917
  H      5.517271   -2.763016   -0.211615
  H      4.252445   -2.552368    1.013879
  H      5.076148   -0.418152   -1.016673
  H      5.632886   -0.454173    0.684152
  H      2.731530    2.999981    0.381081
  H      1.905191    2.647289   -1.160121
  H     -0.305046    3.060747   -0.051607
  H      0.529108    3.436522    1.464246
  H      0.741659    4.481020    0.051337
  H     -0.831908   -2.274509   -0.625439
  H      0.388543   -1.793459   -1.860581
  H     -0.007994   -0.324808    2.861999
  H     -0.532882    1.151845    2.012365
  H     -1.186293    1.213128    4.427458
  H     -2.609856    1.213730    3.374656
  H     -2.125419   -0.273206    4.201347
  H     -4.798823   -2.345896   -0.550682
  H     -5.034668   -0.590345   -0.302703
  H     -3.392143   -1.817728   -2.576853
  H     -5.032270   -1.167483   -2.733896
  H     -3.691442   -0.093076   -2.312329

 Total Charge           Charge          ....    0
 Multiplicity           Mult            ....    1
 Number of Electrons    NEL             ....  202
 Basis Dimension        Dim             ....  539

ORBITAL ENERGIES
----------------

  NO   OCC          E(Eh)            E(eV)
   0   2.0000     -88.578725     -2410.3497
   1   2.0000     -88.573680     -2410.2124
   2   2.0000     -88.524162     -2408.8649
   3   2.0000     -88.523660     -2408.8512
   4   2.0000     -76.916482     -2093.0039
   5   2.0000     -76.914019     -2092.9369
   6   2.0000     -18.995223      -516.8863
   7   2.0000     -18.992049      -516.7999
   8   2.0000     -18.988965      -516.7160
   9   2.0000     -18.988592      -516.7059
  10   2.0000     -10.111292      -275.1422
  11   2.0000     -10.100590      -274.8510
  12   2.0000     -10.099328      -274.8167
  13   2.0000     -10.095016      -274.6993
  14   2.0000     -10.093072      -274.6465
  15   2.0000     -10.031420      -272.9688
  16   2.0000     -10.028689      -272.8945
  17   2.0000     -10.026718      -272.8409
  18   2.0000     -10.021659      -272.7032
  19   2.0000      -7.873338      -214.2444
  20   2.0000      -7.867602      -214.0883
  21   2.0000      -7.818822      -212.7610
  22   2.0000      -7.818312      -212.7471
  23   2.0000      -6.595012      -179.4594
  24   2.0000      -6.592428      -179.3891
  25   2.0000      -5.820260      -158.3773
  26   2.0000      -5.817220      -158.2946
  27   2.0000      -5.814867      -158.2306
  28   2.0000      -5.811170      -158.1300
  29   2.0000      -5.810333      -158.1072
  30   2.0000      -5.804676      -157.9533
  31   2.0000      -5.766386      -156.9113
  32   2.0000      -5.765899      -156.8981
  33   2.0000      -5.759124      -156.7137
  34   2.0000      -5.758910      -156.7079
  35   2.0000      -5.758677      -156.7016
  36   2.0000      -5.758326      -156.6920
  37   2.0000      -4.740436      -128.9938
  38   2.0000      -4.739900      -128.9792
  39   2.0000      -4.738848      -128.9506
  40   2.0000      -4.737730      -128.9202
  41   2.0000      -4.737676      -128.9187
  42   2.0000      -4.736063      -128.8748
  43   2.0000      -1.052325       -28.6352
  44   2.0000      -1.050469       -28.5847
  45   2.0000      -1.010623       -27.5005
  46   2.0000      -1.010045       -27.4847
  47   2.0000      -0.803191       -21.8559
  48   2.0000      -0.758886       -20.6503
  49   2.0000      -0.749661       -20.3993
  50   2.0000      -0.731621       -19.9084
  51   2.0000      -0.725985       -19.7551
  52   2.0000      -0.712086       -19.3768
  53   2.0000      -0.690884       -18.7999
  54   2.0000      -0.671031       -18.2597
  55   2.0000      -0.631500       -17.1840
  56   2.0000      -0.626674       -17.0527
  57   2.0000      -0.606201       -16.4956
  58   2.0000      -0.597494       -16.2586
  59   2.0000      -0.590506       -16.0685
  60   2.0000      -0.530687       -14.4407
  61   2.0000      -0.522173       -14.2090
  62   2.0000      -0.494474       -13.4553
  63   2.0000      -0.490647       -13.3512
  64   2.0000      -0.477911       -13.0046
  65   2.0000      -0.463153       -12.6030
  66   2.0000      -0.460976       -12.5438
  67   2.0000      -0.448360       -12.2005
  68   2.0000      -0.441005       -12.0004
  69   2.0000      -0.439467       -11.9585
  70   2.0000      -0.427069       -11.6211
  71   2.0000      -0.413984       -11.2651
  72   2.0000      -0.412425       -11.2226
  73   2.0000      -0.404393       -11.0041
  74   2.0000      -0.401562       -10.9271
  75   2.0000      -0.392708       -10.6861
  76   2.0000      -0.379150       -10.3172
  77   2.0000      -0.374440       -10.1890
  78   2.0000      -0.371458       -10.1079
  79   2.0000      -0.366613        -9.9761
  80   2.0000      -0.361357        -9.8330
  81   2.0000      -0.358206        -9.7473
  82   2.0000      -0.351060        -9.5528
  83   2.0000      -0.349567        -9.5122
  84   2.0000      -0.344244        -9.3674
  85   2.0000      -0.340047        -9.2532
  86   2.0000      -0.329388        -8.9631
  87   2.0000      -0.314445        -8.5565
  88   2.0000      -0.311401        -8.4737
  89   2.0000      -0.304588        -8.2883
  90   2.0000      -0.301534        -8.2051
  91   2.0000      -0.289579        -7.8799
  92   2.0000      -0.283426        -7.7124
  93   2.0000      -0.282045        -7.6748
  94   2.0000      -0.272011        -7.4018
  95   2.0000      -0.245798        -6.6885
  96   2.0000      -0.233023        -6.3409
  97   2.0000      -0.223620        -6.0850
  98   2.0000      -0.221153        -6.0179
  99   2.0000      -0.219347        -5.9687
 100   2.0000      -0.216226        -5.8838
 101   0.0000      -0.048009        -1.3064
 102   0.0000      -0.022205        -0.6042
 103   0.0000      -0.010937        -0.2976
 104   0.0000      -0.000540        -0.0147
 105   0.0000       0.004744         0.1291

MULLIKEN ATOMIC CHARGES
-----------------------
   0 C :   -0.452860
   1 C :   -0.149612
   2 O :   -0.309249
   3 P :    0.682838
   4 S :   -0.476383
   5 O :   -0.258689
   6 C :   -0.128280
   7 C :   -0.479422
   8 S :   -0.109001
   9 C :   -0.237887
  10 S :   -0.132157
  11 P :    0.695321
  12 S :   -0.457294
  13 O :   -0.306999
  14 C :   -0.104823
  15 C :   -0.477152
  16 O :   -0.315181
  17 C :   -0.158621
  18 C :   -0.430046
  19 H :    0.175931
  20 H :    0.148814
  21 H :    0.155531
  22 H :    0.173768
  23 H :    0.148275
  24 H :    0.147550
  25 H :    0.169204
  26 H :    0.183297
  27 H :    0.151827
  28 H :    0.146851
  29 H :    0.195825
  30 H :    0.214491
  31 H :    0.160386
  32 H :    0.166937
  33 H :    0.144160
  34 H :    0.178110
  35 H :    0.152211
  36 H :    0.149208
  37 H :    0.172387
  38 H :    0.149002
  39 H :    0.147464
  40 H :    0.174268
Sum of atomic charges:   -0.0000000

LOEWDIN ATOMIC CHARGES
----------------------
   0 C :   -0.406782
   1 C :    0.019623
   2 O :   -0.659096
   3 P :    0.370418
   4 S :   -0.125797
   5 O :   -0.686898
   6 C :    0.020768
   7 C :   -0.394593
   8 S :    0.183994
   9 C :   -0.409792
  10 S :    0.170889
  11 P :    0.372180
  12 S :   -0.110762
  13 O :   -0.667947
  14 C :    0.013317
  15 C :   -0.400004
  16 O :   -0.666428
  17 C :    0.021847
  18 C :   -0.403718
  19 H :    0.164982
  20 H :    0.159685
  21 H :    0.160037
  22 H :    0.180040
  23 H :    0.179657
  24 H :    0.171040
  25 H :    0.182496
  26 H :    0.168951
  27 H :    0.156495
  28 H :    0.160224
  29 H :    0.191142
  30 H :    0.189883
  31 H :    0.182370
  32 H :    0.183850
  33 H :    0.157820
  34 H :    0.167656
  35 H :    0.159139
  36 H :    0.179571
  37 H :    0.180336
  38 H :    0.157756
  39 H :    0.159298
  40 H :    0.166352

  Mayer bond orders larger than 0.100000
B(  0-C ,  1-C ) :   0.9205 B(  0-C , 19-H ) :   0.9630 B(  0-C , 20-H ) :   0.9588
B(  0-C , 21-H ) :   0.9682 B(  1-C ,  2-O ) :   0.8155 B(  1-C , 22-H ) :   0.9683
B(  1-C , 23-H ) :   0.9583 B(  2-O ,  3-P ) :   1.0651 B(  3-P ,  4-S ) :   1.7409
B(  3-P ,  5-O ) :   1.1600 B(  3-P ,  8-S ) :   1.1059 B(  5-O ,  6-C ) :   0.7833
B(  6-C ,  7-C ) :   0.9438 B(  6-C , 24-H ) :   0.9441 B(  6-C , 25-H ) :   0.9539
B(  7-C , 26-H ) :   0.9659 B(  7-C , 27-H ) :   0.9735 B(  7-C , 28-H ) :   0.9611
B(  8-S ,  9-C ) :   0.8980 B(  9-C , 10-S ) :   0.9025 B(  9-C , 29-H ) :   0.9183
B(  9-C , 30-H ) :   0.9161 B( 10-S , 11-P ) :   1.0563 B( 11-P , 12-S ) :   1.7893
B( 11-P , 13-O ) :   1.1060 B( 11-P , 16-O ) :   1.0957 B( 13-O , 14-C ) :   0.7466
B( 14-C , 15-C ) :   0.9416 B( 14-C , 31-H ) :   0.9574 B( 14-C , 32-H ) :   0.9577
B( 15-C , 33-H ) :   0.9658 B( 15-C , 34-H ) :   0.9603 B( 15-C , 35-H ) :   0.9783
B( 16-O , 17-C ) :   0.8125 B( 17-C , 18-C ) :   0.9280 B( 17-C , 36-H ) :   0.9598
B( 17-C , 37-H ) :   0.9658 B( 18-C , 38-H ) :   0.9688 B( 18-C , 39-H ) :   0.9608
B( 18-C , 40-H ) :   0.9616

Dispersion correction           -0.021887262
FINAL SINGLE POINT ENERGY     -2932.464738803637

DIPOLE MOMENT
-------------

Method             : SCF
Type of density    : Electron Density
Multiplicity       :   1
Irrep              :   0
Energy             : -2932.4892688269678729 Eh
Relativity type    :
Basis              : AO
                                X                 Y                 Z
Electronic contribution:     -0.443524993      -1.434689449      -5.582867760
Nuclear contribution   :      1.041116341       0.744934850       6.073548132
                        -----------------------------------------
Total Dipole Moment    :      0.597591348      -0.689754599       0.490680372
                        -----------------------------------------
Magnitude (a.u.)       :      1.036167966
Magnitude (Debye)      :      2.633729664

Rotational constants in cm-1:             0.012395             0.005040             0.004734
Rotational constants in MHz :           371.590183           151.086084           141.924031

                             ****ORCA TERMINATED NORMALLY****
TOTAL RUN TIME: 0 days 0 hours 1 minutes 22 seconds 70 msec
