                         Program Version 6.0.0  -   RELEASE  -
|  1> ! r2scan-3c def2/J RI DEFGRID2 scfconv6 printgap
|  2> %output
|  3>     printlevel normal
|  4> end
|  5> %cpcm
|  6>     smd true
|  7>     smdsolvent "water"
|  8> end
|  9> * xyz 0 1
| 10> C 4.5948172124 -2.2444673119 0.0291194999
| 11> C 4.8372367569 -0.7493286496 -0.0010623247
| 12> O 3.6928629578 -0.0084232719 0.4591605363
| 13> P 2.3284533046 0.0507224004 -0.3563953445
| 14> S 2.555774806 0.1848783572 -2.3032381507
| 15> O 1.6080406198 1.270708308 0.3593984812
| 16> C 1.8050038149 2.6366562463 -0.0693717932
| 17> C 0.6124625871 3.4552909403 0.3809576444
| 18> S 1.1730423782 -1.5336350259 0.4005331043
| 19> C -0.0855708532 -1.5379081962 -0.9144533999
| 20> S -0.8763362093 0.0725267713 -1.1747501179
| 21> P -2.3507223739 -0.0421129575 0.3640427529
| 22> S -3.3918502279 1.601185322 0.5710983073
| 23> O -1.5815034176 -0.6045563948 1.6304929876
| 24> C -0.8748696595 0.2580064567 2.5425349394
| 25> C -1.759577468 0.6271838621 3.7163074496
| 26> O -3.1577303891 -1.3733479563 0.0631636473
| 27> C -4.36891117 -1.3564104744 -0.7125909488
| 28> C -4.1008504156 -1.0944608199 -2.1816143592
| 29> H 3.8369753157 -2.5124934381 -0.7059168747
| 30> H 5.5172714274 -2.7630164459 -0.2116150968
| 31> H 4.2524445154 -2.5523678097 1.0138794018
| 32> H 5.076147876 -0.4181515835 -1.0166729183
| 33> H 5.6328861473 -0.4541725274 0.6841523143
| 34> H 2.7315303926 2.9999813145 0.3810805066
| 35> H 1.905191074 2.6472890861 -1.1601209282
| 36> H -0.305046475 3.0607466421 -0.051607438
| 37> H 0.5291080107 3.4365221904 1.4642463382
| 38> H 0.7416589593 4.4810201691 0.0513374703
| 39> H -0.8319079362 -2.2745091144 -0.6254390062
| 40> H 0.3885430807 -1.7934591672 -1.8605813456
| 41> H -0.0079935622 -0.3248082954 2.8619990867
| 42> H -0.532882497 1.1518450646 2.0123652608
| 43> H -1.1862929727 1.2131281873 4.427457567
| 44> H -2.6098563042 1.2137302508 3.3746556436
| 45> H -2.1254194241 -0.2732062102 4.2013473257
| 46> H -4.7988232557 -2.3458962959 -0.5506823559
| 47> H -5.0346684861 -0.5903445999 -0.3027029538
| 48> H -3.3921428605 -1.8177276964 -2.5768533657
| 49> H -5.0322698362 -1.1674826533 -2.7338963548
| 50> H -3.69144206 -0.0930760054 -2.31232855
| 51> *
| 52>
| 53>                          ****END OF INPUT****

CARTESIAN COORDINATES (ANGSTROEM)
---------------------------------
  C      4.594817   -2.244467    0.029119
  C      4.837237   -0.749329   -0.001062
  O      3.692863   -0.008423    0.459161
  P      2.328453    0.050722   -0.356395
  S      2.555775    0.184878   -2.303238
  O      1.608041    1.270708    0.359398
  C      1.805004    2.636656   -0.069372
  C      0.612463    3.455291    0.380958
  S      1.173042   -1.533635    0.400533
  C     -0.085571   -1.537908   -0.914453
  S     -0.876336    0.072527   -1.174750
  P     -2.350722   -0.042113    0.364043
  S     -3.391850    1.601185    0.571098
  O     -1.581503   -0.604556    1.630493
  C     -0.874870    0.258006    2.542535
  C     -1.759577    0.627184    3.716307
  O     -3.157730   -1.373348    0.063164
  C     -4.368911   -1.356410   -0.712591
  C     -4.100850   -1.094461   -2.181614
  H      3.836975   -2.512493   -0.705917
  H      5.517271   -2.763016   -0.211615
  H      4.252445   -2.552368    1.013879
  H      5.076148   -0.418152   -1.016673
  H      5.632886   -0.454173    0.684152
  H      2.731530    2.999981    0.381081
  H      1.905191    2.647289   -1.160121
  H     -0.305046    3.060747   -0.051607
  H      0.529108    3.436522    1.464246
  H      0.741659    4.481020    0.051337
  H     -0.831908   -2.274509   -0.625439
  H      0.388543   -1.793459   -1.860581
  H     -0.007994   -0.324808    2.861999
  H     -0.532882    1.151845    2.012365
  H     -1.186293    1.213128    4.427458
  H     -2.609856    1.213730    3.374656
  H     -2.125419   -0.273206    4.201347
  H     -4.798823   -2.345896   -0.550682
  H     -5.034668   -0.590345   -0.302703
  H     -3.392143   -1.817728   -2.576853
  H     -5.032270   -1.167483   -2.733896
  H     -3.691442   -0.093076   -2.312329

 Total Charge           Charge          ....    0
 Multiplicity           Mult            ....    1
 Number of Electrons    NEL             ....  202
 Basis Dimension        Dim             ....  539

ORBITAL ENERGIES
----------------

  NO   OCC          E(Eh)            E(eV)
   0   2.0000     -88.578739     -2410.3500
   1   2.0000     -88.575871     -2410.2720
   2   2.0000     -88.531337     -2409.0602
   3   2.0000     -88.528901     -2408.9939
   4   2.0000     -76.919218     -2093.0783
   5   2.0000     -76.918734     -2093.0652
   6   2.0000     -18.995221      -516.8862
   7   2.0000     -18.993927      -516.8510
   8   2.0000     -18.993664      -516.8439
   9   2.0000     -18.989552      -516.7320
  10   2.0000     -10.106436      -275.0101
  11   2.0000     -10.089999      -274.5628
  12   2.0000     -10.089293      -274.5436
  13   2.0000     -10.089099      -274.5383
  14   2.0000     -10.087751      -274.5017
  15   2.0000     -10.018672      -272.6219
  16   2.0000     -10.018182      -272.6086
  17   2.0000     -10.018126      -272.6071
  18   2.0000     -10.016041      -272.5503
  19   2.0000      -7.873297      -214.2433
  20   2.0000      -7.869878      -214.1503
  21   2.0000      -7.826314      -212.9648
  22   2.0000      -7.823865      -212.8982
  23   2.0000      -6.597688      -179.5322
  24   2.0000      -6.597324      -179.5223
  25   2.0000      -5.820232      -158.3766
  26   2.0000      -5.817176      -158.2934
  27   2.0000      -5.817117      -158.2918
  28   2.0000      -5.813435      -158.1916
  29   2.0000      -5.810299      -158.1063
  30   2.0000      -5.806990      -158.0162
  31   2.0000      -5.773821      -157.1137
  32   2.0000      -5.771357      -157.0466
  33   2.0000      -5.766625      -156.9179
  34   2.0000      -5.766399      -156.9117
  35   2.0000      -5.764159      -156.8507
  36   2.0000      -5.763976      -156.8458
  37   2.0000      -4.742967      -129.0627
  38   2.0000      -4.742928      -129.0616
  39   2.0000      -4.742723      -129.0560
  40   2.0000      -4.742205      -129.0420
  41   2.0000      -4.741375      -129.0194
  42   2.0000      -4.741218      -129.0151
  43   2.0000      -1.055315       -28.7166
  44   2.0000      -1.050667       -28.5901
  45   2.0000      -1.012526       -27.5522
  46   2.0000      -1.010258       -27.4905
  47   2.0000      -0.801847       -21.8194
  48   2.0000      -0.755909       -20.5693
  49   2.0000      -0.744206       -20.2509
  50   2.0000      -0.722444       -19.6587
  51   2.0000      -0.719363       -19.5749
  52   2.0000      -0.711340       -19.3566
  53   2.0000      -0.693538       -18.8721
  54   2.0000      -0.675088       -18.3701
  55   2.0000      -0.628871       -17.1125
  56   2.0000      -0.622932       -16.9508
  57   2.0000      -0.599870       -16.3233
  58   2.0000      -0.592932       -16.1345
  59   2.0000      -0.586294       -15.9539
  60   2.0000      -0.527084       -14.3427
  61   2.0000      -0.518809       -14.1175
  62   2.0000      -0.490100       -13.3363
  63   2.0000      -0.488443       -13.2912
  64   2.0000      -0.476523       -12.9669
  65   2.0000      -0.461974       -12.5710
  66   2.0000      -0.455931       -12.4065
  67   2.0000      -0.443469       -12.0674
  68   2.0000      -0.435286       -11.8447
  69   2.0000      -0.434729       -11.8296
  70   2.0000      -0.422786       -11.5046
  71   2.0000      -0.412005       -11.2112
  72   2.0000      -0.410406       -11.1677
  73   2.0000      -0.401497       -10.9253
  74   2.0000      -0.397896       -10.8273
  75   2.0000      -0.388790       -10.5795
  76   2.0000      -0.376526       -10.2458
  77   2.0000      -0.370016       -10.0686
  78   2.0000      -0.364327        -9.9138
  79   2.0000      -0.357365        -9.7244
  80   2.0000      -0.353509        -9.6195
  81   2.0000      -0.351412        -9.5624
  82   2.0000      -0.345734        -9.4079
  83   2.0000      -0.344270        -9.3681
  84   2.0000      -0.342330        -9.3153
  85   2.0000      -0.338585        -9.2134
  86   2.0000      -0.325486        -8.8569
  87   2.0000      -0.309269        -8.4156
  88   2.0000      -0.305132        -8.3031
  89   2.0000      -0.303270        -8.2524
  90   2.0000      -0.300866        -8.1870
  91   2.0000      -0.287488        -7.8229
  92   2.0000      -0.281988        -7.6733
  93   2.0000      -0.280131        -7.6228
  94   2.0000      -0.274165        -7.4604
  95   2.0000      -0.247489        -6.7345
  96   2.0000      -0.238103        -6.4791
  97   2.0000      -0.230315        -6.2672
  98   2.0000      -0.228929        -6.2295
  99   2.0000      -0.223895        -6.0925
 100   2.0000      -0.220265        -5.9937
 101   0.0000      -0.049475        -1.3463
 102   0.0000      -0.026944        -0.7332
 103   0.0000      -0.013064        -0.3555
 104   0.0000      -0.004535        -0.1234
 105   0.0000       0.005214         0.1419

MULLIKEN ATOMIC CHARGES
-----------------------
   0 C :   -0.488491
   1 C :   -0.149504
   2 O :   -0.335540
   3 P :    0.718034
   4 S :   -0.528460
   5 O :   -0.280362
   6 C :   -0.129493
   7 C :   -0.510915
   8 S :   -0.111012
   9 C :   -0.246416
  10 S :   -0.156275
  11 P :    0.723264
  12 S :   -0.504937
  13 O :   -0.327221
  14 C :   -0.104602
  15 C :   -0.519414
  16 O :   -0.336911
  17 C :   -0.153001
  18 C :   -0.470019
  19 H :    0.172798
  20 H :    0.172891
  21 H :    0.169597
  22 H :    0.178081
  23 H :    0.174635
  24 H :    0.171871
  25 H :    0.170465
  26 H :    0.170204
  27 H :    0.171816
  28 H :    0.169360
  29 H :    0.229376
  30 H :    0.237778
  31 H :    0.180174
  32 H :    0.176535
  33 H :    0.170004
  34 H :    0.171412
  35 H :    0.166923
  36 H :    0.175441
  37 H :    0.175802
  38 H :    0.168186
  39 H :    0.171025
  40 H :    0.166903
Sum of atomic charges:   -0.0000000

LOEWDIN ATOMIC CHARGES
----------------------
   0 C :   -0.409773
   1 C :    0.024639
   2 O :   -0.671321
   3 P :    0.375660
   4 S :   -0.158766
   5 O :   -0.697507
   6 C :    0.024934
   7 C :   -0.399111
   8 S :    0.185679
   9 C :   -0.399670
  10 S :    0.160130
  11 P :    0.377196
  12 S :   -0.144463
  13 O :   -0.680768
  14 C :    0.015465
  15 C :   -0.403550
  16 O :   -0.675511
  17 C :    0.027101
  18 C :   -0.407266
  19 H :    0.161480
  20 H :    0.168465
  21 H :    0.163631
  22 H :    0.181306
  23 H :    0.190748
  24 H :    0.180832
  25 H :    0.182463
  26 H :    0.162551
  27 H :    0.162589
  28 H :    0.168061
  29 H :    0.203215
  30 H :    0.198019
  31 H :    0.189565
  32 H :    0.186242
  33 H :    0.167631
  34 H :    0.162934
  35 H :    0.163111
  36 H :    0.190903
  37 H :    0.181157
  38 H :    0.163098
  39 H :    0.167727
  40 H :    0.161176

  Mayer bond orders larger than 0.100000
B(  0-C ,  1-C ) :   0.9088 B(  0-C , 19-H ) :   0.9635 B(  0-C , 20-H ) :   0.9536
B(  0-C , 21-H ) :   0.9654 B(  1-C ,  2-O ) :   0.8039 B(  1-C , 22-H ) :   0.9664
B(  1-C , 23-H ) :   0.9488 B(  2-O ,  3-P ) :   1.0721 B(  3-P ,  4-S ) :   1.6941
B(  3-P ,  5-O ) :   1.1650 B(  3-P ,  8-S ) :   1.1207 B(  5-O ,  6-C ) :   0.7755
B(  6-C ,  7-C ) :   0.9416 B(  6-C , 24-H ) :   0.9360 B(  6-C , 25-H ) :   0.9535
B(  7-C , 26-H ) :   0.9686 B(  7-C , 27-H ) :   0.9679 B(  7-C , 28-H ) :   0.9563
B(  8-S ,  9-C ) :   0.8918 B(  9-C , 10-S ) :   0.8971 B(  9-C , 29-H ) :   0.9078
B(  9-C , 30-H ) :   0.9074 B( 10-S , 11-P ) :   1.0648 B( 11-P , 12-S ) :   1.7589
B( 11-P , 13-O ) :   1.1089 B( 11-P , 16-O ) :   1.1043 B( 13-O , 14-C ) :   0.7309
B( 14-C , 15-C ) :   0.9362 B( 14-C , 31-H ) :   0.9494 B( 14-C , 32-H ) :   0.9513
B( 15-C , 33-H ) :   0.9597 B( 15-C , 34-H ) :   0.9642 B( 15-C , 35-H ) :   0.9756
B( 16-O , 17-C ) :   0.8008 B( 17-C , 18-C ) :   0.9176 B( 17-C , 36-H ) :   0.9497
B( 17-C , 37-H ) :   0.9634 B( 18-C , 38-H ) :   0.9660 B( 18-C , 39-H ) :   0.9558
B( 18-C , 40-H ) :   0.9636

Dispersion correction           -0.021887262
FINAL SINGLE POINT ENERGY     -2932.472217122017

DIPOLE MOMENT
-------------

Method             : SCF
Type of density    : Electron Density
Multiplicity       :   1
Irrep              :   0
Energy             : -2932.4967471453478538 Eh
Relativity type    :
Basis              : AO
                                X                 Y                 Z
Electronic contribution:     -0.170326904      -1.799688408      -5.435015010
Nuclear contribution   :      1.041116341       0.744934850       6.073548132
                        -----------------------------------------
Total Dipole Moment    :      0.870789437      -1.054753557       0.638533122
                        -----------------------------------------
Magnitude (a.u.)       :      1.509471384
Magnitude (Debye)      :      3.836771345

Rotational constants in cm-1:             0.012395             0.005040             0.004734
Rotational constants in MHz :           371.590183           151.086084           141.924031

                             ****ORCA TERMINATED NORMALLY****
TOTAL RUN TIME: 0 days 0 hours 1 minutes 49 seconds 468 msec
