                         Program Version 6.0.0  -   RELEASE  -
|  1> ! pbe def2-sv(p) def2/J RI DEFGRID1 loosescf d4 GCP(DFT/SV(P)) printgap
|  2> %output
|  3>     printlevel normal
|  4> end
|  5> * xyz 0 1
|  6> C 5.4304027663 -2.0932260582 -0.4783355997
|  7> C 4.3019452228 -1.2448000555 -1.028219716
|  8> O 3.429362005 -0.9064749332 0.0706082516
|  9> P 2.3350344803 0.2338848448 -0.0750255013
| 10> S 2.9836621634 1.9727958907 -0.6854808482
| 11> O 1.7019695188 0.2946574764 1.3631266144
| 12> C 1.283243105 -0.88613046 2.0921269719
| 13> C 2.340491069 -1.2905740249 3.0980094326
| 14> S 0.8850397327 -0.6947820812 -1.3495693398
| 15> C 0.0721618937 0.8347972263 -1.8568441689
| 16> S -0.7989250417 1.6573859962 -0.4975501416
| 17> P -2.358198295 0.2304671016 -0.344323505
| 18> S -3.0331696655 -0.5434624952 -2.0027729688
| 19> O -3.4910774044 1.0000895182 0.4509791014
| 20> C -3.2455174699 1.6391753188 1.7286399159
| 21> C -4.5894083288 1.9078393293 2.3732156861
| 22> O -1.6900064368 -0.8011244326 0.6829561341
| 23> C -2.0910733867 -2.1865359893 0.7125744446
| 24> C -3.4750667662 -2.346251635 1.3077892718
| 25> H 6.0964530124 -2.3668638374 -1.2898953318
| 26> H 5.9877186332 -1.5348972378 0.268553192
| 27> H 5.0310217291 -2.9945355468 -0.0225939876
| 28> H 3.7163998872 -1.7896976538 -1.7736248613
| 29> H 4.6749696047 -0.3169543838 -1.4735715578
| 30> H 0.3535508017 -0.5902307424 2.5817928049
| 31> H 1.0852117564 -1.6895755464 1.377183715
| 32> H 1.9776210367 -2.1336175262 3.6776482298
| 33> H 3.2560827008 -1.5729931321 2.5854797609
| 34> H 2.5544850042 -0.4602925337 3.765232005
| 35> H -0.639548572 0.5724690953 -2.6398641818
| 36> H 0.8226181875 1.5405506976 -2.2137761345
| 37> H -2.6295581478 0.9755027956 2.3406899972
| 38> H -2.6958824794 2.5652920197 1.5407686067
| 39> H -5.1194988945 0.9747067594 2.5416622136
| 40> H -4.4349579387 2.4116654693 3.3218901862
| 41> H -5.1909741246 2.5380069399 1.7247308894
| 42> H -2.0606519764 -2.5783912857 -0.3086603226
| 43> H -1.3279429262 -2.6743955662 1.3201280878
| 44> H -3.7337555821 -3.3998177116 1.3408861589
| 45> H -3.5073494602 -1.9360544696 2.3139127067
| 46> H -4.2027024372 -1.8232844215 0.6870583651
| 47> *
| 48>
| 49>                          ****END OF INPUT****

CARTESIAN COORDINATES (ANGSTROEM)
---------------------------------
  C      5.430403   -2.093226   -0.478336
  C      4.301945   -1.244800   -1.028220
  O      3.429362   -0.906475    0.070608
  P      2.335034    0.233885   -0.075026
  S      2.983662    1.972796   -0.685481
  O      1.701970    0.294657    1.363127
  C      1.283243   -0.886130    2.092127
  C      2.340491   -1.290574    3.098009
  S      0.885040   -0.694782   -1.349569
  C      0.072162    0.834797   -1.856844
  S     -0.798925    1.657386   -0.497550
  P     -2.358198    0.230467   -0.344324
  S     -3.033170   -0.543462   -2.002773
  O     -3.491077    1.000090    0.450979
  C     -3.245517    1.639175    1.728640
  C     -4.589408    1.907839    2.373216
  O     -1.690006   -0.801124    0.682956
  C     -2.091073   -2.186536    0.712574
  C     -3.475067   -2.346252    1.307789
  H      6.096453   -2.366864   -1.289895
  H      5.987719   -1.534897    0.268553
  H      5.031022   -2.994536   -0.022594
  H      3.716400   -1.789698   -1.773625
  H      4.674970   -0.316954   -1.473572
  H      0.353551   -0.590231    2.581793
  H      1.085212   -1.689576    1.377184
  H      1.977621   -2.133618    3.677648
  H      3.256083   -1.572993    2.585480
  H      2.554485   -0.460293    3.765232
  H     -0.639549    0.572469   -2.639864
  H      0.822618    1.540551   -2.213776
  H     -2.629558    0.975503    2.340690
  H     -2.695882    2.565292    1.540769
  H     -5.119499    0.974707    2.541662
  H     -4.434958    2.411665    3.321890
  H     -5.190974    2.538007    1.724731
  H     -2.060652   -2.578391   -0.308660
  H     -1.327943   -2.674396    1.320128
  H     -3.733756   -3.399818    1.340886
  H     -3.507349   -1.936054    2.313913
  H     -4.202702   -1.823284    0.687058

 Total Charge           Charge          ....    0
 Multiplicity           Mult            ....    1
 Number of Electrons    NEL             ....  202
 Basis Dimension        Dim             ....  334

ORBITAL ENERGIES
----------------

  NO   OCC          E(Eh)            E(eV)
   0   2.0000     -88.039299     -2395.6711
   1   2.0000     -88.038940     -2395.6613
   2   2.0000     -87.988279     -2394.2828
   3   2.0000     -87.984838     -2394.1892
   4   2.0000     -76.425833     -2079.6527
   5   2.0000     -76.425821     -2079.6523
   6   2.0000     -18.798007      -511.5198
   7   2.0000     -18.797115      -511.4955
   8   2.0000     -18.793887      -511.4077
   9   2.0000     -18.792221      -511.3623
  10   2.0000      -9.962300      -271.0880
  11   2.0000      -9.956872      -270.9403
  12   2.0000      -9.956660      -270.9345
  13   2.0000      -9.954598      -270.8784
  14   2.0000      -9.950155      -270.7575
  15   2.0000      -9.894784      -269.2508
  16   2.0000      -9.892475      -269.1879
  17   2.0000      -9.889938      -269.1189
  18   2.0000      -9.888481      -269.0793
  19   2.0000      -7.684217      -209.0982
  20   2.0000      -7.684194      -209.0976
  21   2.0000      -7.633561      -207.7197
  22   2.0000      -7.630180      -207.6277
  23   2.0000      -6.423915      -174.8036
  24   2.0000      -6.423476      -174.7917
  25   2.0000      -5.712008      -155.4316
  26   2.0000      -5.711889      -155.4284
  27   2.0000      -5.708940      -155.3482
  28   2.0000      -5.708820      -155.3449
  29   2.0000      -5.701355      -155.1418
  30   2.0000      -5.700976      -155.1314
  31   2.0000      -5.662548      -154.0858
  32   2.0000      -5.659195      -153.9945
  33   2.0000      -5.654271      -153.8605
  34   2.0000      -5.653494      -153.8394
  35   2.0000      -5.650641      -153.7618
  36   2.0000      -5.650356      -153.7540
  37   2.0000      -4.646825      -126.4465
  38   2.0000      -4.646411      -126.4353
  39   2.0000      -4.645276      -126.4044
  40   2.0000      -4.645208      -126.4025
  41   2.0000      -4.644410      -126.3808
  42   2.0000      -4.643598      -126.3587
  43   2.0000      -0.991769       -26.9874
  44   2.0000      -0.988343       -26.8942
  45   2.0000      -0.948261       -25.8035
  46   2.0000      -0.947594       -25.7853
  47   2.0000      -0.763122       -20.7656
  48   2.0000      -0.724841       -19.7239
  49   2.0000      -0.714406       -19.4400
  50   2.0000      -0.695725       -18.9316
  51   2.0000      -0.695604       -18.9283
  52   2.0000      -0.673629       -18.3304
  53   2.0000      -0.650326       -17.6963
  54   2.0000      -0.638848       -17.3839
  55   2.0000      -0.594821       -16.1859
  56   2.0000      -0.589363       -16.0374
  57   2.0000      -0.577449       -15.7132
  58   2.0000      -0.572616       -15.5817
  59   2.0000      -0.564153       -15.3514
  60   2.0000      -0.514266       -13.9939
  61   2.0000      -0.505278       -13.7493
  62   2.0000      -0.485327       -13.2064
  63   2.0000      -0.482226       -13.1220
  64   2.0000      -0.459081       -12.4922
  65   2.0000      -0.448206       -12.1963
  66   2.0000      -0.445408       -12.1202
  67   2.0000      -0.442292       -12.0354
  68   2.0000      -0.432665       -11.7734
  69   2.0000      -0.410695       -11.1756
  70   2.0000      -0.407327       -11.0839
  71   2.0000      -0.399296       -10.8654
  72   2.0000      -0.393304       -10.7023
  73   2.0000      -0.388023       -10.5586
  74   2.0000      -0.382412       -10.4060
  75   2.0000      -0.372817       -10.1449
  76   2.0000      -0.367214        -9.9924
  77   2.0000      -0.361655        -9.8411
  78   2.0000      -0.360642        -9.8136
  79   2.0000      -0.354934        -9.6582
  80   2.0000      -0.353477        -9.6186
  81   2.0000      -0.349122        -9.5001
  82   2.0000      -0.346106        -9.4180
  83   2.0000      -0.344516        -9.3748
  84   2.0000      -0.337589        -9.1863
  85   2.0000      -0.324578        -8.8322
  86   2.0000      -0.316687        -8.6175
  87   2.0000      -0.315714        -8.5910
  88   2.0000      -0.303811        -8.2671
  89   2.0000      -0.296237        -8.0610
  90   2.0000      -0.283888        -7.7250
  91   2.0000      -0.278110        -7.5678
  92   2.0000      -0.272850        -7.4246
  93   2.0000      -0.269865        -7.3434
  94   2.0000      -0.258124        -7.0239
  95   2.0000      -0.231702        -6.3049
  96   2.0000      -0.216522        -5.8919
  97   2.0000      -0.213171        -5.8007
  98   2.0000      -0.204411        -5.5623
  99   2.0000      -0.200668        -5.4605
 100   2.0000      -0.199175        -5.4198
 101   0.0000      -0.043522        -1.1843
 102   0.0000      -0.022217        -0.6046
 103   0.0000       0.000116         0.0032
 104   0.0000       0.004924         0.1340
 105   0.0000       0.009769         0.2658

MULLIKEN ATOMIC CHARGES
-----------------------
   0 C :   -0.283053
   1 C :   -0.011740
   2 O :   -0.385747
   3 P :    0.599721
   4 S :   -0.313787
   5 O :   -0.346386
   6 C :   -0.024778
   7 C :   -0.284579
   8 S :   -0.100475
   9 C :   -0.365525
  10 S :   -0.080526
  11 P :    0.615451
  12 S :   -0.311891
  13 O :   -0.371657
  14 C :   -0.038183
  15 C :   -0.276417
  16 O :   -0.382638
  17 C :   -0.011517
  18 C :   -0.313674
  19 H :    0.114962
  20 H :    0.122745
  21 H :    0.115203
  22 H :    0.105787
  23 H :    0.108399
  24 H :    0.113573
  25 H :    0.107804
  26 H :    0.106174
  27 H :    0.121329
  28 H :    0.119742
  29 H :    0.192702
  30 H :    0.195993
  31 H :    0.110537
  32 H :    0.120413
  33 H :    0.118925
  34 H :    0.113284
  35 H :    0.126288
  36 H :    0.116469
  37 H :    0.099823
  38 H :    0.114388
  39 H :    0.109716
  40 H :    0.133149
Sum of atomic charges:    0.0000000

LOEWDIN ATOMIC CHARGES
----------------------
   0 C :   -0.350620
   1 C :   -0.119842
   2 O :   -0.250033
   3 P :    0.568234
   4 S :   -0.309359
   5 O :   -0.228326
   6 C :   -0.113843
   7 C :   -0.359063
   8 S :    0.061499
   9 C :   -0.484972
  10 S :    0.085117
  11 P :    0.570757
  12 S :   -0.305166
  13 O :   -0.245011
  14 C :   -0.119405
  15 C :   -0.348722
  16 O :   -0.252546
  17 C :   -0.121960
  18 C :   -0.366022
  19 H :    0.132382
  20 H :    0.129430
  21 H :    0.125465
  22 H :    0.109326
  23 H :    0.111468
  24 H :    0.118048
  25 H :    0.104093
  26 H :    0.127781
  27 H :    0.125986
  28 H :    0.128977
  29 H :    0.129152
  30 H :    0.129386
  31 H :    0.108665
  32 H :    0.114649
  33 H :    0.127850
  34 H :    0.131661
  35 H :    0.132467
  36 H :    0.111363
  37 H :    0.112024
  38 H :    0.131962
  39 H :    0.120863
  40 H :    0.126283

  Mayer bond orders larger than 0.100000
B(  0-C ,  1-C ) :   1.1589 B(  0-C , 19-H ) :   0.9417 B(  0-C , 20-H ) :   0.9507
B(  0-C , 21-H ) :   0.9509 B(  1-C ,  2-O ) :   0.9033 B(  1-C , 22-H ) :   0.9269
B(  1-C , 23-H ) :   0.9119 B(  2-O ,  3-P ) :   1.0756 B(  3-P ,  4-S ) :   1.6523
B(  3-P ,  5-O ) :   1.1469 B(  3-P ,  8-S ) :   0.9451 B(  4-S ,  8-S ) :   0.1107
B(  5-O ,  6-C ) :   0.8922 B(  6-C ,  7-C ) :   1.1569 B(  6-C , 24-H ) :   0.9315
B(  6-C , 25-H ) :   0.9099 B(  7-C , 26-H ) :   0.9405 B(  7-C , 27-H ) :   0.9413
B(  7-C , 28-H ) :   0.9462 B(  8-S ,  9-C ) :   1.0074 B(  9-C , 10-S ) :   1.0109
B(  9-C , 29-H ) :   0.8749 B(  9-C , 30-H ) :   0.8744 B( 10-S , 11-P ) :   0.9679
B( 10-S , 12-S ) :   0.1035 B( 11-P , 12-S ) :   1.6359 B( 11-P , 13-O ) :   1.1190
B( 11-P , 16-O ) :   1.0613 B( 13-O , 14-C ) :   0.8989 B( 14-C , 15-C ) :   1.1661
B( 14-C , 31-H ) :   0.9172 B( 14-C , 32-H ) :   0.9245 B( 15-C , 33-H ) :   0.9509
B( 15-C , 34-H ) :   0.9401 B( 15-C , 35-H ) :   0.9488 B( 16-O , 17-C ) :   0.9069
B( 17-C , 18-C ) :   1.1622 B( 17-C , 36-H ) :   0.9125 B( 17-C , 37-H ) :   0.9286
B( 18-C , 38-H ) :   0.9391 B( 18-C , 39-H ) :   0.9464 B( 18-C , 40-H ) :   0.9330

Dispersion correction           -0.063933323
FINAL SINGLE POINT ENERGY     -2929.521906467697

DIPOLE MOMENT
-------------

Method             : SCF
Type of density    : Electron Density
Multiplicity       :   1
Irrep              :   0
Energy             : -2929.6432094859064819 Eh
Relativity type    :
Basis              : AO
                                X                 Y                 Z
Electronic contribution:      0.081229338      14.419533543     -19.297110294
Nuclear contribution   :      0.031387361     -15.766889338      20.870088347
                        -----------------------------------------
Total Dipole Moment    :      0.112616700      -1.347355794       1.572978054
                        -----------------------------------------
Magnitude (a.u.)       :      2.074201079
Magnitude (Debye)      :      5.272200153

Rotational constants in cm-1:             0.012455             0.004646             0.004496
Rotational constants in MHz :           373.396550           139.290591           134.786948

                             ****ORCA TERMINATED NORMALLY****
TOTAL RUN TIME: 0 days 0 hours 0 minutes 21 seconds 159 msec
