                         Program Version 6.0.0  -   RELEASE  -
|  1> ! r2scan-3c def2/J RI DEFGRID2 scfconv6 printgap
|  2> %output
|  3>     printlevel normal
|  4> end
|  5> * xyz 0 1
|  6> C 4.2936849944 0.4131101621 -2.2938098172
|  7> C 4.5562444966 0.0237767221 -0.8529388626
|  8> O 3.3624783395 -0.42934147 -0.1951468349
|  9> P 2.1707613786 0.5742539193 0.1693973008
| 10> S 2.7602256024 2.3502528976 0.7489769749
| 11> O 1.3726913276 -0.2811436853 1.232813513
| 12> C 1.8615135849 -0.4577632987 2.5808149246
| 13> C 0.7593276147 -1.1235780503 3.3778420092
| 14> S 0.8101067527 0.5008474405 -1.4370229228
| 15> C 0.4987620361 -1.2832267371 -1.5307423637
| 16> S -0.5723063915 -1.9401681901 -0.2096488583
| 17> P -2.0472984622 -0.4517202878 -0.2132453722
| 18> S -2.6664294792 0.2300328051 -1.9502763489
| 19> O -1.4514999981 0.5928576779 0.8215644953
| 20> C -2.0624827006 1.8877932442 1.0202707017
| 21> C -1.314227363 2.9600714728 0.2536798177
| 22> O -3.2089215522 -1.0975885751 0.661829065
| 23> C -4.1875441712 -1.9970373493 0.1015566628
| 24> C -5.439721647 -1.9212769426 0.9519474199
| 25> H 5.2300245368 0.6904385049 -2.7671879839
| 26> H 3.8463456603 -0.4135206168 -2.8396643593
| 27> H 3.6152008457 1.2655193966 -2.3284718391
| 28> H 4.9562431933 0.8754911899 -0.2936636828
| 29> H 5.2386833584 -0.824009037 -0.7792101651
| 30> H 2.7604928022 -1.0778850796 2.5415461899
| 31> H 2.1208760534 0.5264782723 2.9851485868
| 32> H 0.5279450499 -2.0952956919 2.950056889
| 33> H 1.0836555629 -1.2457943942 4.406060875
| 34> H -0.1384384384 -0.5114754161 3.3513352933
| 35> H 1.4354243563 -1.831761363 -1.4644202357
| 36> H 0.0132065165 -1.4360433596 -2.4930559929
| 37> H -3.1088420446 1.8429789519 0.7056635914
| 38> H -2.0100771176 2.0588866456 2.0968470329
| 39> H -0.2640127608 2.9682621864 0.5394997489
| 40> H -1.3800903546 2.7761939576 -0.8170752365
| 41> H -1.7489363276 3.9293712213 0.4753884491
| 42> H -4.38634146 -1.6958505905 -0.9326268596
| 43> H -3.7606053059 -3.0027926874 0.108576578
| 44> H -5.8543468844 -0.9174483017 0.9221600144
| 45> H -6.1731725584 -2.6218750108 0.5666371986
| 46> H -5.2042688291 -2.1747286071 1.9815297829
| 47> *
| 48>
| 49>                          ****END OF INPUT****

CARTESIAN COORDINATES (ANGSTROEM)
---------------------------------
  C      4.293685    0.413110   -2.293810
  C      4.556244    0.023777   -0.852939
  O      3.362478   -0.429341   -0.195147
  P      2.170761    0.574254    0.169397
  S      2.760226    2.350253    0.748977
  O      1.372691   -0.281144    1.232814
  C      1.861514   -0.457763    2.580815
  C      0.759328   -1.123578    3.377842
  S      0.810107    0.500847   -1.437023
  C      0.498762   -1.283227   -1.530742
  S     -0.572306   -1.940168   -0.209649
  P     -2.047298   -0.451720   -0.213245
  S     -2.666429    0.230033   -1.950276
  O     -1.451500    0.592858    0.821564
  C     -2.062483    1.887793    1.020271
  C     -1.314227    2.960071    0.253680
  O     -3.208922   -1.097589    0.661829
  C     -4.187544   -1.997037    0.101557
  C     -5.439722   -1.921277    0.951947
  H      5.230025    0.690439   -2.767188
  H      3.846346   -0.413521   -2.839664
  H      3.615201    1.265519   -2.328472
  H      4.956243    0.875491   -0.293664
  H      5.238683   -0.824009   -0.779210
  H      2.760493   -1.077885    2.541546
  H      2.120876    0.526478    2.985149
  H      0.527945   -2.095296    2.950057
  H      1.083656   -1.245794    4.406061
  H     -0.138438   -0.511475    3.351335
  H      1.435424   -1.831761   -1.464420
  H      0.013207   -1.436043   -2.493056
  H     -3.108842    1.842979    0.705664
  H     -2.010077    2.058887    2.096847
  H     -0.264013    2.968262    0.539500
  H     -1.380090    2.776194   -0.817075
  H     -1.748936    3.929371    0.475388
  H     -4.386341   -1.695851   -0.932627
  H     -3.760605   -3.002793    0.108577
  H     -5.854347   -0.917448    0.922160
  H     -6.173173   -2.621875    0.566637
  H     -5.204269   -2.174729    1.981530

 Total Charge           Charge          ....    0
 Multiplicity           Mult            ....    1
 Number of Electrons    NEL             ....  202
 Basis Dimension        Dim             ....  539

ORBITAL ENERGIES
----------------

  NO   OCC          E(Eh)            E(eV)
   0   2.0000     -88.577343     -2410.3120
   1   2.0000     -88.574827     -2410.2436
   2   2.0000     -88.521539     -2408.7935
   3   2.0000     -88.516998     -2408.6700
   4   2.0000     -76.912547     -2092.8968
   5   2.0000     -76.912466     -2092.8946
   6   2.0000     -18.991452      -516.7837
   7   2.0000     -18.989955      -516.7430
   8   2.0000     -18.985426      -516.6197
   9   2.0000     -18.983325      -516.5625
  10   2.0000     -10.113842      -275.2116
  11   2.0000     -10.098106      -274.7834
  12   2.0000     -10.096694      -274.7450
  13   2.0000     -10.096194      -274.7314
  14   2.0000     -10.092371      -274.6274
  15   2.0000     -10.032193      -272.9899
  16   2.0000     -10.029734      -272.9229
  17   2.0000     -10.028430      -272.8875
  18   2.0000     -10.012918      -272.4653
  19   2.0000      -7.871553      -214.1958
  20   2.0000      -7.869560      -214.1416
  21   2.0000      -7.816150      -212.6883
  22   2.0000      -7.811733      -212.5680
  23   2.0000      -6.591077      -179.3523
  24   2.0000      -6.590695      -179.3419
  25   2.0000      -5.818973      -158.3423
  26   2.0000      -5.816601      -158.2778
  27   2.0000      -5.815041      -158.2353
  28   2.0000      -5.813422      -158.1912
  29   2.0000      -5.808457      -158.0562
  30   2.0000      -5.806411      -158.0005
  31   2.0000      -5.763761      -156.8399
  32   2.0000      -5.759415      -156.7216
  33   2.0000      -5.756548      -156.6436
  34   2.0000      -5.756103      -156.6315
  35   2.0000      -5.752151      -156.5240
  36   2.0000      -5.751585      -156.5086
  37   2.0000      -4.736519      -128.8872
  38   2.0000      -4.736231      -128.8794
  39   2.0000      -4.736134      -128.8768
  40   2.0000      -4.735631      -128.8631
  41   2.0000      -4.734756      -128.8393
  42   2.0000      -4.734442      -128.8307
  43   2.0000      -1.048648       -28.5352
  44   2.0000      -1.045272       -28.4433
  45   2.0000      -1.008612       -27.4457
  46   2.0000      -1.004722       -27.3399
  47   2.0000      -0.803682       -21.8693
  48   2.0000      -0.758954       -20.6522
  49   2.0000      -0.747976       -20.3535
  50   2.0000      -0.731061       -19.8932
  51   2.0000      -0.725813       -19.7504
  52   2.0000      -0.708849       -19.2888
  53   2.0000      -0.685958       -18.6659
  54   2.0000      -0.668266       -18.1844
  55   2.0000      -0.627351       -17.0711
  56   2.0000      -0.618336       -16.8258
  57   2.0000      -0.606670       -16.5083
  58   2.0000      -0.599367       -16.3096
  59   2.0000      -0.588310       -16.0087
  60   2.0000      -0.530631       -14.4392
  61   2.0000      -0.528213       -14.3734
  62   2.0000      -0.493032       -13.4161
  63   2.0000      -0.490433       -13.3454
  64   2.0000      -0.476256       -12.9596
  65   2.0000      -0.463079       -12.6010
  66   2.0000      -0.457506       -12.4494
  67   2.0000      -0.447406       -12.1745
  68   2.0000      -0.445005       -12.1092
  69   2.0000      -0.433909       -11.8073
  70   2.0000      -0.426449       -11.6043
  71   2.0000      -0.413286       -11.2461
  72   2.0000      -0.407228       -11.0812
  73   2.0000      -0.399259       -10.8644
  74   2.0000      -0.391742       -10.6599
  75   2.0000      -0.391164       -10.6441
  76   2.0000      -0.382493       -10.4082
  77   2.0000      -0.370497       -10.0817
  78   2.0000      -0.366809        -9.9814
  79   2.0000      -0.365900        -9.9566
  80   2.0000      -0.358980        -9.7683
  81   2.0000      -0.357475        -9.7274
  82   2.0000      -0.350777        -9.5451
  83   2.0000      -0.348389        -9.4802
  84   2.0000      -0.342664        -9.3244
  85   2.0000      -0.336033        -9.1439
  86   2.0000      -0.320884        -8.7317
  87   2.0000      -0.313048        -8.5185
  88   2.0000      -0.312021        -8.4905
  89   2.0000      -0.306345        -8.3361
  90   2.0000      -0.298549        -8.1239
  91   2.0000      -0.286627        -7.7995
  92   2.0000      -0.281697        -7.6654
  93   2.0000      -0.278293        -7.5727
  94   2.0000      -0.275465        -7.4958
  95   2.0000      -0.241836        -6.5807
  96   2.0000      -0.232167        -6.3176
  97   2.0000      -0.223487        -6.0814
  98   2.0000      -0.218254        -5.9390
  99   2.0000      -0.211137        -5.7453
 100   2.0000      -0.209638        -5.7046
 101   0.0000      -0.049329        -1.3423
 102   0.0000      -0.022700        -0.6177
 103   0.0000      -0.008832        -0.2403
 104   0.0000       0.003616         0.0984
 105   0.0000       0.006846         0.1863

MULLIKEN ATOMIC CHARGES
-----------------------
   0 C :   -0.431176
   1 C :   -0.162729
   2 O :   -0.311478
   3 P :    0.685849
   4 S :   -0.477030
   5 O :   -0.218927
   6 C :   -0.153899
   7 C :   -0.448388
   8 S :   -0.105310
   9 C :   -0.259184
  10 S :   -0.123710
  11 P :    0.688485
  12 S :   -0.474119
  13 O :   -0.265535
  14 C :   -0.117094
  15 C :   -0.475776
  16 O :   -0.291626
  17 C :   -0.145303
  18 C :   -0.445548
  19 H :    0.147797
  20 H :    0.147832
  21 H :    0.172612
  22 H :    0.171977
  23 H :    0.146546
  24 H :    0.149896
  25 H :    0.166589
  26 H :    0.155655
  27 H :    0.142762
  28 H :    0.165126
  29 H :    0.187949
  30 H :    0.205997
  31 H :    0.149889
  32 H :    0.146562
  33 H :    0.179178
  34 H :    0.178830
  35 H :    0.141560
  36 H :    0.171787
  37 H :    0.148056
  38 H :    0.156537
  39 H :    0.146503
  40 H :    0.152856
Sum of atomic charges:    0.0000000

LOEWDIN ATOMIC CHARGES
----------------------
   0 C :   -0.403393
   1 C :    0.016331
   2 O :   -0.679239
   3 P :    0.370210
   4 S :   -0.118500
   5 O :   -0.692029
   6 C :    0.027281
   7 C :   -0.387645
   8 S :    0.200680
   9 C :   -0.405266
  10 S :    0.192337
  11 P :    0.364524
  12 S :   -0.130508
  13 O :   -0.668081
  14 C :    0.027198
  15 C :   -0.406249
  16 O :   -0.666389
  17 C :    0.018457
  18 C :   -0.387185
  19 H :    0.159524
  20 H :    0.156642
  21 H :    0.166453
  22 H :    0.180506
  23 H :    0.178016
  24 H :    0.171133
  25 H :    0.179428
  26 H :    0.161332
  27 H :    0.157385
  28 H :    0.165663
  29 H :    0.186850
  30 H :    0.189522
  31 H :    0.174738
  32 H :    0.177448
  33 H :    0.167770
  34 H :    0.167215
  35 H :    0.156477
  36 H :    0.181686
  37 H :    0.170406
  38 H :    0.160307
  39 H :    0.159738
  40 H :    0.159230

  Mayer bond orders larger than 0.100000
B(  0-C ,  1-C ) :   0.9326 B(  0-C , 19-H ) :   0.9605 B(  0-C , 20-H ) :   0.9706
B(  0-C , 21-H ) :   0.9600 B(  1-C ,  2-O ) :   0.8157 B(  1-C , 22-H ) :   0.9617
B(  1-C , 23-H ) :   0.9597 B(  2-O ,  3-P ) :   1.0252 B(  3-P ,  4-S ) :   1.7845
B(  3-P ,  5-O ) :   1.1502 B(  3-P ,  8-S ) :   1.0601 B(  5-O ,  6-C ) :   0.7868
B(  6-C ,  7-C ) :   0.9577 B(  6-C , 24-H ) :   0.9463 B(  6-C , 25-H ) :   0.9517
B(  7-C , 26-H ) :   0.9679 B(  7-C , 27-H ) :   0.9625 B(  7-C , 28-H ) :   0.9707
B(  8-S ,  9-C ) :   0.9142 B(  9-C , 10-S ) :   0.9086 B(  9-C , 29-H ) :   0.9229
B(  9-C , 30-H ) :   0.9163 B( 10-S , 11-P ) :   1.0902 B( 11-P , 12-S ) :   1.7501
B( 11-P , 13-O ) :   1.1627 B( 11-P , 16-O ) :   1.0762 B( 13-O , 14-C ) :   0.7607
B( 14-C , 15-C ) :   0.9391 B( 14-C , 31-H ) :   0.9656 B( 14-C , 32-H ) :   0.9610
B( 15-C , 33-H ) :   0.9605 B( 15-C , 34-H ) :   0.9626 B( 15-C , 35-H ) :   0.9626
B( 16-O , 17-C ) :   0.7756 B( 17-C , 18-C ) :   0.9592 B( 17-C , 36-H ) :   0.9503
B( 17-C , 37-H ) :   0.9461 B( 18-C , 38-H ) :   0.9721 B( 18-C , 39-H ) :   0.9649
B( 18-C , 40-H ) :   0.9718

Dispersion correction           -0.021907319
FINAL SINGLE POINT ENERGY     -2932.458961282126

DIPOLE MOMENT
-------------

Method             : SCF
Type of density    : Electron Density
Multiplicity       :   1
Irrep              :   0
Energy             : -2932.4834391078020417 Eh
Relativity type    :
Basis              : AO
                                X                 Y                 Z
Electronic contribution:      3.320046918       1.597776874      -7.905419528
Nuclear contribution   :     -3.121926440      -2.895149035       8.522827652
                        -----------------------------------------
Total Dipole Moment    :      0.198120479      -1.297372161       0.617408124
                        -----------------------------------------
Magnitude (a.u.)       :      1.450385825
Magnitude (Debye)      :      3.686587788

Rotational constants in cm-1:             0.013030             0.005048             0.004914
Rotational constants in MHz :           390.622416           151.326437           147.329310

                             ****ORCA TERMINATED NORMALLY****
TOTAL RUN TIME: 0 days 0 hours 1 minutes 21 seconds 640 msec
