                         Program Version 6.0.0  -   RELEASE  -
|  1> ! r2scan-3c def2/J RI DEFGRID2 scfconv6 printgap
|  2> %output
|  3>     printlevel normal
|  4> end
|  5> %cpcm
|  6>     smd true
|  7>     smdsolvent "water"
|  8> end
|  9> * xyz 0 1
| 10> C 4.2936849944 0.4131101621 -2.2938098172
| 11> C 4.5562444966 0.0237767221 -0.8529388626
| 12> O 3.3624783395 -0.42934147 -0.1951468349
| 13> P 2.1707613786 0.5742539193 0.1693973008
| 14> S 2.7602256024 2.3502528976 0.7489769749
| 15> O 1.3726913276 -0.2811436853 1.232813513
| 16> C 1.8615135849 -0.4577632987 2.5808149246
| 17> C 0.7593276147 -1.1235780503 3.3778420092
| 18> S 0.8101067527 0.5008474405 -1.4370229228
| 19> C 0.4987620361 -1.2832267371 -1.5307423637
| 20> S -0.5723063915 -1.9401681901 -0.2096488583
| 21> P -2.0472984622 -0.4517202878 -0.2132453722
| 22> S -2.6664294792 0.2300328051 -1.9502763489
| 23> O -1.4514999981 0.5928576779 0.8215644953
| 24> C -2.0624827006 1.8877932442 1.0202707017
| 25> C -1.314227363 2.9600714728 0.2536798177
| 26> O -3.2089215522 -1.0975885751 0.661829065
| 27> C -4.1875441712 -1.9970373493 0.1015566628
| 28> C -5.439721647 -1.9212769426 0.9519474199
| 29> H 5.2300245368 0.6904385049 -2.7671879839
| 30> H 3.8463456603 -0.4135206168 -2.8396643593
| 31> H 3.6152008457 1.2655193966 -2.3284718391
| 32> H 4.9562431933 0.8754911899 -0.2936636828
| 33> H 5.2386833584 -0.824009037 -0.7792101651
| 34> H 2.7604928022 -1.0778850796 2.5415461899
| 35> H 2.1208760534 0.5264782723 2.9851485868
| 36> H 0.5279450499 -2.0952956919 2.950056889
| 37> H 1.0836555629 -1.2457943942 4.406060875
| 38> H -0.1384384384 -0.5114754161 3.3513352933
| 39> H 1.4354243563 -1.831761363 -1.4644202357
| 40> H 0.0132065165 -1.4360433596 -2.4930559929
| 41> H -3.1088420446 1.8429789519 0.7056635914
| 42> H -2.0100771176 2.0588866456 2.0968470329
| 43> H -0.2640127608 2.9682621864 0.5394997489
| 44> H -1.3800903546 2.7761939576 -0.8170752365
| 45> H -1.7489363276 3.9293712213 0.4753884491
| 46> H -4.38634146 -1.6958505905 -0.9326268596
| 47> H -3.7606053059 -3.0027926874 0.108576578
| 48> H -5.8543468844 -0.9174483017 0.9221600144
| 49> H -6.1731725584 -2.6218750108 0.5666371986
| 50> H -5.2042688291 -2.1747286071 1.9815297829
| 51> *
| 52>
| 53>                          ****END OF INPUT****

CARTESIAN COORDINATES (ANGSTROEM)
---------------------------------
  C      4.293685    0.413110   -2.293810
  C      4.556244    0.023777   -0.852939
  O      3.362478   -0.429341   -0.195147
  P      2.170761    0.574254    0.169397
  S      2.760226    2.350253    0.748977
  O      1.372691   -0.281144    1.232814
  C      1.861514   -0.457763    2.580815
  C      0.759328   -1.123578    3.377842
  S      0.810107    0.500847   -1.437023
  C      0.498762   -1.283227   -1.530742
  S     -0.572306   -1.940168   -0.209649
  P     -2.047298   -0.451720   -0.213245
  S     -2.666429    0.230033   -1.950276
  O     -1.451500    0.592858    0.821564
  C     -2.062483    1.887793    1.020271
  C     -1.314227    2.960071    0.253680
  O     -3.208922   -1.097589    0.661829
  C     -4.187544   -1.997037    0.101557
  C     -5.439722   -1.921277    0.951947
  H      5.230025    0.690439   -2.767188
  H      3.846346   -0.413521   -2.839664
  H      3.615201    1.265519   -2.328472
  H      4.956243    0.875491   -0.293664
  H      5.238683   -0.824009   -0.779210
  H      2.760493   -1.077885    2.541546
  H      2.120876    0.526478    2.985149
  H      0.527945   -2.095296    2.950057
  H      1.083656   -1.245794    4.406061
  H     -0.138438   -0.511475    3.351335
  H      1.435424   -1.831761   -1.464420
  H      0.013207   -1.436043   -2.493056
  H     -3.108842    1.842979    0.705664
  H     -2.010077    2.058887    2.096847
  H     -0.264013    2.968262    0.539500
  H     -1.380090    2.776194   -0.817075
  H     -1.748936    3.929371    0.475388
  H     -4.386341   -1.695851   -0.932627
  H     -3.760605   -3.002793    0.108577
  H     -5.854347   -0.917448    0.922160
  H     -6.173173   -2.621875    0.566637
  H     -5.204269   -2.174729    1.981530

 Total Charge           Charge          ....    0
 Multiplicity           Mult            ....    1
 Number of Electrons    NEL             ....  202
 Basis Dimension        Dim             ....  539

ORBITAL ENERGIES
----------------

  NO   OCC          E(Eh)            E(eV)
   0   2.0000     -88.579604     -2410.3736
   1   2.0000     -88.577271     -2410.3101
   2   2.0000     -88.529230     -2409.0028
   3   2.0000     -88.525022     -2408.8883
   4   2.0000     -76.918329     -2093.0541
   5   2.0000     -76.916979     -2093.0174
   6   2.0000     -18.993105      -516.8287
   7   2.0000     -18.991215      -516.7772
   8   2.0000     -18.989556      -516.7321
   9   2.0000     -18.987900      -516.6870
  10   2.0000     -10.108611      -275.0693
  11   2.0000     -10.089281      -274.5433
  12   2.0000     -10.088827      -274.5309
  13   2.0000     -10.088126      -274.5119
  14   2.0000     -10.087496      -274.4947
  15   2.0000     -10.019017      -272.6313
  16   2.0000     -10.018376      -272.6139
  17   2.0000     -10.017959      -272.6025
  18   2.0000     -10.014145      -272.4987
  19   2.0000      -7.873916      -214.2602
  20   2.0000      -7.871912      -214.2056
  21   2.0000      -7.824204      -212.9074
  22   2.0000      -7.820075      -212.7950
  23   2.0000      -6.596618      -179.5031
  24   2.0000      -6.595544      -179.4739
  25   2.0000      -5.821300      -158.4056
  26   2.0000      -5.818935      -158.3413
  27   2.0000      -5.817379      -158.2989
  28   2.0000      -5.815753      -158.2547
  29   2.0000      -5.810882      -158.1221
  30   2.0000      -5.808828      -158.0662
  31   2.0000      -5.771712      -157.0563
  32   2.0000      -5.767684      -156.9467
  33   2.0000      -5.764617      -156.8632
  34   2.0000      -5.764175      -156.8512
  35   2.0000      -5.760480      -156.7506
  36   2.0000      -5.759951      -156.7362
  37   2.0000      -4.742121      -129.0397
  38   2.0000      -4.741559      -129.0244
  39   2.0000      -4.740918      -129.0069
  40   2.0000      -4.740593      -128.9981
  41   2.0000      -4.740416      -128.9933
  42   2.0000      -4.739334      -128.9638
  43   2.0000      -1.050226       -28.5781
  44   2.0000      -1.048840       -28.5404
  45   2.0000      -1.009401       -27.4672
  46   2.0000      -1.008157       -27.4333
  47   2.0000      -0.803083       -21.8530
  48   2.0000      -0.756864       -20.5953
  49   2.0000      -0.742869       -20.2145
  50   2.0000      -0.721867       -19.6430
  51   2.0000      -0.721583       -19.6353
  52   2.0000      -0.708413       -19.2769
  53   2.0000      -0.690168       -18.7804
  54   2.0000      -0.674255       -18.3474
  55   2.0000      -0.626185       -17.0393
  56   2.0000      -0.615361       -16.7448
  57   2.0000      -0.600225       -16.3330
  58   2.0000      -0.594598       -16.1798
  59   2.0000      -0.585926       -15.9438
  60   2.0000      -0.528331       -14.3766
  61   2.0000      -0.524719       -14.2783
  62   2.0000      -0.490914       -13.3584
  63   2.0000      -0.488549       -13.2941
  64   2.0000      -0.474933       -12.9236
  65   2.0000      -0.459052       -12.4914
  66   2.0000      -0.454483       -12.3671
  67   2.0000      -0.444293       -12.0898
  68   2.0000      -0.437666       -11.9095
  69   2.0000      -0.434047       -11.8110
  70   2.0000      -0.423001       -11.5104
  71   2.0000      -0.410291       -11.1646
  72   2.0000      -0.403715       -10.9856
  73   2.0000      -0.397978       -10.8295
  74   2.0000      -0.391843       -10.6626
  75   2.0000      -0.387120       -10.5341
  76   2.0000      -0.380637       -10.3577
  77   2.0000      -0.363625        -9.8947
  78   2.0000      -0.358127        -9.7451
  79   2.0000      -0.357087        -9.7168
  80   2.0000      -0.356090        -9.6897
  81   2.0000      -0.353169        -9.6102
  82   2.0000      -0.347200        -9.4478
  83   2.0000      -0.343444        -9.3456
  84   2.0000      -0.339612        -9.2413
  85   2.0000      -0.333626        -9.0784
  86   2.0000      -0.318620        -8.6701
  87   2.0000      -0.311594        -8.4789
  88   2.0000      -0.310722        -8.4552
  89   2.0000      -0.302107        -8.2208
  90   2.0000      -0.299999        -8.1634
  91   2.0000      -0.288168        -7.8415
  92   2.0000      -0.280958        -7.6452
  93   2.0000      -0.277682        -7.5561
  94   2.0000      -0.275986        -7.5100
  95   2.0000      -0.245475        -6.6797
  96   2.0000      -0.237186        -6.4541
  97   2.0000      -0.232493        -6.3264
  98   2.0000      -0.226723        -6.1694
  99   2.0000      -0.217604        -5.9213
 100   2.0000      -0.217099        -5.9076
 101   0.0000      -0.051898        -1.4122
 102   0.0000      -0.027731        -0.7546
 103   0.0000      -0.012038        -0.3276
 104   0.0000       0.000858         0.0234
 105   0.0000       0.004112         0.1119

MULLIKEN ATOMIC CHARGES
-----------------------
   0 C :   -0.470604
   1 C :   -0.155886
   2 O :   -0.328313
   3 P :    0.718927
   4 S :   -0.533453
   5 O :   -0.248589
   6 C :   -0.142533
   7 C :   -0.493799
   8 S :   -0.131313
   9 C :   -0.266565
  10 S :   -0.125023
  11 P :    0.712762
  12 S :   -0.526769
  13 O :   -0.290524
  14 C :   -0.126470
  15 C :   -0.501356
  16 O :   -0.317617
  17 C :   -0.139825
  18 C :   -0.486187
  19 H :    0.170638
  20 H :    0.168823
  21 H :    0.164523
  22 H :    0.173282
  23 H :    0.173460
  24 H :    0.172619
  25 H :    0.170766
  26 H :    0.167477
  27 H :    0.167615
  28 H :    0.168141
  29 H :    0.226502
  30 H :    0.234031
  31 H :    0.168417
  32 H :    0.175317
  33 H :    0.167900
  34 H :    0.173455
  35 H :    0.168148
  36 H :    0.170941
  37 H :    0.170582
  38 H :    0.166141
  39 H :    0.169184
  40 H :    0.165176
Sum of atomic charges:    0.0000000

LOEWDIN ATOMIC CHARGES
----------------------
   0 C :   -0.407220
   1 C :    0.022249
   2 O :   -0.682350
   3 P :    0.375016
   4 S :   -0.157894
   5 O :   -0.704127
   6 C :    0.031693
   7 C :   -0.391051
   8 S :    0.187899
   9 C :   -0.392905
  10 S :    0.194631
  11 P :    0.367823
  12 S :   -0.164618
  13 O :   -0.684851
  14 C :    0.030952
  15 C :   -0.411113
  16 O :   -0.679659
  17 C :    0.022829
  18 C :   -0.391049
  19 H :    0.167514
  20 H :    0.162845
  21 H :    0.160971
  22 H :    0.180468
  23 H :    0.189700
  24 H :    0.180288
  25 H :    0.181154
  26 H :    0.163270
  27 H :    0.167258
  28 H :    0.163870
  29 H :    0.201748
  30 H :    0.199543
  31 H :    0.180901
  32 H :    0.188957
  33 H :    0.162436
  34 H :    0.163029
  35 H :    0.165305
  36 H :    0.181597
  37 H :    0.179361
  38 H :    0.162137
  39 H :    0.168611
  40 H :    0.162781

  Mayer bond orders larger than 0.100000
B(  0-C ,  1-C ) :   0.9220 B(  0-C , 19-H ) :   0.9558 B(  0-C , 20-H ) :   0.9671
B(  0-C , 21-H ) :   0.9620 B(  1-C ,  2-O ) :   0.8028 B(  1-C , 22-H ) :   0.9607
B(  1-C , 23-H ) :   0.9498 B(  2-O ,  3-P ) :   1.0399 B(  3-P ,  4-S ) :   1.7405
B(  3-P ,  5-O ) :   1.1569 B(  3-P ,  8-S ) :   1.0691 B(  5-O ,  6-C ) :   0.7795
B(  6-C ,  7-C ) :   0.9472 B(  6-C , 24-H ) :   0.9369 B(  6-C , 25-H ) :   0.9474
B(  7-C , 26-H ) :   0.9666 B(  7-C , 27-H ) :   0.9565 B(  7-C , 28-H ) :   0.9706
B(  8-S ,  9-C ) :   0.9103 B(  9-C , 10-S ) :   0.9003 B(  9-C , 29-H ) :   0.9103
B(  9-C , 30-H ) :   0.9059 B( 10-S , 11-P ) :   1.1187 B( 11-P , 12-S ) :   1.7052
B( 11-P , 13-O ) :   1.1599 B( 11-P , 16-O ) :   1.0818 B( 13-O , 14-C ) :   0.7483
B( 14-C , 15-C ) :   0.9307 B( 14-C , 31-H ) :   0.9622 B( 14-C , 32-H ) :   0.9515
B( 15-C , 33-H ) :   0.9623 B( 15-C , 34-H ) :   0.9655 B( 15-C , 35-H ) :   0.9586
B( 16-O , 17-C ) :   0.7675 B( 17-C , 18-C ) :   0.9551 B( 17-C , 36-H ) :   0.9481
B( 17-C , 37-H ) :   0.9370 B( 18-C , 38-H ) :   0.9697 B( 18-C , 39-H ) :   0.9590
B( 18-C , 40-H ) :   0.9689

Dispersion correction           -0.021907319
FINAL SINGLE POINT ENERGY     -2932.468205679742

DIPOLE MOMENT
-------------

Method             : SCF
Type of density    : Electron Density
Multiplicity       :   1
Irrep              :   0
Energy             : -2932.4926835054175172 Eh
Relativity type    :
Basis              : AO
                                X                 Y                 Z
Electronic contribution:      3.502032022       0.942962201      -7.817706583
Nuclear contribution   :     -3.121926440      -2.895149035       8.522827652
                        -----------------------------------------
Total Dipole Moment    :      0.380105582      -1.952186834       0.705121069
                        -----------------------------------------
Magnitude (a.u.)       :      2.110144405
Magnitude (Debye)      :      5.363560830

Rotational constants in cm-1:             0.013030             0.005048             0.004914
Rotational constants in MHz :           390.622416           151.326437           147.329310

                             ****ORCA TERMINATED NORMALLY****
TOTAL RUN TIME: 0 days 0 hours 1 minutes 53 seconds 252 msec
