                         Program Version 6.0.0  -   RELEASE  -
|  1> ! pbe def2-sv(p) def2/J RI DEFGRID1 loosescf d4 GCP(DFT/SV(P)) printgap
|  2> %output
|  3>     printlevel normal
|  4> end
|  5> * xyz 0 1
|  6> C 3.2610785476 -0.3525831341 -3.2876520752
|  7> C 2.0059928015 -0.7080117291 -2.5178464681
|  8> O 1.8957374497 0.101251279 -1.3252207193
|  9> P 2.3790341935 -0.4349142476 0.0857761446
| 10> S 4.202131414 -1.1380852848 0.2251807585
| 11> O 1.2576447526 -1.5306229703 0.401197256
| 12> C 1.4457847827 -2.5181523174 1.4296166144
| 13> C 1.3782738392 -1.9060632962 2.8140368958
| 14> S 1.9683648208 1.2792702839 1.236126863
| 15> C 0.30037268 1.7136586121 0.6679918765
| 16> S -0.9765217709 0.5625732037 1.2607289492
| 17> P -2.2555587716 0.7082739653 -0.4374910698
| 18> S -1.3497399985 0.6688881732 -2.1745867735
| 19> O -3.0514941138 2.0629539835 -0.265131992
| 20> C -4.2270102155 2.2619383284 0.5583054613
| 21> C -3.9697653912 2.0013523827 2.0273463647
| 22> O -3.3741555274 -0.3937312395 -0.2063343695
| 23> C -3.2317110944 -1.7465480634 -0.6765549998
| 24> C -2.1194206179 -2.4857016691 0.0373430906
| 25> H 4.1437228018 -0.5830295199 -2.6943447475
| 26> H 3.2895867984 -0.9275715002 -4.2075838968
| 27> H 3.2641141182 0.7075815159 -3.5252037731
| 28> H 2.000437959 -1.7640676624 -2.2359337879
| 29> H 1.1027739533 -0.4769333569 -3.0876822035
| 30> H 0.6397912612 -3.2337243797 1.2631792063
| 31> H 2.4156062527 -3.0003633957 1.2689381345
| 32> H 0.4510384768 -1.3516443477 2.9388940019
| 33> H 1.4336765097 -2.694033745 3.5578491503
| 34> H 2.2167289074 -1.2246258005 2.9577208842
| 35> H 0.2796690305 1.7281005343 -0.4228314064
| 36> H 0.1138435049 2.7011669227 1.0831332042
| 37> H -4.4836330978 3.3062199255 0.3730921768
| 38> H -5.0186181845 1.6123615377 0.1806031638
| 39> H -3.7278060126 0.9532592784 2.1897441019
| 40> H -3.1457862823 2.6120091266 2.3872737137
| 41> H -4.8657006807 2.2485006709 2.5885292271
| 42> H -4.2067291485 -2.1938294515 -0.4774539963
| 43> H -3.0464886596 -1.7202707206 -1.754964548
| 44> H -2.1253277478 -3.5259763637 -0.2728357642
| 45> H -1.1571151298 -2.0455324885 -0.221099289
| 46> H -2.2563552349 -2.4273509057 1.1143235159
| 47> *
| 48>
| 49>                          ****END OF INPUT****

CARTESIAN COORDINATES (ANGSTROEM)
---------------------------------
  C      3.261079   -0.352583   -3.287652
  C      2.005993   -0.708012   -2.517846
  O      1.895737    0.101251   -1.325221
  P      2.379034   -0.434914    0.085776
  S      4.202131   -1.138085    0.225181
  O      1.257645   -1.530623    0.401197
  C      1.445785   -2.518152    1.429617
  C      1.378274   -1.906063    2.814037
  S      1.968365    1.279270    1.236127
  C      0.300373    1.713659    0.667992
  S     -0.976522    0.562573    1.260729
  P     -2.255559    0.708274   -0.437491
  S     -1.349740    0.668888   -2.174587
  O     -3.051494    2.062954   -0.265132
  C     -4.227010    2.261938    0.558305
  C     -3.969765    2.001352    2.027346
  O     -3.374156   -0.393731   -0.206334
  C     -3.231711   -1.746548   -0.676555
  C     -2.119421   -2.485702    0.037343
  H      4.143723   -0.583030   -2.694345
  H      3.289587   -0.927572   -4.207584
  H      3.264114    0.707582   -3.525204
  H      2.000438   -1.764068   -2.235934
  H      1.102774   -0.476933   -3.087682
  H      0.639791   -3.233724    1.263179
  H      2.415606   -3.000363    1.268938
  H      0.451038   -1.351644    2.938894
  H      1.433677   -2.694034    3.557849
  H      2.216729   -1.224626    2.957721
  H      0.279669    1.728101   -0.422831
  H      0.113844    2.701167    1.083133
  H     -4.483633    3.306220    0.373092
  H     -5.018618    1.612362    0.180603
  H     -3.727806    0.953259    2.189744
  H     -3.145786    2.612009    2.387274
  H     -4.865701    2.248501    2.588529
  H     -4.206729   -2.193829   -0.477454
  H     -3.046489   -1.720271   -1.754965
  H     -2.125328   -3.525976   -0.272836
  H     -1.157115   -2.045532   -0.221099
  H     -2.256355   -2.427351    1.114324

 Total Charge           Charge          ....    0
 Multiplicity           Mult            ....    1
 Number of Electrons    NEL             ....  202
 Basis Dimension        Dim             ....  334

ORBITAL ENERGIES
----------------

  NO   OCC          E(Eh)            E(eV)
   0   2.0000     -88.045497     -2395.8398
   1   2.0000     -88.043934     -2395.7972
   2   2.0000     -87.989163     -2394.3069
   3   2.0000     -87.984608     -2394.1829
   4   2.0000     -76.432532     -2079.8349
   5   2.0000     -76.423304     -2079.5838
   6   2.0000     -18.805967      -511.7364
   7   2.0000     -18.793940      -511.4091
   8   2.0000     -18.788054      -511.2489
   9   2.0000     -18.785380      -511.1762
  10   2.0000      -9.961948      -271.0784
  11   2.0000      -9.961801      -271.0744
  12   2.0000      -9.955698      -270.9083
  13   2.0000      -9.947907      -270.6963
  14   2.0000      -9.944814      -270.6122
  15   2.0000      -9.893015      -269.2026
  16   2.0000      -9.889787      -269.1148
  17   2.0000      -9.880342      -268.8578
  18   2.0000      -9.874076      -268.6873
  19   2.0000      -7.690836      -209.2783
  20   2.0000      -7.688566      -209.2165
  21   2.0000      -7.634205      -207.7373
  22   2.0000      -7.629729      -207.6155
  23   2.0000      -6.429846      -174.9650
  24   2.0000      -6.421118      -174.7275
  25   2.0000      -5.719206      -155.6275
  26   2.0000      -5.716473      -155.5531
  27   2.0000      -5.714954      -155.5118
  28   2.0000      -5.713315      -155.4672
  29   2.0000      -5.707675      -155.3137
  30   2.0000      -5.705311      -155.2494
  31   2.0000      -5.663144      -154.1020
  32   2.0000      -5.658677      -153.9804
  33   2.0000      -5.655068      -153.8822
  34   2.0000      -5.654059      -153.8548
  35   2.0000      -5.650523      -153.7586
  36   2.0000      -5.649705      -153.7363
  37   2.0000      -4.653100      -126.6173
  38   2.0000      -4.651284      -126.5679
  39   2.0000      -4.650017      -126.5334
  40   2.0000      -4.643630      -126.3596
  41   2.0000      -4.643036      -126.3434
  42   2.0000      -4.641500      -126.3016
  43   2.0000      -0.995869       -27.0990
  44   2.0000      -0.982097       -26.7242
  45   2.0000      -0.951358       -25.8878
  46   2.0000      -0.939769       -25.5724
  47   2.0000      -0.763228       -20.7685
  48   2.0000      -0.724849       -19.7241
  49   2.0000      -0.708512       -19.2796
  50   2.0000      -0.698025       -18.9942
  51   2.0000      -0.683022       -18.5860
  52   2.0000      -0.676336       -18.4040
  53   2.0000      -0.654418       -17.8076
  54   2.0000      -0.637662       -17.3517
  55   2.0000      -0.602923       -16.4064
  56   2.0000      -0.589125       -16.0309
  57   2.0000      -0.586016       -15.9463
  58   2.0000      -0.568661       -15.4740
  59   2.0000      -0.558600       -15.2003
  60   2.0000      -0.502924       -13.6852
  61   2.0000      -0.496386       -13.5073
  62   2.0000      -0.477254       -12.9867
  63   2.0000      -0.464938       -12.6516
  64   2.0000      -0.459148       -12.4940
  65   2.0000      -0.452988       -12.3264
  66   2.0000      -0.446291       -12.1442
  67   2.0000      -0.436140       -11.8680
  68   2.0000      -0.431835       -11.7508
  69   2.0000      -0.417960       -11.3733
  70   2.0000      -0.413156       -11.2425
  71   2.0000      -0.406307       -11.0562
  72   2.0000      -0.397307       -10.8113
  73   2.0000      -0.387950       -10.5567
  74   2.0000      -0.379160       -10.3175
  75   2.0000      -0.374612       -10.1937
  76   2.0000      -0.366041        -9.9605
  77   2.0000      -0.361514        -9.8373
  78   2.0000      -0.357820        -9.7368
  79   2.0000      -0.351242        -9.5578
  80   2.0000      -0.348213        -9.4754
  81   2.0000      -0.343714        -9.3529
  82   2.0000      -0.342759        -9.3270
  83   2.0000      -0.334120        -9.0919
  84   2.0000      -0.327863        -8.9216
  85   2.0000      -0.323840        -8.8121
  86   2.0000      -0.312209        -8.4956
  87   2.0000      -0.302451        -8.2301
  88   2.0000      -0.301072        -8.1926
  89   2.0000      -0.291640        -7.9359
  90   2.0000      -0.286736        -7.8025
  91   2.0000      -0.279212        -7.5978
  92   2.0000      -0.270080        -7.3493
  93   2.0000      -0.264783        -7.2051
  94   2.0000      -0.263416        -7.1679
  95   2.0000      -0.229025        -6.2321
  96   2.0000      -0.222083        -6.0432
  97   2.0000      -0.210785        -5.7358
  98   2.0000      -0.206489        -5.6189
  99   2.0000      -0.199429        -5.4267
 100   2.0000      -0.197264        -5.3678
 101   0.0000      -0.044387        -1.2078
 102   0.0000      -0.030296        -0.8244
 103   0.0000      -0.022365        -0.6086
 104   0.0000       0.001499         0.0408
 105   0.0000       0.013224         0.3598

MULLIKEN ATOMIC CHARGES
-----------------------
   0 C :   -0.289041
   1 C :   -0.008616
   2 O :   -0.370021
   3 P :    0.621123
   4 S :   -0.323755
   5 O :   -0.370482
   6 C :   -0.009245
   7 C :   -0.322167
   8 S :   -0.076911
   9 C :   -0.353669
  10 S :   -0.103362
  11 P :    0.609948
  12 S :   -0.309813
  13 O :   -0.368966
  14 C :    0.007877
  15 C :   -0.317957
  16 O :   -0.384829
  17 C :    0.011830
  18 C :   -0.369767
  19 H :    0.125521
  20 H :    0.105297
  21 H :    0.114968
  22 H :    0.096639
  23 H :    0.118008
  24 H :    0.105259
  25 H :    0.112637
  26 H :    0.125056
  27 H :    0.109882
  28 H :    0.124007
  29 H :    0.209244
  30 H :    0.182395
  31 H :    0.111624
  32 H :    0.109403
  33 H :    0.123600
  34 H :    0.121795
  35 H :    0.114735
  36 H :    0.105125
  37 H :    0.114006
  38 H :    0.115745
  39 H :    0.166652
  40 H :    0.116225
Sum of atomic charges:   -0.0000000

LOEWDIN ATOMIC CHARGES
----------------------
   0 C :   -0.361427
   1 C :   -0.114344
   2 O :   -0.237766
   3 P :    0.567275
   4 S :   -0.319659
   5 O :   -0.243175
   6 C :   -0.123597
   7 C :   -0.370769
   8 S :    0.100694
   9 C :   -0.479510
  10 S :    0.080827
  11 P :    0.576446
  12 S :   -0.298870
  13 O :   -0.245967
  14 C :   -0.107241
  15 C :   -0.369088
  16 O :   -0.244184
  17 C :   -0.114472
  18 C :   -0.379099
  19 H :    0.124224
  20 H :    0.127723
  21 H :    0.126811
  22 H :    0.107618
  23 H :    0.113445
  24 H :    0.114680
  25 H :    0.108545
  26 H :    0.117870
  27 H :    0.129448
  28 H :    0.120812
  29 H :    0.127750
  30 H :    0.134955
  31 H :    0.123015
  32 H :    0.115119
  33 H :    0.118089
  34 H :    0.125892
  35 H :    0.131687
  36 H :    0.118793
  37 H :    0.114172
  38 H :    0.132235
  39 H :    0.128342
  40 H :    0.122699

  Mayer bond orders larger than 0.100000
B(  0-C ,  1-C ) :   1.1704 B(  0-C , 19-H ) :   0.9348 B(  0-C , 20-H ) :   0.9407
B(  0-C , 21-H ) :   0.9471 B(  1-C ,  2-O ) :   0.8892 B(  1-C , 22-H ) :   0.9175
B(  1-C , 23-H ) :   0.9210 B(  2-O ,  3-P ) :   1.1230 B(  3-P ,  4-S ) :   1.6448
B(  3-P ,  5-O ) :   1.0691 B(  3-P ,  8-S ) :   0.9682 B(  5-O ,  6-C ) :   0.9071
B(  6-C ,  7-C ) :   1.1644 B(  6-C , 24-H ) :   0.9271 B(  6-C , 25-H ) :   0.9114
B(  7-C , 26-H ) :   0.9396 B(  7-C , 27-H ) :   0.9385 B(  7-C , 28-H ) :   0.9352
B(  8-S ,  9-C ) :   1.0003 B(  9-C , 10-S ) :   0.9828 B(  9-C , 29-H ) :   0.8534
B(  9-C , 30-H ) :   0.9095 B( 10-S , 11-P ) :   0.9556 B( 10-S , 12-S ) :   0.1137
B( 11-P , 12-S ) :   1.6278 B( 11-P , 13-O ) :   1.1243 B( 11-P , 16-O ) :   1.0836
B( 13-O , 14-C ) :   0.9017 B( 14-C , 15-C ) :   1.1694 B( 14-C , 31-H ) :   0.9349
B( 14-C , 32-H ) :   0.9288 B( 15-C , 33-H ) :   0.9396 B( 15-C , 34-H ) :   0.9428
B( 15-C , 35-H ) :   0.9354 B( 16-O , 17-C ) :   0.8991 B( 17-C , 18-C ) :   1.1638
B( 17-C , 36-H ) :   0.9326 B( 17-C , 37-H ) :   0.9173 B( 18-C , 38-H ) :   0.9356
B( 18-C , 39-H ) :   0.9158 B( 18-C , 40-H ) :   0.9436

Dispersion correction           -0.066176014
FINAL SINGLE POINT ENERGY     -2929.515933186628

DIPOLE MOMENT
-------------

Method             : SCF
Type of density    : Electron Density
Multiplicity       :   1
Irrep              :   0
Energy             : -2929.6370069213835450 Eh
Relativity type    :
Basis              : AO
                                X                 Y                 Z
Electronic contribution:     10.100630008      10.366843383      -2.514436898
Nuclear contribution   :    -12.168498903     -10.881541206       3.095400084
                        -----------------------------------------
Total Dipole Moment    :     -2.067868894      -0.514697823       0.580963186
                        -----------------------------------------
Magnitude (a.u.)       :      2.208735801
Magnitude (Debye)      :      5.614160240

Rotational constants in cm-1:             0.012230             0.005170             0.004874
Rotational constants in MHz :           366.631588           154.997141           146.125687

                             ****ORCA TERMINATED NORMALLY****
TOTAL RUN TIME: 0 days 0 hours 0 minutes 21 seconds 863 msec
