                         Program Version 6.0.0  -   RELEASE  -
|  1> ! pbe def2-sv(p) def2/J RI DEFGRID1 loosescf d4 GCP(DFT/SV(P)) printgap
|  2> %output
|  3>     printlevel normal
|  4> end
|  5> * xyz 0 1
|  6> C 3.2351251985 -0.8667754669 -3.167014891
|  7> C 4.0937375432 -0.7352298489 -1.9273093615
|  8> O 3.5586408072 0.200646022 -0.9708204837
|  9> P 2.07250367 0.1966555241 -0.408928229
| 10> S 0.7112587892 1.0100534989 -1.5586319042
| 11> O 2.2249937282 1.066012318 0.8949747889
| 12> C 3.228160132 0.882288474 1.9244993427
| 13> C 2.6766275384 0.0782874723 3.0861316037
| 14> S 1.8525122807 -1.8483838964 0.1537344075
| 15> C 0.2015871718 -1.8360369932 0.8962078068
| 16> S -1.1383711785 -1.6062982678 -0.3152880144
| 17> P -1.9521797132 0.1933042034 0.4294842256
| 18> S -0.9247285324 1.1976163773 1.7544352649
| 19> O -3.3003492919 -0.4457579604 1.0243734175
| 20> C -4.0494774974 0.1815070387 2.0804203809
| 21> C -4.789541775 1.4131943722 1.5976186105
| 22> O -2.398302319 1.0958038102 -0.7913909115
| 23> C -3.336982504 0.6894147577 -1.8153717223
| 24> C -2.6409882396 -0.0005236697 -2.9714242521
| 25> H 3.0772922714 0.1072714696 -3.6243115519
| 26> H 3.7259428431 -1.5244885406 -3.8769942996
| 27> H 2.2628514271 -1.2843317346 -2.9081819755
| 28> H 5.0763839941 -0.3230406419 -2.1638020316
| 29> H 4.2042566232 -1.702094561 -1.4289140687
| 30> H 4.1076143288 0.4084992819 1.4846043755
| 31> H 3.4713753865 1.9002627294 2.2330226978
| 32> H 2.5478873497 -0.9657226365 2.8113697809
| 33> H 3.3699818961 0.140279515 3.9187400076
| 34> H 1.7163614906 0.4895859551 3.3911192507
| 35> H 0.137075989 -1.0371048521 1.6397252137
| 36> H 0.0815246799 -2.8164038834 1.3495942818
| 37> H -4.734279631 -0.5982098956 2.4165144651
| 38> H -3.3566200666 0.4433450231 2.8864842023
| 39> H -4.0754526521 2.1594670001 1.2489799286
| 40> H -5.4627936067 1.1606762027 0.7823972205
| 41> H -5.3621063542 1.8323933578 2.4190348943
| 42> H -4.0946686748 0.042874438 -1.3645249559
| 43> H -3.7875517111 1.6311736364 -2.1339173516
| 44> H -3.3337636847 -0.0875631534 -3.8023227626
| 45> H -1.7761065835 0.5829473775 -3.2794178168
| 46> H -2.3014623526 -0.9931954784 -2.6844558316
| 47> *
| 48>
| 49>                          ****END OF INPUT****

CARTESIAN COORDINATES (ANGSTROEM)
---------------------------------
  C      3.235125   -0.866775   -3.167015
  C      4.093738   -0.735230   -1.927309
  O      3.558641    0.200646   -0.970820
  P      2.072504    0.196656   -0.408928
  S      0.711259    1.010053   -1.558632
  O      2.224994    1.066012    0.894975
  C      3.228160    0.882288    1.924499
  C      2.676628    0.078287    3.086132
  S      1.852512   -1.848384    0.153734
  C      0.201587   -1.836037    0.896208
  S     -1.138371   -1.606298   -0.315288
  P     -1.952180    0.193304    0.429484
  S     -0.924729    1.197616    1.754435
  O     -3.300349   -0.445758    1.024373
  C     -4.049477    0.181507    2.080420
  C     -4.789542    1.413194    1.597619
  O     -2.398302    1.095804   -0.791391
  C     -3.336983    0.689415   -1.815372
  C     -2.640988   -0.000524   -2.971424
  H      3.077292    0.107271   -3.624312
  H      3.725943   -1.524489   -3.876994
  H      2.262851   -1.284332   -2.908182
  H      5.076384   -0.323041   -2.163802
  H      4.204257   -1.702095   -1.428914
  H      4.107614    0.408499    1.484604
  H      3.471375    1.900263    2.233023
  H      2.547887   -0.965723    2.811370
  H      3.369982    0.140280    3.918740
  H      1.716361    0.489586    3.391119
  H      0.137076   -1.037105    1.639725
  H      0.081525   -2.816404    1.349594
  H     -4.734280   -0.598210    2.416514
  H     -3.356620    0.443345    2.886484
  H     -4.075453    2.159467    1.248980
  H     -5.462794    1.160676    0.782397
  H     -5.362106    1.832393    2.419035
  H     -4.094669    0.042874   -1.364525
  H     -3.787552    1.631174   -2.133917
  H     -3.333764   -0.087563   -3.802323
  H     -1.776107    0.582947   -3.279418
  H     -2.301462   -0.993195   -2.684456

 Total Charge           Charge          ....    0
 Multiplicity           Mult            ....    1
 Number of Electrons    NEL             ....  202
 Basis Dimension        Dim             ....  334

ORBITAL ENERGIES
----------------

  NO   OCC          E(Eh)            E(eV)
   0   2.0000     -88.041947     -2395.7432
   1   2.0000     -88.034737     -2395.5470
   2   2.0000     -87.980132     -2394.0611
   3   2.0000     -87.970525     -2393.7997
   4   2.0000     -76.419125     -2079.4701
   5   2.0000     -76.418285     -2079.4472
   6   2.0000     -18.787078      -511.2224
   7   2.0000     -18.786673      -511.2113
   8   2.0000     -18.779650      -511.0203
   9   2.0000     -18.779249      -511.0093
  10   2.0000      -9.956043      -270.9177
  11   2.0000      -9.955296      -270.8974
  12   2.0000      -9.953496      -270.8484
  13   2.0000      -9.949158      -270.7303
  14   2.0000      -9.944973      -270.6165
  15   2.0000      -9.881964      -268.9019
  16   2.0000      -9.880267      -268.8557
  17   2.0000      -9.880248      -268.8552
  18   2.0000      -9.879503      -268.8349
  19   2.0000      -7.686792      -209.1683
  20   2.0000      -7.680101      -208.9862
  21   2.0000      -7.625313      -207.4953
  22   2.0000      -7.615476      -207.2276
  23   2.0000      -6.416807      -174.6102
  24   2.0000      -6.415308      -174.5694
  25   2.0000      -5.714375      -155.4960
  26   2.0000      -5.711281      -155.4118
  27   2.0000      -5.708062      -155.3243
  28   2.0000      -5.704914      -155.2386
  29   2.0000      -5.704117      -155.2169
  30   2.0000      -5.696581      -155.0118
  31   2.0000      -5.654258      -153.8602
  32   2.0000      -5.646176      -153.6403
  33   2.0000      -5.645074      -153.6103
  34   2.0000      -5.644648      -153.5987
  35   2.0000      -5.635950      -153.3620
  36   2.0000      -5.635532      -153.3506
  37   2.0000      -4.639734      -126.2536
  38   2.0000      -4.638283      -126.2141
  39   2.0000      -4.638121      -126.2097
  40   2.0000      -4.637452      -126.1915
  41   2.0000      -4.637406      -126.1902
  42   2.0000      -4.635120      -126.1280
  43   2.0000      -0.980605       -26.6836
  44   2.0000      -0.977455       -26.5979
  45   2.0000      -0.936588       -25.4859
  46   2.0000      -0.935272       -25.4500
  47   2.0000      -0.758846       -20.6493
  48   2.0000      -0.715843       -19.4791
  49   2.0000      -0.707349       -19.2480
  50   2.0000      -0.687150       -18.6983
  51   2.0000      -0.685584       -18.6557
  52   2.0000      -0.671054       -18.2603
  53   2.0000      -0.646724       -17.5982
  54   2.0000      -0.630266       -17.1504
  55   2.0000      -0.590364       -16.0646
  56   2.0000      -0.581234       -15.8162
  57   2.0000      -0.574466       -15.6320
  58   2.0000      -0.570614       -15.5272
  59   2.0000      -0.559963       -15.2374
  60   2.0000      -0.497692       -13.5429
  61   2.0000      -0.492325       -13.3968
  62   2.0000      -0.471912       -12.8414
  63   2.0000      -0.465525       -12.6676
  64   2.0000      -0.450455       -12.2575
  65   2.0000      -0.445580       -12.1248
  66   2.0000      -0.437234       -11.8977
  67   2.0000      -0.432193       -11.7606
  68   2.0000      -0.428759       -11.6671
  69   2.0000      -0.415824       -11.3151
  70   2.0000      -0.404994       -11.0205
  71   2.0000      -0.395765       -10.7693
  72   2.0000      -0.391356       -10.6494
  73   2.0000      -0.382330       -10.4037
  74   2.0000      -0.379530       -10.3275
  75   2.0000      -0.367813       -10.0087
  76   2.0000      -0.351381        -9.5616
  77   2.0000      -0.349548        -9.5117
  78   2.0000      -0.347742        -9.4625
  79   2.0000      -0.346175        -9.4199
  80   2.0000      -0.341965        -9.3053
  81   2.0000      -0.341544        -9.2939
  82   2.0000      -0.339780        -9.2459
  83   2.0000      -0.336477        -9.1560
  84   2.0000      -0.333530        -9.0758
  85   2.0000      -0.314093        -8.5469
  86   2.0000      -0.310943        -8.4612
  87   2.0000      -0.298925        -8.1342
  88   2.0000      -0.291595        -7.9347
  89   2.0000      -0.285764        -7.7760
  90   2.0000      -0.271912        -7.3991
  91   2.0000      -0.268733        -7.3126
  92   2.0000      -0.266858        -7.2616
  93   2.0000      -0.262261        -7.1365
  94   2.0000      -0.253909        -6.9092
  95   2.0000      -0.235061        -6.3963
  96   2.0000      -0.214252        -5.8301
  97   2.0000      -0.202272        -5.5041
  98   2.0000      -0.198738        -5.4079
  99   2.0000      -0.178536        -4.8582
 100   2.0000      -0.177384        -4.8269
 101   0.0000      -0.038455        -1.0464
 102   0.0000      -0.029671        -0.8074
 103   0.0000      -0.010182        -0.2771
 104   0.0000       0.003172         0.0863
 105   0.0000       0.024136         0.6568

MULLIKEN ATOMIC CHARGES
-----------------------
   0 C :   -0.309493
   1 C :   -0.012551
   2 O :   -0.381867
   3 P :    0.602891
   4 S :   -0.296568
   5 O :   -0.343209
   6 C :   -0.003222
   7 C :   -0.310065
   8 S :   -0.139030
   9 C :   -0.338701
  10 S :   -0.090364
  11 P :    0.635670
  12 S :   -0.300032
  13 O :   -0.391144
  14 C :   -0.002668
  15 C :   -0.317489
  16 O :   -0.358561
  17 C :   -0.032963
  18 C :   -0.302959
  19 H :    0.127857
  20 H :    0.108616
  21 H :    0.127787
  22 H :    0.108929
  23 H :    0.112750
  24 H :    0.099269
  25 H :    0.110240
  26 H :    0.117484
  27 H :    0.107459
  28 H :    0.136490
  29 H :    0.196017
  30 H :    0.181513
  31 H :    0.100518
  32 H :    0.106524
  33 H :    0.131769
  34 H :    0.111863
  35 H :    0.111608
  36 H :    0.106440
  37 H :    0.110361
  38 H :    0.107610
  39 H :    0.139967
  40 H :    0.131255
Sum of atomic charges:    0.0000000

LOEWDIN ATOMIC CHARGES
----------------------
   0 C :   -0.371312
   1 C :   -0.115058
   2 O :   -0.247640
   3 P :    0.560858
   4 S :   -0.296972
   5 O :   -0.226239
   6 C :   -0.110186
   7 C :   -0.367426
   8 S :    0.056428
   9 C :   -0.477801
  10 S :    0.085775
  11 P :    0.576550
  12 S :   -0.287388
  13 O :   -0.264758
  14 C :   -0.122274
  15 C :   -0.366074
  16 O :   -0.231187
  17 C :   -0.115384
  18 C :   -0.364282
  19 H :    0.130555
  20 H :    0.128702
  21 H :    0.121872
  22 H :    0.121193
  23 H :    0.106808
  24 H :    0.107680
  25 H :    0.122786
  26 H :    0.116274
  27 H :    0.128407
  28 H :    0.130400
  29 H :    0.121333
  30 H :    0.137539
  31 H :    0.116058
  32 H :    0.106526
  33 H :    0.126904
  34 H :    0.121291
  35 H :    0.130299
  36 H :    0.107556
  37 H :    0.121700
  38 H :    0.128781
  39 H :    0.132852
  40 H :    0.118854

  Mayer bond orders larger than 0.100000
B(  0-C ,  1-C ) :   1.1681 B(  0-C , 19-H ) :   0.9414 B(  0-C , 20-H ) :   0.9340
B(  0-C , 21-H ) :   0.9312 B(  1-C ,  2-O ) :   0.9150 B(  1-C , 22-H ) :   0.9335
B(  1-C , 23-H ) :   0.9261 B(  2-O ,  3-P ) :   1.0796 B(  3-P ,  4-S ) :   1.6666
B(  3-P ,  5-O ) :   1.1386 B(  3-P ,  8-S ) :   0.9294 B(  4-S ,  8-S ) :   0.1181
B(  5-O ,  6-C ) :   0.9013 B(  6-C ,  7-C ) :   1.1685 B(  6-C , 24-H ) :   0.9194
B(  6-C , 25-H ) :   0.9351 B(  7-C , 26-H ) :   0.9331 B(  7-C , 27-H ) :   0.9385
B(  7-C , 28-H ) :   0.9367 B(  8-S ,  9-C ) :   0.9889 B(  9-C , 10-S ) :   1.0136
B(  9-C , 29-H ) :   0.8459 B(  9-C , 30-H ) :   0.9116 B( 10-S , 11-P ) :   0.9508
B( 10-S , 12-S ) :   0.1101 B( 11-P , 12-S ) :   1.6120 B( 11-P , 13-O ) :   1.0585
B( 11-P , 16-O ) :   1.1214 B( 12-S , 29-H ) :   0.1111 B( 13-O , 14-C ) :   0.9217
B( 14-C , 15-C ) :   1.1596 B( 14-C , 31-H ) :   0.9347 B( 14-C , 32-H ) :   0.9106
B( 15-C , 33-H ) :   0.9370 B( 15-C , 34-H ) :   0.9463 B( 15-C , 35-H ) :   0.9398
B( 16-O , 17-C ) :   0.9064 B( 17-C , 18-C ) :   1.1710 B( 17-C , 36-H ) :   0.9155
B( 17-C , 37-H ) :   0.9344 B( 18-C , 38-H ) :   0.9374 B( 18-C , 39-H ) :   0.9385
B( 18-C , 40-H ) :   0.9346

Dispersion correction           -0.068383791
FINAL SINGLE POINT ENERGY     -2929.504637048828

DIPOLE MOMENT
-------------

Method             : SCF
Type of density    : Electron Density
Multiplicity       :   1
Irrep              :   0
Energy             : -2929.6215221847319299 Eh
Relativity type    :
Basis              : AO
                                X                 Y                 Z
Electronic contribution:      4.331997516      -0.238753256       0.826944189
Nuclear contribution   :     -4.348387743      -0.690531122      -0.659919362
                        -----------------------------------------
Total Dipole Moment    :     -0.016390228      -0.929284378       0.167024827
                        -----------------------------------------
Magnitude (a.u.)       :      0.944317419
Magnitude (Debye)      :      2.400264127

Rotational constants in cm-1:             0.012586             0.005653             0.004814
Rotational constants in MHz :           377.304681           169.459556           144.316498

                             ****ORCA TERMINATED NORMALLY****
TOTAL RUN TIME: 0 days 0 hours 0 minutes 21 seconds 20 msec
