                         Program Version 6.0.1  -  RELEASE   -
|  1> ! pbe def2-sv(p) def2/J RI DEFGRID1 loosescf d4 GCP(DFT/SV(P)) printgap
|  2> %output
|  3>     printlevel normal
|  4> end
|  5> * xyz 0 1
|  6> C 4.2855572261 -2.0515834229 0.9443043236
|  7> C 2.8024416362 -2.0352257326 0.6322189581
|  8> O 2.5736237575 -1.0650091343 -0.4077459842
|  9> C 1.4147877513 -1.0668528356 -1.0203490156
| 10> O 0.5072469912 -1.8401371273 -0.7768626857
| 11> C 1.3236592502 0.0092070851 -2.0813252644
| 12> C 0.1769548524 0.9708361986 -1.7744237412
| 13> H 0.066698752 1.6857658553 -2.5959889193
| 14> C 0.3521012254 1.763559381 -0.4908305026
| 15> O -0.5932280046 2.2297430491 0.1163638337
| 16> O 1.6032638257 1.9014142791 -0.1537727793
| 17> C 1.9036232655 2.5980429309 1.0738008753
| 18> C 3.4105217776 2.6328816297 1.2227669737
| 19> S -1.4509791108 0.1432263032 -1.6950476235
| 20> P -1.71728061 -0.267473425 0.3779045051
| 21> S -0.3090321221 -0.3612964513 1.7362405147
| 22> O -2.8277608034 0.7414865012 0.8838958064
| 23> C -4.0438916721 1.0151808881 0.1674403705
| 24> O -2.618624892 -1.5902407171 0.2928481487
| 25> C -2.1338068756 -2.9011055579 -0.0007460497
| 26> H 4.6048260771 -1.0736391039 1.2909186538
| 27> H 4.4771541652 -2.7838051872 1.7213190711
| 28> H 4.8517107146 -2.3132252316 0.0553403483
| 29> H 2.2026444518 -1.7454891065 1.5014242285
| 30> H 2.447867785 -3.0083339609 0.2778575658
| 31> H 1.1216974176 -0.4723008015 -3.0390871932
| 32> H 2.2647174805 0.5558339709 -2.1170545462
| 33> H 1.4671539191 3.5995809258 1.0174957495
| 34> H 1.4210354603 2.0542526371 1.8928641472
| 35> H 3.8565169249 3.1810181588 0.3986682961
| 36> H 3.6647735567 3.1181908683 2.1587568154
| 37> H 3.8002634536 1.6194622098 1.2264522375
| 38> H -4.6378406603 0.1065228593 0.0838111887
| 39> H -3.8123448716 1.407346814 -0.8230245828
| 40> H -4.5580915712 1.7634797361 0.7647575821
| 41> H -1.2775341962 -3.1355520118 0.6311611182
| 42> H -1.8358043295 -2.9642247537 -1.0461250575
| 43> H -2.9653516217 -3.5687580279 0.2108306212
| 44> *
| 45>
| 46>                          ****END OF INPUT****

CARTESIAN COORDINATES (ANGSTROEM)
---------------------------------
  C      4.285557   -2.051583    0.944304
  C      2.802442   -2.035226    0.632219
  O      2.573624   -1.065009   -0.407746
  C      1.414788   -1.066853   -1.020349
  O      0.507247   -1.840137   -0.776863
  C      1.323659    0.009207   -2.081325
  C      0.176955    0.970836   -1.774424
  H      0.066699    1.685766   -2.595989
  C      0.352101    1.763559   -0.490831
  O     -0.593228    2.229743    0.116364
  O      1.603264    1.901414   -0.153773
  C      1.903623    2.598043    1.073801
  C      3.410522    2.632882    1.222767
  S     -1.450979    0.143226   -1.695048
  P     -1.717281   -0.267473    0.377905
  S     -0.309032   -0.361296    1.736241
  O     -2.827761    0.741487    0.883896
  C     -4.043892    1.015181    0.167440
  O     -2.618625   -1.590241    0.292848
  C     -2.133807   -2.901106   -0.000746
  H      4.604826   -1.073639    1.290919
  H      4.477154   -2.783805    1.721319
  H      4.851711   -2.313225    0.055340
  H      2.202644   -1.745489    1.501424
  H      2.447868   -3.008334    0.277858
  H      1.121697   -0.472301   -3.039087
  H      2.264717    0.555834   -2.117055
  H      1.467154    3.599581    1.017496
  H      1.421035    2.054253    1.892864
  H      3.856517    3.181018    0.398668
  H      3.664774    3.118191    2.158757
  H      3.800263    1.619462    1.226452
  H     -4.637841    0.106523    0.083811
  H     -3.812345    1.407347   -0.823025
  H     -4.558092    1.763480    0.764758
  H     -1.277534   -3.135552    0.631161
  H     -1.835804   -2.964225   -1.046125
  H     -2.965352   -3.568758    0.210831

 Total Charge           Charge          ....    0
 Multiplicity           Mult            ....    1
 Number of Electrons    NEL             ....  174
 Basis Dimension        Dim             ....  316

ORBITAL ENERGIES
----------------

  NO   OCC          E(Eh)            E(eV)
   0   2.0000     -88.031625     -2395.4623
   1   2.0000     -87.969174     -2393.7629
   2   2.0000     -76.416024     -2079.3857
   3   2.0000     -18.811282      -511.8810
   4   2.0000     -18.803609      -511.6722
   5   2.0000     -18.777556      -510.9633
   6   2.0000     -18.771679      -510.8034
   7   2.0000     -18.736724      -509.8522
   8   2.0000     -18.734973      -509.8045
   9   2.0000     -10.016287      -272.5570
  10   2.0000     -10.009110      -272.3617
  11   2.0000      -9.952764      -270.8285
  12   2.0000      -9.946701      -270.6635
  13   2.0000      -9.942706      -270.5548
  14   2.0000      -9.932588      -270.2795
  15   2.0000      -9.926832      -270.1228
  16   2.0000      -9.911530      -269.7064
  17   2.0000      -9.889411      -269.1045
  18   2.0000      -9.888553      -269.0812
  19   2.0000      -7.676556      -208.8897
  20   2.0000      -7.614401      -207.1984
  21   2.0000      -6.411765      -174.4730
  22   2.0000      -5.704811      -155.2358
  23   2.0000      -5.701228      -155.1383
  24   2.0000      -5.692954      -154.9131
  25   2.0000      -5.643716      -153.5733
  26   2.0000      -5.634987      -153.3358
  27   2.0000      -5.634033      -153.3098
  28   2.0000      -4.634473      -126.1104
  29   2.0000      -4.633902      -126.0949
  30   2.0000      -4.632172      -126.0478
  31   2.0000      -1.019956       -27.7544
  32   2.0000      -1.010316       -27.4921
  33   2.0000      -0.969014       -26.3682
  34   2.0000      -0.924121       -25.1466
  35   2.0000      -0.918090       -24.9825
  36   2.0000      -0.912960       -24.8429
  37   2.0000      -0.763978       -20.7889
  38   2.0000      -0.711354       -19.3569
  39   2.0000      -0.708599       -19.2820
  40   2.0000      -0.686577       -18.6827
  41   2.0000      -0.655089       -17.8259
  42   2.0000      -0.622252       -16.9323
  43   2.0000      -0.616216       -16.7681
  44   2.0000      -0.605727       -16.4827
  45   2.0000      -0.588039       -16.0014
  46   2.0000      -0.560866       -15.2619
  47   2.0000      -0.513614       -13.9762
  48   2.0000      -0.508368       -13.8334
  49   2.0000      -0.498441       -13.5633
  50   2.0000      -0.480728       -13.0813
  51   2.0000      -0.460724       -12.5369
  52   2.0000      -0.451993       -12.2993
  53   2.0000      -0.447601       -12.1799
  54   2.0000      -0.443944       -12.0803
  55   2.0000      -0.422244       -11.4899
  56   2.0000      -0.417405       -11.3582
  57   2.0000      -0.411318       -11.1925
  58   2.0000      -0.407610       -11.0916
  59   2.0000      -0.405307       -11.0290
  60   2.0000      -0.397168       -10.8075
  61   2.0000      -0.387503       -10.5445
  62   2.0000      -0.385741       -10.4966
  63   2.0000      -0.375115       -10.2074
  64   2.0000      -0.370715       -10.0877
  65   2.0000      -0.362673        -9.8688
  66   2.0000      -0.359489        -9.7822
  67   2.0000      -0.355353        -9.6696
  68   2.0000      -0.353468        -9.6184
  69   2.0000      -0.340260        -9.2590
  70   2.0000      -0.335108        -9.1188
  71   2.0000      -0.320776        -8.7288
  72   2.0000      -0.314267        -8.5517
  73   2.0000      -0.308446        -8.3932
  74   2.0000      -0.303180        -8.2499
  75   2.0000      -0.297048        -8.0831
  76   2.0000      -0.284517        -7.7421
  77   2.0000      -0.282151        -7.6777
  78   2.0000      -0.265240        -7.2176
  79   2.0000      -0.262320        -7.1381
  80   2.0000      -0.252743        -6.8775
  81   2.0000      -0.248184        -6.7534
  82   2.0000      -0.234630        -6.3846
  83   2.0000      -0.224891        -6.1196
  84   2.0000      -0.197680        -5.3791
  85   2.0000      -0.188124        -5.1191
  86   2.0000      -0.178665        -4.8617
  87   0.0000      -0.042862        -1.1663
  88   0.0000      -0.033874        -0.9218
  89   0.0000      -0.025759        -0.7010
  90   0.0000       0.007193         0.1957
  91   0.0000       0.026649         0.7252

MULLIKEN ATOMIC CHARGES
-----------------------
   0 C :   -0.285803
   1 C :   -0.037537
   2 O :   -0.218237
   3 C :    0.086596
   4 O :   -0.205223
   5 C :    0.010365
   6 C :   -0.313888
   7 H :    0.155319
   8 C :    0.166408
   9 O :   -0.187168
  10 O :   -0.215296
  11 C :   -0.031026
  12 C :   -0.287935
  13 S :   -0.096111
  14 P :    0.642327
  15 S :   -0.332384
  16 O :   -0.354354
  17 C :   -0.102746
  18 O :   -0.395288
  19 C :   -0.087845
  20 H :    0.123258
  21 H :    0.112244
  22 H :    0.111600
  23 H :    0.126321
  24 H :    0.103333
  25 H :    0.113401
  26 H :    0.108610
  27 H :    0.106579
  28 H :    0.127424
  29 H :    0.111247
  30 H :    0.113039
  31 H :    0.127705
  32 H :    0.114735
  33 H :    0.116962
  34 H :    0.125913
  35 H :    0.117768
  36 H :    0.116915
  37 H :    0.112773
Sum of atomic charges:    0.0000000

LOEWDIN ATOMIC CHARGES
----------------------
   0 C :   -0.351547
   1 C :   -0.111580
   2 O :   -0.046267
   3 C :    0.022543
   4 O :   -0.172644
   5 C :   -0.251269
   6 C :   -0.257696
   7 H :    0.152528
   8 C :   -0.007782
   9 O :   -0.161529
  10 O :   -0.038469
  11 C :   -0.105962
  12 C :   -0.352091
  13 S :    0.107953
  14 P :    0.592760
  15 S :   -0.302023
  16 O :   -0.234370
  17 C :   -0.212858
  18 O :   -0.258591
  19 C :   -0.210649
  20 H :    0.124754
  21 H :    0.131412
  22 H :    0.124976
  23 H :    0.117141
  24 H :    0.115872
  25 H :    0.143979
  26 H :    0.138741
  27 H :    0.117904
  28 H :    0.121501
  29 H :    0.124785
  30 H :    0.132004
  31 H :    0.127127
  32 H :    0.111001
  33 H :    0.106556
  34 H :    0.123845
  35 H :    0.112240
  36 H :    0.110967
  37 H :    0.114738

  Mayer bond orders larger than 0.100000
B(  0-C ,  1-C ) :   1.1510 B(  0-C , 20-H ) :   0.9465 B(  0-C , 21-H ) :   0.9434
B(  0-C , 22-H ) :   0.9497 B(  1-C ,  2-O ) :   0.8962 B(  1-C , 23-H ) :   0.9217
B(  1-C , 24-H ) :   0.9252 B(  2-O ,  3-C ) :   1.2578 B(  3-C ,  4-O ) :   1.9736
B(  3-C ,  5-C ) :   1.0109 B(  5-C ,  6-C ) :   1.0344 B(  5-C , 25-H ) :   0.8818
B(  5-C , 26-H ) :   0.8806 B(  6-C ,  7-H ) :   0.8708 B(  6-C ,  8-C ) :   0.8983
B(  6-C , 13-S ) :   1.0331 B(  8-C ,  9-O ) :   2.0236 B(  8-C , 10-O ) :   1.2787
B( 10-O , 11-C ) :   0.8868 B( 11-C , 12-C ) :   1.1529 B( 11-C , 27-H ) :   0.9304
B( 11-C , 28-H ) :   0.9179 B( 12-C , 29-H ) :   0.9495 B( 12-C , 30-H ) :   0.9423
B( 12-C , 31-H ) :   0.9422 B( 13-S , 14-P ) :   0.9354 B( 13-S , 15-S ) :   0.1199
B( 14-P , 15-S ) :   1.5695 B( 14-P , 16-O ) :   1.1310 B( 14-P , 18-O ) :   1.0804
B( 16-O , 17-C ) :   0.9290 B( 17-C , 32-H ) :   0.9468 B( 17-C , 33-H ) :   0.9361
B( 17-C , 34-H ) :   0.9604 B( 18-O , 19-C ) :   0.9308 B( 19-C , 35-H ) :   0.9415
B( 19-C , 36-H ) :   0.9490 B( 19-C , 37-H ) :   0.9559

Dispersion correction           -0.055795075
FINAL SINGLE POINT ENERGY     -1979.004998096537

DIPOLE MOMENT
-------------

Method             : SCF
Type of density    : Electron Density
Multiplicity       :   1
Irrep              :   0
Energy             : -1979.1329918457845451 Eh
Relativity type    :
Basis              : AO
                                X                 Y                 Z
Electronic contribution:    -16.681385399       1.635172598      -3.907618748
Nuclear contribution   :     17.664383798      -1.600942800       3.047629311
                        -----------------------------------------
Total Dipole Moment    :      0.982998399       0.034229799      -0.859989437
                        -----------------------------------------
Magnitude (a.u.)       :      1.306537165
Magnitude (Debye)      :      3.320953553

Rotational constants in cm-1:             0.013793             0.008565             0.007106
Rotational constants in MHz :           413.505429           256.776926           213.045059

                             ****ORCA TERMINATED NORMALLY****
TOTAL RUN TIME: 0 days 0 hours 0 minutes 41 seconds 820 msec
