                         Program Version 6.0.0  -   RELEASE  -
|  1> ! pbe def2-sv(p) def2/J RI DEFGRID1 loosescf d4 GCP(DFT/SV(P)) printgap
|  2> %output
|  3>     printlevel normal
|  4> end
|  5> * xyz 0 1
|  6> C 1.9364831219 0.0516445912 -2.7944005639
|  7> C 2.3103121291 -1.1280895338 -1.9193093279
|  8> O 1.4768271115 -1.1644245175 -0.7371396517
|  9> P 2.022048835 -0.7617284717 0.6976059756
| 10> S 3.3017007483 0.7264007509 0.7802165659
| 11> O 2.5728344366 -2.168940397 1.1951394849
| 12> C 3.2568195342 -2.3268772522 2.4569433041
| 13> C 4.7595555384 -2.3187331559 2.2551588806
| 14> S 0.2273960081 -0.5499472411 1.7744846145
| 15> C -0.010455699 1.2299427764 1.498610709
| 16> S -0.0147023614 1.7042370115 -0.256148319
| 17> P -1.9567478652 1.0731026759 -0.7946124204
| 18> S -2.3807648002 1.1758855791 -2.7025523966
| 19> O -2.790704778 1.9943706654 0.1894380666
| 20> C -4.188439099 2.2763943842 -0.0359593316
| 21> C -5.0466591497 1.0367406046 0.1013669294
| 22> O -2.159946966 -0.3632375752 -0.1397467161
| 23> C -1.9270409434 -1.5973370684 -0.8397352175
| 24> C -2.7305367018 -2.6778158506 -0.1449001673
| 25> H 0.8747957805 0.0294836484 -3.0315498075
| 26> H 2.1556343337 0.9867178368 -2.2826622557
| 27> H 2.5074698028 0.0082253361 -3.7161305339
| 28> H 3.359412069 -1.0695171358 -1.6170967297
| 29> H 2.125335471 -2.0768665438 -2.4255455984
| 30> H 2.9496341301 -1.5282621926 3.1374596634
| 31> H 2.9103813374 -3.2877520315 2.8413064414
| 32> H 5.0815302108 -1.3526416004 1.8723973809
| 33> H 5.2489499199 -2.5032997826 3.2059253182
| 34> H 5.0457285283 -3.0910687051 1.54685496
| 35> H 0.8221813868 1.7749296507 1.9412159831
| 36> H -0.9563887934 1.5008206971 1.9591576118
| 37> H -4.4267365008 3.0233789213 0.7223635757
| 38> H -4.2946656865 2.7116149863 -1.034400496
| 39> H -4.8579606881 0.5511657492 1.0553238969
| 40> H -6.0937301234 1.3159752086 0.0373623271
| 41> H -4.8175629108 0.339618219 -0.703531219
| 42> H -2.2311836887 -1.4687988687 -1.8842280584
| 43> H -0.8569574859 -1.8198061014 -0.8051182426
| 44> H -3.7909429974 -2.4459527725 -0.1883015629
| 45> H -2.5505090018 -3.6269425748 -0.6388047521
| 46> H -2.4249766843 -2.7482918247 0.8954581998
| 47> *
| 48>
| 49>                          ****END OF INPUT****

CARTESIAN COORDINATES (ANGSTROEM)
---------------------------------
  C      1.936483    0.051645   -2.794401
  C      2.310312   -1.128090   -1.919309
  O      1.476827   -1.164425   -0.737140
  P      2.022049   -0.761728    0.697606
  S      3.301701    0.726401    0.780217
  O      2.572834   -2.168940    1.195139
  C      3.256820   -2.326877    2.456943
  C      4.759556   -2.318733    2.255159
  S      0.227396   -0.549947    1.774485
  C     -0.010456    1.229943    1.498611
  S     -0.014702    1.704237   -0.256148
  P     -1.956748    1.073103   -0.794612
  S     -2.380765    1.175886   -2.702552
  O     -2.790705    1.994371    0.189438
  C     -4.188439    2.276394   -0.035959
  C     -5.046659    1.036741    0.101367
  O     -2.159947   -0.363238   -0.139747
  C     -1.927041   -1.597337   -0.839735
  C     -2.730537   -2.677816   -0.144900
  H      0.874796    0.029484   -3.031550
  H      2.155634    0.986718   -2.282662
  H      2.507470    0.008225   -3.716131
  H      3.359412   -1.069517   -1.617097
  H      2.125335   -2.076867   -2.425546
  H      2.949634   -1.528262    3.137460
  H      2.910381   -3.287752    2.841306
  H      5.081530   -1.352642    1.872397
  H      5.248950   -2.503300    3.205925
  H      5.045729   -3.091069    1.546855
  H      0.822181    1.774930    1.941216
  H     -0.956389    1.500821    1.959158
  H     -4.426737    3.023379    0.722364
  H     -4.294666    2.711615   -1.034400
  H     -4.857961    0.551166    1.055324
  H     -6.093730    1.315975    0.037362
  H     -4.817563    0.339618   -0.703531
  H     -2.231184   -1.468799   -1.884228
  H     -0.856957   -1.819806   -0.805118
  H     -3.790943   -2.445953   -0.188302
  H     -2.550509   -3.626943   -0.638805
  H     -2.424977   -2.748292    0.895458

 Total Charge           Charge          ....    0
 Multiplicity           Mult            ....    1
 Number of Electrons    NEL             ....  202
 Basis Dimension        Dim             ....  334

ORBITAL ENERGIES
----------------

  NO   OCC          E(Eh)            E(eV)
   0   2.0000     -88.046502     -2395.8671
   1   2.0000     -88.040183     -2395.6952
   2   2.0000     -87.991739     -2394.3769
   3   2.0000     -87.988750     -2394.2956
   4   2.0000     -76.430737     -2079.7861
   5   2.0000     -76.424956     -2079.6288
   6   2.0000     -18.795239      -511.4445
   7   2.0000     -18.793259      -511.3906
   8   2.0000     -18.792015      -511.3567
   9   2.0000     -18.790194      -511.3072
  10   2.0000      -9.959414      -271.0094
  11   2.0000      -9.957156      -270.9480
  12   2.0000      -9.954614      -270.8788
  13   2.0000      -9.951513      -270.7944
  14   2.0000      -9.943222      -270.5688
  15   2.0000      -9.886647      -269.0293
  16   2.0000      -9.883871      -268.9538
  17   2.0000      -9.883379      -268.9404
  18   2.0000      -9.874145      -268.6892
  19   2.0000      -7.691762      -209.3035
  20   2.0000      -7.685072      -209.1214
  21   2.0000      -7.636672      -207.8044
  22   2.0000      -7.633854      -207.7277
  23   2.0000      -6.428044      -174.9160
  24   2.0000      -6.422965      -174.7778
  25   2.0000      -5.719614      -155.6386
  26   2.0000      -5.716245      -155.5469
  27   2.0000      -5.713365      -155.4686
  28   2.0000      -5.709414      -155.3610
  29   2.0000      -5.708704      -155.3417
  30   2.0000      -5.701766      -155.1529
  31   2.0000      -5.665505      -154.1662
  32   2.0000      -5.662693      -154.0897
  33   2.0000      -5.657383      -153.9452
  34   2.0000      -5.656865      -153.9311
  35   2.0000      -5.654553      -153.8682
  36   2.0000      -5.654021      -153.8537
  37   2.0000      -4.650550      -126.5479
  38   2.0000      -4.649837      -126.5285
  39   2.0000      -4.648603      -126.4949
  40   2.0000      -4.645283      -126.4046
  41   2.0000      -4.644961      -126.3958
  42   2.0000      -4.643413      -126.3537
  43   2.0000      -0.988313       -26.8934
  44   2.0000      -0.986385       -26.8409
  45   2.0000      -0.945934       -25.7402
  46   2.0000      -0.944671       -25.7058
  47   2.0000      -0.766116       -20.8471
  48   2.0000      -0.724178       -19.7059
  49   2.0000      -0.708759       -19.2863
  50   2.0000      -0.687617       -18.7110
  51   2.0000      -0.685033       -18.6407
  52   2.0000      -0.672258       -18.2931
  53   2.0000      -0.654615       -17.8130
  54   2.0000      -0.640808       -17.4373
  55   2.0000      -0.598691       -16.2912
  56   2.0000      -0.592161       -16.1135
  57   2.0000      -0.575401       -15.6575
  58   2.0000      -0.563649       -15.3377
  59   2.0000      -0.560706       -15.2576
  60   2.0000      -0.507862       -13.8196
  61   2.0000      -0.499564       -13.5938
  62   2.0000      -0.478264       -13.0142
  63   2.0000      -0.477590       -12.9959
  64   2.0000      -0.461062       -12.5461
  65   2.0000      -0.443074       -12.0566
  66   2.0000      -0.439017       -11.9463
  67   2.0000      -0.432973       -11.7818
  68   2.0000      -0.425999       -11.5920
  69   2.0000      -0.415314       -11.3013
  70   2.0000      -0.408255       -11.1092
  71   2.0000      -0.400760       -10.9052
  72   2.0000      -0.398943       -10.8558
  73   2.0000      -0.384120       -10.4524
  74   2.0000      -0.376984       -10.2583
  75   2.0000      -0.372141       -10.1265
  76   2.0000      -0.365761        -9.9529
  77   2.0000      -0.356057        -9.6888
  78   2.0000      -0.354498        -9.6464
  79   2.0000      -0.351750        -9.5716
  80   2.0000      -0.348796        -9.4912
  81   2.0000      -0.345379        -9.3982
  82   2.0000      -0.341858        -9.3024
  83   2.0000      -0.338169        -9.2021
  84   2.0000      -0.330780        -9.0010
  85   2.0000      -0.321102        -8.7376
  86   2.0000      -0.306826        -8.3492
  87   2.0000      -0.301218        -8.1965
  88   2.0000      -0.294889        -8.0243
  89   2.0000      -0.292052        -7.9471
  90   2.0000      -0.287390        -7.8203
  91   2.0000      -0.278651        -7.5825
  92   2.0000      -0.275839        -7.5060
  93   2.0000      -0.266904        -7.2628
  94   2.0000      -0.256671        -6.9844
  95   2.0000      -0.233235        -6.3467
  96   2.0000      -0.218408        -5.9432
  97   2.0000      -0.209323        -5.6960
  98   2.0000      -0.208343        -5.6693
  99   2.0000      -0.206411        -5.6167
 100   2.0000      -0.202428        -5.5083
 101   0.0000      -0.045416        -1.2358
 102   0.0000      -0.018580        -0.5056
 103   0.0000      -0.010157        -0.2764
 104   0.0000       0.001235         0.0336
 105   0.0000       0.008731         0.2376

MULLIKEN ATOMIC CHARGES
-----------------------
   0 C :   -0.292652
   1 C :   -0.003132
   2 O :   -0.363739
   3 P :    0.605672
   4 S :   -0.328748
   5 O :   -0.373636
   6 C :   -0.007339
   7 C :   -0.290417
   8 S :   -0.080219
   9 C :   -0.354507
  10 S :   -0.058333
  11 P :    0.618862
  12 S :   -0.322524
  13 O :   -0.380818
  14 C :   -0.003046
  15 C :   -0.313995
  16 O :   -0.380844
  17 C :   -0.027334
  18 C :   -0.284636
  19 H :    0.116992
  20 H :    0.131274
  21 H :    0.105626
  22 H :    0.102722
  23 H :    0.105559
  24 H :    0.101393
  25 H :    0.107439
  26 H :    0.127916
  27 H :    0.108542
  28 H :    0.112460
  29 H :    0.194722
  30 H :    0.186800
  31 H :    0.106250
  32 H :    0.114487
  33 H :    0.117167
  34 H :    0.113287
  35 H :    0.127156
  36 H :    0.104978
  37 H :    0.121905
  38 H :    0.112704
  39 H :    0.108732
  40 H :    0.113272
Sum of atomic charges:    0.0000000

LOEWDIN ATOMIC CHARGES
----------------------
   0 C :   -0.362199
   1 C :   -0.111786
   2 O :   -0.238801
   3 P :    0.565715
   4 S :   -0.322053
   5 O :   -0.250528
   6 C :   -0.115826
   7 C :   -0.361747
   8 S :    0.091977
   9 C :   -0.475187
  10 S :    0.109357
  11 P :    0.565849
  12 S :   -0.319472
  13 O :   -0.249141
  14 C :   -0.114505
  15 C :   -0.366587
  16 O :   -0.245108
  17 C :   -0.130998
  18 C :   -0.350719
  19 H :    0.122934
  20 H :    0.125315
  21 H :    0.127550
  22 H :    0.108537
  23 H :    0.117233
  24 H :    0.107819
  25 H :    0.118669
  26 H :    0.125178
  27 H :    0.129247
  28 H :    0.125234
  29 H :    0.135683
  30 H :    0.135256
  31 H :    0.119293
  32 H :    0.113665
  33 H :    0.126027
  34 H :    0.131009
  35 H :    0.122435
  36 H :    0.104608
  37 H :    0.108866
  38 H :    0.123341
  39 H :    0.129395
  40 H :    0.124464

  Mayer bond orders larger than 0.100000
B(  0-C ,  1-C ) :   1.1725 B(  0-C , 19-H ) :   0.9389 B(  0-C , 20-H ) :   0.9387
B(  0-C , 21-H ) :   0.9387 B(  1-C ,  2-O ) :   0.8831 B(  1-C , 22-H ) :   0.9119
B(  1-C , 23-H ) :   0.9340 B(  2-O ,  3-P ) :   1.1166 B(  3-P ,  4-S ) :   1.5920
B(  3-P ,  5-O ) :   1.1153 B(  3-P ,  8-S ) :   0.9790 B(  4-S ,  8-S ) :   0.1125
B(  5-O ,  6-C ) :   0.8999 B(  6-C ,  7-C ) :   1.1672 B(  6-C , 24-H ) :   0.9147
B(  6-C , 25-H ) :   0.9356 B(  7-C , 26-H ) :   0.9342 B(  7-C , 27-H ) :   0.9398
B(  7-C , 28-H ) :   0.9476 B(  8-S ,  9-C ) :   0.9872 B(  9-C , 10-S ) :   0.9946
B(  9-C , 29-H ) :   0.8909 B(  9-C , 30-H ) :   0.8975 B( 10-S , 11-P ) :   0.9751
B( 11-P , 12-S ) :   1.6355 B( 11-P , 13-O ) :   1.1006 B( 11-P , 16-O ) :   1.0971
B( 13-O , 14-C ) :   0.9073 B( 14-C , 15-C ) :   1.1625 B( 14-C , 31-H ) :   0.9359
B( 14-C , 32-H ) :   0.9198 B( 15-C , 33-H ) :   0.9455 B( 15-C , 34-H ) :   0.9371
B( 15-C , 35-H ) :   0.9336 B( 16-O , 17-C ) :   0.8912 B( 17-C , 18-C ) :   1.1609
B( 17-C , 36-H ) :   0.9100 B( 17-C , 37-H ) :   0.9061 B( 18-C , 38-H ) :   0.9512
B( 18-C , 39-H ) :   0.9425 B( 18-C , 40-H ) :   0.9493

Dispersion correction           -0.065638182
FINAL SINGLE POINT ENERGY     -2929.526723235734

DIPOLE MOMENT
-------------

Method             : SCF
Type of density    : Electron Density
Multiplicity       :   1
Irrep              :   0
Energy             : -2929.6460828114413744 Eh
Relativity type    :
Basis              : AO
                                X                 Y                 Z
Electronic contribution:      3.666736731      13.196941759      -0.013949967
Nuclear contribution   :     -4.064117870     -14.255522176       0.938475661
                        -----------------------------------------
Total Dipole Moment    :     -0.397381139      -1.058580417       0.924525695
                        -----------------------------------------
Magnitude (a.u.)       :      1.460565654
Magnitude (Debye)      :      3.712462858

Rotational constants in cm-1:             0.013824             0.004773             0.004600
Rotational constants in MHz :           414.440882           143.097112           137.902233

                             ****ORCA TERMINATED NORMALLY****
TOTAL RUN TIME: 0 days 0 hours 0 minutes 21 seconds 510 msec
