                         Program Version 6.0.0  -   RELEASE  -
|  1> ! pbe def2-sv(p) def2/J RI DEFGRID1 loosescf d4 GCP(DFT/SV(P)) printgap
|  2> %output
|  3>     printlevel normal
|  4> end
|  5> * xyz 0 1
|  6> C 4.95279598 -1.3247251008 0.0121989734
|  7> C 4.0584960974 -1.8217552743 -1.1027858884
|  8> O 3.1641309969 -0.8058235745 -1.6181684445
|  9> P 2.1085602408 0.0392998068 -0.8070538123
| 10> S 0.8356931746 0.7960350461 -2.0898376507
| 11> O 3.0443660117 1.0174632127 0.0145392289
| 12> C 2.6591045881 2.0523273506 0.9344606639
| 13> C 2.2209444506 3.3090561961 0.2102942745
| 14> S 1.2998674201 -1.2999873218 0.6418804843
| 15> C -0.1390837531 -1.8700206245 -0.3203197541
| 16> S -1.6840638803 -1.8634727551 0.6167969187
| 17> P -2.1018074377 0.228949511 0.5847322999
| 18> S -0.7792616416 1.4520607801 1.3411060282
| 19> O -3.5654430447 0.2787042475 1.2023889567
| 20> C -3.9777169321 -0.3631485127 2.4245231554
| 21> C -3.0681554086 -0.0455590658 3.5923259815
| 22> O -2.3668443053 0.6138725771 -0.9171189326
| 23> C -3.3357697659 -0.04878444 -1.7683318536
| 24> C -2.9898630707 0.2903413377 -3.2033071359
| 25> H 5.4760610851 -0.4238314359 -0.2969066688
| 26> H 4.3637619515 -1.1045177936 0.9001954798
| 27> H 5.6771880311 -2.0969055122 0.2527453048
| 28> H 3.4532409391 -2.6661305407 -0.7628364705
| 29> H 4.6350156835 -2.1087497088 -1.983483892
| 30> H 1.8618274467 1.6880466384 1.5869852163
| 31> H 3.5640814478 2.2284127305 1.5192734234
| 32> H 2.0426494696 4.0943317001 0.9375157553
| 33> H 2.9866737014 3.6274204911 -0.4923855932
| 34> H 1.2963760912 3.1263580136 -0.3341772491
| 35> H 0.0215186837 -2.9062061285 -0.6062836486
| 36> H -0.2355607614 -1.2201187854 -1.1958077353
| 37> H -4.9863918644 0.0207695411 2.5869679409
| 38> H -4.013351032 -1.4409602124 2.2435635233
| 39> H -3.4691051304 -0.4959846306 4.4945265326
| 40> H -2.0702861695 -0.443368355 3.4102686502
| 41> H -2.987826896 1.0303324132 3.7300882366
| 42> H -3.2855051241 -1.1265054968 -1.5857269171
| 43> H -4.3263577721 0.3182043088 -1.4933527753
| 44> H -3.6683597259 -0.2317274847 -3.8698467669
| 45> H -3.0735704198 1.3612045394 -3.3641138857
| 46> H -1.9657401659 -0.0034153283 -3.4220672275
| 47> *
| 48>
| 49>                          ****END OF INPUT****

CARTESIAN COORDINATES (ANGSTROEM)
---------------------------------
  C      4.952796   -1.324725    0.012199
  C      4.058496   -1.821755   -1.102786
  O      3.164131   -0.805824   -1.618168
  P      2.108560    0.039300   -0.807054
  S      0.835693    0.796035   -2.089838
  O      3.044366    1.017463    0.014539
  C      2.659105    2.052327    0.934461
  C      2.220944    3.309056    0.210294
  S      1.299867   -1.299987    0.641880
  C     -0.139084   -1.870021   -0.320320
  S     -1.684064   -1.863473    0.616797
  P     -2.101807    0.228950    0.584732
  S     -0.779262    1.452061    1.341106
  O     -3.565443    0.278704    1.202389
  C     -3.977717   -0.363149    2.424523
  C     -3.068155   -0.045559    3.592326
  O     -2.366844    0.613873   -0.917119
  C     -3.335770   -0.048784   -1.768332
  C     -2.989863    0.290341   -3.203307
  H      5.476061   -0.423831   -0.296907
  H      4.363762   -1.104518    0.900195
  H      5.677188   -2.096906    0.252745
  H      3.453241   -2.666131   -0.762836
  H      4.635016   -2.108750   -1.983484
  H      1.861827    1.688047    1.586985
  H      3.564081    2.228413    1.519273
  H      2.042649    4.094332    0.937516
  H      2.986674    3.627420   -0.492386
  H      1.296376    3.126358   -0.334177
  H      0.021519   -2.906206   -0.606284
  H     -0.235561   -1.220119   -1.195808
  H     -4.986392    0.020770    2.586968
  H     -4.013351   -1.440960    2.243564
  H     -3.469105   -0.495985    4.494527
  H     -2.070286   -0.443368    3.410269
  H     -2.987827    1.030332    3.730088
  H     -3.285505   -1.126505   -1.585727
  H     -4.326358    0.318204   -1.493353
  H     -3.668360   -0.231727   -3.869847
  H     -3.073570    1.361205   -3.364114
  H     -1.965740   -0.003415   -3.422067

 Total Charge           Charge          ....    0
 Multiplicity           Mult            ....    1
 Number of Electrons    NEL             ....  202
 Basis Dimension        Dim             ....  334

ORBITAL ENERGIES
----------------

  NO   OCC          E(Eh)            E(eV)
   0   2.0000     -88.046599     -2395.8698
   1   2.0000     -88.039120     -2395.6662
   2   2.0000     -87.976535     -2393.9632
   3   2.0000     -87.975930     -2393.9468
   4   2.0000     -76.423300     -2079.5837
   5   2.0000     -76.420886     -2079.5180
   6   2.0000     -18.791651      -511.3468
   7   2.0000     -18.788824      -511.2699
   8   2.0000     -18.786443      -511.2051
   9   2.0000     -18.781028      -511.0578
  10   2.0000      -9.959821      -271.0205
  11   2.0000      -9.956779      -270.9377
  12   2.0000      -9.952384      -270.8181
  13   2.0000      -9.950526      -270.7676
  14   2.0000      -9.945452      -270.6295
  15   2.0000      -9.885500      -268.9981
  16   2.0000      -9.883435      -268.9419
  17   2.0000      -9.881276      -268.8832
  18   2.0000      -9.868954      -268.5479
  19   2.0000      -7.691464      -209.2954
  20   2.0000      -7.683844      -209.0880
  21   2.0000      -7.621703      -207.3971
  22   2.0000      -7.621129      -207.3815
  23   2.0000      -6.420474      -174.7100
  24   2.0000      -6.418044      -174.6439
  25   2.0000      -5.719087      -155.6243
  26   2.0000      -5.715837      -155.5358
  27   2.0000      -5.711641      -155.4216
  28   2.0000      -5.708861      -155.3460
  29   2.0000      -5.708413      -155.3338
  30   2.0000      -5.700904      -155.1295
  31   2.0000      -5.650748      -153.7647
  32   2.0000      -5.650159      -153.7486
  33   2.0000      -5.642128      -153.5301
  34   2.0000      -5.641924      -153.5246
  35   2.0000      -5.641861      -153.5228
  36   2.0000      -5.640914      -153.4971
  37   2.0000      -4.643404      -126.3534
  38   2.0000      -4.642657      -126.3331
  39   2.0000      -4.640697      -126.2798
  40   2.0000      -4.640290      -126.2687
  41   2.0000      -4.640066      -126.2626
  42   2.0000      -4.638264      -126.2136
  43   2.0000      -0.985734       -26.8232
  44   2.0000      -0.980717       -26.6867
  45   2.0000      -0.942313       -25.6416
  46   2.0000      -0.937979       -25.5237
  47   2.0000      -0.761215       -20.7137
  48   2.0000      -0.718982       -19.5645
  49   2.0000      -0.710417       -19.3314
  50   2.0000      -0.688988       -18.7483
  51   2.0000      -0.684942       -18.6382
  52   2.0000      -0.673860       -18.3367
  53   2.0000      -0.647429       -17.6174
  54   2.0000      -0.632735       -17.2176
  55   2.0000      -0.588955       -16.0263
  56   2.0000      -0.585524       -15.9329
  57   2.0000      -0.570338       -15.5197
  58   2.0000      -0.567125       -15.4323
  59   2.0000      -0.565649       -15.3921
  60   2.0000      -0.506136       -13.7727
  61   2.0000      -0.492481       -13.4011
  62   2.0000      -0.472628       -12.8609
  63   2.0000      -0.469109       -12.7651
  64   2.0000      -0.458309       -12.4712
  65   2.0000      -0.444140       -12.0857
  66   2.0000      -0.436811       -11.8862
  67   2.0000      -0.433790       -11.8040
  68   2.0000      -0.428652       -11.6642
  69   2.0000      -0.416349       -11.3294
  70   2.0000      -0.410785       -11.1780
  71   2.0000      -0.396748       -10.7961
  72   2.0000      -0.394209       -10.7270
  73   2.0000      -0.390170       -10.6171
  74   2.0000      -0.382702       -10.4138
  75   2.0000      -0.357636        -9.7318
  76   2.0000      -0.356394        -9.6980
  77   2.0000      -0.351398        -9.5620
  78   2.0000      -0.349916        -9.5217
  79   2.0000      -0.347297        -9.4504
  80   2.0000      -0.343565        -9.3489
  81   2.0000      -0.342861        -9.3297
  82   2.0000      -0.336784        -9.1643
  83   2.0000      -0.335134        -9.1195
  84   2.0000      -0.324518        -8.8306
  85   2.0000      -0.318344        -8.6626
  86   2.0000      -0.311927        -8.4880
  87   2.0000      -0.296399        -8.0654
  88   2.0000      -0.291273        -7.9259
  89   2.0000      -0.284319        -7.7367
  90   2.0000      -0.282001        -7.6736
  91   2.0000      -0.272420        -7.4129
  92   2.0000      -0.269085        -7.3222
  93   2.0000      -0.260414        -7.0862
  94   2.0000      -0.257496        -7.0068
  95   2.0000      -0.244012        -6.6399
  96   2.0000      -0.221601        -6.0301
  97   2.0000      -0.200795        -5.4639
  98   2.0000      -0.194709        -5.2983
  99   2.0000      -0.185675        -5.0525
 100   2.0000      -0.181200        -4.9307
 101   0.0000      -0.039944        -1.0869
 102   0.0000      -0.030273        -0.8238
 103   0.0000      -0.016430        -0.4471
 104   0.0000       0.001961         0.0534
 105   0.0000       0.023595         0.6421

MULLIKEN ATOMIC CHARGES
-----------------------
   0 C :   -0.305508
   1 C :    0.001195
   2 O :   -0.361536
   3 P :    0.610690
   4 S :   -0.299046
   5 O :   -0.374049
   6 C :   -0.016402
   7 C :   -0.306526
   8 S :   -0.105322
   9 C :   -0.340664
  10 S :   -0.128022
  11 P :    0.608339
  12 S :   -0.308816
  13 O :   -0.383051
  14 C :   -0.013127
  15 C :   -0.312210
  16 O :   -0.347138
  17 C :   -0.014217
  18 C :   -0.286101
  19 H :    0.123509
  20 H :    0.116922
  21 H :    0.111277
  22 H :    0.100696
  23 H :    0.108236
  24 H :    0.128917
  25 H :    0.098495
  26 H :    0.105888
  27 H :    0.110117
  28 H :    0.146864
  29 H :    0.180370
  30 H :    0.194522
  31 H :    0.110780
  32 H :    0.113426
  33 H :    0.110849
  34 H :    0.128526
  35 H :    0.129219
  36 H :    0.095421
  37 H :    0.105573
  38 H :    0.106361
  39 H :    0.121480
  40 H :    0.134063
Sum of atomic charges:   -0.0000000

LOEWDIN ATOMIC CHARGES
----------------------
   0 C :   -0.365785
   1 C :   -0.115148
   2 O :   -0.242046
   3 P :    0.568713
   4 S :   -0.292436
   5 O :   -0.233876
   6 C :   -0.115303
   7 C :   -0.365990
   8 S :    0.064629
   9 C :   -0.481933
  10 S :    0.062496
  11 P :    0.567630
  12 S :   -0.299392
  13 O :   -0.248103
  14 C :   -0.114274
  15 C :   -0.370947
  16 O :   -0.226697
  17 C :   -0.117128
  18 C :   -0.352388
  19 H :    0.129412
  20 H :    0.118683
  21 H :    0.129975
  22 H :    0.105009
  23 H :    0.121328
  24 H :    0.107165
  25 H :    0.115341
  26 H :    0.128911
  27 H :    0.124110
  28 H :    0.127836
  29 H :    0.135002
  30 H :    0.120205
  31 H :    0.122136
  32 H :    0.107926
  33 H :    0.129819
  34 H :    0.122180
  35 H :    0.131202
  36 H :    0.100011
  37 H :    0.114049
  38 H :    0.127762
  39 H :    0.130351
  40 H :    0.129567

  Mayer bond orders larger than 0.100000
B(  0-C ,  1-C ) :   1.1705 B(  0-C , 19-H ) :   0.9439 B(  0-C , 20-H ) :   0.9404
B(  0-C , 21-H ) :   0.9360 B(  1-C ,  2-O ) :   0.9111 B(  1-C , 22-H ) :   0.9194
B(  1-C , 23-H ) :   0.9346 B(  2-O ,  3-P ) :   1.1263 B(  3-P ,  4-S ) :   1.6303
B(  3-P ,  5-O ) :   1.1142 B(  3-P ,  8-S ) :   0.9376 B(  4-S ,  8-S ) :   0.1162
B(  4-S , 30-H ) :   0.1242 B(  5-O ,  6-C ) :   0.8977 B(  6-C ,  7-C ) :   1.1747
B(  6-C , 24-H ) :   0.9113 B(  6-C , 25-H ) :   0.9341 B(  7-C , 26-H ) :   0.9383
B(  7-C , 27-H ) :   0.9464 B(  7-C , 28-H ) :   0.9279 B(  8-S ,  9-C ) :   0.9969
B(  9-C , 10-S ) :   1.0013 B(  9-C , 29-H ) :   0.9114 B(  9-C , 30-H ) :   0.8416
B( 10-S , 11-P ) :   0.9357 B( 10-S , 12-S ) :   0.1133 B( 11-P , 12-S ) :   1.6721
B( 11-P , 13-O ) :   1.0819 B( 11-P , 16-O ) :   1.1401 B( 13-O , 14-C ) :   0.9158
B( 14-C , 15-C ) :   1.1669 B( 14-C , 31-H ) :   0.9334 B( 14-C , 32-H ) :   0.9270
B( 15-C , 33-H ) :   0.9340 B( 15-C , 34-H ) :   0.9315 B( 15-C , 35-H ) :   0.9416
B( 16-O , 17-C ) :   0.8907 B( 17-C , 18-C ) :   1.1628 B( 17-C , 36-H ) :   0.9125
B( 17-C , 37-H ) :   0.9303 B( 18-C , 38-H ) :   0.9407 B( 18-C , 39-H ) :   0.9493
B( 18-C , 40-H ) :   0.9451

Dispersion correction           -0.066445084
FINAL SINGLE POINT ENERGY     -2929.508867219796

DIPOLE MOMENT
-------------

Method             : SCF
Type of density    : Electron Density
Multiplicity       :   1
Irrep              :   0
Energy             : -2929.6271978418380968 Eh
Relativity type    :
Basis              : AO
                                X                 Y                 Z
Electronic contribution:     -1.536077890      -2.193687073      -1.718561054
Nuclear contribution   :      1.223734014       0.953985549       2.280068866
                        -----------------------------------------
Total Dipole Moment    :     -0.312343876      -1.239701523       0.561507811
                        -----------------------------------------
Magnitude (a.u.)       :      1.396320016
Magnitude (Debye)      :      3.549163423

Rotational constants in cm-1:             0.011785             0.005169             0.004993
Rotational constants in MHz :           353.305130           154.977614           149.700609

                             ****ORCA TERMINATED NORMALLY****
TOTAL RUN TIME: 0 days 0 hours 0 minutes 21 seconds 86 msec
