                         Program Version 6.0.0  -   RELEASE  -
|  1> ! pbe def2-sv(p) def2/J RI DEFGRID1 loosescf d4 GCP(DFT/SV(P)) printgap
|  2> %output
|  3>     printlevel normal
|  4> end
|  5> * xyz 0 1
|  6> C 4.9002318159 -0.521598487 -1.4663153722
|  7> C 3.7112701071 -1.4169849754 -1.1838239514
|  8> O 2.9423560132 -0.9237136618 -0.0748509844
|  9> P 1.9707784957 0.341431066 -0.2043821162
| 10> S 1.3330750038 0.6447616164 -2.0317809712
| 11> O 2.7198430682 1.6457185119 0.2873376801
| 12> C 3.0833666611 1.9793689677 1.6485876227
| 13> C 4.1006126632 1.0204803712 2.2301271511
| 14> S 0.7150227521 -0.1147931514 1.4329213792
| 15> C 0.1494095402 -1.7644860319 0.9402339122
| 16> S -0.7342032155 -1.792004531 -0.6552943491
| 17> P -2.1119939638 -0.2434054463 -0.3005457706
| 18> S -1.6860798875 1.6762987148 -0.3557334591
| 19> O -2.7791734229 -0.7202142826 1.0628891115
| 20> C -3.0617726986 0.1114990811 2.2071051929
| 21> C -2.3074522461 -0.3906509881 3.4220857889
| 22> O -3.0896268138 -0.7201173797 -1.4600107239
| 23> C -4.0822085203 0.1450569114 -2.0391133744
| 24> C -5.2020683691 0.4425318185 -1.0621859396
| 25> H 5.4669805845 -0.9243265355 -2.299718535
| 26> H 4.5485397717 0.4769333195 -1.7261972045
| 27> H 5.5418971857 -0.4556295633 -0.5918324783
| 28> H 4.0189006286 -2.4170302303 -0.8752939234
| 29> H 3.0599429003 -1.4794693304 -2.0616266717
| 30> H 3.4862910565 2.9895248858 1.5572707306
| 31> H 2.1724363933 2.0014134427 2.2522422108
| 32> H 4.9891192645 0.9914896664 1.6049359771
| 33> H 4.3746872748 1.3599108906 3.2241104893
| 34> H 3.680605512 0.0197540177 2.2995674279
| 35> H -0.5150879202 -2.1050531986 1.7316457545
| 36> H 1.0034282593 -2.4284092035 0.8289527462
| 37> H -2.7867504388 1.1443786051 1.9673961793
| 38> H -4.1411023264 0.0452404737 2.3590793285
| 39> H -2.6223217199 0.1818822646 4.2883854869
| 40> H -2.5280138886 -1.4410051986 3.5900899398
| 41> H -1.2355415217 -0.2617562728 3.2855733329
| 42> H -3.5935028698 1.0708299602 -2.3614121153
| 43> H -4.4372530102 -0.4071497762 -2.9104532641
| 44> H -5.615792948 -0.4850558389 -0.6749778343
| 45> H -4.8175095641 1.0369515638 -0.2337216171
| 46> H -5.9812374231 1.004284228 -1.5676611158
| 47> *
| 48>
| 49>                          ****END OF INPUT****

CARTESIAN COORDINATES (ANGSTROEM)
---------------------------------
  C      4.900232   -0.521598   -1.466315
  C      3.711270   -1.416985   -1.183824
  O      2.942356   -0.923714   -0.074851
  P      1.970778    0.341431   -0.204382
  S      1.333075    0.644762   -2.031781
  O      2.719843    1.645719    0.287338
  C      3.083367    1.979369    1.648588
  C      4.100613    1.020480    2.230127
  S      0.715023   -0.114793    1.432921
  C      0.149410   -1.764486    0.940234
  S     -0.734203   -1.792005   -0.655294
  P     -2.111994   -0.243405   -0.300546
  S     -1.686080    1.676299   -0.355733
  O     -2.779173   -0.720214    1.062889
  C     -3.061773    0.111499    2.207105
  C     -2.307452   -0.390651    3.422086
  O     -3.089627   -0.720117   -1.460011
  C     -4.082209    0.145057   -2.039113
  C     -5.202068    0.442532   -1.062186
  H      5.466981   -0.924327   -2.299719
  H      4.548540    0.476933   -1.726197
  H      5.541897   -0.455630   -0.591832
  H      4.018901   -2.417030   -0.875294
  H      3.059943   -1.479469   -2.061627
  H      3.486291    2.989525    1.557271
  H      2.172436    2.001413    2.252242
  H      4.989119    0.991490    1.604936
  H      4.374687    1.359911    3.224110
  H      3.680606    0.019754    2.299567
  H     -0.515088   -2.105053    1.731646
  H      1.003428   -2.428409    0.828953
  H     -2.786750    1.144379    1.967396
  H     -4.141102    0.045240    2.359079
  H     -2.622322    0.181882    4.288385
  H     -2.528014   -1.441005    3.590090
  H     -1.235542   -0.261756    3.285573
  H     -3.593503    1.070830   -2.361412
  H     -4.437253   -0.407150   -2.910453
  H     -5.615793   -0.485056   -0.674978
  H     -4.817510    1.036952   -0.233722
  H     -5.981237    1.004284   -1.567661

 Total Charge           Charge          ....    0
 Multiplicity           Mult            ....    1
 Number of Electrons    NEL             ....  202
 Basis Dimension        Dim             ....  334

ORBITAL ENERGIES
----------------

  NO   OCC          E(Eh)            E(eV)
   0   2.0000     -88.044006     -2395.7992
   1   2.0000     -88.034358     -2395.5367
   2   2.0000     -87.976486     -2393.9619
   3   2.0000     -87.971942     -2393.8382
   4   2.0000     -76.420508     -2079.5078
   5   2.0000     -76.419322     -2079.4755
   6   2.0000     -18.791612      -511.3458
   7   2.0000     -18.791600      -511.3454
   8   2.0000     -18.791278      -511.3367
   9   2.0000     -18.784815      -511.1608
  10   2.0000      -9.960215      -271.0312
  11   2.0000      -9.957999      -270.9709
  12   2.0000      -9.950052      -270.7547
  13   2.0000      -9.946600      -270.6607
  14   2.0000      -9.944989      -270.6169
  15   2.0000      -9.890145      -269.1245
  16   2.0000      -9.889844      -269.1163
  17   2.0000      -9.882811      -268.9250
  18   2.0000      -9.882520      -268.9170
  19   2.0000      -7.688644      -209.2187
  20   2.0000      -7.679956      -208.9822
  21   2.0000      -7.621241      -207.3845
  22   2.0000      -7.616926      -207.2671
  23   2.0000      -6.417927      -174.6407
  24   2.0000      -6.416614      -174.6049
  25   2.0000      -5.716615      -155.5570
  26   2.0000      -5.713083      -155.4609
  27   2.0000      -5.708159      -155.3269
  28   2.0000      -5.705563      -155.2563
  29   2.0000      -5.704523      -155.2280
  30   2.0000      -5.696384      -155.0065
  31   2.0000      -5.650180      -153.7492
  32   2.0000      -5.646210      -153.6412
  33   2.0000      -5.641892      -153.5237
  34   2.0000      -5.641384      -153.5099
  35   2.0000      -5.637533      -153.4051
  36   2.0000      -5.636744      -153.3836
  37   2.0000      -4.640950      -126.2867
  38   2.0000      -4.639710      -126.2529
  39   2.0000      -4.639298      -126.2417
  40   2.0000      -4.638276      -126.2139
  41   2.0000      -4.637946      -126.2049
  42   2.0000      -4.637093      -126.1817
  43   2.0000      -0.981148       -26.6984
  44   2.0000      -0.978616       -26.6295
  45   2.0000      -0.944743       -25.7078
  46   2.0000      -0.941365       -25.6159
  47   2.0000      -0.763689       -20.7810
  48   2.0000      -0.719698       -19.5840
  49   2.0000      -0.709145       -19.2968
  50   2.0000      -0.690688       -18.7946
  51   2.0000      -0.686437       -18.6789
  52   2.0000      -0.665641       -18.1130
  53   2.0000      -0.647362       -17.6156
  54   2.0000      -0.633875       -17.2486
  55   2.0000      -0.595949       -16.2166
  56   2.0000      -0.587046       -15.9743
  57   2.0000      -0.576561       -15.6890
  58   2.0000      -0.571559       -15.5529
  59   2.0000      -0.562155       -15.2970
  60   2.0000      -0.497352       -13.5336
  61   2.0000      -0.491950       -13.3866
  62   2.0000      -0.476395       -12.9634
  63   2.0000      -0.473333       -12.8800
  64   2.0000      -0.457437       -12.4475
  65   2.0000      -0.442202       -12.0329
  66   2.0000      -0.436353       -11.8738
  67   2.0000      -0.434601       -11.8261
  68   2.0000      -0.425624       -11.5818
  69   2.0000      -0.410591       -11.1728
  70   2.0000      -0.399671       -10.8756
  71   2.0000      -0.396883       -10.7997
  72   2.0000      -0.392336       -10.6760
  73   2.0000      -0.386738       -10.5237
  74   2.0000      -0.385432       -10.4881
  75   2.0000      -0.377885       -10.2828
  76   2.0000      -0.365018        -9.9326
  77   2.0000      -0.359045        -9.7701
  78   2.0000      -0.353170        -9.6102
  79   2.0000      -0.351985        -9.5780
  80   2.0000      -0.347371        -9.4524
  81   2.0000      -0.345718        -9.4075
  82   2.0000      -0.343590        -9.3496
  83   2.0000      -0.338423        -9.2090
  84   2.0000      -0.328345        -8.9347
  85   2.0000      -0.317882        -8.6500
  86   2.0000      -0.311426        -8.4743
  87   2.0000      -0.306011        -8.3270
  88   2.0000      -0.291510        -7.9324
  89   2.0000      -0.277850        -7.5607
  90   2.0000      -0.274885        -7.4800
  91   2.0000      -0.272771        -7.4225
  92   2.0000      -0.270020        -7.3476
  93   2.0000      -0.263354        -7.1662
  94   2.0000      -0.256344        -6.9755
  95   2.0000      -0.247519        -6.7353
  96   2.0000      -0.218338        -5.9413
  97   2.0000      -0.202588        -5.5127
  98   2.0000      -0.186984        -5.0881
  99   2.0000      -0.179234        -4.8772
 100   2.0000      -0.176026        -4.7899
 101   0.0000      -0.051009        -1.3880
 102   0.0000      -0.027879        -0.7586
 103   0.0000      -0.001614        -0.0439
 104   0.0000       0.006571         0.1788
 105   0.0000       0.025992         0.7073

MULLIKEN ATOMIC CHARGES
-----------------------
   0 C :   -0.312248
   1 C :   -0.009862
   2 O :   -0.394304
   3 P :    0.635324
   4 S :   -0.276385
   5 O :   -0.367345
   6 C :   -0.024399
   7 C :   -0.310765
   8 S :   -0.137274
   9 C :   -0.339542
  10 S :   -0.066109
  11 P :    0.626720
  12 S :   -0.301836
  13 O :   -0.386955
  14 C :   -0.013353
  15 C :   -0.303645
  16 O :   -0.379353
  17 C :   -0.000762
  18 C :   -0.315318
  19 H :    0.111408
  20 H :    0.129050
  21 H :    0.114207
  22 H :    0.097588
  23 H :    0.114102
  24 H :    0.114406
  25 H :    0.123452
  26 H :    0.122986
  27 H :    0.111486
  28 H :    0.124913
  29 H :    0.187356
  30 H :    0.186141
  31 H :    0.112170
  32 H :    0.102568
  33 H :    0.111866
  34 H :    0.116935
  35 H :    0.128120
  36 H :    0.116086
  37 H :    0.104061
  38 H :    0.115042
  39 H :    0.121300
  40 H :    0.112168
Sum of atomic charges:   -0.0000000

LOEWDIN ATOMIC CHARGES
----------------------
   0 C :   -0.364289
   1 C :   -0.125884
   2 O :   -0.256479
   3 P :    0.566258
   4 S :   -0.288255
   5 O :   -0.240013
   6 C :   -0.115765
   7 C :   -0.367150
   8 S :    0.087199
   9 C :   -0.470092
  10 S :    0.102521
  11 P :    0.564049
  12 S :   -0.300760
  13 O :   -0.254564
  14 C :   -0.121627
  15 C :   -0.360008
  16 O :   -0.249521
  17 C :   -0.118641
  18 C :   -0.365705
  19 H :    0.130564
  20 H :    0.126461
  21 H :    0.120822
  22 H :    0.113965
  23 H :    0.109915
  24 H :    0.124236
  25 H :    0.109721
  26 H :    0.126273
  27 H :    0.130701
  28 H :    0.121771
  29 H :    0.131794
  30 H :    0.133963
  31 H :    0.106241
  32 H :    0.114459
  33 H :    0.132198
  34 H :    0.124420
  35 H :    0.114795
  36 H :    0.112069
  37 H :    0.118531
  38 H :    0.124910
  39 H :    0.120272
  40 H :    0.130646

  Mayer bond orders larger than 0.100000
B(  0-C ,  1-C ) :   1.1657 B(  0-C , 19-H ) :   0.9394 B(  0-C , 20-H ) :   0.9355
B(  0-C , 21-H ) :   0.9427 B(  1-C ,  2-O ) :   0.9069 B(  1-C , 22-H ) :   0.9324
B(  1-C , 23-H ) :   0.9057 B(  2-O ,  3-P ) :   1.0504 B(  3-P ,  4-S ) :   1.6687
B(  3-P ,  5-O ) :   1.1239 B(  3-P ,  8-S ) :   0.9254 B(  4-S ,  8-S ) :   0.1086
B(  5-O ,  6-C ) :   0.9060 B(  6-C ,  7-C ) :   1.1635 B(  6-C , 24-H ) :   0.9339
B(  6-C , 25-H ) :   0.9207 B(  7-C , 26-H ) :   0.9411 B(  7-C , 27-H ) :   0.9363
B(  7-C , 28-H ) :   0.9350 B(  8-S ,  9-C ) :   1.0078 B(  9-C , 10-S ) :   1.0025
B(  9-C , 29-H ) :   0.9014 B(  9-C , 30-H ) :   0.9043 B( 10-S , 11-P ) :   0.9647
B( 10-S , 12-S ) :   0.1104 B( 11-P , 12-S ) :   1.6148 B( 11-P , 13-O ) :   1.0862
B( 11-P , 16-O ) :   1.1159 B( 13-O , 14-C ) :   0.9102 B( 14-C , 15-C ) :   1.1672
B( 14-C , 31-H ) :   0.8935 B( 14-C , 32-H ) :   0.9313 B( 15-C , 33-H ) :   0.9379
B( 15-C , 34-H ) :   0.9446 B( 15-C , 35-H ) :   0.9316 B( 16-O , 17-C ) :   0.9142
B( 17-C , 18-C ) :   1.1603 B( 17-C , 36-H ) :   0.9137 B( 17-C , 37-H ) :   0.9342
B( 18-C , 38-H ) :   0.9465 B( 18-C , 39-H ) :   0.9332 B( 18-C , 40-H ) :   0.9394

Dispersion correction           -0.067881911
FINAL SINGLE POINT ENERGY     -2929.507282929348

DIPOLE MOMENT
-------------

Method             : SCF
Type of density    : Electron Density
Multiplicity       :   1
Irrep              :   0
Energy             : -2929.6242642023917142 Eh
Relativity type    :
Basis              : AO
                                X                 Y                 Z
Electronic contribution:     -3.708740158      -0.463194103     -11.780409634
Nuclear contribution   :      3.951044529      -0.187420487      13.335175141
                        -----------------------------------------
Total Dipole Moment    :      0.242304371      -0.650614590       1.554765507
                        -----------------------------------------
Magnitude (a.u.)       :      1.702735016
Magnitude (Debye)      :      4.328008458

Rotational constants in cm-1:             0.013525             0.005193             0.004684
Rotational constants in MHz :           405.478405           155.684077           140.431326

                             ****ORCA TERMINATED NORMALLY****
TOTAL RUN TIME: 0 days 0 hours 0 minutes 22 seconds 875 msec
