                         Program Version 6.0.0  -   RELEASE  -
|  1> ! pbe def2-sv(p) def2/J RI DEFGRID1 loosescf d4 GCP(DFT/SV(P)) printgap
|  2> %output
|  3>     printlevel normal
|  4> end
|  5> * xyz 0 1
|  6> C 2.9679067469 -2.4400353615 1.8357734393
|  7> C 1.6449405766 -2.06612142 1.1985833641
|  8> O 1.5722126217 -0.6502399536 0.9635603231
|  9> P 2.2519448777 0.0583190918 -0.2988400485
| 10> S 2.8843181663 -1.1187650888 -1.7220118396
| 11> O 3.4312545414 0.93179979 0.2924265726
| 12> C 3.3206828516 1.7744241151 1.4671810167
| 13> C 3.0451894716 3.2135745337 1.0810178604
| 14> S 0.7483335028 1.4574086081 -0.8310261246
| 15> C -0.1368127024 0.3803733053 -1.9837154429
| 16> S -0.809273579 -1.116069464 -1.2101358958
| 17> P -2.2200487562 -0.1397358069 0.013962121
| 18> S -3.1084312648 1.4557218295 -0.7089930136
| 19> O -1.350847629 0.0702210894 1.3182990196
| 20> C -1.7365813016 0.9814273545 2.373577715
| 21> C -0.4930553591 1.6825278408 2.8808587255
| 22> O -3.2157443676 -1.2867158994 0.4893317105
| 23> C -4.4160952667 -1.6147132312 -0.2320660336
| 24> C -4.1175253478 -2.2459807198 -1.5764713723
| 25> H 3.1070421544 -1.9018844939 2.7696040636
| 26> H 2.9855734457 -3.5078828396 2.0288050123
| 27> H 3.7826745619 -2.1891067782 1.1572179362
| 28> H 0.7975096025 -2.2757849114 1.8535943128
| 29> H 1.5112400381 -2.5910794554 0.247239828
| 30> H 2.5366954311 1.3783439139 2.1156235706
| 31> H 4.2918961661 1.6774979882 1.9555023099
| 32> H 3.0455377489 3.8267894019 1.9767448755
| 33> H 3.8135616933 3.5702696164 0.4007965606
| 34> H 2.0788526823 3.3017547347 0.5881418895
| 35> H 0.546874214 0.0410085539 -2.7612281538
| 36> H -0.9503063965 0.975839627 -2.3977096437
| 37> H -2.4604826177 1.6995705112 1.9733258357
| 38> H -2.2116491079 0.3855652775 3.1559203259
| 39> H -0.052760685 2.2789559217 2.0855501394
| 40> H -0.7605613458 2.3304673851 3.7091166689
| 41> H 0.2325508081 0.9467353952 3.2165094645
| 42> H -4.9403340278 -2.3042165137 0.4308356054
| 43> H -5.0024501626 -0.6990311326 -0.3588242014
| 44> H -3.4479459879 -3.0940422028 -1.4564380077
| 45> H -5.0447332817 -2.5788576775 -2.0317628726
| 46> H -3.6440213144 -1.5169911957 -2.2331232285
| 47> *
| 48>
| 49>                          ****END OF INPUT****

CARTESIAN COORDINATES (ANGSTROEM)
---------------------------------
  C      2.967907   -2.440035    1.835773
  C      1.644941   -2.066121    1.198583
  O      1.572213   -0.650240    0.963560
  P      2.251945    0.058319   -0.298840
  S      2.884318   -1.118765   -1.722012
  O      3.431255    0.931800    0.292427
  C      3.320683    1.774424    1.467181
  C      3.045189    3.213575    1.081018
  S      0.748334    1.457409   -0.831026
  C     -0.136813    0.380373   -1.983715
  S     -0.809274   -1.116069   -1.210136
  P     -2.220049   -0.139736    0.013962
  S     -3.108431    1.455722   -0.708993
  O     -1.350848    0.070221    1.318299
  C     -1.736581    0.981427    2.373578
  C     -0.493055    1.682528    2.880859
  O     -3.215744   -1.286716    0.489332
  C     -4.416095   -1.614713   -0.232066
  C     -4.117525   -2.245981   -1.576471
  H      3.107042   -1.901884    2.769604
  H      2.985573   -3.507883    2.028805
  H      3.782675   -2.189107    1.157218
  H      0.797510   -2.275785    1.853594
  H      1.511240   -2.591079    0.247240
  H      2.536695    1.378344    2.115624
  H      4.291896    1.677498    1.955502
  H      3.045538    3.826789    1.976745
  H      3.813562    3.570270    0.400797
  H      2.078853    3.301755    0.588142
  H      0.546874    0.041009   -2.761228
  H     -0.950306    0.975840   -2.397710
  H     -2.460483    1.699571    1.973326
  H     -2.211649    0.385565    3.155920
  H     -0.052761    2.278956    2.085550
  H     -0.760561    2.330467    3.709117
  H      0.232551    0.946735    3.216509
  H     -4.940334   -2.304217    0.430836
  H     -5.002450   -0.699031   -0.358824
  H     -3.447946   -3.094042   -1.456438
  H     -5.044733   -2.578858   -2.031763
  H     -3.644021   -1.516991   -2.233123

 Total Charge           Charge          ....    0
 Multiplicity           Mult            ....    1
 Number of Electrons    NEL             ....  202
 Basis Dimension        Dim             ....  334

ORBITAL ENERGIES
----------------

  NO   OCC          E(Eh)            E(eV)
   0   2.0000     -88.044996     -2395.8262
   1   2.0000     -88.040171     -2395.6949
   2   2.0000     -87.989970     -2394.3288
   3   2.0000     -87.986157     -2394.2251
   4   2.0000     -76.426965     -2079.6834
   5   2.0000     -76.425602     -2079.6464
   6   2.0000     -18.795422      -511.4494
   7   2.0000     -18.794046      -511.4120
   8   2.0000     -18.788781      -511.2687
   9   2.0000     -18.787097      -511.2229
  10   2.0000      -9.960703      -271.0445
  11   2.0000      -9.954302      -270.8703
  12   2.0000      -9.953141      -270.8387
  13   2.0000      -9.952564      -270.8230
  14   2.0000      -9.946419      -270.6558
  15   2.0000      -9.891792      -269.1694
  16   2.0000      -9.887550      -269.0539
  17   2.0000      -9.884855      -268.9806
  18   2.0000      -9.882338      -268.9121
  19   2.0000      -7.689847      -209.2514
  20   2.0000      -7.685217      -209.1254
  21   2.0000      -7.634926      -207.7569
  22   2.0000      -7.631431      -207.6618
  23   2.0000      -6.424702      -174.8250
  24   2.0000      -6.423222      -174.7848
  25   2.0000      -5.717743      -155.5877
  26   2.0000      -5.714438      -155.4978
  27   2.0000      -5.713041      -155.4597
  28   2.0000      -5.709896      -155.3742
  29   2.0000      -5.706700      -155.2872
  30   2.0000      -5.702040      -155.1604
  31   2.0000      -5.663643      -154.1156
  32   2.0000      -5.660480      -154.0295
  33   2.0000      -5.655670      -153.8986
  34   2.0000      -5.655181      -153.8853
  35   2.0000      -5.651952      -153.7974
  36   2.0000      -5.651499      -153.7851
  37   2.0000      -4.647148      -126.4553
  38   2.0000      -4.646394      -126.4348
  39   2.0000      -4.646108      -126.4270
  40   2.0000      -4.645295      -126.4049
  41   2.0000      -4.644587      -126.3856
  42   2.0000      -4.643809      -126.3645
  43   2.0000      -0.986891       -26.8547
  44   2.0000      -0.984753       -26.7965
  45   2.0000      -0.945229       -25.7210
  46   2.0000      -0.942714       -25.6525
  47   2.0000      -0.766207       -20.8495
  48   2.0000      -0.723416       -19.6852
  49   2.0000      -0.711643       -19.3648
  50   2.0000      -0.690948       -18.8017
  51   2.0000      -0.687582       -18.7101
  52   2.0000      -0.674721       -18.3601
  53   2.0000      -0.651756       -17.7352
  54   2.0000      -0.639632       -17.4053
  55   2.0000      -0.601404       -16.3650
  56   2.0000      -0.588585       -16.0162
  57   2.0000      -0.579329       -15.7643
  58   2.0000      -0.573499       -15.6057
  59   2.0000      -0.557847       -15.1798
  60   2.0000      -0.505247       -13.7485
  61   2.0000      -0.498920       -13.5763
  62   2.0000      -0.478296       -13.0151
  63   2.0000      -0.473712       -12.8904
  64   2.0000      -0.456665       -12.4265
  65   2.0000      -0.446874       -12.1601
  66   2.0000      -0.442451       -12.0397
  67   2.0000      -0.434638       -11.8271
  68   2.0000      -0.428739       -11.6666
  69   2.0000      -0.417638       -11.3645
  70   2.0000      -0.408363       -11.1121
  71   2.0000      -0.396539       -10.7904
  72   2.0000      -0.389834       -10.6079
  73   2.0000      -0.388379       -10.5683
  74   2.0000      -0.378655       -10.3037
  75   2.0000      -0.375700       -10.2233
  76   2.0000      -0.369875       -10.0648
  77   2.0000      -0.359741        -9.7890
  78   2.0000      -0.357431        -9.7262
  79   2.0000      -0.356661        -9.7052
  80   2.0000      -0.352723        -9.5981
  81   2.0000      -0.347389        -9.4529
  82   2.0000      -0.344322        -9.3695
  83   2.0000      -0.340207        -9.2575
  84   2.0000      -0.335807        -9.1378
  85   2.0000      -0.320475        -8.7206
  86   2.0000      -0.309613        -8.4250
  87   2.0000      -0.304806        -8.2942
  88   2.0000      -0.296962        -8.0807
  89   2.0000      -0.287949        -7.8355
  90   2.0000      -0.281085        -7.6487
  91   2.0000      -0.278034        -7.5657
  92   2.0000      -0.271959        -7.4004
  93   2.0000      -0.264959        -7.2099
  94   2.0000      -0.258995        -7.0476
  95   2.0000      -0.231741        -6.3060
  96   2.0000      -0.216097        -5.8803
  97   2.0000      -0.214728        -5.8430
  98   2.0000      -0.208179        -5.6648
  99   2.0000      -0.201384        -5.4799
 100   2.0000      -0.200040        -5.4434
 101   0.0000      -0.045791        -1.2460
 102   0.0000      -0.023579        -0.6416
 103   0.0000      -0.003276        -0.0891
 104   0.0000       0.002026         0.0551
 105   0.0000       0.006424         0.1748

MULLIKEN ATOMIC CHARGES
-----------------------
   0 C :   -0.299640
   1 C :   -0.006149
   2 O :   -0.380133
   3 P :    0.629462
   4 S :   -0.316199
   5 O :   -0.365323
   6 C :   -0.038727
   7 C :   -0.307074
   8 S :   -0.104976
   9 C :   -0.350896
  10 S :   -0.071670
  11 P :    0.613916
  12 S :   -0.340401
  13 O :   -0.356496
  14 C :   -0.005719
  15 C :   -0.304411
  16 O :   -0.376045
  17 C :   -0.003044
  18 C :   -0.316424
  19 H :    0.105987
  20 H :    0.110776
  21 H :    0.124289
  22 H :    0.101183
  23 H :    0.114253
  24 H :    0.121499
  25 H :    0.111621
  26 H :    0.112366
  27 H :    0.125410
  28 H :    0.141451
  29 H :    0.194339
  30 H :    0.191598
  31 H :    0.106185
  32 H :    0.102545
  33 H :    0.127628
  34 H :    0.106810
  35 H :    0.127139
  36 H :    0.104749
  37 H :    0.111419
  38 H :    0.118234
  39 H :    0.113884
  40 H :    0.126584
Sum of atomic charges:    0.0000000

LOEWDIN ATOMIC CHARGES
----------------------
   0 C :   -0.363383
   1 C :   -0.123283
   2 O :   -0.246183
   3 P :    0.573272
   4 S :   -0.308516
   5 O :   -0.242417
   6 C :   -0.116365
   7 C :   -0.361230
   8 S :    0.084280
   9 C :   -0.480801
  10 S :    0.106653
  11 P :    0.570772
  12 S :   -0.326431
  13 O :   -0.237477
  14 C :   -0.114251
  15 C :   -0.356633
  16 O :   -0.248724
  17 C :   -0.119507
  18 C :   -0.369278
  19 H :    0.120290
  20 H :    0.130026
  21 H :    0.124646
  22 H :    0.115397
  23 H :    0.106237
  24 H :    0.112208
  25 H :    0.122406
  26 H :    0.131509
  27 H :    0.131972
  28 H :    0.119111
  29 H :    0.132293
  30 H :    0.130537
  31 H :    0.107255
  32 H :    0.113697
  33 H :    0.123302
  34 H :    0.128125
  35 H :    0.124333
  36 H :    0.118456
  37 H :    0.110517
  38 H :    0.124658
  39 H :    0.131447
  40 H :    0.121081

  Mayer bond orders larger than 0.100000
B(  0-C ,  1-C ) :   1.1611 B(  0-C , 19-H ) :   0.9486 B(  0-C , 20-H ) :   0.9413
B(  0-C , 21-H ) :   0.9381 B(  1-C ,  2-O ) :   0.9007 B(  1-C , 22-H ) :   0.9322
B(  1-C , 23-H ) :   0.9090 B(  2-O ,  3-P ) :   1.0755 B(  3-P ,  4-S ) :   1.6264
B(  3-P ,  5-O ) :   1.1331 B(  3-P ,  8-S ) :   0.9490 B(  4-S ,  8-S ) :   0.1022
B(  5-O ,  6-C ) :   0.9001 B(  6-C ,  7-C ) :   1.1689 B(  6-C , 24-H ) :   0.9104
B(  6-C , 25-H ) :   0.9332 B(  7-C , 26-H ) :   0.9385 B(  7-C , 27-H ) :   0.9447
B(  7-C , 28-H ) :   0.9297 B(  8-S ,  9-C ) :   1.0106 B(  9-C , 10-S ) :   1.0009
B(  9-C , 29-H ) :   0.8827 B(  9-C , 30-H ) :   0.8815 B( 10-S , 11-P ) :   0.9607
B( 10-S , 12-S ) :   0.1075 B( 11-P , 12-S ) :   1.5936 B( 11-P , 13-O ) :   1.1363
B( 11-P , 16-O ) :   1.1103 B( 13-O , 14-C ) :   0.9005 B( 14-C , 15-C ) :   1.1661
B( 14-C , 31-H ) :   0.9040 B( 14-C , 32-H ) :   0.9336 B( 15-C , 33-H ) :   0.9414
B( 15-C , 34-H ) :   0.9375 B( 15-C , 35-H ) :   0.9393 B( 16-O , 17-C ) :   0.9096
B( 17-C , 18-C ) :   1.1646 B( 17-C , 36-H ) :   0.9339 B( 17-C , 37-H ) :   0.9157
B( 18-C , 38-H ) :   0.9450 B( 18-C , 39-H ) :   0.9380 B( 18-C , 40-H ) :   0.9354

Dispersion correction           -0.067281453
FINAL SINGLE POINT ENERGY     -2929.523404838575

DIPOLE MOMENT
-------------

Method             : SCF
Type of density    : Electron Density
Multiplicity       :   1
Irrep              :   0
Energy             : -2929.6415365417224166 Eh
Relativity type    :
Basis              : AO
                                X                 Y                 Z
Electronic contribution:     -0.604521142       0.075894313     -16.105868716
Nuclear contribution   :      0.187707450      -0.191599385      17.715599961
                        -----------------------------------------
Total Dipole Moment    :     -0.416813693      -0.115705072       1.609731246
                        -----------------------------------------
Magnitude (a.u.)       :      1.666840125
Magnitude (Debye)      :      4.236770896

Rotational constants in cm-1:             0.011767             0.005588             0.005075
Rotational constants in MHz :           352.775493           167.525929           152.138978

                             ****ORCA TERMINATED NORMALLY****
TOTAL RUN TIME: 0 days 0 hours 0 minutes 22 seconds 250 msec
