                         Program Version 6.0.0  -   RELEASE  -
|  1> ! pbe def2-sv(p) def2/J RI DEFGRID1 loosescf d4 GCP(DFT/SV(P)) printgap
|  2> %output
|  3>     printlevel normal
|  4> end
|  5> * xyz 0 1
|  6> C 5.2663206544 -2.2682936505 -1.3179087373
|  7> C 4.2963351009 -1.1067187346 -1.3956994304
|  8> O 3.2174857212 -1.3674856069 -0.4750465613
|  9> P 2.2575214716 -0.2089320787 0.0291311252
| 10> S 3.1598041561 1.4187457502 0.6548892348
| 11> O 1.358186879 -0.9669411914 1.0860074053
| 12> C 1.6796013146 -0.9494449308 2.4960200065
| 13> C 2.9402049791 -1.7345943779 2.7880068883
| 14> S 0.9126448735 0.0375140823 -1.5853185165
| 15> C 0.2492354103 1.6367205013 -1.0462501425
| 16> S -0.7764894515 1.5024255488 0.4345483498
| 17> P -2.3321942528 0.3403850922 -0.4675797061
| 18> S -2.6905041117 0.745146095 -2.3446285943
| 19> O -3.5417416789 0.5700916977 0.5346601357
| 20> C -4.2343474677 1.8357379671 0.583757344
| 21> C -5.5224802764 1.6291250016 1.35409837
| 22> O -1.9672127479 -1.1711430194 -0.2313059684
| 23> C -1.8021404295 -1.7505878627 1.0871793523
| 24> C -3.0610809406 -2.4794604872 1.5078972736
| 25> H 6.0713544791 -2.1068918252 -2.0272166952
| 26> H 5.6807794048 -2.3451756407 -0.3168100721
| 27> H 4.7535052863 -3.1946383581 -1.5596306628
| 28> H 3.8727317898 -1.0055302373 -2.3986916252
| 29> H 4.7751871809 -0.1628455672 -1.1134065568
| 30> H 1.7873631933 0.0928099941 2.8125591978
| 31> H 0.8046424461 -1.3939683326 2.9714752958
| 32> H 3.7941460972 -1.2457800133 2.3204535941
| 33> H 3.1002794469 -1.7741917949 3.8608661134
| 34> H 2.8546984081 -2.7440102018 2.3946407978
| 35> H -0.3532959909 2.016653795 -1.871089922
| 36> H 1.0707680338 2.3106284336 -0.8024681931
| 37> H -3.583061706 2.5619711903 1.0775214864
| 38> H -4.4264664415 2.1655896069 -0.4422729664
| 39> H -6.0569220224 2.5716249435 1.4104826978
| 40> H -6.1449857679 0.8947407654 0.8507285127
| 41> H -5.3038535217 1.2797741644 2.3589646665
| 42> H -0.9559890769 -2.4324532416 0.9810672543
| 43> H -1.5488298343 -0.9537214686 1.7923224664
| 44> H -3.8879491178 -1.7796322237 1.594160452
| 45> H -3.3166156438 -3.2347997996 0.7699762316
| 46> H -2.8920054088 -2.9572819031 2.4678350686
| 47> *
| 48>
| 49>                          ****END OF INPUT****

CARTESIAN COORDINATES (ANGSTROEM)
---------------------------------
  C      5.266321   -2.268294   -1.317909
  C      4.296335   -1.106719   -1.395699
  O      3.217486   -1.367486   -0.475047
  P      2.257521   -0.208932    0.029131
  S      3.159804    1.418746    0.654889
  O      1.358187   -0.966941    1.086007
  C      1.679601   -0.949445    2.496020
  C      2.940205   -1.734594    2.788007
  S      0.912645    0.037514   -1.585319
  C      0.249235    1.636721   -1.046250
  S     -0.776489    1.502426    0.434548
  P     -2.332194    0.340385   -0.467580
  S     -2.690504    0.745146   -2.344629
  O     -3.541742    0.570092    0.534660
  C     -4.234347    1.835738    0.583757
  C     -5.522480    1.629125    1.354098
  O     -1.967213   -1.171143   -0.231306
  C     -1.802140   -1.750588    1.087179
  C     -3.061081   -2.479460    1.507897
  H      6.071354   -2.106892   -2.027217
  H      5.680779   -2.345176   -0.316810
  H      4.753505   -3.194638   -1.559631
  H      3.872732   -1.005530   -2.398692
  H      4.775187   -0.162846   -1.113407
  H      1.787363    0.092810    2.812559
  H      0.804642   -1.393968    2.971475
  H      3.794146   -1.245780    2.320454
  H      3.100279   -1.774192    3.860866
  H      2.854698   -2.744010    2.394641
  H     -0.353296    2.016654   -1.871090
  H      1.070768    2.310628   -0.802468
  H     -3.583062    2.561971    1.077521
  H     -4.426466    2.165590   -0.442273
  H     -6.056922    2.571625    1.410483
  H     -6.144986    0.894741    0.850729
  H     -5.303854    1.279774    2.358965
  H     -0.955989   -2.432453    0.981067
  H     -1.548830   -0.953721    1.792322
  H     -3.887949   -1.779632    1.594160
  H     -3.316616   -3.234800    0.769976
  H     -2.892005   -2.957282    2.467835

 Total Charge           Charge          ....    0
 Multiplicity           Mult            ....    1
 Number of Electrons    NEL             ....  202
 Basis Dimension        Dim             ....  334

ORBITAL ENERGIES
----------------

  NO   OCC          E(Eh)            E(eV)
   0   2.0000     -88.039605     -2395.6794
   1   2.0000     -88.038746     -2395.6561
   2   2.0000     -87.989793     -2394.3240
   3   2.0000     -87.983473     -2394.1520
   4   2.0000     -76.427203     -2079.6899
   5   2.0000     -76.424532     -2079.6172
   6   2.0000     -18.797160      -511.4967
   7   2.0000     -18.796368      -511.4752
   8   2.0000     -18.794956      -511.4367
   9   2.0000     -18.790588      -511.3179
  10   2.0000      -9.955813      -270.9114
  11   2.0000      -9.955277      -270.8969
  12   2.0000      -9.954846      -270.8851
  13   2.0000      -9.953948      -270.8607
  14   2.0000      -9.949486      -270.7393
  15   2.0000      -9.891342      -269.1571
  16   2.0000      -9.890376      -269.1308
  17   2.0000      -9.887634      -269.0562
  18   2.0000      -9.885946      -269.0103
  19   2.0000      -7.684817      -209.1145
  20   2.0000      -7.683653      -209.0828
  21   2.0000      -7.634753      -207.7522
  22   2.0000      -7.628843      -207.5914
  23   2.0000      -6.425105      -174.8360
  24   2.0000      -6.422165      -174.7560
  25   2.0000      -5.712628      -155.4485
  26   2.0000      -5.711325      -155.4131
  27   2.0000      -5.709461      -155.3623
  28   2.0000      -5.708253      -155.3295
  29   2.0000      -5.701707      -155.1513
  30   2.0000      -5.700802      -155.1267
  31   2.0000      -5.663453      -154.1104
  32   2.0000      -5.657835      -153.9575
  33   2.0000      -5.655409      -153.8915
  34   2.0000      -5.655108      -153.8833
  35   2.0000      -5.649308      -153.7255
  36   2.0000      -5.649031      -153.7179
  37   2.0000      -4.647525      -126.4656
  38   2.0000      -4.646864      -126.4476
  39   2.0000      -4.645617      -126.4137
  40   2.0000      -4.645090      -126.3993
  41   2.0000      -4.643910      -126.3672
  42   2.0000      -4.642292      -126.3232
  43   2.0000      -0.990835       -26.9620
  44   2.0000      -0.989953       -26.9380
  45   2.0000      -0.949931       -25.8489
  46   2.0000      -0.946313       -25.7505
  47   2.0000      -0.762726       -20.7548
  48   2.0000      -0.723050       -19.6752
  49   2.0000      -0.712168       -19.3791
  50   2.0000      -0.693733       -18.8774
  51   2.0000      -0.692015       -18.8307
  52   2.0000      -0.673094       -18.3158
  53   2.0000      -0.648640       -17.6504
  54   2.0000      -0.637345       -17.3430
  55   2.0000      -0.601184       -16.3590
  56   2.0000      -0.588694       -16.0192
  57   2.0000      -0.570759       -15.5311
  58   2.0000      -0.568584       -15.4719
  59   2.0000      -0.563821       -15.3424
  60   2.0000      -0.511938       -13.9305
  61   2.0000      -0.503241       -13.6939
  62   2.0000      -0.482920       -13.1409
  63   2.0000      -0.479939       -13.0598
  64   2.0000      -0.458737       -12.4829
  65   2.0000      -0.445495       -12.1225
  66   2.0000      -0.443066       -12.0564
  67   2.0000      -0.438134       -11.9222
  68   2.0000      -0.432177       -11.7601
  69   2.0000      -0.414433       -11.2773
  70   2.0000      -0.405665       -11.0387
  71   2.0000      -0.398645       -10.8477
  72   2.0000      -0.389766       -10.6061
  73   2.0000      -0.382991       -10.4217
  74   2.0000      -0.382062       -10.3964
  75   2.0000      -0.375052       -10.2057
  76   2.0000      -0.368338       -10.0230
  77   2.0000      -0.360052        -9.7975
  78   2.0000      -0.359335        -9.7780
  79   2.0000      -0.353584        -9.6215
  80   2.0000      -0.350191        -9.5292
  81   2.0000      -0.348703        -9.4887
  82   2.0000      -0.347033        -9.4432
  83   2.0000      -0.343541        -9.3482
  84   2.0000      -0.334889        -9.1128
  85   2.0000      -0.322503        -8.7758
  86   2.0000      -0.312805        -8.5119
  87   2.0000      -0.303009        -8.2453
  88   2.0000      -0.302430        -8.2296
  89   2.0000      -0.294336        -8.0093
  90   2.0000      -0.288887        -7.8610
  91   2.0000      -0.280308        -7.6276
  92   2.0000      -0.271835        -7.3970
  93   2.0000      -0.264943        -7.2095
  94   2.0000      -0.257228        -6.9995
  95   2.0000      -0.234019        -6.3680
  96   2.0000      -0.217668        -5.9231
  97   2.0000      -0.213411        -5.8072
  98   2.0000      -0.205420        -5.5898
  99   2.0000      -0.199761        -5.4358
 100   2.0000      -0.198448        -5.4000
 101   0.0000      -0.042664        -1.1610
 102   0.0000      -0.021786        -0.5928
 103   0.0000       0.002473         0.0673
 104   0.0000       0.003879         0.1055
 105   0.0000       0.012060         0.3282

MULLIKEN ATOMIC CHARGES
-----------------------
   0 C :   -0.281616
   1 C :   -0.013401
   2 O :   -0.376137
   3 P :    0.613220
   4 S :   -0.340774
   5 O :   -0.359135
   6 C :   -0.009898
   7 C :   -0.303881
   8 S :   -0.064500
   9 C :   -0.373741
  10 S :   -0.101942
  11 P :    0.601651
  12 S :   -0.314190
  13 O :   -0.386102
  14 C :   -0.011180
  15 C :   -0.282371
  16 O :   -0.346387
  17 C :   -0.023908
  18 C :   -0.284539
  19 H :    0.113706
  20 H :    0.118595
  21 H :    0.118497
  22 H :    0.106618
  23 H :    0.107540
  24 H :    0.116330
  25 H :    0.101190
  26 H :    0.124663
  27 H :    0.112503
  28 H :    0.116414
  29 H :    0.194750
  30 H :    0.193179
  31 H :    0.104987
  32 H :    0.107753
  33 H :    0.114310
  34 H :    0.122775
  35 H :    0.114973
  36 H :    0.118570
  37 H :    0.104847
  38 H :    0.120506
  39 H :    0.120335
  40 H :    0.105792
Sum of atomic charges:   -0.0000000

LOEWDIN ATOMIC CHARGES
----------------------
   0 C :   -0.350075
   1 C :   -0.120156
   2 O :   -0.246750
   3 P :    0.571235
   4 S :   -0.325071
   5 O :   -0.235946
   6 C :   -0.116982
   7 C :   -0.364704
   8 S :    0.092857
   9 C :   -0.486417
  10 S :    0.060288
  11 P :    0.568369
  12 S :   -0.309666
  13 O :   -0.250558
  14 C :   -0.120061
  15 C :   -0.350466
  16 O :   -0.227617
  17 C :   -0.113967
  18 C :   -0.359008
  19 H :    0.131797
  20 H :    0.127423
  21 H :    0.127828
  22 H :    0.112058
  23 H :    0.108890
  24 H :    0.112522
  25 H :    0.113558
  26 H :    0.122584
  27 H :    0.130847
  28 H :    0.126263
  29 H :    0.129246
  30 H :    0.128082
  31 H :    0.109000
  32 H :    0.111009
  33 H :    0.132075
  34 H :    0.129446
  35 H :    0.125392
  36 H :    0.121131
  37 H :    0.103260
  38 H :    0.125381
  39 H :    0.129243
  40 H :    0.127662

  Mayer bond orders larger than 0.100000
B(  0-C ,  1-C ) :   1.1609 B(  0-C , 19-H ) :   0.9416 B(  0-C , 20-H ) :   0.9516
B(  0-C , 21-H ) :   0.9502 B(  1-C ,  2-O ) :   0.9015 B(  1-C , 22-H ) :   0.9288
B(  1-C , 23-H ) :   0.9100 B(  2-O ,  3-P ) :   1.1102 B(  3-P ,  4-S ) :   1.5947
B(  3-P ,  5-O ) :   1.1248 B(  3-P ,  8-S ) :   0.9704 B(  4-S ,  8-S ) :   0.1099
B(  5-O ,  6-C ) :   0.9011 B(  6-C ,  7-C ) :   1.1659 B(  6-C , 24-H ) :   0.9158
B(  6-C , 25-H ) :   0.9293 B(  7-C , 26-H ) :   0.9338 B(  7-C , 27-H ) :   0.9383
B(  7-C , 28-H ) :   0.9459 B(  8-S ,  9-C ) :   1.0058 B(  9-C , 10-S ) :   1.0058
B(  9-C , 29-H ) :   0.8762 B(  9-C , 30-H ) :   0.8748 B( 10-S , 11-P ) :   0.9435
B( 10-S , 12-S ) :   0.1108 B( 11-P , 12-S ) :   1.6507 B( 11-P , 13-O ) :   1.0752
B( 11-P , 16-O ) :   1.1493 B( 13-O , 14-C ) :   0.9035 B( 14-C , 15-C ) :   1.1593
B( 14-C , 31-H ) :   0.9267 B( 14-C , 32-H ) :   0.9116 B( 15-C , 33-H ) :   0.9417
B( 15-C , 34-H ) :   0.9506 B( 15-C , 35-H ) :   0.9509 B( 16-O , 17-C ) :   0.8902
B( 17-C , 18-C ) :   1.1564 B( 17-C , 36-H ) :   0.9301 B( 17-C , 37-H ) :   0.9117
B( 18-C , 38-H ) :   0.9413 B( 18-C , 39-H ) :   0.9463 B( 18-C , 40-H ) :   0.9407

Dispersion correction           -0.063661476
FINAL SINGLE POINT ENERGY     -2929.525647165640

DIPOLE MOMENT
-------------

Method             : SCF
Type of density    : Electron Density
Multiplicity       :   1
Irrep              :   0
Energy             : -2929.6466024154083243 Eh
Relativity type    :
Basis              : AO
                                X                 Y                 Z
Electronic contribution:     -0.049920202      12.182216254     -15.220970017
Nuclear contribution   :      0.124949998     -12.874478895      16.559781569
                        -----------------------------------------
Total Dipole Moment    :      0.075029797      -0.692262641       1.338811552
                        -----------------------------------------
Magnitude (a.u.)       :      1.509063751
Magnitude (Debye)      :      3.835735225

Rotational constants in cm-1:             0.013455             0.004499             0.004203
Rotational constants in MHz :           403.381454           134.869970           126.012281

                             ****ORCA TERMINATED NORMALLY****
TOTAL RUN TIME: 0 days 0 hours 0 minutes 21 seconds 61 msec
