                         Program Version 6.0.1  -  RELEASE   -
|  1> ! r2scan-3c def2/J RI DEFGRID2 scfconv6 printgap
|  2> %output
|  3>     printlevel normal
|  4> end
|  5> * xyz 0 1
|  6> C 4.2444868095 -3.7716358076 -1.000892352
|  7> C 2.7323030798 -3.7317958843 -0.8479189453
|  8> O 2.3034709715 -2.4814783562 -0.2733561166
|  9> C 2.1263925234 -1.4520364959 -1.0758486731
| 10> O 2.2520831546 -1.4825121009 -2.2796444738
| 11> C 1.7295188587 -0.2095794076 -0.3001075703
| 12> C 0.6654385251 0.5633429835 -1.0707207685
| 13> H 1.0081235601 0.7064889565 -2.1016559475
| 14> C 0.3512782169 1.917515862 -0.4643927461
| 15> O -0.7864901713 2.2880938435 -0.2541118689
| 16> O 1.4310340263 2.6134815267 -0.2424345923
| 17> C 1.3046453482 3.9056107792 0.3922964019
| 18> C 1.4614397648 3.7667032658 1.8972564028
| 19> S -0.888111495 -0.3741014452 -1.2329059352
| 20> P -1.8275928944 0.0415864888 0.6374811972
| 21> S -0.7322664731 0.4565493137 2.2051337317
| 22> O -3.0595975113 1.0090315179 0.446027091
| 23> C -4.0083488733 0.8656272225 -0.6271660401
| 24> O -2.6300409206 -1.3428254088 0.822368802
| 25> C -1.9479247991 -2.5599882153 1.1304136369
| 26> H 4.7225766732 -3.5847195345 -0.0432737179
| 27> H 4.5419770433 -4.7494536123 -1.3648883235
| 28> H 4.5685785686 -3.0166693398 -1.7135051137
| 29> H 2.3840281521 -4.4872615499 -0.1437493726
| 30> H 2.241436139 -3.8550173584 -1.8174907157
| 31> H 2.6126041371 0.4253179337 -0.1964333293
| 32> H 1.3833783728 -0.4923760401 0.6952879489
| 33> H 2.10696459 4.5028172173 -0.0412629654
| 34> H 0.3289437805 4.3267818447 0.1369464617
| 35> H 0.6899885633 3.110809732 2.2974726305
| 36> H 2.4328563687 3.3456725749 2.1387410334
| 37> H 1.3679409312 4.743637052 2.3593657041
| 38> H -4.7356210071 1.6571070311 -0.4661638718
| 39> H -4.4803317441 -0.1142900997 -0.5799053804
| 40> H -3.5047614399 0.9964928377 -1.584862321
| 41> H -2.723971407 -3.2728948302 1.3965272008
| 42> H -1.267256412 -2.4060565126 1.9697296188
| 43> H -1.39142465 -2.9054067428 0.2587859213
| 44> *
| 45>
| 46>                          ****END OF INPUT****

CARTESIAN COORDINATES (ANGSTROEM)
---------------------------------
  C      4.244487   -3.771636   -1.000892
  C      2.732303   -3.731796   -0.847919
  O      2.303471   -2.481478   -0.273356
  C      2.126393   -1.452036   -1.075849
  O      2.252083   -1.482512   -2.279644
  C      1.729519   -0.209579   -0.300108
  C      0.665439    0.563343   -1.070721
  H      1.008124    0.706489   -2.101656
  C      0.351278    1.917516   -0.464393
  O     -0.786490    2.288094   -0.254112
  O      1.431034    2.613482   -0.242435
  C      1.304645    3.905611    0.392296
  C      1.461440    3.766703    1.897256
  S     -0.888111   -0.374101   -1.232906
  P     -1.827593    0.041586    0.637481
  S     -0.732266    0.456549    2.205134
  O     -3.059598    1.009032    0.446027
  C     -4.008349    0.865627   -0.627166
  O     -2.630041   -1.342825    0.822369
  C     -1.947925   -2.559988    1.130414
  H      4.722577   -3.584720   -0.043274
  H      4.541977   -4.749454   -1.364888
  H      4.568579   -3.016669   -1.713505
  H      2.384028   -4.487262   -0.143749
  H      2.241436   -3.855017   -1.817491
  H      2.612604    0.425318   -0.196433
  H      1.383378   -0.492376    0.695288
  H      2.106965    4.502817   -0.041263
  H      0.328944    4.326782    0.136946
  H      0.689989    3.110810    2.297473
  H      2.432856    3.345673    2.138741
  H      1.367941    4.743637    2.359366
  H     -4.735621    1.657107   -0.466164
  H     -4.480332   -0.114290   -0.579905
  H     -3.504761    0.996493   -1.584862
  H     -2.723971   -3.272895    1.396527
  H     -1.267256   -2.406057    1.969730
  H     -1.391425   -2.905407    0.258786

 Total Charge           Charge          ....    0
 Multiplicity           Mult            ....    1
 Number of Electrons    NEL             ....  174
 Basis Dimension        Dim             ....  510

ORBITAL ENERGIES
----------------

  NO   OCC          E(Eh)            E(eV)
   0   2.0000     -88.572001     -2410.1667
   1   2.0000     -88.510560     -2408.4948
   2   2.0000     -76.909119     -2092.8035
   3   2.0000     -19.014427      -517.4089
   4   2.0000     -19.005920      -517.1774
   5   2.0000     -18.982847      -516.5495
   6   2.0000     -18.980372      -516.4822
   7   2.0000     -18.941515      -515.4248
   8   2.0000     -18.937233      -515.3083
   9   2.0000     -10.170538      -276.7544
  10   2.0000     -10.161747      -276.5152
  11   2.0000     -10.099039      -274.8088
  12   2.0000     -10.098443      -274.7926
  13   2.0000     -10.097405      -274.7644
  14   2.0000     -10.088872      -274.5322
  15   2.0000     -10.083180      -274.3773
  16   2.0000     -10.054182      -273.5882
  17   2.0000     -10.033603      -273.0282
  18   2.0000     -10.027955      -272.8745
  19   2.0000      -7.866188      -214.0499
  20   2.0000      -7.805762      -212.4056
  21   2.0000      -6.586737      -179.2342
  22   2.0000      -5.813209      -158.1855
  23   2.0000      -5.809956      -158.0969
  24   2.0000      -5.803263      -157.9148
  25   2.0000      -5.753671      -156.5653
  26   2.0000      -5.746153      -156.3608
  27   2.0000      -5.745310      -156.3378
  28   2.0000      -4.732474      -128.7772
  29   2.0000      -4.731900      -128.7615
  30   2.0000      -4.730228      -128.7160
  31   2.0000      -1.092659       -29.7328
  32   2.0000      -1.082052       -29.4441
  33   2.0000      -1.040698       -28.3188
  34   2.0000      -0.998660       -27.1749
  35   2.0000      -0.993741       -27.0411
  36   2.0000      -0.987079       -26.8598
  37   2.0000      -0.809984       -22.0408
  38   2.0000      -0.755611       -20.5612
  39   2.0000      -0.748792       -20.3757
  40   2.0000      -0.725530       -19.7427
  41   2.0000      -0.695115       -18.9151
  42   2.0000      -0.667082       -18.1522
  43   2.0000      -0.661003       -17.9868
  44   2.0000      -0.650337       -17.6966
  45   2.0000      -0.630640       -17.1606
  46   2.0000      -0.598306       -16.2807
  47   2.0000      -0.538842       -14.6626
  48   2.0000      -0.531938       -14.4748
  49   2.0000      -0.523522       -14.2458
  50   2.0000      -0.507481       -13.8093
  51   2.0000      -0.485429       -13.2092
  52   2.0000      -0.478791       -13.0286
  53   2.0000      -0.471359       -12.8263
  54   2.0000      -0.459319       -12.4987
  55   2.0000      -0.451854       -12.2956
  56   2.0000      -0.443546       -12.0695
  57   2.0000      -0.441977       -12.0268
  58   2.0000      -0.436177       -11.8690
  59   2.0000      -0.424930       -11.5629
  60   2.0000      -0.419148       -11.4056
  61   2.0000      -0.416046       -11.3212
  62   2.0000      -0.410411       -11.1679
  63   2.0000      -0.405552       -11.0356
  64   2.0000      -0.400706       -10.9038
  65   2.0000      -0.383513       -10.4359
  66   2.0000      -0.377499       -10.2723
  67   2.0000      -0.367236        -9.9930
  68   2.0000      -0.364511        -9.9189
  69   2.0000      -0.350346        -9.5334
  70   2.0000      -0.349807        -9.5187
  71   2.0000      -0.345651        -9.4056
  72   2.0000      -0.341831        -9.3017
  73   2.0000      -0.323796        -8.8109
  74   2.0000      -0.316717        -8.6183
  75   2.0000      -0.314265        -8.5516
  76   2.0000      -0.311334        -8.4718
  77   2.0000      -0.305070        -8.3014
  78   2.0000      -0.286435        -7.7943
  79   2.0000      -0.281033        -7.6473
  80   2.0000      -0.278424        -7.5763
  81   2.0000      -0.268558        -7.3078
  82   2.0000      -0.255425        -6.9505
  83   2.0000      -0.247188        -6.7263
  84   2.0000      -0.234428        -6.3791
  85   2.0000      -0.210134        -5.7180
  86   2.0000      -0.205764        -5.5991
  87   0.0000      -0.042099        -1.1456
  88   0.0000      -0.032243        -0.8774
  89   0.0000      -0.013738        -0.3738
  90   0.0000       0.002284         0.0622
  91   0.0000       0.023563         0.6412

MULLIKEN ATOMIC CHARGES
-----------------------
   0 C :   -0.472050
   1 C :   -0.137889
   2 O :   -0.171126
   3 C :    0.403073
   4 O :   -0.434744
   5 C :   -0.439007
   6 C :   -0.009452
   7 H :    0.212764
   8 C :    0.340525
   9 O :   -0.395077
  10 O :   -0.166158
  11 C :   -0.139096
  12 C :   -0.463955
  13 S :   -0.175764
  14 P :    0.801117
  15 S :   -0.472294
  16 O :   -0.301989
  17 C :   -0.299579
  18 O :   -0.365995
  19 C :   -0.304328
  20 H :    0.154179
  21 H :    0.148942
  22 H :    0.173274
  23 H :    0.150533
  24 H :    0.169680
  25 H :    0.196191
  26 H :    0.216916
  27 H :    0.149453
  28 H :    0.175202
  29 H :    0.189134
  30 H :    0.150185
  31 H :    0.147314
  32 H :    0.154931
  33 H :    0.166363
  34 H :    0.169338
  35 H :    0.149312
  36 H :    0.175254
  37 H :    0.154820
Sum of atomic charges:    0.0000000

LOEWDIN ATOMIC CHARGES
----------------------
   0 C :   -0.388889
   1 C :    0.029565
   2 O :   -0.579992
   3 C :    0.350845
   4 O :   -0.440590
   5 C :   -0.209783
   6 C :   -0.193142
   7 H :    0.216545
   8 C :    0.351748
   9 O :   -0.458688
  10 O :   -0.574446
  11 C :    0.036750
  12 C :   -0.389034
  13 S :    0.215766
  14 P :    0.416194
  15 S :   -0.089476
  16 O :   -0.638794
  17 C :   -0.050202
  18 O :   -0.694267
  19 C :   -0.067414
  20 H :    0.158300
  21 H :    0.160124
  22 H :    0.165358
  23 H :    0.179248
  24 H :    0.188579
  25 H :    0.198656
  26 H :    0.200637
  27 H :    0.178930
  28 H :    0.192020
  29 H :    0.173777
  30 H :    0.156985
  31 H :    0.159783
  32 H :    0.180612
  33 H :    0.171937
  34 H :    0.173962
  35 H :    0.175474
  36 H :    0.175728
  37 H :    0.167194

  Mayer bond orders larger than 0.100000
B(  0-C ,  1-C ) :   0.9376 B(  0-C , 20-H ) :   0.9730 B(  0-C , 21-H ) :   0.9641
B(  0-C , 22-H ) :   0.9711 B(  1-C ,  2-O ) :   0.8092 B(  1-C , 23-H ) :   0.9609
B(  1-C , 24-H ) :   0.9681 B(  2-O ,  3-C ) :   1.0787 B(  3-C ,  4-O ) :   1.8239
B(  3-C ,  5-C ) :   0.9320 B(  5-C ,  6-C ) :   0.9128 B(  5-C , 25-H ) :   0.9317
B(  5-C , 26-H ) :   0.9465 B(  6-C ,  7-H ) :   0.8993 B(  6-C ,  8-C ) :   0.9560
B(  6-C , 13-S ) :   0.8466 B(  8-C ,  9-O ) :   1.8055 B(  8-C , 10-O ) :   1.1535
B( 10-O , 11-C ) :   0.7840 B( 11-C , 12-C ) :   0.9449 B( 11-C , 27-H ) :   0.9613
B( 11-C , 28-H ) :   0.9687 B( 12-C , 29-H ) :   0.9574 B( 12-C , 30-H ) :   0.9725
B( 12-C , 31-H ) :   0.9650 B( 13-S , 14-P ) :   0.9819 B( 14-P , 15-S ) :   1.7557
B( 14-P , 16-O ) :   1.1969 B( 14-P , 18-O ) :   0.9951 B( 16-O , 17-C ) :   0.7983
B( 17-C , 32-H ) :   0.9649 B( 17-C , 33-H ) :   0.9640 B( 17-C , 34-H ) :   0.9578
B( 18-O , 19-C ) :   0.8413 B( 19-C , 35-H ) :   0.9690 B( 19-C , 36-H ) :   0.9583
B( 19-C , 37-H ) :   0.9544

Dispersion correction           -0.017262318
FINAL SINGLE POINT ENERGY     -1981.449943503133

DIPOLE MOMENT
-------------

Method             : SCF
Type of density    : Electron Density
Multiplicity       :   1
Irrep              :   0
Energy             : -1981.4704365734346538 Eh
Relativity type    :
Basis              : AO
                                X                 Y                 Z
Electronic contribution:    -12.601889231       4.434355762      -0.869102385
Nuclear contribution   :     13.199024998      -4.786211946       0.501374456
                        -----------------------------------------
Total Dipole Moment    :      0.597135768      -0.351856184      -0.367727929
                        -----------------------------------------
Magnitude (a.u.)       :      0.784600363
Magnitude (Debye)      :      1.994295633

Rotational constants in cm-1:             0.011484             0.007439             0.005613
Rotational constants in MHz :           344.275710           223.013196           168.263291

                             ****ORCA TERMINATED NORMALLY****
TOTAL RUN TIME: 0 days 0 hours 1 minutes 21 seconds 215 msec
