                         Program Version 6.0.1  -  RELEASE   -
|  1> ! r2scan-3c def2/J RI DEFGRID2 scfconv6 printgap
|  2> %output
|  3>     printlevel normal
|  4> end
|  5> %cpcm
|  6>     smd true
|  7>     smdsolvent "water"
|  8> end
|  9> * xyz 0 1
| 10> C 4.2444868095 -3.7716358076 -1.000892352
| 11> C 2.7323030798 -3.7317958843 -0.8479189453
| 12> O 2.3034709715 -2.4814783562 -0.2733561166
| 13> C 2.1263925234 -1.4520364959 -1.0758486731
| 14> O 2.2520831546 -1.4825121009 -2.2796444738
| 15> C 1.7295188587 -0.2095794076 -0.3001075703
| 16> C 0.6654385251 0.5633429835 -1.0707207685
| 17> H 1.0081235601 0.7064889565 -2.1016559475
| 18> C 0.3512782169 1.917515862 -0.4643927461
| 19> O -0.7864901713 2.2880938435 -0.2541118689
| 20> O 1.4310340263 2.6134815267 -0.2424345923
| 21> C 1.3046453482 3.9056107792 0.3922964019
| 22> C 1.4614397648 3.7667032658 1.8972564028
| 23> S -0.888111495 -0.3741014452 -1.2329059352
| 24> P -1.8275928944 0.0415864888 0.6374811972
| 25> S -0.7322664731 0.4565493137 2.2051337317
| 26> O -3.0595975113 1.0090315179 0.446027091
| 27> C -4.0083488733 0.8656272225 -0.6271660401
| 28> O -2.6300409206 -1.3428254088 0.822368802
| 29> C -1.9479247991 -2.5599882153 1.1304136369
| 30> H 4.7225766732 -3.5847195345 -0.0432737179
| 31> H 4.5419770433 -4.7494536123 -1.3648883235
| 32> H 4.5685785686 -3.0166693398 -1.7135051137
| 33> H 2.3840281521 -4.4872615499 -0.1437493726
| 34> H 2.241436139 -3.8550173584 -1.8174907157
| 35> H 2.6126041371 0.4253179337 -0.1964333293
| 36> H 1.3833783728 -0.4923760401 0.6952879489
| 37> H 2.10696459 4.5028172173 -0.0412629654
| 38> H 0.3289437805 4.3267818447 0.1369464617
| 39> H 0.6899885633 3.110809732 2.2974726305
| 40> H 2.4328563687 3.3456725749 2.1387410334
| 41> H 1.3679409312 4.743637052 2.3593657041
| 42> H -4.7356210071 1.6571070311 -0.4661638718
| 43> H -4.4803317441 -0.1142900997 -0.5799053804
| 44> H -3.5047614399 0.9964928377 -1.584862321
| 45> H -2.723971407 -3.2728948302 1.3965272008
| 46> H -1.267256412 -2.4060565126 1.9697296188
| 47> H -1.39142465 -2.9054067428 0.2587859213
| 48> *
| 49>
| 50>                          ****END OF INPUT****

CARTESIAN COORDINATES (ANGSTROEM)
---------------------------------
  C      4.244487   -3.771636   -1.000892
  C      2.732303   -3.731796   -0.847919
  O      2.303471   -2.481478   -0.273356
  C      2.126393   -1.452036   -1.075849
  O      2.252083   -1.482512   -2.279644
  C      1.729519   -0.209579   -0.300108
  C      0.665439    0.563343   -1.070721
  H      1.008124    0.706489   -2.101656
  C      0.351278    1.917516   -0.464393
  O     -0.786490    2.288094   -0.254112
  O      1.431034    2.613482   -0.242435
  C      1.304645    3.905611    0.392296
  C      1.461440    3.766703    1.897256
  S     -0.888111   -0.374101   -1.232906
  P     -1.827593    0.041586    0.637481
  S     -0.732266    0.456549    2.205134
  O     -3.059598    1.009032    0.446027
  C     -4.008349    0.865627   -0.627166
  O     -2.630041   -1.342825    0.822369
  C     -1.947925   -2.559988    1.130414
  H      4.722577   -3.584720   -0.043274
  H      4.541977   -4.749454   -1.364888
  H      4.568579   -3.016669   -1.713505
  H      2.384028   -4.487262   -0.143749
  H      2.241436   -3.855017   -1.817491
  H      2.612604    0.425318   -0.196433
  H      1.383378   -0.492376    0.695288
  H      2.106965    4.502817   -0.041263
  H      0.328944    4.326782    0.136946
  H      0.689989    3.110810    2.297473
  H      2.432856    3.345673    2.138741
  H      1.367941    4.743637    2.359366
  H     -4.735621    1.657107   -0.466164
  H     -4.480332   -0.114290   -0.579905
  H     -3.504761    0.996493   -1.584862
  H     -2.723971   -3.272895    1.396527
  H     -1.267256   -2.406057    1.969730
  H     -1.391425   -2.905407    0.258786

 Total Charge           Charge          ....    0
 Multiplicity           Mult            ....    1
 Number of Electrons    NEL             ....  174
 Basis Dimension        Dim             ....  510

ORBITAL ENERGIES
----------------

  NO   OCC          E(Eh)            E(eV)
   0   2.0000     -88.579490     -2410.3705
   1   2.0000     -88.525351     -2408.8973
   2   2.0000     -76.920932     -2093.1250
   3   2.0000     -19.016419      -517.4631
   4   2.0000     -19.009545      -517.2760
   5   2.0000     -18.995142      -516.8841
   6   2.0000     -18.988708      -516.7090
   7   2.0000     -18.953081      -515.7396
   8   2.0000     -18.949530      -515.6429
   9   2.0000     -10.179207      -276.9903
  10   2.0000     -10.170928      -276.7650
  11   2.0000     -10.100378      -274.8453
  12   2.0000     -10.089251      -274.5425
  13   2.0000     -10.086141      -274.4578
  14   2.0000     -10.084153      -274.4038
  15   2.0000     -10.078755      -274.2569
  16   2.0000     -10.054262      -273.5904
  17   2.0000     -10.019567      -272.6463
  18   2.0000     -10.019456      -272.6432
  19   2.0000      -7.873682      -214.2538
  20   2.0000      -7.820811      -212.8151
  21   2.0000      -6.598681      -179.5592
  22   2.0000      -5.820708      -158.3895
  23   2.0000      -5.817464      -158.3012
  24   2.0000      -5.810742      -158.1183
  25   2.0000      -5.768624      -156.9722
  26   2.0000      -5.761247      -156.7715
  27   2.0000      -5.760355      -156.7472
  28   2.0000      -4.744385      -129.1013
  29   2.0000      -4.743795      -129.0852
  30   2.0000      -4.742254      -129.0433
  31   2.0000      -1.096430       -29.8354
  32   2.0000      -1.087057       -29.5803
  33   2.0000      -1.051160       -28.6035
  34   2.0000      -1.007858       -27.4252
  35   2.0000      -1.003333       -27.3021
  36   2.0000      -0.997306       -27.1381
  37   2.0000      -0.813026       -22.1236
  38   2.0000      -0.749346       -20.3907
  39   2.0000      -0.746322       -20.3084
  40   2.0000      -0.728329       -19.8188
  41   2.0000      -0.696253       -18.9460
  42   2.0000      -0.666853       -18.1460
  43   2.0000      -0.661788       -18.0082
  44   2.0000      -0.656167       -17.8552
  45   2.0000      -0.625042       -17.0083
  46   2.0000      -0.596504       -16.2317
  47   2.0000      -0.540210       -14.6999
  48   2.0000      -0.528444       -14.3797
  49   2.0000      -0.522312       -14.2128
  50   2.0000      -0.510444       -13.8899
  51   2.0000      -0.490103       -13.3364
  52   2.0000      -0.480308       -13.0699
  53   2.0000      -0.475519       -12.9395
  54   2.0000      -0.465763       -12.6741
  55   2.0000      -0.458376       -12.4730
  56   2.0000      -0.446667       -12.1544
  57   2.0000      -0.446067       -12.1381
  58   2.0000      -0.439543       -11.9606
  59   2.0000      -0.426333       -11.6011
  60   2.0000      -0.418095       -11.3769
  61   2.0000      -0.412614       -11.2278
  62   2.0000      -0.409081       -11.1317
  63   2.0000      -0.406682       -11.0664
  64   2.0000      -0.399764       -10.8781
  65   2.0000      -0.379600       -10.3294
  66   2.0000      -0.373736       -10.1699
  67   2.0000      -0.368703       -10.0329
  68   2.0000      -0.359618        -9.7857
  69   2.0000      -0.352165        -9.5829
  70   2.0000      -0.348967        -9.4959
  71   2.0000      -0.342860        -9.3297
  72   2.0000      -0.340454        -9.2642
  73   2.0000      -0.326669        -8.8891
  74   2.0000      -0.317983        -8.6528
  75   2.0000      -0.311632        -8.4799
  76   2.0000      -0.309655        -8.4261
  77   2.0000      -0.308412        -8.3923
  78   2.0000      -0.291596        -7.9347
  79   2.0000      -0.285970        -7.7816
  80   2.0000      -0.284299        -7.7362
  81   2.0000      -0.275866        -7.5067
  82   2.0000      -0.266885        -7.2623
  83   2.0000      -0.259616        -7.0645
  84   2.0000      -0.244127        -6.6430
  85   2.0000      -0.224527        -6.1097
  86   2.0000      -0.221198        -6.0191
  87   0.0000      -0.050860        -1.3840
  88   0.0000      -0.041448        -1.1278
  89   0.0000      -0.021251        -0.5783
  90   0.0000      -0.003307        -0.0900
  91   0.0000       0.014362         0.3908

MULLIKEN ATOMIC CHARGES
-----------------------
   0 C :   -0.497451
   1 C :   -0.140537
   2 O :   -0.187177
   3 C :    0.427971
   4 O :   -0.497873
   5 C :   -0.439311
   6 C :   -0.007396
   7 H :    0.243542
   8 C :    0.352773
   9 O :   -0.447162
  10 O :   -0.171391
  11 C :   -0.136366
  12 C :   -0.498374
  13 S :   -0.183579
  14 P :    0.802872
  15 S :   -0.507025
  16 O :   -0.350929
  17 C :   -0.306000
  18 O :   -0.397448
  19 C :   -0.311666
  20 H :    0.166897
  21 H :    0.172068
  22 H :    0.170819
  23 H :    0.177347
  24 H :    0.174938
  25 H :    0.230747
  26 H :    0.212569
  27 H :    0.179147
  28 H :    0.181127
  29 H :    0.170697
  30 H :    0.170397
  31 H :    0.172768
  32 H :    0.181649
  33 H :    0.185051
  34 H :    0.179846
  35 H :    0.177761
  36 H :    0.176985
  37 H :    0.171714
Sum of atomic charges:   -0.0000000

LOEWDIN ATOMIC CHARGES
----------------------
   0 C :   -0.391191
   1 C :    0.035640
   2 O :   -0.582825
   3 C :    0.360112
   4 O :   -0.485674
   5 C :   -0.204908
   6 C :   -0.189151
   7 H :    0.228302
   8 C :    0.360559
   9 O :   -0.499591
  10 O :   -0.568389
  11 C :    0.043884
  12 C :   -0.393131
  13 S :    0.216998
  14 P :    0.411643
  15 S :   -0.118954
  16 O :   -0.670482
  17 C :   -0.043745
  18 O :   -0.708452
  19 C :   -0.062106
  20 H :    0.162794
  21 H :    0.168676
  22 H :    0.163094
  23 H :    0.190923
  24 H :    0.190768
  25 H :    0.212605
  26 H :    0.199838
  27 H :    0.192217
  28 H :    0.193624
  29 H :    0.164350
  30 H :    0.162967
  31 H :    0.169060
  32 H :    0.191690
  33 H :    0.180907
  34 H :    0.179434
  35 H :    0.187564
  36 H :    0.176534
  37 H :    0.174417

  Mayer bond orders larger than 0.100000
B(  0-C ,  1-C ) :   0.9356 B(  0-C , 20-H ) :   0.9692 B(  0-C , 21-H ) :   0.9591
B(  0-C , 22-H ) :   0.9688 B(  1-C ,  2-O ) :   0.7916 B(  1-C , 23-H ) :   0.9513
B(  1-C , 24-H ) :   0.9628 B(  2-O ,  3-C ) :   1.0970 B(  3-C ,  4-O ) :   1.7799
B(  3-C ,  5-C ) :   0.9440 B(  5-C ,  6-C ) :   0.9047 B(  5-C , 25-H ) :   0.9167
B(  5-C , 26-H ) :   0.9467 B(  6-C ,  7-H ) :   0.8765 B(  6-C ,  8-C ) :   0.9783
B(  6-C , 13-S ) :   0.8245 B(  8-C ,  9-O ) :   1.7698 B(  8-C , 10-O ) :   1.1730
B( 10-O , 11-C ) :   0.7682 B( 11-C , 12-C ) :   0.9321 B( 11-C , 27-H ) :   0.9509
B( 11-C , 28-H ) :   0.9656 B( 12-C , 29-H ) :   0.9628 B( 12-C , 30-H ) :   0.9697
B( 12-C , 31-H ) :   0.9597 B( 13-S , 14-P ) :   0.9994 B( 14-P , 15-S ) :   1.7609
B( 14-P , 16-O ) :   1.1855 B( 14-P , 18-O ) :   0.9958 B( 16-O , 17-C ) :   0.7918
B( 17-C , 32-H ) :   0.9542 B( 17-C , 33-H ) :   0.9544 B( 17-C , 34-H ) :   0.9487
B( 18-O , 19-C ) :   0.8329 B( 19-C , 35-H ) :   0.9587 B( 19-C , 36-H ) :   0.9546
B( 19-C , 37-H ) :   0.9481

Dispersion correction           -0.017262318
FINAL SINGLE POINT ENERGY     -1981.462795256726

DIPOLE MOMENT
-------------

Method             : SCF
Type of density    : Electron Density
Multiplicity       :   1
Irrep              :   0
Energy             : -1981.4832883270278217 Eh
Relativity type    :
Basis              : AO
                                X                 Y                 Z
Electronic contribution:    -12.178212604       4.186481087      -1.083488916
Nuclear contribution   :     13.199024998      -4.786211946       0.501374456
                        -----------------------------------------
Total Dipole Moment    :      1.020812395      -0.599730860      -0.582114460
                        -----------------------------------------
Magnitude (a.u.)       :      1.319315085
Magnitude (Debye)      :      3.353432445

Rotational constants in cm-1:             0.011484             0.007439             0.005613
Rotational constants in MHz :           344.275710           223.013196           168.263291

                             ****ORCA TERMINATED NORMALLY****
TOTAL RUN TIME: 0 days 0 hours 1 minutes 42 seconds 297 msec
