                         Program Version 6.0.0  -   RELEASE  -
|  1> ! pbe def2-sv(p) def2/J RI DEFGRID1 loosescf d4 GCP(DFT/SV(P)) printgap
|  2> %output
|  3>     printlevel normal
|  4> end
|  5> * xyz 0 1
|  6> C 5.3026262442 -2.0465670069 -1.4241334901
|  7> C 4.2810956396 -0.9276160167 -1.4521560806
|  8> O 3.2209398973 -1.2722967958 -0.5377836186
|  9> P 2.2162227499 -0.1787418264 0.0219514193
| 10> S 3.0529361413 1.4593778398 0.708984613
| 11> O 1.3620970581 -1.0212440573 1.0521677294
| 12> C 1.6861282911 -1.0431574169 2.4611432218
| 13> C 2.9887083132 -1.7688571347 2.7206480407
| 14> S 0.8434635855 0.0739638008 -1.5677521143
| 15> C 0.1176991079 1.6187520178 -0.9515483799
| 16> S -0.8533251836 1.3869483148 0.5507766465
| 17> P -2.4335595367 0.2770063038 -0.3749258813
| 18> S -2.8617938983 0.785199406 -2.213038383
| 19> O -3.5805664758 0.3334391428 0.7222943643
| 20> C -4.0688614173 1.532317565 1.3546845545
| 21> C -4.5224562015 2.5788393568 0.3592706247
| 22> O -2.0175417219 -1.2422951701 -0.3315134796
| 23> C -1.7514787431 -1.9674725699 0.8923513382
| 24> C -2.9378667759 -2.8356085323 1.2573118501
| 25> H 5.7266846691 -2.1432156664 -0.428762544
| 26> H 4.8302790982 -2.9851155889 -1.6990706065
| 27> H 6.0949672328 -1.8219535786 -2.1305237948
| 28> H 3.8472405659 -0.8067337044 -2.4485938817
| 29> H 4.7190248956 0.0251540328 -1.1353172557
| 30> H 1.7371300457 -0.0102938897 2.8198412904
| 31> H 0.8383266002 -1.5546874885 2.9181618203
| 32> H 3.813300877 -1.2148076722 2.2736291293
| 33> H 3.1532840989 -1.8437082274 3.7909366176
| 34> H 2.9580148265 -2.7644209437 2.2860769062
| 35> H -0.5279759747 1.9943337893 -1.7458962616
| 36> H 0.9126649552 2.3240980133 -0.7091657435
| 37> H -4.9001803407 1.1782437876 1.9668419537
| 38> H -3.2753831035 1.9267137129 1.9955945002
| 39> H -3.6752131318 2.9349847366 -0.2249646615
| 40> H -5.2567647166 2.1596620458 -0.3244668527
| 41> H -4.9621388899 3.4161813913 0.8915058128
| 42> H -0.8647751309 -2.5662932151 0.6736178695
| 43> H -1.5231334985 -1.2510268452 1.6867022932
| 44> H -3.1663003 -3.5131097478 0.4392915709
| 45> H -2.6998045162 -3.4117056027 2.1459471856
| 46> H -3.8093843929 -2.2156575087 1.4509188168
| 47> *
| 48>
| 49>                          ****END OF INPUT****

CARTESIAN COORDINATES (ANGSTROEM)
---------------------------------
  C      5.302626   -2.046567   -1.424133
  C      4.281096   -0.927616   -1.452156
  O      3.220940   -1.272297   -0.537784
  P      2.216223   -0.178742    0.021951
  S      3.052936    1.459378    0.708985
  O      1.362097   -1.021244    1.052168
  C      1.686128   -1.043157    2.461143
  C      2.988708   -1.768857    2.720648
  S      0.843464    0.073964   -1.567752
  C      0.117699    1.618752   -0.951548
  S     -0.853325    1.386948    0.550777
  P     -2.433560    0.277006   -0.374926
  S     -2.861794    0.785199   -2.213038
  O     -3.580566    0.333439    0.722294
  C     -4.068861    1.532318    1.354685
  C     -4.522456    2.578839    0.359271
  O     -2.017542   -1.242295   -0.331513
  C     -1.751479   -1.967473    0.892351
  C     -2.937867   -2.835609    1.257312
  H      5.726685   -2.143216   -0.428763
  H      4.830279   -2.985116   -1.699071
  H      6.094967   -1.821954   -2.130524
  H      3.847241   -0.806734   -2.448594
  H      4.719025    0.025154   -1.135317
  H      1.737130   -0.010294    2.819841
  H      0.838327   -1.554687    2.918162
  H      3.813301   -1.214808    2.273629
  H      3.153284   -1.843708    3.790937
  H      2.958015   -2.764421    2.286077
  H     -0.527976    1.994334   -1.745896
  H      0.912665    2.324098   -0.709166
  H     -4.900180    1.178244    1.966842
  H     -3.275383    1.926714    1.995595
  H     -3.675213    2.934985   -0.224965
  H     -5.256765    2.159662   -0.324467
  H     -4.962139    3.416181    0.891506
  H     -0.864775   -2.566293    0.673618
  H     -1.523133   -1.251027    1.686702
  H     -3.166300   -3.513110    0.439292
  H     -2.699805   -3.411706    2.145947
  H     -3.809384   -2.215658    1.450919

 Total Charge           Charge          ....    0
 Multiplicity           Mult            ....    1
 Number of Electrons    NEL             ....  202
 Basis Dimension        Dim             ....  334

ORBITAL ENERGIES
----------------

  NO   OCC          E(Eh)            E(eV)
   0   2.0000     -88.041935     -2395.7428
   1   2.0000     -88.040324     -2395.6990
   2   2.0000     -87.990991     -2394.3566
   3   2.0000     -87.981594     -2394.1009
   4   2.0000     -76.428044     -2079.7128
   5   2.0000     -76.425228     -2079.6362
   6   2.0000     -18.797688      -511.5111
   7   2.0000     -18.796907      -511.4898
   8   2.0000     -18.795452      -511.4503
   9   2.0000     -18.786961      -511.2192
  10   2.0000      -9.960519      -271.0395
  11   2.0000      -9.956452      -270.9288
  12   2.0000      -9.955447      -270.9015
  13   2.0000      -9.951007      -270.7807
  14   2.0000      -9.951006      -270.7806
  15   2.0000      -9.890863      -269.1441
  16   2.0000      -9.888094      -269.0687
  17   2.0000      -9.884475      -268.9702
  18   2.0000      -9.883815      -268.9523
  19   2.0000      -7.686648      -209.1643
  20   2.0000      -7.685595      -209.1357
  21   2.0000      -7.635922      -207.7840
  22   2.0000      -7.626972      -207.5405
  23   2.0000      -6.425915      -174.8580
  24   2.0000      -6.422395      -174.7623
  25   2.0000      -5.714281      -155.4935
  26   2.0000      -5.713397      -155.4694
  27   2.0000      -5.711208      -155.4099
  28   2.0000      -5.710246      -155.3837
  29   2.0000      -5.703897      -155.2109
  30   2.0000      -5.702477      -155.1723
  31   2.0000      -5.664645      -154.1428
  32   2.0000      -5.656577      -153.9233
  33   2.0000      -5.656260      -153.9147
  34   2.0000      -5.656064      -153.9093
  35   2.0000      -5.647469      -153.6755
  36   2.0000      -5.647021      -153.6632
  37   2.0000      -4.648319      -126.4872
  38   2.0000      -4.647692      -126.4701
  39   2.0000      -4.646432      -126.4358
  40   2.0000      -4.645322      -126.4056
  41   2.0000      -4.644359      -126.3794
  42   2.0000      -4.642399      -126.3261
  43   2.0000      -0.991358       -26.9762
  44   2.0000      -0.988769       -26.9058
  45   2.0000      -0.950487       -25.8641
  46   2.0000      -0.944138       -25.6913
  47   2.0000      -0.764110       -20.7925
  48   2.0000      -0.722925       -19.6718
  49   2.0000      -0.711544       -19.3621
  50   2.0000      -0.692535       -18.8448
  51   2.0000      -0.691233       -18.8094
  52   2.0000      -0.674814       -18.3626
  53   2.0000      -0.650424       -17.6989
  54   2.0000      -0.638692       -17.3797
  55   2.0000      -0.601865       -16.3776
  56   2.0000      -0.590101       -16.0575
  57   2.0000      -0.572916       -15.5898
  58   2.0000      -0.569229       -15.4895
  59   2.0000      -0.565397       -15.3852
  60   2.0000      -0.509357       -13.8603
  61   2.0000      -0.499646       -13.5961
  62   2.0000      -0.481155       -13.0929
  63   2.0000      -0.474256       -12.9052
  64   2.0000      -0.460235       -12.5236
  65   2.0000      -0.449553       -12.2330
  66   2.0000      -0.439619       -11.9626
  67   2.0000      -0.435457       -11.8494
  68   2.0000      -0.434011       -11.8100
  69   2.0000      -0.414000       -11.2655
  70   2.0000      -0.410425       -11.1682
  71   2.0000      -0.400517       -10.8986
  72   2.0000      -0.396631       -10.7929
  73   2.0000      -0.384599       -10.4655
  74   2.0000      -0.382052       -10.3962
  75   2.0000      -0.375571       -10.2198
  76   2.0000      -0.365431        -9.9439
  77   2.0000      -0.360029        -9.7969
  78   2.0000      -0.355561        -9.6753
  79   2.0000      -0.351096        -9.5538
  80   2.0000      -0.349806        -9.5187
  81   2.0000      -0.347519        -9.4565
  82   2.0000      -0.346301        -9.4233
  83   2.0000      -0.338559        -9.2127
  84   2.0000      -0.336464        -9.1557
  85   2.0000      -0.323935        -8.8147
  86   2.0000      -0.314157        -8.5487
  87   2.0000      -0.303491        -8.2584
  88   2.0000      -0.298070        -8.1109
  89   2.0000      -0.291407        -7.9296
  90   2.0000      -0.286651        -7.8002
  91   2.0000      -0.280844        -7.6422
  92   2.0000      -0.275597        -7.4994
  93   2.0000      -0.266098        -7.2409
  94   2.0000      -0.257132        -6.9969
  95   2.0000      -0.234237        -6.3739
  96   2.0000      -0.218920        -5.9571
  97   2.0000      -0.213464        -5.8087
  98   2.0000      -0.205238        -5.5848
  99   2.0000      -0.198678        -5.4063
 100   2.0000      -0.196742        -5.3536
 101   0.0000      -0.043852        -1.1933
 102   0.0000      -0.022925        -0.6238
 103   0.0000      -0.004095        -0.1114
 104   0.0000       0.002348         0.0639
 105   0.0000       0.012440         0.3385

MULLIKEN ATOMIC CHARGES
-----------------------
   0 C :   -0.281815
   1 C :   -0.013280
   2 O :   -0.375945
   3 P :    0.612142
   4 S :   -0.340243
   5 O :   -0.358743
   6 C :   -0.009480
   7 C :   -0.304071
   8 S :   -0.062396
   9 C :   -0.371794
  10 S :   -0.106337
  11 P :    0.598419
  12 S :   -0.309161
  13 O :   -0.381536
  14 C :   -0.011642
  15 C :   -0.307626
  16 O :   -0.344995
  17 C :   -0.020754
  18 C :   -0.281402
  19 H :    0.118608
  20 H :    0.118585
  21 H :    0.113901
  22 H :    0.106541
  23 H :    0.107678
  24 H :    0.115452
  25 H :    0.102187
  26 H :    0.124523
  27 H :    0.112716
  28 H :    0.116683
  29 H :    0.194553
  30 H :    0.194065
  31 H :    0.108264
  32 H :    0.113619
  33 H :    0.126038
  34 H :    0.127467
  35 H :    0.111573
  36 H :    0.116879
  37 H :    0.099233
  38 H :    0.120521
  39 H :    0.104588
  40 H :    0.116984
Sum of atomic charges:    0.0000000

LOEWDIN ATOMIC CHARGES
----------------------
   0 C :   -0.350146
   1 C :   -0.120060
   2 O :   -0.246709
   3 P :    0.570868
   4 S :   -0.324954
   5 O :   -0.235453
   6 C :   -0.116914
   7 C :   -0.364957
   8 S :    0.093521
   9 C :   -0.486599
  10 S :    0.063476
  11 P :    0.569021
  12 S :   -0.304744
  13 O :   -0.245899
  14 C :   -0.115241
  15 C :   -0.368673
  16 O :   -0.228715
  17 C :   -0.115866
  18 C :   -0.357863
  19 H :    0.127489
  20 H :    0.127868
  21 H :    0.131867
  22 H :    0.112123
  23 H :    0.108890
  24 H :    0.112219
  25 H :    0.114173
  26 H :    0.122518
  27 H :    0.130955
  28 H :    0.126413
  29 H :    0.128670
  30 H :    0.128545
  31 H :    0.120540
  32 H :    0.108190
  33 H :    0.121791
  34 H :    0.130882
  35 H :    0.130314
  36 H :    0.120110
  37 H :    0.101108
  38 H :    0.129233
  39 H :    0.126779
  40 H :    0.125230

  Mayer bond orders larger than 0.100000
B(  0-C ,  1-C ) :   1.1610 B(  0-C , 19-H ) :   0.9516 B(  0-C , 20-H ) :   0.9503
B(  0-C , 21-H ) :   0.9416 B(  1-C ,  2-O ) :   0.9015 B(  1-C , 22-H ) :   0.9289
B(  1-C , 23-H ) :   0.9100 B(  2-O ,  3-P ) :   1.1111 B(  3-P ,  4-S ) :   1.5938
B(  3-P ,  5-O ) :   1.1233 B(  3-P ,  8-S ) :   0.9725 B(  4-S ,  8-S ) :   0.1104
B(  5-O ,  6-C ) :   0.9013 B(  6-C ,  7-C ) :   1.1660 B(  6-C , 24-H ) :   0.9160
B(  6-C , 25-H ) :   0.9297 B(  7-C , 26-H ) :   0.9336 B(  7-C , 27-H ) :   0.9383
B(  7-C , 28-H ) :   0.9458 B(  8-S ,  9-C ) :   1.0059 B(  9-C , 10-S ) :   1.0080
B(  9-C , 29-H ) :   0.8724 B(  9-C , 30-H ) :   0.8754 B( 10-S , 11-P ) :   0.9339
B( 10-S , 12-S ) :   0.1105 B( 11-P , 12-S ) :   1.6468 B( 11-P , 13-O ) :   1.0778
B( 11-P , 16-O ) :   1.1427 B( 13-O , 14-C ) :   0.9114 B( 14-C , 15-C ) :   1.1683
B( 14-C , 31-H ) :   0.9330 B( 14-C , 32-H ) :   0.9256 B( 15-C , 33-H ) :   0.9320
B( 15-C , 34-H ) :   0.9431 B( 15-C , 35-H ) :   0.9347 B( 16-O , 17-C ) :   0.8931
B( 17-C , 18-C ) :   1.1566 B( 17-C , 36-H ) :   0.9303 B( 17-C , 37-H ) :   0.9121
B( 18-C , 38-H ) :   0.9467 B( 18-C , 39-H ) :   0.9414 B( 18-C , 40-H ) :   0.9432

Dispersion correction           -0.064814296
FINAL SINGLE POINT ENERGY     -2929.523213177280

DIPOLE MOMENT
-------------

Method             : SCF
Type of density    : Electron Density
Multiplicity       :   1
Irrep              :   0
Energy             : -2929.6434376418228567 Eh
Relativity type    :
Basis              : AO
                                X                 Y                 Z
Electronic contribution:     -3.595433933      10.922492403     -12.591094754
Nuclear contribution   :      3.898324901     -11.635047758      13.998038184
                        -----------------------------------------
Total Dipole Moment    :      0.302890968      -0.712555354       1.406943430
                        -----------------------------------------
Magnitude (a.u.)       :      1.605916526
Magnitude (Debye)      :      4.081915413

Rotational constants in cm-1:             0.013153             0.004641             0.004388
Rotational constants in MHz :           394.321205           139.132864           131.550992

                             ****ORCA TERMINATED NORMALLY****
TOTAL RUN TIME: 0 days 0 hours 0 minutes 21 seconds 113 msec
