                         Program Version 6.0.0  -   RELEASE  -
|  1> ! pbe def2-sv(p) def2/J RI DEFGRID1 loosescf d4 GCP(DFT/SV(P)) printgap
|  2> %output
|  3>     printlevel normal
|  4> end
|  5> * xyz 0 1
|  6> C 3.7151996801 -0.4260522983 -2.3649149617
|  7> C 2.4794641565 0.4452335016 -2.4049007479
|  8> O 2.2051136511 1.0829468435 -1.1360186461
|  9> P 2.0374652737 0.3807203321 0.2590233105
| 10> S 1.0512663083 1.4685744786 1.5533574636
| 11> O 3.5673812697 0.1777794559 0.6710075723
| 12> C 4.0060292399 -0.0301645025 2.0205896638
| 13> C 3.5701680238 -1.3731748432 2.5726618768
| 14> S 1.3069082867 -1.5899538183 -0.0999291813
| 15> C -0.0149911224 -1.6923958636 1.1449260938
| 16> S -1.6700147056 -1.9461275994 0.4449786364
| 17> P -2.1006941485 0.0185216428 -0.1861916789
| 18> S -0.9306171633 0.774301871 -1.5783114378
| 19> O -2.1607109919 0.7145437893 1.2331714513
| 20> C -2.857531757 1.9398513303 1.5404105587
| 21> C -2.384010252 3.1061019986 0.6995589382
| 22> O -3.6316059477 -0.0167568389 -0.6058931105
| 23> C -4.0529422492 -0.3282902849 -1.9451099783
| 24> C -3.8142299371 -1.7850862264 -2.2834134653
| 25> H 4.569016123 0.1502109203 -2.0180984864
| 26> H 3.5597446661 -1.268425161 -1.6925287621
| 27> H 3.9133384451 -0.8033046533 -3.3632865716
| 28> H 1.5931075393 -0.1270375839 -2.6929997449
| 29> H 2.5975197845 1.2912771294 -3.0835240324
| 30> H 5.0925764228 0.0417950566 1.9532529146
| 31> H 3.6188980809 0.785047061 2.6409083109
| 32> H 3.8401388385 -2.1704420212 1.8850249374
| 33> H 4.0569482678 -1.5407715631 3.5280516211
| 34> H 2.4917535798 -1.3819491475 2.7224279963
| 35> H -0.0111594218 -0.7748936731 1.739855917
| 36> H 0.1744166143 -2.5710275808 1.7558148951
| 37> H -3.9268032612 1.7636474267 1.4030324913
| 38> H -2.6322678771 2.0971475437 2.5966342404
| 39> H -2.8745402039 4.0153486899 1.031902158
| 40> H -1.3061402932 3.2233599042 0.7988016728
| 41> H -2.6186715348 2.9362057585 -0.3507878858
| 42> H -5.1145955739 -0.0781873583 -1.951009098
| 43> H -3.5103099094 0.3224167663 -2.6387737612
| 44> H -4.2425980763 -2.0042185696 -3.256079052
| 45> H -2.7440692091 -1.9869307188 -2.3140973068
| 46> H -4.2683721567 -2.4268557914 -1.5328825445
| 47> *
| 48>
| 49>                          ****END OF INPUT****

CARTESIAN COORDINATES (ANGSTROEM)
---------------------------------
  C      3.715200   -0.426052   -2.364915
  C      2.479464    0.445234   -2.404901
  O      2.205114    1.082947   -1.136019
  P      2.037465    0.380720    0.259023
  S      1.051266    1.468574    1.553357
  O      3.567381    0.177779    0.671008
  C      4.006029   -0.030165    2.020590
  C      3.570168   -1.373175    2.572662
  S      1.306908   -1.589954   -0.099929
  C     -0.014991   -1.692396    1.144926
  S     -1.670015   -1.946128    0.444979
  P     -2.100694    0.018522   -0.186192
  S     -0.930617    0.774302   -1.578311
  O     -2.160711    0.714544    1.233171
  C     -2.857532    1.939851    1.540411
  C     -2.384010    3.106102    0.699559
  O     -3.631606   -0.016757   -0.605893
  C     -4.052942   -0.328290   -1.945110
  C     -3.814230   -1.785086   -2.283413
  H      4.569016    0.150211   -2.018098
  H      3.559745   -1.268425   -1.692529
  H      3.913338   -0.803305   -3.363287
  H      1.593108   -0.127038   -2.693000
  H      2.597520    1.291277   -3.083524
  H      5.092576    0.041795    1.953253
  H      3.618898    0.785047    2.640908
  H      3.840139   -2.170442    1.885025
  H      4.056948   -1.540772    3.528052
  H      2.491754   -1.381949    2.722428
  H     -0.011159   -0.774894    1.739856
  H      0.174417   -2.571028    1.755815
  H     -3.926803    1.763647    1.403032
  H     -2.632268    2.097148    2.596634
  H     -2.874540    4.015349    1.031902
  H     -1.306140    3.223360    0.798802
  H     -2.618672    2.936206   -0.350788
  H     -5.114596   -0.078187   -1.951009
  H     -3.510310    0.322417   -2.638774
  H     -4.242598   -2.004219   -3.256079
  H     -2.744069   -1.986931   -2.314097
  H     -4.268372   -2.426856   -1.532883

 Total Charge           Charge          ....    0
 Multiplicity           Mult            ....    1
 Number of Electrons    NEL             ....  202
 Basis Dimension        Dim             ....  334

ORBITAL ENERGIES
----------------

  NO   OCC          E(Eh)            E(eV)
   0   2.0000     -88.038867     -2395.6594
   1   2.0000     -88.037532     -2395.6230
   2   2.0000     -87.980049     -2394.0588
   3   2.0000     -87.979339     -2394.0395
   4   2.0000     -76.422453     -2079.5607
   5   2.0000     -76.421118     -2079.5243
   6   2.0000     -18.792566      -511.3717
   7   2.0000     -18.784437      -511.1505
   8   2.0000     -18.781657      -511.0749
   9   2.0000     -18.779938      -511.0281
  10   2.0000      -9.954527      -270.8765
  11   2.0000      -9.951575      -270.7961
  12   2.0000      -9.949770      -270.7470
  13   2.0000      -9.948022      -270.6994
  14   2.0000      -9.946677      -270.6628
  15   2.0000      -9.884878      -268.9812
  16   2.0000      -9.884294      -268.9653
  17   2.0000      -9.883020      -268.9307
  18   2.0000      -9.871489      -268.6169
  19   2.0000      -7.683532      -209.0795
  20   2.0000      -7.683230      -209.0713
  21   2.0000      -7.625103      -207.4896
  22   2.0000      -7.623911      -207.4572
  23   2.0000      -6.419740      -174.6900
  24   2.0000      -6.418162      -174.6471
  25   2.0000      -5.711462      -155.4168
  26   2.0000      -5.711055      -155.4057
  27   2.0000      -5.708063      -155.3243
  28   2.0000      -5.707876      -155.3192
  29   2.0000      -5.700490      -155.1182
  30   2.0000      -5.699997      -155.1048
  31   2.0000      -5.653954      -153.8519
  32   2.0000      -5.652704      -153.8179
  33   2.0000      -5.646039      -153.6365
  34   2.0000      -5.644903      -153.6056
  35   2.0000      -5.644581      -153.5969
  36   2.0000      -5.644213      -153.5868
  37   2.0000      -4.642771      -126.3362
  38   2.0000      -4.641381      -126.2984
  39   2.0000      -4.640778      -126.2820
  40   2.0000      -4.639933      -126.2590
  41   2.0000      -4.639924      -126.2587
  42   2.0000      -4.638678      -126.2248
  43   2.0000      -0.984350       -26.7855
  44   2.0000      -0.979003       -26.6400
  45   2.0000      -0.940556       -25.5938
  46   2.0000      -0.936271       -25.4772
  47   2.0000      -0.758574       -20.6419
  48   2.0000      -0.716312       -19.4918
  49   2.0000      -0.706211       -19.2170
  50   2.0000      -0.686181       -18.6719
  51   2.0000      -0.684965       -18.6388
  52   2.0000      -0.671546       -18.2737
  53   2.0000      -0.649204       -17.6657
  54   2.0000      -0.631228       -17.1766
  55   2.0000      -0.597045       -16.2464
  56   2.0000      -0.588725       -16.0200
  57   2.0000      -0.572662       -15.5829
  58   2.0000      -0.570241       -15.5170
  59   2.0000      -0.559642       -15.2286
  60   2.0000      -0.493134       -13.4188
  61   2.0000      -0.487531       -13.2664
  62   2.0000      -0.467011       -12.7080
  63   2.0000      -0.465077       -12.6554
  64   2.0000      -0.452153       -12.3037
  65   2.0000      -0.448092       -12.1932
  66   2.0000      -0.435601       -11.8533
  67   2.0000      -0.430210       -11.7066
  68   2.0000      -0.425536       -11.5794
  69   2.0000      -0.413843       -11.2612
  70   2.0000      -0.410876       -11.1805
  71   2.0000      -0.404631       -11.0106
  72   2.0000      -0.393516       -10.7081
  73   2.0000      -0.384102       -10.4520
  74   2.0000      -0.377899       -10.2831
  75   2.0000      -0.367197        -9.9919
  76   2.0000      -0.362464        -9.8632
  77   2.0000      -0.353462        -9.6182
  78   2.0000      -0.352296        -9.5865
  79   2.0000      -0.349499        -9.5103
  80   2.0000      -0.342944        -9.3320
  81   2.0000      -0.339179        -9.2295
  82   2.0000      -0.337528        -9.1846
  83   2.0000      -0.333145        -9.0653
  84   2.0000      -0.328459        -8.9378
  85   2.0000      -0.313720        -8.5368
  86   2.0000      -0.305351        -8.3090
  87   2.0000      -0.293969        -7.9993
  88   2.0000      -0.288310        -7.8453
  89   2.0000      -0.285409        -7.7664
  90   2.0000      -0.282601        -7.6900
  91   2.0000      -0.272546        -7.4163
  92   2.0000      -0.268503        -7.3064
  93   2.0000      -0.256553        -6.9812
  94   2.0000      -0.254540        -6.9264
  95   2.0000      -0.235942        -6.4203
  96   2.0000      -0.215820        -5.8728
  97   2.0000      -0.202378        -5.5070
  98   2.0000      -0.197299        -5.3688
  99   2.0000      -0.189338        -5.1521
 100   2.0000      -0.184278        -5.0144
 101   0.0000      -0.037150        -1.0109
 102   0.0000      -0.030838        -0.8392
 103   0.0000      -0.013035        -0.3547
 104   0.0000       0.002087         0.0568
 105   0.0000       0.023884         0.6499

MULLIKEN ATOMIC CHARGES
-----------------------
   0 C :   -0.315292
   1 C :   -0.007232
   2 O :   -0.352479
   3 P :    0.604043
   4 S :   -0.306978
   5 O :   -0.374847
   6 C :    0.003763
   7 C :   -0.318620
   8 S :   -0.108051
   9 C :   -0.362355
  10 S :   -0.085243
  11 P :    0.627282
  12 S :   -0.319725
  13 O :   -0.368499
  14 C :    0.008200
  15 C :   -0.324888
  16 O :   -0.379035
  17 C :   -0.003117
  18 C :   -0.323205
  19 H :    0.123502
  20 H :    0.126025
  21 H :    0.113936
  22 H :    0.125097
  23 H :    0.109961
  24 H :    0.101403
  25 H :    0.108868
  26 H :    0.117535
  27 H :    0.110501
  28 H :    0.120584
  29 H :    0.206839
  30 H :    0.184406
  31 H :    0.104028
  32 H :    0.105691
  33 H :    0.104390
  34 H :    0.143073
  35 H :    0.121111
  36 H :    0.103630
  37 H :    0.111185
  38 H :    0.114582
  39 H :    0.130856
  40 H :    0.119077
Sum of atomic charges:    0.0000000

LOEWDIN ATOMIC CHARGES
----------------------
   0 C :   -0.367187
   1 C :   -0.115422
   2 O :   -0.224680
   3 P :    0.575131
   4 S :   -0.298021
   5 O :   -0.250638
   6 C :   -0.119158
   7 C :   -0.369224
   8 S :    0.070457
   9 C :   -0.482663
  10 S :    0.082729
  11 P :    0.572182
  12 S :   -0.306307
  13 O :   -0.239986
  14 C :   -0.106252
  15 C :   -0.371534
  16 O :   -0.244299
  17 C :   -0.121651
  18 C :   -0.370948
  19 H :    0.129461
  20 H :    0.116109
  21 H :    0.131902
  22 H :    0.110142
  23 H :    0.123506
  24 H :    0.117242
  25 H :    0.109154
  26 H :    0.123907
  27 H :    0.129369
  28 H :    0.118786
  29 H :    0.125180
  30 H :    0.136643
  31 H :    0.110860
  32 H :    0.120844
  33 H :    0.126586
  34 H :    0.131135
  35 H :    0.119283
  36 H :    0.117769
  37 H :    0.109708
  38 H :    0.132142
  39 H :    0.122787
  40 H :    0.124956

  Mayer bond orders larger than 0.100000
B(  0-C ,  1-C ) :   1.1667 B(  0-C , 19-H ) :   0.9418 B(  0-C , 20-H ) :   0.9366
B(  0-C , 21-H ) :   0.9355 B(  1-C ,  2-O ) :   0.8976 B(  1-C , 22-H ) :   0.9140
B(  1-C , 23-H ) :   0.9344 B(  2-O ,  3-P ) :   1.1561 B(  3-P ,  4-S ) :   1.6064
B(  3-P ,  5-O ) :   1.0718 B(  3-P ,  8-S ) :   0.9418 B(  4-S ,  8-S ) :   0.1127
B(  4-S , 29-H ) :   0.1081 B(  5-O ,  6-C ) :   0.9252 B(  6-C ,  7-C ) :   1.1621
B(  6-C , 24-H ) :   0.9345 B(  6-C , 25-H ) :   0.9141 B(  7-C , 26-H ) :   0.9431
B(  7-C , 27-H ) :   0.9379 B(  7-C , 28-H ) :   0.9385 B(  8-S ,  9-C ) :   0.9996
B(  9-C , 10-S ) :   1.0005 B(  9-C , 29-H ) :   0.8434 B(  9-C , 30-H ) :   0.9086
B( 10-S , 11-P ) :   0.9586 B( 10-S , 12-S ) :   0.1180 B( 11-P , 12-S ) :   1.6251
B( 11-P , 13-O ) :   1.1224 B( 11-P , 16-O ) :   1.0869 B( 13-O , 14-C ) :   0.9026
B( 14-C , 15-C ) :   1.1683 B( 14-C , 31-H ) :   0.9323 B( 14-C , 32-H ) :   0.9344
B( 15-C , 33-H ) :   0.9351 B( 15-C , 34-H ) :   0.9351 B( 15-C , 35-H ) :   0.9353
B( 16-O , 17-C ) :   0.9070 B( 17-C , 18-C ) :   1.1657 B( 17-C , 36-H ) :   0.9324
B( 17-C , 37-H ) :   0.9110 B( 18-C , 38-H ) :   0.9383 B( 18-C , 39-H ) :   0.9326
B( 18-C , 40-H ) :   0.9448

Dispersion correction           -0.068703512
FINAL SINGLE POINT ENERGY     -2929.511681979246

DIPOLE MOMENT
-------------

Method             : SCF
Type of density    : Electron Density
Multiplicity       :   1
Irrep              :   0
Energy             : -2929.6288293804796012 Eh
Relativity type    :
Basis              : AO
                                X                 Y                 Z
Electronic contribution:     -2.305957301       0.125450583       2.630705302
Nuclear contribution   :      2.181547200      -0.766488467      -2.734807628
                        -----------------------------------------
Total Dipole Moment    :     -0.124410101      -0.641037884      -0.104102325
                        -----------------------------------------
Magnitude (a.u.)       :      0.661244838
Magnitude (Debye)      :      1.680750807

Rotational constants in cm-1:             0.012224             0.005482             0.005196
Rotational constants in MHz :           366.473794           164.352388           155.785530

                             ****ORCA TERMINATED NORMALLY****
TOTAL RUN TIME: 0 days 0 hours 0 minutes 21 seconds 683 msec
