                         Program Version 6.0.0  -   RELEASE  -
|  1> ! r2scan-3c def2/J RI DEFGRID2 scfconv6 printgap
|  2> %output
|  3>     printlevel normal
|  4> end
|  5> * xyz 0 1
|  6> C 5.2063602932 -1.3977427066 -0.2937754915
|  7> C 3.9277137829 -2.1612125725 -0.5749217932
|  8> O 2.9300159846 -1.3355193868 -1.2141621481
|  9> P 2.1518040165 -0.1697571384 -0.4765226753
| 10> S 3.0549317364 1.5451091827 -0.1644473662
| 11> O 1.6387001644 -0.894652604 0.8447395553
| 12> C 1.4695677433 -0.2600874572 2.123698273
| 13> C 2.3825518069 -0.9254157308 3.1348222319
| 14> S 0.5567477398 -0.1246278053 -1.8649393492
| 15> C -0.0412573252 1.5418087828 -1.4688856947
| 16> S -0.6383726669 1.6931926106 0.2366517557
| 17> P -2.1674707782 0.2376490327 0.0918157465
| 18> S -3.163755499 0.1409498477 -1.5963483928
| 19> O -3.049606926 0.4733423631 1.3907147784
| 20> C -4.1858361892 1.3558329605 1.4060319947
| 21> C -3.7824728117 2.8084948857 1.2569294556
| 22> O -1.3457004759 -1.0505867968 0.5152863958
| 23> C -1.726780983 -2.3772324608 0.1022563072
| 24> C -2.9978924055 -2.8304390358 0.7888545111
| 25> H 5.9459362237 -2.0746102183 0.1223911245
| 26> H 5.5933263001 -0.9610733387 -1.2110204072
| 27> H 5.0193725232 -0.5927835758 0.4152981463
| 28> H 3.5039614813 -2.5705979441 0.3453802683
| 29> H 4.093268166 -2.9641586974 -1.295316394
| 30> H 1.701667399 0.8061550977 2.0281663341
| 31> H 0.4166333573 -0.3786931331 2.3891033178
| 32> H 2.181017205 -1.9920286255 3.1802117366
| 33> H 3.4229115953 -0.770723486 2.8578972323
| 34> H 2.2077011203 -0.4856925248 4.1112503399
| 35> H -0.8538703584 1.7511161464 -2.163342556
| 36> H 0.7703909402 2.2611177657 -1.5753422396
| 37> H -4.8628090807 1.0606368541 0.5980681176
| 38> H -4.6528087894 1.1637478926 2.3728827404
| 39> H -3.3757794117 2.982176559 0.2614969587
| 40> H -4.6542898471 3.4398258658 1.3955447954
| 41> H -3.0256895935 3.0688888984 1.9926395215
| 42> H -1.8475609463 -2.3802782875 -0.9861637782
| 43> H -0.8696711329 -2.9939798767 0.3770807375
| 44> H -2.8934219987 -2.7487207463 1.8675162311
| 45> H -3.8312494296 -2.2066574422 0.4671967811
| 46> H -3.2048416901 -3.8616313968 0.5204513803
| 47> *
| 48>
| 49>                          ****END OF INPUT****

CARTESIAN COORDINATES (ANGSTROEM)
---------------------------------
  C      5.206360   -1.397743   -0.293775
  C      3.927714   -2.161213   -0.574922
  O      2.930016   -1.335519   -1.214162
  P      2.151804   -0.169757   -0.476523
  S      3.054932    1.545109   -0.164447
  O      1.638700   -0.894653    0.844740
  C      1.469568   -0.260087    2.123698
  C      2.382552   -0.925416    3.134822
  S      0.556748   -0.124628   -1.864939
  C     -0.041257    1.541809   -1.468886
  S     -0.638373    1.693193    0.236652
  P     -2.167471    0.237649    0.091816
  S     -3.163755    0.140950   -1.596348
  O     -3.049607    0.473342    1.390715
  C     -4.185836    1.355833    1.406032
  C     -3.782473    2.808495    1.256929
  O     -1.345700   -1.050587    0.515286
  C     -1.726781   -2.377232    0.102256
  C     -2.997892   -2.830439    0.788855
  H      5.945936   -2.074610    0.122391
  H      5.593326   -0.961073   -1.211020
  H      5.019373   -0.592784    0.415298
  H      3.503961   -2.570598    0.345380
  H      4.093268   -2.964159   -1.295316
  H      1.701667    0.806155    2.028166
  H      0.416633   -0.378693    2.389103
  H      2.181017   -1.992029    3.180212
  H      3.422912   -0.770723    2.857897
  H      2.207701   -0.485693    4.111250
  H     -0.853870    1.751116   -2.163343
  H      0.770391    2.261118   -1.575342
  H     -4.862809    1.060637    0.598068
  H     -4.652809    1.163748    2.372883
  H     -3.375779    2.982177    0.261497
  H     -4.654290    3.439826    1.395545
  H     -3.025690    3.068889    1.992640
  H     -1.847561   -2.380278   -0.986164
  H     -0.869671   -2.993980    0.377081
  H     -2.893422   -2.748721    1.867516
  H     -3.831249   -2.206657    0.467197
  H     -3.204842   -3.861631    0.520451

 Total Charge           Charge          ....    0
 Multiplicity           Mult            ....    1
 Number of Electrons    NEL             ....  202
 Basis Dimension        Dim             ....  539

ORBITAL ENERGIES
----------------

  NO   OCC          E(Eh)            E(eV)
   0   2.0000     -88.574822     -2410.2434
   1   2.0000     -88.570369     -2410.1223
   2   2.0000     -88.523311     -2408.8417
   3   2.0000     -88.518438     -2408.7091
   4   2.0000     -76.914719     -2092.9559
   5   2.0000     -76.912813     -2092.9040
   6   2.0000     -18.995216      -516.8861
   7   2.0000     -18.991105      -516.7742
   8   2.0000     -18.989831      -516.7396
   9   2.0000     -18.987858      -516.6859
  10   2.0000     -10.103087      -274.9190
  11   2.0000     -10.102677      -274.9078
  12   2.0000     -10.101038      -274.8632
  13   2.0000     -10.095803      -274.7208
  14   2.0000     -10.091440      -274.6020
  15   2.0000     -10.031124      -272.9608
  16   2.0000     -10.030416      -272.9415
  17   2.0000     -10.028780      -272.8970
  18   2.0000     -10.028712      -272.8951
  19   2.0000      -7.869285      -214.1341
  20   2.0000      -7.864518      -214.0044
  21   2.0000      -7.818020      -212.7391
  22   2.0000      -7.813312      -212.6110
  23   2.0000      -6.593331      -179.4137
  24   2.0000      -6.590915      -179.3479
  25   2.0000      -5.816131      -158.2650
  26   2.0000      -5.813183      -158.1848
  27   2.0000      -5.811533      -158.1398
  28   2.0000      -5.808412      -158.0549
  29   2.0000      -5.806372      -157.9994
  30   2.0000      -5.801484      -157.8664
  31   2.0000      -5.765625      -156.8906
  32   2.0000      -5.760944      -156.7633
  33   2.0000      -5.758305      -156.6914
  34   2.0000      -5.758077      -156.6852
  35   2.0000      -5.753726      -156.5668
  36   2.0000      -5.753186      -156.5522
  37   2.0000      -4.738686      -128.9462
  38   2.0000      -4.738213      -128.9333
  39   2.0000      -4.737225      -128.9065
  40   2.0000      -4.736705      -128.8923
  41   2.0000      -4.735616      -128.8627
  42   2.0000      -4.734650      -128.8364
  43   2.0000      -1.051273       -28.6066
  44   2.0000      -1.048662       -28.5355
  45   2.0000      -1.011812       -27.5328
  46   2.0000      -1.007547       -27.4167
  47   2.0000      -0.801006       -21.7965
  48   2.0000      -0.759634       -20.6707
  49   2.0000      -0.748503       -20.3678
  50   2.0000      -0.732488       -19.9320
  51   2.0000      -0.731736       -19.9116
  52   2.0000      -0.708842       -19.2886
  53   2.0000      -0.686848       -18.6901
  54   2.0000      -0.668686       -18.1959
  55   2.0000      -0.634147       -17.2560
  56   2.0000      -0.623065       -16.9544
  57   2.0000      -0.608148       -16.5485
  58   2.0000      -0.605789       -16.4844
  59   2.0000      -0.590213       -16.0605
  60   2.0000      -0.526419       -14.3246
  61   2.0000      -0.517065       -14.0701
  62   2.0000      -0.495166       -13.4741
  63   2.0000      -0.492367       -13.3980
  64   2.0000      -0.475247       -12.9321
  65   2.0000      -0.463491       -12.6122
  66   2.0000      -0.460112       -12.5203
  67   2.0000      -0.451385       -12.2828
  68   2.0000      -0.445337       -12.1182
  69   2.0000      -0.430967       -11.7272
  70   2.0000      -0.427987       -11.6461
  71   2.0000      -0.411160       -11.1882
  72   2.0000      -0.406974       -11.0743
  73   2.0000      -0.404971       -11.0198
  74   2.0000      -0.393557       -10.7092
  75   2.0000      -0.390103       -10.6152
  76   2.0000      -0.386487       -10.5168
  77   2.0000      -0.374815       -10.1992
  78   2.0000      -0.369308       -10.0494
  79   2.0000      -0.367178        -9.9914
  80   2.0000      -0.363255        -9.8847
  81   2.0000      -0.363045        -9.8790
  82   2.0000      -0.356371        -9.6974
  83   2.0000      -0.353845        -9.6286
  84   2.0000      -0.348940        -9.4951
  85   2.0000      -0.338353        -9.2071
  86   2.0000      -0.322124        -8.7654
  87   2.0000      -0.311668        -8.4809
  88   2.0000      -0.308163        -8.3855
  89   2.0000      -0.305128        -8.3029
  90   2.0000      -0.298502        -8.1227
  91   2.0000      -0.293027        -7.9737
  92   2.0000      -0.288349        -7.8464
  93   2.0000      -0.280959        -7.6453
  94   2.0000      -0.271519        -7.3884
  95   2.0000      -0.245143        -6.6707
  96   2.0000      -0.228447        -6.2164
  97   2.0000      -0.227028        -6.1778
  98   2.0000      -0.221699        -6.0327
  99   2.0000      -0.212549        -5.7838
 100   2.0000      -0.209089        -5.6896
 101   0.0000      -0.046556        -1.2669
 102   0.0000      -0.025351        -0.6898
 103   0.0000       0.000850         0.0231
 104   0.0000       0.003035         0.0826
 105   0.0000       0.012497         0.3401

MULLIKEN ATOMIC CHARGES
-----------------------
   0 C :   -0.428826
   1 C :   -0.161218
   2 O :   -0.308756
   3 P :    0.700010
   4 S :   -0.474123
   5 O :   -0.279700
   6 C :   -0.107371
   7 C :   -0.498305
   8 S :   -0.122346
   9 C :   -0.234641
  10 S :   -0.130211
  11 P :    0.680140
  12 S :   -0.476092
  13 O :   -0.302771
  14 C :   -0.152791
  15 C :   -0.449207
  16 O :   -0.257529
  17 C :   -0.161346
  18 C :   -0.444019
  19 H :    0.145718
  20 H :    0.160494
  21 H :    0.165023
  22 H :    0.159197
  23 H :    0.150062
  24 H :    0.179871
  25 H :    0.166721
  26 H :    0.153997
  27 H :    0.158102
  28 H :    0.148691
  29 H :    0.208458
  30 H :    0.208622
  31 H :    0.172141
  32 H :    0.148606
  33 H :    0.177320
  34 H :    0.148691
  35 H :    0.155601
  36 H :    0.176504
  37 H :    0.156529
  38 H :    0.153623
  39 H :    0.167847
  40 H :    0.147283
Sum of atomic charges:    0.0000000

LOEWDIN ATOMIC CHARGES
----------------------
   0 C :   -0.402538
   1 C :    0.030327
   2 O :   -0.666178
   3 P :    0.387948
   4 S :   -0.131955
   5 O :   -0.668481
   6 C :    0.003563
   7 C :   -0.393859
   8 S :    0.191465
   9 C :   -0.418974
  10 S :    0.169785
  11 P :    0.379876
  12 S :   -0.124838
  13 O :   -0.661201
  14 C :    0.020062
  15 C :   -0.406685
  16 O :   -0.683547
  17 C :    0.017418
  18 C :   -0.399472
  19 H :    0.157642
  20 H :    0.164165
  21 H :    0.164904
  22 H :    0.175144
  23 H :    0.181213
  24 H :    0.184751
  25 H :    0.181067
  26 H :    0.157078
  27 H :    0.158771
  28 H :    0.160593
  29 H :    0.188764
  30 H :    0.190810
  31 H :    0.179661
  32 H :    0.179584
  33 H :    0.165762
  34 H :    0.159595
  35 H :    0.160410
  36 H :    0.182313
  37 H :    0.181542
  38 H :    0.159464
  39 H :    0.164658
  40 H :    0.159397

  Mayer bond orders larger than 0.100000
B(  0-C ,  1-C ) :   0.9444 B(  0-C , 19-H ) :   0.9661 B(  0-C , 20-H ) :   0.9678
B(  0-C , 21-H ) :   0.9526 B(  1-C ,  2-O ) :   0.7965 B(  1-C , 22-H ) :   0.9679
B(  1-C , 23-H ) :   0.9598 B(  2-O ,  3-P ) :   1.1489 B(  3-P ,  4-S ) :   1.7663
B(  3-P ,  5-O ) :   1.0508 B(  3-P ,  8-S ) :   1.0789 B(  5-O ,  6-C ) :   0.7310
B(  6-C ,  7-C ) :   0.9288 B(  6-C , 24-H ) :   0.9460 B(  6-C , 25-H ) :   0.9552
B(  7-C , 26-H ) :   0.9806 B(  7-C , 27-H ) :   0.9741 B(  7-C , 28-H ) :   0.9648
B(  8-S ,  9-C ) :   0.9012 B(  9-C , 10-S ) :   0.8911 B(  9-C , 29-H ) :   0.9108
B(  9-C , 30-H ) :   0.9082 B( 10-S , 11-P ) :   1.0820 B( 11-P , 12-S ) :   1.7549
B( 11-P , 13-O ) :   1.0670 B( 11-P , 16-O ) :   1.1329 B( 13-O , 14-C ) :   0.8132
B( 14-C , 15-C ) :   0.9228 B( 14-C , 31-H ) :   0.9674 B( 14-C , 32-H ) :   0.9582
B( 15-C , 33-H ) :   0.9625 B( 15-C , 34-H ) :   0.9586 B( 15-C , 35-H ) :   0.9681
B( 16-O , 17-C ) :   0.7883 B( 17-C , 18-C ) :   0.9192 B( 17-C , 36-H ) :   0.9623
B( 17-C , 37-H ) :   0.9632 B( 18-C , 38-H ) :   0.9730 B( 18-C , 39-H ) :   0.9605
B( 18-C , 40-H ) :   0.9631

Dispersion correction           -0.022081306
FINAL SINGLE POINT ENERGY     -2932.464088397411

DIPOLE MOMENT
-------------

Method             : SCF
Type of density    : Electron Density
Multiplicity       :   1
Irrep              :   0
Energy             : -2932.4885619694991874 Eh
Relativity type    :
Basis              : AO
                                X                 Y                 Z
Electronic contribution:     -0.973605810       9.027468329     -16.055202185
Nuclear contribution   :      0.757788187      -9.998437914      17.418668149
                        -----------------------------------------
Total Dipole Moment    :     -0.215817623      -0.970969586       1.363465964
                        -----------------------------------------
Magnitude (a.u.)       :      1.687719947
Magnitude (Debye)      :      4.289843185

Rotational constants in cm-1:             0.013168             0.005033             0.004885
Rotational constants in MHz :           394.758003           150.894604           146.448255

                             ****ORCA TERMINATED NORMALLY****
TOTAL RUN TIME: 0 days 0 hours 1 minutes 26 seconds 978 msec
