                         Program Version 6.0.0  -   RELEASE  -
|  1> ! r2scan-3c def2/J RI DEFGRID2 scfconv6 printgap
|  2> %output
|  3>     printlevel normal
|  4> end
|  5> %cpcm
|  6>     smd true
|  7>     smdsolvent "water"
|  8> end
|  9> * xyz 0 1
| 10> C 5.2063602932 -1.3977427066 -0.2937754915
| 11> C 3.9277137829 -2.1612125725 -0.5749217932
| 12> O 2.9300159846 -1.3355193868 -1.2141621481
| 13> P 2.1518040165 -0.1697571384 -0.4765226753
| 14> S 3.0549317364 1.5451091827 -0.1644473662
| 15> O 1.6387001644 -0.894652604 0.8447395553
| 16> C 1.4695677433 -0.2600874572 2.123698273
| 17> C 2.3825518069 -0.9254157308 3.1348222319
| 18> S 0.5567477398 -0.1246278053 -1.8649393492
| 19> C -0.0412573252 1.5418087828 -1.4688856947
| 20> S -0.6383726669 1.6931926106 0.2366517557
| 21> P -2.1674707782 0.2376490327 0.0918157465
| 22> S -3.163755499 0.1409498477 -1.5963483928
| 23> O -3.049606926 0.4733423631 1.3907147784
| 24> C -4.1858361892 1.3558329605 1.4060319947
| 25> C -3.7824728117 2.8084948857 1.2569294556
| 26> O -1.3457004759 -1.0505867968 0.5152863958
| 27> C -1.726780983 -2.3772324608 0.1022563072
| 28> C -2.9978924055 -2.8304390358 0.7888545111
| 29> H 5.9459362237 -2.0746102183 0.1223911245
| 30> H 5.5933263001 -0.9610733387 -1.2110204072
| 31> H 5.0193725232 -0.5927835758 0.4152981463
| 32> H 3.5039614813 -2.5705979441 0.3453802683
| 33> H 4.093268166 -2.9641586974 -1.295316394
| 34> H 1.701667399 0.8061550977 2.0281663341
| 35> H 0.4166333573 -0.3786931331 2.3891033178
| 36> H 2.181017205 -1.9920286255 3.1802117366
| 37> H 3.4229115953 -0.770723486 2.8578972323
| 38> H 2.2077011203 -0.4856925248 4.1112503399
| 39> H -0.8538703584 1.7511161464 -2.163342556
| 40> H 0.7703909402 2.2611177657 -1.5753422396
| 41> H -4.8628090807 1.0606368541 0.5980681176
| 42> H -4.6528087894 1.1637478926 2.3728827404
| 43> H -3.3757794117 2.982176559 0.2614969587
| 44> H -4.6542898471 3.4398258658 1.3955447954
| 45> H -3.0256895935 3.0688888984 1.9926395215
| 46> H -1.8475609463 -2.3802782875 -0.9861637782
| 47> H -0.8696711329 -2.9939798767 0.3770807375
| 48> H -2.8934219987 -2.7487207463 1.8675162311
| 49> H -3.8312494296 -2.2066574422 0.4671967811
| 50> H -3.2048416901 -3.8616313968 0.5204513803
| 51> *
| 52>
| 53>                          ****END OF INPUT****

CARTESIAN COORDINATES (ANGSTROEM)
---------------------------------
  C      5.206360   -1.397743   -0.293775
  C      3.927714   -2.161213   -0.574922
  O      2.930016   -1.335519   -1.214162
  P      2.151804   -0.169757   -0.476523
  S      3.054932    1.545109   -0.164447
  O      1.638700   -0.894653    0.844740
  C      1.469568   -0.260087    2.123698
  C      2.382552   -0.925416    3.134822
  S      0.556748   -0.124628   -1.864939
  C     -0.041257    1.541809   -1.468886
  S     -0.638373    1.693193    0.236652
  P     -2.167471    0.237649    0.091816
  S     -3.163755    0.140950   -1.596348
  O     -3.049607    0.473342    1.390715
  C     -4.185836    1.355833    1.406032
  C     -3.782473    2.808495    1.256929
  O     -1.345700   -1.050587    0.515286
  C     -1.726781   -2.377232    0.102256
  C     -2.997892   -2.830439    0.788855
  H      5.945936   -2.074610    0.122391
  H      5.593326   -0.961073   -1.211020
  H      5.019373   -0.592784    0.415298
  H      3.503961   -2.570598    0.345380
  H      4.093268   -2.964159   -1.295316
  H      1.701667    0.806155    2.028166
  H      0.416633   -0.378693    2.389103
  H      2.181017   -1.992029    3.180212
  H      3.422912   -0.770723    2.857897
  H      2.207701   -0.485693    4.111250
  H     -0.853870    1.751116   -2.163343
  H      0.770391    2.261118   -1.575342
  H     -4.862809    1.060637    0.598068
  H     -4.652809    1.163748    2.372883
  H     -3.375779    2.982177    0.261497
  H     -4.654290    3.439826    1.395545
  H     -3.025690    3.068889    1.992640
  H     -1.847561   -2.380278   -0.986164
  H     -0.869671   -2.993980    0.377081
  H     -2.893422   -2.748721    1.867516
  H     -3.831249   -2.206657    0.467197
  H     -3.204842   -3.861631    0.520451

 Total Charge           Charge          ....    0
 Multiplicity           Mult            ....    1
 Number of Electrons    NEL             ....  202
 Basis Dimension        Dim             ....  539

ORBITAL ENERGIES
----------------

  NO   OCC          E(Eh)            E(eV)
   0   2.0000     -88.577939     -2410.3283
   1   2.0000     -88.577273     -2410.3101
   2   2.0000     -88.529126     -2409.0000
   3   2.0000     -88.527287     -2408.9499
   4   2.0000     -76.919384     -2093.0829
   5   2.0000     -76.918586     -2093.0611
   6   2.0000     -18.995939      -516.9058
   7   2.0000     -18.994436      -516.8649
   8   2.0000     -18.993218      -516.8317
   9   2.0000     -18.990093      -516.7467
  10   2.0000     -10.103846      -274.9396
  11   2.0000     -10.090961      -274.5890
  12   2.0000     -10.089994      -274.5627
  13   2.0000     -10.088353      -274.5180
  14   2.0000     -10.085700      -274.4458
  15   2.0000     -10.018706      -272.6229
  16   2.0000     -10.018231      -272.6099
  17   2.0000     -10.017756      -272.5970
  18   2.0000     -10.017404      -272.5874
  19   2.0000      -7.872421      -214.2195
  20   2.0000      -7.871514      -214.1948
  21   2.0000      -7.824118      -212.9051
  22   2.0000      -7.822458      -212.8599
  23   2.0000      -6.597507      -179.5273
  24   2.0000      -6.597226      -179.5197
  25   2.0000      -5.819265      -158.3502
  26   2.0000      -5.818454      -158.3282
  27   2.0000      -5.816334      -158.2705
  28   2.0000      -5.815348      -158.2437
  29   2.0000      -5.809497      -158.0845
  30   2.0000      -5.808617      -158.0605
  31   2.0000      -5.771668      -157.0551
  32   2.0000      -5.770027      -157.0104
  33   2.0000      -5.764386      -156.8569
  34   2.0000      -5.764194      -156.8517
  35   2.0000      -5.762787      -156.8134
  36   2.0000      -5.762427      -156.8036
  37   2.0000      -4.743242      -129.0702
  38   2.0000      -4.742536      -129.0510
  39   2.0000      -4.742210      -129.0421
  40   2.0000      -4.742113      -129.0395
  41   2.0000      -4.741331      -129.0182
  42   2.0000      -4.741189      -129.0143
  43   2.0000      -1.052596       -28.6426
  44   2.0000      -1.051270       -28.6065
  45   2.0000      -1.012530       -27.5524
  46   2.0000      -1.009848       -27.4793
  47   2.0000      -0.804166       -21.8825
  48   2.0000      -0.756780       -20.5930
  49   2.0000      -0.742310       -20.1993
  50   2.0000      -0.723483       -19.6870
  51   2.0000      -0.722842       -19.6695
  52   2.0000      -0.707932       -19.2638
  53   2.0000      -0.689924       -18.7738
  54   2.0000      -0.675089       -18.3701
  55   2.0000      -0.632458       -17.2101
  56   2.0000      -0.619697       -16.8628
  57   2.0000      -0.601481       -16.3671
  58   2.0000      -0.598592       -16.2885
  59   2.0000      -0.589143       -16.0314
  60   2.0000      -0.523421       -14.2430
  61   2.0000      -0.512930       -13.9575
  62   2.0000      -0.491539       -13.3755
  63   2.0000      -0.488307       -13.2875
  64   2.0000      -0.474630       -12.9153
  65   2.0000      -0.459989       -12.5169
  66   2.0000      -0.454766       -12.3748
  67   2.0000      -0.446659       -12.1542
  68   2.0000      -0.442669       -12.0456
  69   2.0000      -0.428570       -11.6620
  70   2.0000      -0.424202       -11.5431
  71   2.0000      -0.407207       -11.0807
  72   2.0000      -0.405359       -11.0304
  73   2.0000      -0.400103       -10.8873
  74   2.0000      -0.390331       -10.6214
  75   2.0000      -0.389343       -10.5946
  76   2.0000      -0.384284       -10.4569
  77   2.0000      -0.369687       -10.0597
  78   2.0000      -0.364218        -9.9109
  79   2.0000      -0.358627        -9.7587
  80   2.0000      -0.354859        -9.6562
  81   2.0000      -0.353370        -9.6157
  82   2.0000      -0.348416        -9.4809
  83   2.0000      -0.346868        -9.4388
  84   2.0000      -0.344503        -9.3744
  85   2.0000      -0.335515        -9.1298
  86   2.0000      -0.319748        -8.7008
  87   2.0000      -0.305991        -8.3264
  88   2.0000      -0.305029        -8.3003
  89   2.0000      -0.301101        -8.1934
  90   2.0000      -0.296606        -8.0711
  91   2.0000      -0.291276        -7.9260
  92   2.0000      -0.289101        -7.8668
  93   2.0000      -0.279873        -7.6157
  94   2.0000      -0.273809        -7.4507
  95   2.0000      -0.249230        -6.7819
  96   2.0000      -0.235462        -6.4072
  97   2.0000      -0.234491        -6.3808
  98   2.0000      -0.228528        -6.2186
  99   2.0000      -0.221014        -6.0141
 100   2.0000      -0.216713        -5.8971
 101   0.0000      -0.052417        -1.4263
 102   0.0000      -0.032153        -0.8749
 103   0.0000      -0.003782        -0.1029
 104   0.0000      -0.001474        -0.0401
 105   0.0000       0.011292         0.3073

MULLIKEN ATOMIC CHARGES
-----------------------
   0 C :   -0.481058
   1 C :   -0.142652
   2 O :   -0.341688
   3 P :    0.721977
   4 S :   -0.517506
   5 O :   -0.303626
   6 C :   -0.090251
   7 C :   -0.530469
   8 S :   -0.150066
   9 C :   -0.247860
  10 S :   -0.135578
  11 P :    0.723586
  12 S :   -0.522888
  13 O :   -0.330032
  14 C :   -0.152702
  15 C :   -0.486296
  16 O :   -0.284400
  17 C :   -0.152765
  18 C :   -0.486640
  19 H :    0.171407
  20 H :    0.169226
  21 H :    0.166022
  22 H :    0.175726
  23 H :    0.174376
  24 H :    0.175390
  25 H :    0.176666
  26 H :    0.168849
  27 H :    0.167594
  28 H :    0.169406
  29 H :    0.231950
  30 H :    0.228691
  31 H :    0.178319
  32 H :    0.175704
  33 H :    0.173230
  34 H :    0.173127
  35 H :    0.169595
  36 H :    0.177185
  37 H :    0.179313
  38 H :    0.169576
  39 H :    0.167759
  40 H :    0.171807
Sum of atomic charges:    0.0000000

LOEWDIN ATOMIC CHARGES
----------------------
   0 C :   -0.406546
   1 C :    0.037767
   2 O :   -0.683067
   3 P :    0.389063
   4 S :   -0.161426
   5 O :   -0.675826
   6 C :    0.008734
   7 C :   -0.395514
   8 S :    0.173386
   9 C :   -0.413455
  10 S :    0.169271
  11 P :    0.386141
  12 S :   -0.153055
  13 O :   -0.671457
  14 C :    0.025929
  15 C :   -0.409923
  16 O :   -0.695707
  17 C :    0.021140
  18 C :   -0.402460
  19 H :    0.168091
  20 H :    0.163198
  21 H :    0.162453
  22 H :    0.183366
  23 H :    0.191452
  24 H :    0.183636
  25 H :    0.185065
  26 H :    0.162937
  27 H :    0.161834
  28 H :    0.167988
  29 H :    0.196044
  30 H :    0.196684
  31 H :    0.181614
  32 H :    0.191138
  33 H :    0.161657
  34 H :    0.168492
  35 H :    0.163702
  36 H :    0.182208
  37 H :    0.190675
  38 H :    0.163883
  39 H :    0.162393
  40 H :    0.168496

  Mayer bond orders larger than 0.100000
B(  0-C ,  1-C ) :   0.9252 B(  0-C , 19-H ) :   0.9589 B(  0-C , 20-H ) :   0.9706
B(  0-C , 21-H ) :   0.9556 B(  1-C ,  2-O ) :   0.7893 B(  1-C , 22-H ) :   0.9587
B(  1-C , 23-H ) :   0.9521 B(  2-O ,  3-P ) :   1.1572 B(  3-P ,  4-S ) :   1.7389
B(  3-P ,  5-O ) :   1.0578 B(  3-P ,  8-S ) :   1.0888 B(  5-O ,  6-C ) :   0.7211
B(  6-C ,  7-C ) :   0.9338 B(  6-C , 24-H ) :   0.9445 B(  6-C , 25-H ) :   0.9471
B(  7-C , 26-H ) :   0.9747 B(  7-C , 27-H ) :   0.9697 B(  7-C , 28-H ) :   0.9599
B(  8-S ,  9-C ) :   0.8905 B(  9-C , 10-S ) :   0.8851 B(  9-C , 29-H ) :   0.9040
B(  9-C , 30-H ) :   0.9038 B( 10-S , 11-P ) :   1.0899 B( 11-P , 12-S ) :   1.7113
B( 11-P , 13-O ) :   1.0757 B( 11-P , 16-O ) :   1.1407 B( 13-O , 14-C ) :   0.8012
B( 14-C , 15-C ) :   0.9093 B( 14-C , 31-H ) :   0.9661 B( 14-C , 32-H ) :   0.9482
B( 15-C , 33-H ) :   0.9637 B( 15-C , 34-H ) :   0.9533 B( 15-C , 35-H ) :   0.9654
B( 16-O , 17-C ) :   0.7759 B( 17-C , 18-C ) :   0.9118 B( 17-C , 36-H ) :   0.9581
B( 17-C , 37-H ) :   0.9529 B( 18-C , 38-H ) :   0.9714 B( 18-C , 39-H ) :   0.9601
B( 18-C , 40-H ) :   0.9570

Dispersion correction           -0.022081306
FINAL SINGLE POINT ENERGY     -2932.472123085501

DIPOLE MOMENT
-------------

Method             : SCF
Type of density    : Electron Density
Multiplicity       :   1
Irrep              :   0
Energy             : -2932.4965966575896346 Eh
Relativity type    :
Basis              : AO
                                X                 Y                 Z
Electronic contribution:     -1.079168818       8.733268103     -15.507743624
Nuclear contribution   :      0.757788187      -9.998437914      17.418668149
                        -----------------------------------------
Total Dipole Moment    :     -0.321380631      -1.265169811       1.910924525
                        -----------------------------------------
Magnitude (a.u.)       :      2.314211032
Magnitude (Debye)      :      5.882256974

Rotational constants in cm-1:             0.013168             0.005033             0.004885
Rotational constants in MHz :           394.758003           150.894604           146.448255

                             ****ORCA TERMINATED NORMALLY****
TOTAL RUN TIME: 0 days 0 hours 1 minutes 51 seconds 926 msec
