                         Program Version 6.0.0  -   RELEASE  -
|  1> ! pbe def2-sv(p) def2/J RI DEFGRID1 loosescf d4 GCP(DFT/SV(P)) printgap
|  2> %output
|  3>     printlevel normal
|  4> end
|  5> * xyz 0 1
|  6> C 3.2857285494 -1.0877527329 -3.2069232942
|  7> C 3.915128163 -1.3638826218 -1.8552797131
|  8> O 3.8085550979 -0.2437041671 -0.960196603
|  9> P 2.4646813233 0.2713039161 -0.298721919
| 10> S 1.3237688407 1.4207171298 -1.4189520746
| 11> O 3.1881101673 0.9800266222 0.9083234282
| 12> C 2.5814567131 1.9039885402 1.827019715
| 13> C 2.3446057147 1.2315567664 3.1644365615
| 14> S 1.5229429568 -1.4782706442 0.4639792386
| 15> C 0.2088650953 -1.6671610428 -0.7940352148
| 16> S -1.4369834446 -1.928850409 -0.0947322685
| 17> P -1.9543171635 0.0958465921 0.3340826104
| 18> S -0.849519674 1.0452444795 1.6356692631
| 19> O -3.4800055745 -0.0558451298 0.7474255769
| 20> C -3.8528591724 -0.6366414819 2.0142900016
| 21> C -5.3061294589 -0.2954870954 2.2727085523
| 22> O -2.0113597388 0.836461235 -1.0493429607
| 23> C -2.8145621935 0.4044539631 -2.1771407849
| 24> C -4.1544423313 1.1100924023 -2.1836458254
| 25> H 2.215043426 -0.9222242165 -3.1021427877
| 26> H 3.725007997 -0.1975077994 -3.6496603879
| 27> H 3.4542328764 -1.9362321712 -3.8622297358
| 28> H 4.9920543912 -1.5171211097 -1.9450751182
| 29> H 3.460176299 -2.2379774412 -1.3784426282
| 30> H 3.2979492186 2.7230748748 1.9168372842
| 31> H 1.6457771044 2.286474178 1.4063778617
| 32> H 1.5932953574 0.4512631964 3.066092643
| 33> H 3.2699940891 0.7946096767 3.5282459068
| 34> H 1.983883162 1.9698342516 3.8728210474
| 35> H 0.4209352474 -2.5552641761 -1.3832241777
| 36> H 0.1992974608 -0.7604361218 -1.406963678
| 37> H -3.6998714364 -1.7172247353 1.9504162572
| 38> H -3.1985239603 -0.226880619 2.7908183392
| 39> H -5.4353818152 0.7825661277 2.3117685148
| 40> H -5.9299972187 -0.6983388467 1.4801780894
| 41> H -5.6083105132 -0.7264709703 3.2214146836
| 42> H -2.2154918468 0.6756915235 -3.0487944047
| 43> H -2.9392501749 -0.6809135246 -2.1292301174
| 44> H -4.7292679157 0.8352303496 -1.3034613129
| 45> H -4.0074284738 2.1867698376 -2.1844260195
| 46> H -4.7015465783 0.8220471038 -3.0758797776
| 47> *
| 48>
| 49>                          ****END OF INPUT****

CARTESIAN COORDINATES (ANGSTROEM)
---------------------------------
  C      3.285729   -1.087753   -3.206923
  C      3.915128   -1.363883   -1.855280
  O      3.808555   -0.243704   -0.960197
  P      2.464681    0.271304   -0.298722
  S      1.323769    1.420717   -1.418952
  O      3.188110    0.980027    0.908323
  C      2.581457    1.903989    1.827020
  C      2.344606    1.231557    3.164437
  S      1.522943   -1.478271    0.463979
  C      0.208865   -1.667161   -0.794035
  S     -1.436983   -1.928850   -0.094732
  P     -1.954317    0.095847    0.334083
  S     -0.849520    1.045244    1.635669
  O     -3.480006   -0.055845    0.747426
  C     -3.852859   -0.636641    2.014290
  C     -5.306129   -0.295487    2.272709
  O     -2.011360    0.836461   -1.049343
  C     -2.814562    0.404454   -2.177141
  C     -4.154442    1.110092   -2.183646
  H      2.215043   -0.922224   -3.102143
  H      3.725008   -0.197508   -3.649660
  H      3.454233   -1.936232   -3.862230
  H      4.992054   -1.517121   -1.945075
  H      3.460176   -2.237977   -1.378443
  H      3.297949    2.723075    1.916837
  H      1.645777    2.286474    1.406378
  H      1.593295    0.451263    3.066093
  H      3.269994    0.794610    3.528246
  H      1.983883    1.969834    3.872821
  H      0.420935   -2.555264   -1.383224
  H      0.199297   -0.760436   -1.406964
  H     -3.699871   -1.717225    1.950416
  H     -3.198524   -0.226881    2.790818
  H     -5.435382    0.782566    2.311769
  H     -5.929997   -0.698339    1.480178
  H     -5.608311   -0.726471    3.221415
  H     -2.215492    0.675692   -3.048794
  H     -2.939250   -0.680914   -2.129230
  H     -4.729268    0.835230   -1.303461
  H     -4.007428    2.186770   -2.184426
  H     -4.701547    0.822047   -3.075880

 Total Charge           Charge          ....    0
 Multiplicity           Mult            ....    1
 Number of Electrons    NEL             ....  202
 Basis Dimension        Dim             ....  334

ORBITAL ENERGIES
----------------

  NO   OCC          E(Eh)            E(eV)
   0   2.0000     -88.044804     -2395.8209
   1   2.0000     -88.040215     -2395.6961
   2   2.0000     -87.979421     -2394.0417
   3   2.0000     -87.979293     -2394.0383
   4   2.0000     -76.425221     -2079.6360
   5   2.0000     -76.420736     -2079.5139
   6   2.0000     -18.796139      -511.4689
   7   2.0000     -18.794503      -511.4244
   8   2.0000     -18.783163      -511.1159
   9   2.0000     -18.780325      -511.0386
  10   2.0000      -9.957417      -270.9551
  11   2.0000      -9.956693      -270.9354
  12   2.0000      -9.956414      -270.9278
  13   2.0000      -9.951893      -270.8048
  14   2.0000      -9.940214      -270.4870
  15   2.0000      -9.892017      -269.1755
  16   2.0000      -9.886624      -269.0287
  17   2.0000      -9.882872      -268.9266
  18   2.0000      -9.871509      -268.6174
  19   2.0000      -7.689956      -209.2543
  20   2.0000      -7.684905      -209.1169
  21   2.0000      -7.624572      -207.4752
  22   2.0000      -7.624281      -207.4672
  23   2.0000      -6.422900      -174.7760
  24   2.0000      -6.417936      -174.6409
  25   2.0000      -5.717586      -155.5834
  26   2.0000      -5.714397      -155.4967
  27   2.0000      -5.712737      -155.4515
  28   2.0000      -5.709439      -155.3617
  29   2.0000      -5.707236      -155.3018
  30   2.0000      -5.701976      -155.1586
  31   2.0000      -5.653497      -153.8395
  32   2.0000      -5.653238      -153.8324
  33   2.0000      -5.645197      -153.6136
  34   2.0000      -5.645096      -153.6109
  35   2.0000      -5.644743      -153.6013
  36   2.0000      -5.644122      -153.5844
  37   2.0000      -4.645913      -126.4217
  38   2.0000      -4.644838      -126.3925
  39   2.0000      -4.642748      -126.3356
  40   2.0000      -4.640208      -126.2665
  41   2.0000      -4.640129      -126.2643
  42   2.0000      -4.638263      -126.2136
  43   2.0000      -0.991089       -26.9689
  44   2.0000      -0.981815       -26.7165
  45   2.0000      -0.949123       -25.8269
  46   2.0000      -0.936285       -25.4776
  47   2.0000      -0.760678       -20.6991
  48   2.0000      -0.721024       -19.6201
  49   2.0000      -0.711009       -19.3475
  50   2.0000      -0.694967       -18.9110
  51   2.0000      -0.679613       -18.4932
  52   2.0000      -0.673788       -18.3347
  53   2.0000      -0.647627       -17.6228
  54   2.0000      -0.631717       -17.1899
  55   2.0000      -0.592223       -16.1152
  56   2.0000      -0.588984       -16.0271
  57   2.0000      -0.573564       -15.6075
  58   2.0000      -0.568029       -15.4569
  59   2.0000      -0.557897       -15.1812
  60   2.0000      -0.510748       -13.8982
  61   2.0000      -0.493744       -13.4355
  62   2.0000      -0.485037       -13.1985
  63   2.0000      -0.465927       -12.6785
  64   2.0000      -0.453040       -12.3278
  65   2.0000      -0.446726       -12.1560
  66   2.0000      -0.445412       -12.1203
  67   2.0000      -0.434771       -11.8307
  68   2.0000      -0.419801       -11.4234
  69   2.0000      -0.414238       -11.2720
  70   2.0000      -0.408293       -11.1102
  71   2.0000      -0.405903       -11.0452
  72   2.0000      -0.392179       -10.6717
  73   2.0000      -0.384811       -10.4712
  74   2.0000      -0.379328       -10.3220
  75   2.0000      -0.368428       -10.0254
  76   2.0000      -0.360321        -9.8048
  77   2.0000      -0.357669        -9.7327
  78   2.0000      -0.354723        -9.6525
  79   2.0000      -0.349016        -9.4972
  80   2.0000      -0.346963        -9.4413
  81   2.0000      -0.344950        -9.3866
  82   2.0000      -0.342408        -9.3174
  83   2.0000      -0.334469        -9.1014
  84   2.0000      -0.325426        -8.8553
  85   2.0000      -0.319451        -8.6927
  86   2.0000      -0.311041        -8.4638
  87   2.0000      -0.302480        -8.2309
  88   2.0000      -0.293404        -7.9839
  89   2.0000      -0.290379        -7.9016
  90   2.0000      -0.281212        -7.6522
  91   2.0000      -0.275529        -7.4975
  92   2.0000      -0.264442        -7.1958
  93   2.0000      -0.262424        -7.1409
  94   2.0000      -0.254799        -6.9334
  95   2.0000      -0.240497        -6.5443
  96   2.0000      -0.224010        -6.0956
  97   2.0000      -0.204068        -5.5530
  98   2.0000      -0.199745        -5.4353
  99   2.0000      -0.190034        -5.1711
 100   2.0000      -0.182937        -4.9780
 101   0.0000      -0.038826        -1.0565
 102   0.0000      -0.030937        -0.8418
 103   0.0000      -0.015409        -0.4193
 104   0.0000       0.004133         0.1125
 105   0.0000       0.021165         0.5759

MULLIKEN ATOMIC CHARGES
-----------------------
   0 C :   -0.306970
   1 C :   -0.008606
   2 O :   -0.355387
   3 P :    0.601370
   4 S :   -0.312022
   5 O :   -0.354946
   6 C :   -0.013462
   7 C :   -0.303567
   8 S :   -0.094479
   9 C :   -0.371021
  10 S :   -0.108979
  11 P :    0.608553
  12 S :   -0.307836
  13 O :   -0.384107
  14 C :   -0.015311
  15 C :   -0.283800
  16 O :   -0.344678
  17 C :   -0.015674
  18 C :   -0.291299
  19 H :    0.119952
  20 H :    0.123902
  21 H :    0.106212
  22 H :    0.107968
  23 H :    0.101698
  24 H :    0.102453
  25 H :    0.129025
  26 H :    0.134197
  27 H :    0.109707
  28 H :    0.107706
  29 H :    0.180669
  30 H :    0.201240
  31 H :    0.106048
  32 H :    0.108411
  33 H :    0.124310
  34 H :    0.116540
  35 H :    0.114511
  36 H :    0.113297
  37 H :    0.098648
  38 H :    0.123209
  39 H :    0.123266
  40 H :    0.109251
Sum of atomic charges:    0.0000000

LOEWDIN ATOMIC CHARGES
----------------------
   0 C :   -0.366448
   1 C :   -0.119227
   2 O :   -0.237194
   3 P :    0.567474
   4 S :   -0.303852
   5 O :   -0.226938
   6 C :   -0.116935
   7 C :   -0.364054
   8 S :    0.073484
   9 C :   -0.487219
  10 S :    0.063081
  11 P :    0.567539
  12 S :   -0.297643
  13 O :   -0.249803
  14 C :   -0.120461
  15 C :   -0.350770
  16 O :   -0.223229
  17 C :   -0.115376
  18 C :   -0.359977
  19 H :    0.117493
  20 H :    0.131100
  21 H :    0.127109
  22 H :    0.120880
  23 H :    0.099994
  24 H :    0.117095
  25 H :    0.109117
  26 H :    0.121598
  27 H :    0.122992
  28 H :    0.129569
  29 H :    0.132622
  30 H :    0.118664
  31 H :    0.109521
  32 H :    0.110875
  33 H :    0.130542
  34 H :    0.125790
  35 H :    0.132234
  36 H :    0.122324
  37 H :    0.102398
  38 H :    0.125685
  39 H :    0.130356
  40 H :    0.129594

  Mayer bond orders larger than 0.100000
B(  0-C ,  1-C ) :   1.1579 B(  0-C , 19-H ) :   0.9363 B(  0-C , 20-H ) :   0.9447
B(  0-C , 21-H ) :   0.9377 B(  1-C ,  2-O ) :   0.9327 B(  1-C , 22-H ) :   0.9347
B(  1-C , 23-H ) :   0.9132 B(  2-O ,  3-P ) :   1.1069 B(  3-P ,  4-S ) :   1.6166
B(  3-P ,  5-O ) :   1.1547 B(  3-P ,  8-S ) :   0.9342 B(  4-S ,  8-S ) :   0.1252
B(  4-S , 30-H ) :   0.1216 B(  5-O ,  6-C ) :   0.8995 B(  6-C ,  7-C ) :   1.1701
B(  6-C , 24-H ) :   0.9336 B(  6-C , 25-H ) :   0.9022 B(  7-C , 26-H ) :   0.9335
B(  7-C , 27-H ) :   0.9469 B(  7-C , 28-H ) :   0.9415 B(  8-S ,  9-C ) :   0.9943
B(  9-C , 10-S ) :   1.0026 B(  9-C , 29-H ) :   0.9093 B(  9-C , 30-H ) :   0.8370
B( 10-S , 11-P ) :   0.9494 B( 10-S , 12-S ) :   0.1109 B( 11-P , 12-S ) :   1.6765
B( 11-P , 13-O ) :   1.0747 B( 11-P , 16-O ) :   1.1450 B( 13-O , 14-C ) :   0.9048
B( 14-C , 15-C ) :   1.1602 B( 14-C , 31-H ) :   0.9287 B( 14-C , 32-H ) :   0.9083
B( 15-C , 33-H ) :   0.9507 B( 15-C , 34-H ) :   0.9507 B( 15-C , 35-H ) :   0.9414
B( 16-O , 17-C ) :   0.8903 B( 17-C , 18-C ) :   1.1693 B( 17-C , 36-H ) :   0.9328
B( 17-C , 37-H ) :   0.9089 B( 18-C , 38-H ) :   0.9408 B( 18-C , 39-H ) :   0.9469
B( 18-C , 40-H ) :   0.9394

Dispersion correction           -0.065170176
FINAL SINGLE POINT ENERGY     -2929.514617340704

DIPOLE MOMENT
-------------

Method             : SCF
Type of density    : Electron Density
Multiplicity       :   1
Irrep              :   0
Energy             : -2929.6334524897197298 Eh
Relativity type    :
Basis              : AO
                                X                 Y                 Z
Electronic contribution:     10.963513179      -0.242678878       2.350715892
Nuclear contribution   :    -11.902596058      -0.887243078      -2.797535909
                        -----------------------------------------
Total Dipole Moment    :     -0.939082878      -1.129921955      -0.446820017
                        -----------------------------------------
Magnitude (a.u.)       :      1.535658948
Magnitude (Debye)      :      3.903334843

Rotational constants in cm-1:             0.012027             0.005129             0.004536
Rotational constants in MHz :           360.549258           153.777038           135.979217

                             ****ORCA TERMINATED NORMALLY****
TOTAL RUN TIME: 0 days 0 hours 0 minutes 20 seconds 853 msec
