                         Program Version 6.0.1  -  RELEASE   -
|  1> ! pbe def2-sv(p) def2/J RI DEFGRID1 loosescf d4 GCP(DFT/SV(P)) printgap
|  2> %output
|  3>     printlevel normal
|  4> end
|  5> * xyz 0 1
|  6> C 3.2055958464 -3.8391937344 0.4364283146
|  7> C 2.7040918604 -2.4499482591 0.7757050167
|  8> O 2.2627798402 -1.8255920363 -0.4451101809
|  9> C 2.0171526131 -0.5382318278 -0.435917237
| 10> O 2.125966968 0.1838701876 0.5365784332
| 11> C 1.622519312 -0.0179614558 -1.8052085936
| 12> C 0.3867144597 0.8836646579 -1.7215205967
| 13> H 0.3543673363 1.5498412196 -2.586268679
| 14> C 0.39193879 1.7152438024 -0.4538932587
| 15> O -0.4245873613 1.5481893017 0.4379298699
| 16> O 1.2947452966 2.6463051726 -0.473312908
| 17> C 1.4690846019 3.4489595694 0.7150759026
| 18> C 2.5120275389 4.5049750992 0.4118940245
| 19> S -1.1783318267 -0.0534477528 -1.7926155068
| 20> P -1.7924546094 -0.4453823928 0.1993355402
| 21> S -0.6242839942 -1.2110946101 1.5864843232
| 22> O -2.8916211849 0.6203192685 0.6309043266
| 23> C -2.8333161495 1.4334674515 1.8028275199
| 24> O -2.8982117561 -1.5397081118 -0.2258574094
| 25> C -2.5339759511 -2.8553730955 -0.645469124
| 26> H 3.5322441619 -4.331131338 1.3462749827
| 27> H 2.4081276841 -4.4193778226 -0.0173214518
| 28> H 4.0375692624 -3.7770915008 -0.2587385671
| 29> H 3.4858956605 -1.8248089175 1.2182734431
| 30> H 1.8548971411 -2.4763155433 1.4670273206
| 31> H 1.4388239075 -0.8518631155 -2.4806344168
| 32> H 2.4628004826 0.5746166857 -2.1738015419
| 33> H 0.5028184945 3.8880262797 0.9807901625
| 34> H 1.7827538316 2.7762014975 1.5192811624
| 35> H 3.4515272621 4.0315644294 0.1447111935
| 36> H 2.1829656963 5.1298661439 -0.4127505918
| 37> H 2.6601829162 5.1210715427 1.2923149376
| 38> H -2.0424987779 1.0881389798 2.4712062927
| 39> H -3.8033605605 1.346057359 2.288422546
| 40> H -2.6393637839 2.462950267 1.5067396001
| 41> H -1.7785101945 -3.2660019689 0.0283329139
| 42> H -2.1521256371 -2.8335876524 -1.6664759531
| 43> H -3.4469237095 -3.443175005 -0.5919647823
| 44> *
| 45>
| 46>                          ****END OF INPUT****

CARTESIAN COORDINATES (ANGSTROEM)
---------------------------------
  C      3.205596   -3.839194    0.436428
  C      2.704092   -2.449948    0.775705
  O      2.262780   -1.825592   -0.445110
  C      2.017153   -0.538232   -0.435917
  O      2.125967    0.183870    0.536578
  C      1.622519   -0.017961   -1.805209
  C      0.386714    0.883665   -1.721521
  H      0.354367    1.549841   -2.586269
  C      0.391939    1.715244   -0.453893
  O     -0.424587    1.548189    0.437930
  O      1.294745    2.646305   -0.473313
  C      1.469085    3.448960    0.715076
  C      2.512028    4.504975    0.411894
  S     -1.178332   -0.053448   -1.792616
  P     -1.792455   -0.445382    0.199336
  S     -0.624284   -1.211095    1.586484
  O     -2.891621    0.620319    0.630904
  C     -2.833316    1.433467    1.802828
  O     -2.898212   -1.539708   -0.225857
  C     -2.533976   -2.855373   -0.645469
  H      3.532244   -4.331131    1.346275
  H      2.408128   -4.419378   -0.017321
  H      4.037569   -3.777092   -0.258739
  H      3.485896   -1.824809    1.218273
  H      1.854897   -2.476316    1.467027
  H      1.438824   -0.851863   -2.480634
  H      2.462800    0.574617   -2.173802
  H      0.502818    3.888026    0.980790
  H      1.782754    2.776201    1.519281
  H      3.451527    4.031564    0.144711
  H      2.182966    5.129866   -0.412751
  H      2.660183    5.121072    1.292315
  H     -2.042499    1.088139    2.471206
  H     -3.803361    1.346057    2.288423
  H     -2.639364    2.462950    1.506740
  H     -1.778510   -3.266002    0.028333
  H     -2.152126   -2.833588   -1.666476
  H     -3.446924   -3.443175   -0.591965

 Total Charge           Charge          ....    0
 Multiplicity           Mult            ....    1
 Number of Electrons    NEL             ....  174
 Basis Dimension        Dim             ....  316

ORBITAL ENERGIES
----------------

  NO   OCC          E(Eh)            E(eV)
   0   2.0000     -88.032092     -2395.4750
   1   2.0000     -87.962252     -2393.5746
   2   2.0000     -76.414186     -2079.3357
   3   2.0000     -18.818500      -512.0774
   4   2.0000     -18.806190      -511.7424
   5   2.0000     -18.770379      -510.7680
   6   2.0000     -18.764477      -510.6074
   7   2.0000     -18.759027      -510.4591
   8   2.0000     -18.739252      -509.9210
   9   2.0000     -10.030373      -272.9403
  10   2.0000     -10.013756      -272.4881
  11   2.0000      -9.954751      -270.8825
  12   2.0000      -9.954719      -270.8817
  13   2.0000      -9.941640      -270.5258
  14   2.0000      -9.926432      -270.1120
  15   2.0000      -9.924608      -270.0623
  16   2.0000      -9.918369      -269.8925
  17   2.0000      -9.894728      -269.2492
  18   2.0000      -9.885957      -269.0106
  19   2.0000      -7.677248      -208.9085
  20   2.0000      -7.607318      -207.0057
  21   2.0000      -6.409060      -174.3994
  22   2.0000      -5.705522      -155.2552
  23   2.0000      -5.701395      -155.1428
  24   2.0000      -5.694140      -154.9454
  25   2.0000      -5.636392      -153.3740
  26   2.0000      -5.628262      -153.1528
  27   2.0000      -5.626922      -153.1163
  28   2.0000      -4.631616      -126.0327
  29   2.0000      -4.631245      -126.0226
  30   2.0000      -4.629689      -125.9803
  31   2.0000      -1.031300       -28.0631
  32   2.0000      -1.012701       -27.5570
  33   2.0000      -0.963391       -26.2152
  34   2.0000      -0.935603       -25.4591
  35   2.0000      -0.917871       -24.9765
  36   2.0000      -0.917073       -24.9548
  37   2.0000      -0.767304       -20.8794
  38   2.0000      -0.717169       -19.5152
  39   2.0000      -0.709543       -19.3076
  40   2.0000      -0.684769       -18.6335
  41   2.0000      -0.653474       -17.7819
  42   2.0000      -0.623533       -16.9672
  43   2.0000      -0.612478       -16.6664
  44   2.0000      -0.603844       -16.4314
  45   2.0000      -0.589180       -16.0324
  46   2.0000      -0.559708       -15.2304
  47   2.0000      -0.519723       -14.1424
  48   2.0000      -0.508745       -13.8437
  49   2.0000      -0.499006       -13.5786
  50   2.0000      -0.489802       -13.3282
  51   2.0000      -0.461616       -12.5612
  52   2.0000      -0.459098       -12.4927
  53   2.0000      -0.451612       -12.2890
  54   2.0000      -0.442210       -12.0332
  55   2.0000      -0.424905       -11.5622
  56   2.0000      -0.423214       -11.5162
  57   2.0000      -0.417298       -11.3553
  58   2.0000      -0.404936       -11.0189
  59   2.0000      -0.402151       -10.9431
  60   2.0000      -0.398935       -10.8556
  61   2.0000      -0.393874       -10.7179
  62   2.0000      -0.379636       -10.3304
  63   2.0000      -0.377190       -10.2639
  64   2.0000      -0.369878       -10.0649
  65   2.0000      -0.364306        -9.9133
  66   2.0000      -0.361687        -9.8420
  67   2.0000      -0.360790        -9.8176
  68   2.0000      -0.354191        -9.6380
  69   2.0000      -0.344110        -9.3637
  70   2.0000      -0.334148        -9.0926
  71   2.0000      -0.327105        -8.9010
  72   2.0000      -0.317876        -8.6498
  73   2.0000      -0.315087        -8.5740
  74   2.0000      -0.299879        -8.1601
  75   2.0000      -0.297059        -8.0834
  76   2.0000      -0.285101        -7.7580
  77   2.0000      -0.278727        -7.5846
  78   2.0000      -0.271358        -7.3840
  79   2.0000      -0.258489        -7.0338
  80   2.0000      -0.256261        -6.9732
  81   2.0000      -0.239968        -6.5299
  82   2.0000      -0.236751        -6.4423
  83   2.0000      -0.226717        -6.1693
  84   2.0000      -0.219904        -5.9839
  85   2.0000      -0.184064        -5.0086
  86   2.0000      -0.172827        -4.7029
  87   0.0000      -0.041936        -1.1411
  88   0.0000      -0.030645        -0.8339
  89   0.0000      -0.026118        -0.7107
  90   0.0000       0.005136         0.1397
  91   0.0000       0.033945         0.9237

MULLIKEN ATOMIC CHARGES
-----------------------
   0 C :   -0.274315
   1 C :   -0.038403
   2 O :   -0.216078
   3 C :    0.104140
   4 O :   -0.207688
   5 C :   -0.027959
   6 C :   -0.289906
   7 H :    0.145105
   8 C :    0.229666
   9 O :   -0.210721
  10 O :   -0.217109
  11 C :   -0.031911
  12 C :   -0.276912
  13 S :   -0.106807
  14 P :    0.635762
  15 S :   -0.348772
  16 O :   -0.373522
  17 C :   -0.083643
  18 O :   -0.382668
  19 C :   -0.096857
  20 H :    0.112084
  21 H :    0.117392
  22 H :    0.109525
  23 H :    0.102039
  24 H :    0.131002
  25 H :    0.116844
  26 H :    0.123021
  27 H :    0.109695
  28 H :    0.129095
  29 H :    0.120152
  30 H :    0.114661
  31 H :    0.115294
  32 H :    0.119971
  33 H :    0.116032
  34 H :    0.104608
  35 H :    0.104491
  36 H :    0.105104
  37 H :    0.117587
Sum of atomic charges:    0.0000000

LOEWDIN ATOMIC CHARGES
----------------------
   0 C :   -0.350360
   1 C :   -0.110774
   2 O :   -0.043570
   3 C :    0.027850
   4 O :   -0.157394
   5 C :   -0.246525
   6 C :   -0.260598
   7 H :    0.147821
   8 C :    0.029374
   9 O :   -0.147995
  10 O :   -0.035417
  11 C :   -0.102223
  12 C :   -0.350250
  13 S :    0.099289
  14 P :    0.581324
  15 S :   -0.331987
  16 O :   -0.243599
  17 C :   -0.209256
  18 O :   -0.265945
  19 C :   -0.223056
  20 H :    0.131262
  21 H :    0.127926
  22 H :    0.123530
  23 H :    0.115317
  24 H :    0.118000
  25 H :    0.136829
  26 H :    0.148767
  27 H :    0.117494
  28 H :    0.128898
  29 H :    0.129282
  30 H :    0.126299
  31 H :    0.133295
  32 H :    0.110390
  33 H :    0.115445
  34 H :    0.108338
  35 H :    0.102040
  36 H :    0.101708
  37 H :    0.118472

  Mayer bond orders larger than 0.100000
B(  0-C ,  1-C ) :   1.1545 B(  0-C , 20-H ) :   0.9443 B(  0-C , 21-H ) :   0.9485
B(  0-C , 22-H ) :   0.9515 B(  1-C ,  2-O ) :   0.8970 B(  1-C , 23-H ) :   0.9262
B(  1-C , 24-H ) :   0.9157 B(  2-O ,  3-C ) :   1.2705 B(  2-O ,  4-O ) :   0.1002
B(  3-C ,  4-O ) :   1.9478 B(  3-C ,  5-C ) :   1.0113 B(  4-O ,  8-C ) :   0.1161
B(  5-C ,  6-C ) :   1.0192 B(  5-C , 25-H ) :   0.9040 B(  5-C , 26-H ) :   0.8744
B(  6-C ,  7-H ) :   0.8771 B(  6-C ,  8-C ) :   0.9168 B(  6-C , 13-S ) :   1.0314
B(  8-C ,  9-O ) :   1.8755 B(  8-C , 10-O ) :   1.2787 B(  9-O , 14-P ) :   0.1579
B( 10-O , 11-C ) :   0.8890 B( 11-C , 12-C ) :   1.1565 B( 11-C , 27-H ) :   0.9311
B( 11-C , 28-H ) :   0.9247 B( 12-C , 29-H ) :   0.9491 B( 12-C , 30-H ) :   0.9507
B( 12-C , 31-H ) :   0.9428 B( 13-S , 14-P ) :   0.9360 B( 13-S , 15-S ) :   0.1140
B( 14-P , 15-S ) :   1.5675 B( 14-P , 16-O ) :   1.1210 B( 14-P , 18-O ) :   1.0521
B( 16-O , 17-C ) :   0.9317 B( 17-C , 32-H ) :   0.9317 B( 17-C , 33-H ) :   0.9545
B( 17-C , 34-H ) :   0.9572 B( 18-O , 19-C ) :   0.9512 B( 19-C , 35-H ) :   0.9280
B( 19-C , 36-H ) :   0.9460 B( 19-C , 37-H ) :   0.9599

Dispersion correction           -0.052959578
FINAL SINGLE POINT ENERGY     -1979.008321144225

DIPOLE MOMENT
-------------

Method             : SCF
Type of density    : Electron Density
Multiplicity       :   1
Irrep              :   0
Energy             : -1979.1384869015610093 Eh
Relativity type    :
Basis              : AO
                                X                 Y                 Z
Electronic contribution:    -13.778425559      -0.441760207      -4.275888471
Nuclear contribution   :     15.054414022       1.157669925       3.658129765
                        -----------------------------------------
Total Dipole Moment    :      1.275988463       0.715909718      -0.617758707
                        -----------------------------------------
Magnitude (a.u.)       :      1.588174770
Magnitude (Debye)      :      4.036819455

Rotational constants in cm-1:             0.010453             0.009422             0.006435
Rotational constants in MHz :           313.364090           282.465771           192.922866

                             ****ORCA TERMINATED NORMALLY****
TOTAL RUN TIME: 0 days 0 hours 0 minutes 33 seconds 865 msec
