                         Program Version 6.0.0  -   RELEASE  -
|  1> ! r2scan-3c def2/J RI DEFGRID2 scfconv6 printgap
|  2> %output
|  3>     printlevel normal
|  4> end
|  5> * xyz 0 1
|  6> C 1.7039185212 -2.9439813785 0.5480310809
|  7> C 1.5695381992 -1.7032893599 1.4075912992
|  8> O 2.5837519701 -0.7266796486 1.1242352482
|  9> P 2.6734083392 0.185677679 -0.1793035232
| 10> S 3.092697926 -0.6651070607 -1.8932895881
| 11> O 3.8377388484 1.1635685491 0.2217851196
| 12> C 4.090616643 1.6964036797 1.5457177989
| 13> C 2.9502386414 2.5506222142 2.0561468446
| 14> S 0.8705812928 1.3449495087 -0.1873799924
| 15> C 0.10676639 0.6749501877 -1.6759173784
| 16> S -0.7252432943 -0.9156261135 -1.3956685343
| 17> P -2.2916858816 -0.1541724916 -0.2085642554
| 18> S -3.0234052184 1.5969497973 -0.7169454845
| 19> O -1.6751397387 -0.2715189484 1.2417517598
| 20> C -2.1966104532 0.45973612 2.378794992
| 21> C -1.0786636113 1.2643963454 3.0104204868
| 22> O -3.3588772658 -1.3311617127 -0.1865721809
| 23> C -4.3070877761 -1.5332914713 -1.2534670382
| 24> C -5.5081311915 -2.2590786658 -0.6810458347
| 25> H 1.5227289129 -2.7060239937 -0.4984947747
| 26> H 2.7041661662 -3.3593031588 0.6404947006
| 27> H 0.9752924343 -3.6812523162 0.8695760611
| 28> H 1.7268969041 -1.9377556856 2.4625684571
| 29> H 0.5838831927 -1.2458553609 1.2785499195
| 30> H 4.2865147922 0.8589856351 2.2175428017
| 31> H 5.0004143504 2.2820403499 1.4057077391
| 32> H 3.2328607214 2.989326847 3.007998844
| 33> H 2.7232118108 3.3443155075 1.3489751115
| 34> H 2.056942236 1.9449093849 2.1977591011
| 35> H 0.8742775645 0.4934118118 -2.4292766171
| 36> H -0.6262355941 1.4077424886 -2.012216629
| 37> H -3.0061446517 1.1138064674 2.0407196152
| 38> H -2.5935690431 -0.2899842728 3.0651741294
| 39> H -0.7027066613 1.9991501007 2.3019187193
| 40> H -1.4618283573 1.7768601276 3.8867904153
| 41> H -0.265171677 0.6075813605 3.3053544185
| 42> H -4.5877150508 -0.5567046022 -1.6627390868
| 43> H -3.817535131 -2.1225261819 -2.0329534241
| 44> H -6.2212953453 -2.4491767357 -1.476383845
| 45> H -5.1958929466 -3.2026878943 -0.243306892
| 46> H -5.9806489008 -1.6529446116 0.0868040349
| 47> *
| 48>
| 49>                          ****END OF INPUT****

CARTESIAN COORDINATES (ANGSTROEM)
---------------------------------
  C      1.703919   -2.943981    0.548031
  C      1.569538   -1.703289    1.407591
  O      2.583752   -0.726680    1.124235
  P      2.673408    0.185678   -0.179304
  S      3.092698   -0.665107   -1.893290
  O      3.837739    1.163569    0.221785
  C      4.090617    1.696404    1.545718
  C      2.950239    2.550622    2.056147
  S      0.870581    1.344950   -0.187380
  C      0.106766    0.674950   -1.675917
  S     -0.725243   -0.915626   -1.395669
  P     -2.291686   -0.154172   -0.208564
  S     -3.023405    1.596950   -0.716945
  O     -1.675140   -0.271519    1.241752
  C     -2.196610    0.459736    2.378795
  C     -1.078664    1.264396    3.010420
  O     -3.358877   -1.331162   -0.186572
  C     -4.307088   -1.533291   -1.253467
  C     -5.508131   -2.259079   -0.681046
  H      1.522729   -2.706024   -0.498495
  H      2.704166   -3.359303    0.640495
  H      0.975292   -3.681252    0.869576
  H      1.726897   -1.937756    2.462568
  H      0.583883   -1.245855    1.278550
  H      4.286515    0.858986    2.217543
  H      5.000414    2.282040    1.405708
  H      3.232861    2.989327    3.007999
  H      2.723212    3.344316    1.348975
  H      2.056942    1.944909    2.197759
  H      0.874278    0.493412   -2.429277
  H     -0.626236    1.407742   -2.012217
  H     -3.006145    1.113806    2.040720
  H     -2.593569   -0.289984    3.065174
  H     -0.702707    1.999150    2.301919
  H     -1.461828    1.776860    3.886790
  H     -0.265172    0.607581    3.305354
  H     -4.587715   -0.556705   -1.662739
  H     -3.817535   -2.122526   -2.032953
  H     -6.221295   -2.449177   -1.476384
  H     -5.195893   -3.202688   -0.243307
  H     -5.980649   -1.652945    0.086804

 Total Charge           Charge          ....    0
 Multiplicity           Mult            ....    1
 Number of Electrons    NEL             ....  202
 Basis Dimension        Dim             ....  539

ORBITAL ENERGIES
----------------

  NO   OCC          E(Eh)            E(eV)
   0   2.0000     -88.578893     -2410.3542
   1   2.0000     -88.574188     -2410.2262
   2   2.0000     -88.524512     -2408.8744
   3   2.0000     -88.517009     -2408.6703
   4   2.0000     -76.917663     -2093.0360
   5   2.0000     -76.914652     -2092.9541
   6   2.0000     -18.996100      -516.9102
   7   2.0000     -18.995730      -516.9001
   8   2.0000     -18.992289      -516.8064
   9   2.0000     -18.991372      -516.7815
  10   2.0000     -10.105842      -274.9939
  11   2.0000     -10.104168      -274.9484
  12   2.0000     -10.102021      -274.8900
  13   2.0000     -10.101010      -274.8625
  14   2.0000     -10.096013      -274.7265
  15   2.0000     -10.038854      -273.1711
  16   2.0000     -10.035446      -273.0784
  17   2.0000     -10.035390      -273.0768
  18   2.0000     -10.020562      -272.6733
  19   2.0000      -7.873094      -214.2378
  20   2.0000      -7.868483      -214.1123
  21   2.0000      -7.819267      -212.7731
  22   2.0000      -7.811850      -212.5712
  23   2.0000      -6.596292      -179.4942
  24   2.0000      -6.592633      -179.3947
  25   2.0000      -5.819919      -158.3681
  26   2.0000      -5.816938      -158.2869
  27   2.0000      -5.815475      -158.2471
  28   2.0000      -5.812167      -158.1571
  29   2.0000      -5.810304      -158.1064
  30   2.0000      -5.805650      -157.9798
  31   2.0000      -5.766831      -156.9234
  32   2.0000      -5.759656      -156.7282
  33   2.0000      -5.759560      -156.7256
  34   2.0000      -5.759340      -156.7196
  35   2.0000      -5.751945      -156.5184
  36   2.0000      -5.751871      -156.5164
  37   2.0000      -4.741746      -129.0295
  38   2.0000      -4.741243      -129.0158
  39   2.0000      -4.740002      -128.9820
  40   2.0000      -4.738461      -128.9401
  41   2.0000      -4.737634      -128.9176
  42   2.0000      -4.736080      -128.8753
  43   2.0000      -1.054130       -28.6843
  44   2.0000      -1.051430       -28.6109
  45   2.0000      -1.014757       -27.6130
  46   2.0000      -1.008797       -27.4508
  47   2.0000      -0.802244       -21.8302
  48   2.0000      -0.763580       -20.7781
  49   2.0000      -0.755166       -20.5491
  50   2.0000      -0.737261       -20.0619
  51   2.0000      -0.733814       -19.9681
  52   2.0000      -0.712324       -19.3833
  53   2.0000      -0.686167       -18.6715
  54   2.0000      -0.669812       -18.2265
  55   2.0000      -0.631654       -17.1882
  56   2.0000      -0.622622       -16.9424
  57   2.0000      -0.612562       -16.6687
  58   2.0000      -0.607000       -16.5173
  59   2.0000      -0.591585       -16.0978
  60   2.0000      -0.538110       -14.6427
  61   2.0000      -0.521538       -14.1918
  62   2.0000      -0.503699       -13.7063
  63   2.0000      -0.492329       -13.3970
  64   2.0000      -0.476229       -12.9588
  65   2.0000      -0.467871       -12.7314
  66   2.0000      -0.462362       -12.5815
  67   2.0000      -0.456727       -12.4282
  68   2.0000      -0.444149       -12.0859
  69   2.0000      -0.442780       -12.0487
  70   2.0000      -0.425514       -11.5788
  71   2.0000      -0.420066       -11.4306
  72   2.0000      -0.411215       -11.1897
  73   2.0000      -0.402692       -10.9578
  74   2.0000      -0.401780       -10.9330
  75   2.0000      -0.392713       -10.6863
  76   2.0000      -0.380957       -10.3664
  77   2.0000      -0.375474       -10.2172
  78   2.0000      -0.372199       -10.1281
  79   2.0000      -0.371296       -10.1035
  80   2.0000      -0.367813       -10.0087
  81   2.0000      -0.361923        -9.8484
  82   2.0000      -0.357411        -9.7256
  83   2.0000      -0.355269        -9.6674
  84   2.0000      -0.347801        -9.4642
  85   2.0000      -0.336830        -9.1656
  86   2.0000      -0.324449        -8.8287
  87   2.0000      -0.317766        -8.6468
  88   2.0000      -0.312412        -8.5012
  89   2.0000      -0.311188        -8.4679
  90   2.0000      -0.302844        -8.2408
  91   2.0000      -0.297028        -8.0826
  92   2.0000      -0.291124        -7.9219
  93   2.0000      -0.280898        -7.6436
  94   2.0000      -0.272418        -7.4129
  95   2.0000      -0.250315        -6.8114
  96   2.0000      -0.231564        -6.3012
  97   2.0000      -0.226976        -6.1763
  98   2.0000      -0.218749        -5.9525
  99   2.0000      -0.213807        -5.8180
 100   2.0000      -0.211873        -5.7654
 101   0.0000      -0.047929        -1.3042
 102   0.0000      -0.028587        -0.7779
 103   0.0000      -0.006041        -0.1644
 104   0.0000      -0.001560        -0.0425
 105   0.0000       0.011716         0.3188

MULLIKEN ATOMIC CHARGES
-----------------------
   0 C :   -0.421919
   1 C :   -0.183803
   2 O :   -0.272526
   3 P :    0.658882
   4 S :   -0.443595
   5 O :   -0.277217
   6 C :   -0.113684
   7 C :   -0.483296
   8 S :   -0.141659
   9 C :   -0.249173
  10 S :   -0.139648
  11 P :    0.683865
  12 S :   -0.484538
  13 O :   -0.267750
  14 C :   -0.122996
  15 C :   -0.469992
  16 O :   -0.289128
  17 C :   -0.147178
  18 C :   -0.443925
  19 H :    0.174989
  20 H :    0.150790
  21 H :    0.143630
  22 H :    0.144567
  23 H :    0.181533
  24 H :    0.162598
  25 H :    0.152284
  26 H :    0.154077
  27 H :    0.175303
  28 H :    0.157438
  29 H :    0.218440
  30 H :    0.221754
  31 H :    0.168357
  32 H :    0.150520
  33 H :    0.174498
  34 H :    0.146761
  35 H :    0.152073
  36 H :    0.170211
  37 H :    0.151683
  38 H :    0.147719
  39 H :    0.153696
  40 H :    0.156361
Sum of atomic charges:    0.0000000

LOEWDIN ATOMIC CHARGES
----------------------
   0 C :   -0.408828
   1 C :    0.016853
   2 O :   -0.674241
   3 P :    0.395296
   4 S :   -0.101629
   5 O :   -0.647222
   6 C :    0.033841
   7 C :   -0.405382
   8 S :    0.140578
   9 C :   -0.427722
  10 S :    0.164110
  11 P :    0.369200
  12 S :   -0.138300
  13 O :   -0.684518
  14 C :    0.025477
  15 C :   -0.398744
  16 O :   -0.663022
  17 C :    0.021498
  18 C :   -0.385902
  19 H :    0.167994
  20 H :    0.160195
  21 H :    0.159183
  22 H :    0.177423
  23 H :    0.191793
  24 H :    0.177349
  25 H :    0.183611
  26 H :    0.161387
  27 H :    0.165898
  28 H :    0.161955
  29 H :    0.196004
  30 H :    0.192344
  31 H :    0.182379
  32 H :    0.174477
  33 H :    0.165935
  34 H :    0.159124
  35 H :    0.157633
  36 H :    0.181227
  37 H :    0.172133
  38 H :    0.160455
  39 H :    0.159673
  40 H :    0.160485

  Mayer bond orders larger than 0.100000
B(  0-C ,  1-C ) :   0.9376 B(  0-C , 19-H ) :   0.9503 B(  0-C , 20-H ) :   0.9692
B(  0-C , 21-H ) :   0.9649 B(  1-C ,  2-O ) :   0.7955 B(  1-C , 22-H ) :   0.9656
B(  1-C , 23-H ) :   0.9467 B(  2-O ,  3-P ) :   1.0422 B(  3-P ,  4-S ) :   1.8191
B(  3-P ,  5-O ) :   1.1727 B(  3-P ,  8-S ) :   0.9844 B(  5-O ,  6-C ) :   0.7982
B(  6-C ,  7-C ) :   0.9154 B(  6-C , 24-H ) :   0.9758 B(  6-C , 25-H ) :   0.9530
B(  7-C , 26-H ) :   0.9575 B(  7-C , 27-H ) :   0.9659 B(  7-C , 28-H ) :   0.9624
B(  8-S ,  9-C ) :   0.9158 B(  9-C , 10-S ) :   0.9038 B(  9-C , 29-H ) :   0.8996
B(  9-C , 30-H ) :   0.9105 B( 10-S , 11-P ) :   1.0797 B( 11-P , 12-S ) :   1.7489
B( 11-P , 13-O ) :   1.1659 B( 11-P , 16-O ) :   1.0858 B( 13-O , 14-C ) :   0.7557
B( 14-C , 15-C ) :   0.9537 B( 14-C , 31-H ) :   0.9580 B( 14-C , 32-H ) :   0.9534
B( 15-C , 33-H ) :   0.9676 B( 15-C , 34-H ) :   0.9632 B( 15-C , 35-H ) :   0.9688
B( 16-O , 17-C ) :   0.7748 B( 17-C , 18-C ) :   0.9589 B( 17-C , 36-H ) :   0.9526
B( 17-C , 37-H ) :   0.9454 B( 18-C , 38-H ) :   0.9643 B( 18-C , 39-H ) :   0.9716
B( 18-C , 40-H ) :   0.9721

Dispersion correction           -0.021644255
FINAL SINGLE POINT ENERGY     -2932.461631830093

DIPOLE MOMENT
-------------

Method             : SCF
Type of density    : Electron Density
Multiplicity       :   1
Irrep              :   0
Energy             : -2932.4866874969729906 Eh
Relativity type    :
Basis              : AO
                                X                 Y                 Z
Electronic contribution:      7.764690364       3.912771852     -17.183365996
Nuclear contribution   :     -8.555960124      -4.199718671      19.042310904
                        -----------------------------------------
Total Dipole Moment    :     -0.791269760      -0.286946819       1.858944908
                        -----------------------------------------
Magnitude (a.u.)       :      2.040618161
Magnitude (Debye)      :      5.186839160

Rotational constants in cm-1:             0.012708             0.004915             0.004490
Rotational constants in MHz :           380.981169           147.351903           134.593715

                             ****ORCA TERMINATED NORMALLY****
TOTAL RUN TIME: 0 days 0 hours 1 minutes 20 seconds 219 msec
