                         Program Version 6.0.0  -   RELEASE  -
|  1> ! r2scan-3c def2/J RI DEFGRID2 scfconv6 printgap
|  2> %output
|  3>     printlevel normal
|  4> end
|  5> %cpcm
|  6>     smd true
|  7>     smdsolvent "water"
|  8> end
|  9> * xyz 0 1
| 10> C 1.7039185212 -2.9439813785 0.5480310809
| 11> C 1.5695381992 -1.7032893599 1.4075912992
| 12> O 2.5837519701 -0.7266796486 1.1242352482
| 13> P 2.6734083392 0.185677679 -0.1793035232
| 14> S 3.092697926 -0.6651070607 -1.8932895881
| 15> O 3.8377388484 1.1635685491 0.2217851196
| 16> C 4.090616643 1.6964036797 1.5457177989
| 17> C 2.9502386414 2.5506222142 2.0561468446
| 18> S 0.8705812928 1.3449495087 -0.1873799924
| 19> C 0.10676639 0.6749501877 -1.6759173784
| 20> S -0.7252432943 -0.9156261135 -1.3956685343
| 21> P -2.2916858816 -0.1541724916 -0.2085642554
| 22> S -3.0234052184 1.5969497973 -0.7169454845
| 23> O -1.6751397387 -0.2715189484 1.2417517598
| 24> C -2.1966104532 0.45973612 2.378794992
| 25> C -1.0786636113 1.2643963454 3.0104204868
| 26> O -3.3588772658 -1.3311617127 -0.1865721809
| 27> C -4.3070877761 -1.5332914713 -1.2534670382
| 28> C -5.5081311915 -2.2590786658 -0.6810458347
| 29> H 1.5227289129 -2.7060239937 -0.4984947747
| 30> H 2.7041661662 -3.3593031588 0.6404947006
| 31> H 0.9752924343 -3.6812523162 0.8695760611
| 32> H 1.7268969041 -1.9377556856 2.4625684571
| 33> H 0.5838831927 -1.2458553609 1.2785499195
| 34> H 4.2865147922 0.8589856351 2.2175428017
| 35> H 5.0004143504 2.2820403499 1.4057077391
| 36> H 3.2328607214 2.989326847 3.007998844
| 37> H 2.7232118108 3.3443155075 1.3489751115
| 38> H 2.056942236 1.9449093849 2.1977591011
| 39> H 0.8742775645 0.4934118118 -2.4292766171
| 40> H -0.6262355941 1.4077424886 -2.012216629
| 41> H -3.0061446517 1.1138064674 2.0407196152
| 42> H -2.5935690431 -0.2899842728 3.0651741294
| 43> H -0.7027066613 1.9991501007 2.3019187193
| 44> H -1.4618283573 1.7768601276 3.8867904153
| 45> H -0.265171677 0.6075813605 3.3053544185
| 46> H -4.5877150508 -0.5567046022 -1.6627390868
| 47> H -3.817535131 -2.1225261819 -2.0329534241
| 48> H -6.2212953453 -2.4491767357 -1.476383845
| 49> H -5.1958929466 -3.2026878943 -0.243306892
| 50> H -5.9806489008 -1.6529446116 0.0868040349
| 51> *
| 52>
| 53>                          ****END OF INPUT****

CARTESIAN COORDINATES (ANGSTROEM)
---------------------------------
  C      1.703919   -2.943981    0.548031
  C      1.569538   -1.703289    1.407591
  O      2.583752   -0.726680    1.124235
  P      2.673408    0.185678   -0.179304
  S      3.092698   -0.665107   -1.893290
  O      3.837739    1.163569    0.221785
  C      4.090617    1.696404    1.545718
  C      2.950239    2.550622    2.056147
  S      0.870581    1.344950   -0.187380
  C      0.106766    0.674950   -1.675917
  S     -0.725243   -0.915626   -1.395669
  P     -2.291686   -0.154172   -0.208564
  S     -3.023405    1.596950   -0.716945
  O     -1.675140   -0.271519    1.241752
  C     -2.196610    0.459736    2.378795
  C     -1.078664    1.264396    3.010420
  O     -3.358877   -1.331162   -0.186572
  C     -4.307088   -1.533291   -1.253467
  C     -5.508131   -2.259079   -0.681046
  H      1.522729   -2.706024   -0.498495
  H      2.704166   -3.359303    0.640495
  H      0.975292   -3.681252    0.869576
  H      1.726897   -1.937756    2.462568
  H      0.583883   -1.245855    1.278550
  H      4.286515    0.858986    2.217543
  H      5.000414    2.282040    1.405708
  H      3.232861    2.989327    3.007999
  H      2.723212    3.344316    1.348975
  H      2.056942    1.944909    2.197759
  H      0.874278    0.493412   -2.429277
  H     -0.626236    1.407742   -2.012217
  H     -3.006145    1.113806    2.040720
  H     -2.593569   -0.289984    3.065174
  H     -0.702707    1.999150    2.301919
  H     -1.461828    1.776860    3.886790
  H     -0.265172    0.607581    3.305354
  H     -4.587715   -0.556705   -1.662739
  H     -3.817535   -2.122526   -2.032953
  H     -6.221295   -2.449177   -1.476384
  H     -5.195893   -3.202688   -0.243307
  H     -5.980649   -1.652945    0.086804

 Total Charge           Charge          ....    0
 Multiplicity           Mult            ....    1
 Number of Electrons    NEL             ....  202
 Basis Dimension        Dim             ....  539

ORBITAL ENERGIES
----------------

  NO   OCC          E(Eh)            E(eV)
   0   2.0000     -88.581598     -2410.4278
   1   2.0000     -88.578451     -2410.3422
   2   2.0000     -88.529415     -2409.0079
   3   2.0000     -88.529197     -2409.0019
   4   2.0000     -76.921953     -2093.1528
   5   2.0000     -76.919984     -2093.0992
   6   2.0000     -18.995693      -516.8991
   7   2.0000     -18.995397      -516.8910
   8   2.0000     -18.995068      -516.8821
   9   2.0000     -18.993698      -516.8448
  10   2.0000     -10.102988      -274.9163
  11   2.0000     -10.092960      -274.6434
  12   2.0000     -10.090076      -274.5649
  13   2.0000     -10.089806      -274.5576
  14   2.0000     -10.088957      -274.5345
  15   2.0000     -10.022513      -272.7265
  16   2.0000     -10.019492      -272.6443
  17   2.0000     -10.018064      -272.6054
  18   2.0000     -10.015661      -272.5400
  19   2.0000      -7.875880      -214.3136
  20   2.0000      -7.872677      -214.2264
  21   2.0000      -7.824458      -212.9143
  22   2.0000      -7.824423      -212.9134
  23   2.0000      -6.600016      -179.5956
  24   2.0000      -6.598617      -179.5575
  25   2.0000      -5.822683      -158.4432
  26   2.0000      -5.819722      -158.3627
  27   2.0000      -5.819688      -158.3618
  28   2.0000      -5.816359      -158.2712
  29   2.0000      -5.813106      -158.1827
  30   2.0000      -5.809837      -158.0937
  31   2.0000      -5.772087      -157.0665
  32   2.0000      -5.771956      -157.0629
  33   2.0000      -5.764744      -156.8666
  34   2.0000      -5.764551      -156.8614
  35   2.0000      -5.764539      -156.8611
  36   2.0000      -5.764490      -156.8597
  37   2.0000      -4.745791      -129.1395
  38   2.0000      -4.744954      -129.1168
  39   2.0000      -4.744004      -129.0909
  40   2.0000      -4.743615      -129.0803
  41   2.0000      -4.743560      -129.0788
  42   2.0000      -4.742442      -129.0484
  43   2.0000      -1.054462       -28.6934
  44   2.0000      -1.052628       -28.6435
  45   2.0000      -1.012464       -27.5506
  46   2.0000      -1.011084       -27.5130
  47   2.0000      -0.804546       -21.8928
  48   2.0000      -0.758595       -20.6424
  49   2.0000      -0.747311       -20.3354
  50   2.0000      -0.726590       -19.7715
  51   2.0000      -0.723844       -19.6968
  52   2.0000      -0.710826       -19.3426
  53   2.0000      -0.688716       -18.7409
  54   2.0000      -0.675180       -18.3726
  55   2.0000      -0.628680       -17.1073
  56   2.0000      -0.618019       -16.8172
  57   2.0000      -0.607332       -16.5264
  58   2.0000      -0.596674       -16.2363
  59   2.0000      -0.588005       -16.0004
  60   2.0000      -0.531825       -14.4717
  61   2.0000      -0.517488       -14.0816
  62   2.0000      -0.496794       -13.5185
  63   2.0000      -0.488532       -13.2936
  64   2.0000      -0.475931       -12.9507
  65   2.0000      -0.462431       -12.5834
  66   2.0000      -0.455885       -12.4053
  67   2.0000      -0.446574       -12.1519
  68   2.0000      -0.441422       -12.0117
  69   2.0000      -0.435740       -11.8571
  70   2.0000      -0.422984       -11.5100
  71   2.0000      -0.418517       -11.3884
  72   2.0000      -0.404955       -11.0194
  73   2.0000      -0.398556       -10.8453
  74   2.0000      -0.394939       -10.7468
  75   2.0000      -0.388133       -10.5616
  76   2.0000      -0.377599       -10.2750
  77   2.0000      -0.366069        -9.9612
  78   2.0000      -0.362544        -9.8653
  79   2.0000      -0.361502        -9.8370
  80   2.0000      -0.357680        -9.7330
  81   2.0000      -0.354632        -9.6500
  82   2.0000      -0.349819        -9.5191
  83   2.0000      -0.346506        -9.4289
  84   2.0000      -0.343773        -9.3545
  85   2.0000      -0.332621        -9.0511
  86   2.0000      -0.318256        -8.6602
  87   2.0000      -0.312331        -8.4990
  88   2.0000      -0.308570        -8.3966
  89   2.0000      -0.305972        -8.3259
  90   2.0000      -0.299376        -8.1464
  91   2.0000      -0.291825        -7.9410
  92   2.0000      -0.289141        -7.8679
  93   2.0000      -0.279313        -7.6005
  94   2.0000      -0.274762        -7.4767
  95   2.0000      -0.252648        -6.8749
  96   2.0000      -0.238154        -6.4805
  97   2.0000      -0.234438        -6.3794
  98   2.0000      -0.225283        -6.1303
  99   2.0000      -0.224325        -6.1042
 100   2.0000      -0.222008        -6.0412
 101   0.0000      -0.052715        -1.4344
 102   0.0000      -0.034443        -0.9372
 103   0.0000      -0.010803        -0.2940
 104   0.0000      -0.004336        -0.1180
 105   0.0000       0.011716         0.3188

MULLIKEN ATOMIC CHARGES
-----------------------
   0 C :   -0.470306
   1 C :   -0.162954
   2 O :   -0.288233
   3 P :    0.669999
   4 S :   -0.503975
   5 O :   -0.312460
   6 C :   -0.109085
   7 C :   -0.515549
   8 S :   -0.142191
   9 C :   -0.258397
  10 S :   -0.148799
  11 P :    0.715770
  12 S :   -0.532815
  13 O :   -0.286516
  14 C :   -0.117620
  15 C :   -0.500098
  16 O :   -0.314633
  17 C :   -0.141129
  18 C :   -0.484724
  19 H :    0.165926
  20 H :    0.165108
  21 H :    0.170509
  22 H :    0.176694
  23 H :    0.177182
  24 H :    0.178629
  25 H :    0.175135
  26 H :    0.180354
  27 H :    0.181003
  28 H :    0.164769
  29 H :    0.229771
  30 H :    0.240933
  31 H :    0.169991
  32 H :    0.174651
  33 H :    0.168910
  34 H :    0.169134
  35 H :    0.170381
  36 H :    0.170550
  37 H :    0.172297
  38 H :    0.169569
  39 H :    0.165835
  40 H :    0.166389
Sum of atomic charges:    0.0000000

LOEWDIN ATOMIC CHARGES
----------------------
   0 C :   -0.414460
   1 C :    0.024094
   2 O :   -0.676599
   3 P :    0.395505
   4 S :   -0.148840
   5 O :   -0.669785
   6 C :    0.040649
   7 C :   -0.404902
   8 S :    0.145447
   9 C :   -0.424817
  10 S :    0.157906
  11 P :    0.374343
  12 S :   -0.169415
  13 O :   -0.690193
  14 C :    0.031581
  15 C :   -0.400378
  16 O :   -0.674672
  17 C :    0.025625
  18 C :   -0.389916
  19 H :    0.161536
  20 H :    0.162327
  21 H :    0.168688
  22 H :    0.191105
  23 H :    0.191241
  24 H :    0.184824
  25 H :    0.193199
  26 H :    0.172264
  27 H :    0.165807
  28 H :    0.163330
  29 H :    0.198871
  30 H :    0.197644
  31 H :    0.182986
  32 H :    0.185079
  33 H :    0.162710
  34 H :    0.167399
  35 H :    0.163375
  36 H :    0.181635
  37 H :    0.180273
  38 H :    0.168906
  39 H :    0.163082
  40 H :    0.162543

  Mayer bond orders larger than 0.100000
B(  0-C ,  1-C ) :   0.9177 B(  0-C , 19-H ) :   0.9541 B(  0-C , 20-H ) :   0.9699
B(  0-C , 21-H ) :   0.9599 B(  1-C ,  2-O ) :   0.7875 B(  1-C , 22-H ) :   0.9559
B(  1-C , 23-H ) :   0.9471 B(  2-O ,  3-P ) :   1.0528 B(  3-P ,  4-S ) :   1.7910
B(  3-P ,  5-O ) :   1.1791 B(  3-P ,  8-S ) :   1.0037 B(  5-O ,  6-C ) :   0.7858
B(  6-C ,  7-C ) :   0.9040 B(  6-C , 24-H ) :   0.9659 B(  6-C , 25-H ) :   0.9448
B(  7-C , 26-H ) :   0.9500 B(  7-C , 27-H ) :   0.9660 B(  7-C , 28-H ) :   0.9573
B(  8-S ,  9-C ) :   0.9041 B(  9-C , 10-S ) :   0.8987 B(  9-C , 29-H ) :   0.8977
B(  9-C , 30-H ) :   0.9051 B( 10-S , 11-P ) :   1.0895 B( 11-P , 12-S ) :   1.7082
B( 11-P , 13-O ) :   1.1796 B( 11-P , 16-O ) :   1.0923 B( 13-O , 14-C ) :   0.7435
B( 14-C , 15-C ) :   0.9482 B( 14-C , 31-H ) :   0.9561 B( 14-C , 32-H ) :   0.9430
B( 15-C , 33-H ) :   0.9666 B( 15-C , 34-H ) :   0.9587 B( 15-C , 35-H ) :   0.9654
B( 16-O , 17-C ) :   0.7674 B( 17-C , 18-C ) :   0.9541 B( 17-C , 36-H ) :   0.9500
B( 17-C , 37-H ) :   0.9370 B( 18-C , 38-H ) :   0.9587 B( 18-C , 39-H ) :   0.9688
B( 18-C , 40-H ) :   0.9696

Dispersion correction           -0.021644255
FINAL SINGLE POINT ENERGY     -2932.470758914292

DIPOLE MOMENT
-------------

Method             : SCF
Type of density    : Electron Density
Multiplicity       :   1
Irrep              :   0
Energy             : -2932.4958145811719987 Eh
Relativity type    :
Basis              : AO
                                X                 Y                 Z
Electronic contribution:      7.440196156       3.843446389     -16.423530226
Nuclear contribution   :     -8.555960124      -4.199718671      19.042310904
                        -----------------------------------------
Total Dipole Moment    :     -1.115763968      -0.356272282       2.618780678
                        -----------------------------------------
Magnitude (a.u.)       :      2.868775246
Magnitude (Debye)      :      7.291847182

Rotational constants in cm-1:             0.012708             0.004915             0.004490
Rotational constants in MHz :           380.981169           147.351903           134.593715

                             ****ORCA TERMINATED NORMALLY****
TOTAL RUN TIME: 0 days 0 hours 1 minutes 50 seconds 449 msec
