                         Program Version 6.0.0  -   RELEASE  -
|  1> ! pbe def2-sv(p) def2/J RI DEFGRID1 loosescf d4 GCP(DFT/SV(P)) printgap
|  2> %output
|  3>     printlevel normal
|  4> end
|  5> * xyz 0 1
|  6> C 2.6989514668 -1.1313923808 -2.5931779096
|  7> C 2.8914041614 0.2383218071 -1.9740963001
|  8> O 3.1683015484 0.1280030543 -0.5653025565
|  9> P 2.1124149777 0.2900727121 0.6053604726
| 10> S 1.1394937529 1.9840576148 0.7257140427
| 11> O 3.0155243249 0.1269953644 1.8880174713
| 12> C 3.8773561148 -1.0122948403 2.1336022467
| 13> C 5.2961974689 -0.7249494777 1.687479178
| 14> S 0.9367138407 -1.4852079038 0.5575215271
| 15> C -0.4477515498 -0.8766831053 1.5731140209
| 16> S -2.0692725725 -1.2095364837 0.8485879895
| 17> P -2.0969233128 0.2688093863 -0.6905092441
| 18> S -0.6614887089 0.246568857 -2.01742168
| 19> O -2.1402837339 1.6891954771 -0.0132820873
| 20> C -3.1573886326 2.1682766134 0.8995475221
| 21> C -2.7071612427 2.0257858477 2.3406938189
| 22> O -3.5802586735 0.1243396019 -1.242145903
| 23> C -4.2155080113 -1.1160594313 -1.6081670155
| 24> C -3.3890004488 -1.9377006557 -2.5743379477
| 25> H 2.6002240642 -1.0187716134 -3.6676958242
| 26> H 3.5504293346 -1.7678423823 -2.3701161758
| 27> H 1.7925164008 -1.5948391888 -2.2108386571
| 28> H 2.0080090732 0.8644872734 -2.1269324749
| 29> H 3.7685014267 0.7417019935 -2.385418581
| 30> H 3.8244665214 -1.1615714772 3.2135044149
| 31> H 3.4664641819 -1.8846052679 1.6172570543
| 32> H 5.6667697478 0.1695062575 2.1807069088
| 33> H 5.9277892435 -1.5678748651 1.950089956
| 34> H 5.331283431 -0.5703645544 0.6126190027
| 35> H -0.3183693513 0.2009593316 1.706434802
| 36> H -0.4385220169 -1.4034461581 2.523731238
| 37> H -3.2754067281 3.2186987634 0.6286162964
| 38> H -4.0884603804 1.6305843279 0.7111498305
| 39> H -2.6972676636 0.9819253552 2.6450316493
| 40> H -1.7081310242 2.4421110858 2.4543557751
| 41> H -3.3931594896 2.5719760097 2.9802530922
| 42> H -4.412361014 -1.6790159433 -0.6916075077
| 43> H -5.1569148882 -0.7965877581 -2.058839321
| 44> H -3.1419314996 -1.3515843485 -3.4565398252
| 45> H -2.4597583655 -2.2522109668 -2.100712253
| 46> H -3.9506569441 -2.8175590446 -2.8709137345
| 47> *
| 48>
| 49>                          ****END OF INPUT****

CARTESIAN COORDINATES (ANGSTROEM)
---------------------------------
  C      2.698951   -1.131392   -2.593178
  C      2.891404    0.238322   -1.974096
  O      3.168302    0.128003   -0.565303
  P      2.112415    0.290073    0.605360
  S      1.139494    1.984058    0.725714
  O      3.015524    0.126995    1.888017
  C      3.877356   -1.012295    2.133602
  C      5.296197   -0.724949    1.687479
  S      0.936714   -1.485208    0.557522
  C     -0.447752   -0.876683    1.573114
  S     -2.069273   -1.209536    0.848588
  P     -2.096923    0.268809   -0.690509
  S     -0.661489    0.246569   -2.017422
  O     -2.140284    1.689195   -0.013282
  C     -3.157389    2.168277    0.899548
  C     -2.707161    2.025786    2.340694
  O     -3.580259    0.124340   -1.242146
  C     -4.215508   -1.116059   -1.608167
  C     -3.389000   -1.937701   -2.574338
  H      2.600224   -1.018772   -3.667696
  H      3.550429   -1.767842   -2.370116
  H      1.792516   -1.594839   -2.210839
  H      2.008009    0.864487   -2.126932
  H      3.768501    0.741702   -2.385419
  H      3.824467   -1.161571    3.213504
  H      3.466464   -1.884605    1.617257
  H      5.666770    0.169506    2.180707
  H      5.927789   -1.567875    1.950090
  H      5.331283   -0.570365    0.612619
  H     -0.318369    0.200959    1.706435
  H     -0.438522   -1.403446    2.523731
  H     -3.275407    3.218699    0.628616
  H     -4.088460    1.630584    0.711150
  H     -2.697268    0.981925    2.645032
  H     -1.708131    2.442111    2.454356
  H     -3.393159    2.571976    2.980253
  H     -4.412361   -1.679016   -0.691608
  H     -5.156915   -0.796588   -2.058839
  H     -3.141931   -1.351584   -3.456540
  H     -2.459758   -2.252211   -2.100712
  H     -3.950657   -2.817559   -2.870914

 Total Charge           Charge          ....    0
 Multiplicity           Mult            ....    1
 Number of Electrons    NEL             ....  202
 Basis Dimension        Dim             ....  334

ORBITAL ENERGIES
----------------

  NO   OCC          E(Eh)            E(eV)
   0   2.0000     -88.046100     -2395.8562
   1   2.0000     -88.037200     -2395.6140
   2   2.0000     -87.975343     -2393.9308
   3   2.0000     -87.974730     -2393.9141
   4   2.0000     -76.423290     -2079.5834
   5   2.0000     -76.419211     -2079.4725
   6   2.0000     -18.791806      -511.3510
   7   2.0000     -18.790798      -511.3236
   8   2.0000     -18.784879      -511.1625
   9   2.0000     -18.782014      -511.0846
  10   2.0000      -9.959637      -271.0155
  11   2.0000      -9.955951      -270.9152
  12   2.0000      -9.951799      -270.8022
  13   2.0000      -9.951098      -270.7831
  14   2.0000      -9.946476      -270.6574
  15   2.0000      -9.882754      -268.9234
  16   2.0000      -9.882637      -268.9202
  17   2.0000      -9.882368      -268.9129
  18   2.0000      -9.877800      -268.7886
  19   2.0000      -7.690909      -209.2803
  20   2.0000      -7.681992      -209.0376
  21   2.0000      -7.620585      -207.3667
  22   2.0000      -7.619897      -207.3479
  23   2.0000      -6.420257      -174.7041
  24   2.0000      -6.416799      -174.6100
  25   2.0000      -5.718529      -155.6091
  26   2.0000      -5.715398      -155.5239
  27   2.0000      -5.709803      -155.3717
  28   2.0000      -5.708202      -155.3281
  29   2.0000      -5.706605      -155.2846
  30   2.0000      -5.698958      -155.0765
  31   2.0000      -5.649666      -153.7352
  32   2.0000      -5.649010      -153.7174
  33   2.0000      -5.641361      -153.5092
  34   2.0000      -5.640368      -153.4822
  35   2.0000      -5.640321      -153.4809
  36   2.0000      -5.639987      -153.4719
  37   2.0000      -4.643219      -126.3484
  38   2.0000      -4.642405      -126.3263
  39   2.0000      -4.640105      -126.2637
  40   2.0000      -4.639653      -126.2514
  41   2.0000      -4.638612      -126.2231
  42   2.0000      -4.636931      -126.1773
  43   2.0000      -0.985191       -26.8084
  44   2.0000      -0.982681       -26.7401
  45   2.0000      -0.941350       -25.6154
  46   2.0000      -0.939071       -25.5534
  47   2.0000      -0.760655       -20.6985
  48   2.0000      -0.718297       -19.5459
  49   2.0000      -0.710059       -19.3217
  50   2.0000      -0.688914       -18.7463
  51   2.0000      -0.685817       -18.6620
  52   2.0000      -0.674786       -18.3619
  53   2.0000      -0.646901       -17.6031
  54   2.0000      -0.630305       -17.1515
  55   2.0000      -0.589458       -16.0400
  56   2.0000      -0.584849       -15.9145
  57   2.0000      -0.574509       -15.6332
  58   2.0000      -0.570024       -15.5112
  59   2.0000      -0.562159       -15.2971
  60   2.0000      -0.502118       -13.6633
  61   2.0000      -0.496752       -13.5173
  62   2.0000      -0.474991       -12.9252
  63   2.0000      -0.469510       -12.7760
  64   2.0000      -0.453335       -12.3359
  65   2.0000      -0.446266       -12.1435
  66   2.0000      -0.438837       -11.9414
  67   2.0000      -0.435585       -11.8529
  68   2.0000      -0.432400       -11.7662
  69   2.0000      -0.415707       -11.3120
  70   2.0000      -0.411347       -11.1933
  71   2.0000      -0.397745       -10.8232
  72   2.0000      -0.388358       -10.5678
  73   2.0000      -0.383812       -10.4440
  74   2.0000      -0.380988       -10.3672
  75   2.0000      -0.365398        -9.9430
  76   2.0000      -0.353871        -9.6293
  77   2.0000      -0.353222        -9.6117
  78   2.0000      -0.351904        -9.5758
  79   2.0000      -0.348418        -9.4809
  80   2.0000      -0.343858        -9.3569
  81   2.0000      -0.342926        -9.3315
  82   2.0000      -0.340413        -9.2631
  83   2.0000      -0.339725        -9.2444
  84   2.0000      -0.328628        -8.9424
  85   2.0000      -0.317440        -8.6380
  86   2.0000      -0.312593        -8.5061
  87   2.0000      -0.296286        -8.0624
  88   2.0000      -0.290724        -7.9110
  89   2.0000      -0.286918        -7.8074
  90   2.0000      -0.284105        -7.7309
  91   2.0000      -0.273678        -7.4472
  92   2.0000      -0.269244        -7.3265
  93   2.0000      -0.261504        -7.1159
  94   2.0000      -0.255418        -6.9503
  95   2.0000      -0.240918        -6.5557
  96   2.0000      -0.220673        -6.0048
  97   2.0000      -0.200348        -5.4517
  98   2.0000      -0.195800        -5.3280
  99   2.0000      -0.183479        -4.9927
 100   2.0000      -0.177907        -4.8411
 101   0.0000      -0.039414        -1.0725
 102   0.0000      -0.028822        -0.7843
 103   0.0000      -0.015697        -0.4271
 104   0.0000       0.002101         0.0572
 105   0.0000       0.021932         0.5968

MULLIKEN ATOMIC CHARGES
-----------------------
   0 C :   -0.311001
   1 C :   -0.011845
   2 O :   -0.381372
   3 P :    0.599245
   4 S :   -0.294399
   5 O :   -0.357856
   6 C :   -0.011296
   7 C :   -0.288958
   8 S :   -0.095303
   9 C :   -0.351307
  10 S :   -0.134482
  11 P :    0.611133
  12 S :   -0.308294
  13 O :   -0.344419
  14 C :   -0.004649
  15 C :   -0.311730
  16 O :   -0.381085
  17 C :   -0.013768
  18 C :   -0.309970
  19 H :    0.111808
  20 H :    0.106438
  21 H :    0.141466
  22 H :    0.132679
  23 H :    0.104411
  24 H :    0.104845
  25 H :    0.097387
  26 H :    0.119008
  27 H :    0.106556
  28 H :    0.122072
  29 H :    0.204637
  30 H :    0.181007
  31 H :    0.111617
  32 H :    0.100003
  33 H :    0.117344
  34 H :    0.139412
  35 H :    0.109503
  36 H :    0.113752
  37 H :    0.110601
  38 H :    0.128646
  39 H :    0.127974
  40 H :    0.110191
Sum of atomic charges:   -0.0000000

LOEWDIN ATOMIC CHARGES
----------------------
   0 C :   -0.365594
   1 C :   -0.115036
   2 O :   -0.239355
   3 P :    0.567158
   4 S :   -0.296971
   5 O :   -0.242264
   6 C :   -0.117539
   7 C :   -0.360057
   8 S :    0.070171
   9 C :   -0.480960
  10 S :    0.060211
  11 P :    0.567198
  12 S :   -0.300065
  13 O :   -0.225537
  14 C :   -0.110108
  15 C :   -0.367129
  16 O :   -0.246190
  17 C :   -0.114821
  18 C :   -0.370836
  19 H :    0.132068
  20 H :    0.121076
  21 H :    0.122496
  22 H :    0.112431
  23 H :    0.118186
  24 H :    0.118802
  25 H :    0.100400
  26 H :    0.128517
  27 H :    0.127755
  28 H :    0.125635
  29 H :    0.122480
  30 H :    0.135942
  31 H :    0.123401
  32 H :    0.108029
  33 H :    0.116652
  34 H :    0.132581
  35 H :    0.129439
  36 H :    0.107332
  37 H :    0.121996
  38 H :    0.131052
  39 H :    0.121925
  40 H :    0.129530

  Mayer bond orders larger than 0.100000
B(  0-C ,  1-C ) :   1.1718 B(  0-C , 19-H ) :   0.9400 B(  0-C , 20-H ) :   0.9477
B(  0-C , 21-H ) :   0.9305 B(  1-C ,  2-O ) :   0.8897 B(  1-C , 22-H ) :   0.9034
B(  1-C , 23-H ) :   0.9341 B(  2-O ,  3-P ) :   1.1033 B(  3-P ,  4-S ) :   1.6502
B(  3-P ,  5-O ) :   1.1233 B(  3-P ,  8-S ) :   0.9453 B(  4-S ,  8-S ) :   0.1151
B(  4-S , 29-H ) :   0.1089 B(  5-O ,  6-C ) :   0.9024 B(  6-C ,  7-C ) :   1.1630
B(  6-C , 24-H ) :   0.9371 B(  6-C , 25-H ) :   0.9099 B(  7-C , 26-H ) :   0.9471
B(  7-C , 27-H ) :   0.9400 B(  7-C , 28-H ) :   0.9417 B(  8-S ,  9-C ) :   0.9965
B(  9-C , 10-S ) :   0.9963 B(  9-C , 29-H ) :   0.8409 B(  9-C , 30-H ) :   0.9112
B( 10-S , 11-P ) :   0.9300 B( 10-S , 12-S ) :   0.1153 B( 11-P , 12-S ) :   1.6685
B( 11-P , 13-O ) :   1.1417 B( 11-P , 16-O ) :   1.0831 B( 13-O , 14-C ) :   0.9001
B( 14-C , 15-C ) :   1.1703 B( 14-C , 31-H ) :   0.9347 B( 14-C , 32-H ) :   0.9195
B( 15-C , 33-H ) :   0.9340 B( 15-C , 34-H ) :   0.9347 B( 15-C , 35-H ) :   0.9384
B( 16-O , 17-C ) :   0.9133 B( 17-C , 18-C ) :   1.1678 B( 17-C , 36-H ) :   0.9260
B( 17-C , 37-H ) :   0.9333 B( 18-C , 38-H ) :   0.9416 B( 18-C , 39-H ) :   0.9314
B( 18-C , 40-H ) :   0.9339

Dispersion correction           -0.066893448
FINAL SINGLE POINT ENERGY     -2929.508960365139

DIPOLE MOMENT
-------------

Method             : SCF
Type of density    : Electron Density
Multiplicity       :   1
Irrep              :   0
Energy             : -2929.6270784440148418 Eh
Relativity type    :
Basis              : AO
                                X                 Y                 Z
Electronic contribution:     -3.258760204       5.924344174       1.076699074
Nuclear contribution   :      2.728456503      -7.064079225      -0.597838040
                        -----------------------------------------
Total Dipole Moment    :     -0.530303701      -1.139735051       0.478861034
                        -----------------------------------------
Magnitude (a.u.)       :      1.345186192
Magnitude (Debye)      :      3.419191572

Rotational constants in cm-1:             0.012684             0.005263             0.004716
Rotational constants in MHz :           380.265688           157.783274           141.378224

                             ****ORCA TERMINATED NORMALLY****
TOTAL RUN TIME: 0 days 0 hours 0 minutes 20 seconds 959 msec
