                         Program Version 6.0.0  -   RELEASE  -
|  1> ! r2scan-3c def2/J RI DEFGRID2 scfconv6 printgap
|  2> %output
|  3>     printlevel normal
|  4> end
|  5> * xyz 0 1
|  6> C 5.7486435477 -0.2129022757 0.2401532175
|  7> C 4.4150745289 -0.6863627526 -0.3020096442
|  8> O 3.377104759 0.0900196191 0.327481215
|  9> P 1.9168940601 0.1861545767 -0.2962607871
| 10> S 1.8899448536 0.5885512725 -2.2194356808
| 11> O 1.2337418613 1.2112113745 0.6955547574
| 12> C 1.2609164582 2.6346317019 0.4763437936
| 13> C 2.661398113 3.1975216161 0.5817962471
| 14> S 1.0904651634 -1.6486020852 0.2988445723
| 15> C -0.2062784314 -1.8913244583 -0.9641514275
| 16> S -1.8674339714 -1.9753249611 -0.2629213326
| 17> P -2.1145025622 0.088099764 0.1824654768
| 18> S -1.4878284741 1.3330128318 -1.1913649136
| 19> O -1.4295618151 0.3471627329 1.5792037169
| 20> C -1.8493978915 -0.2905356355 2.817471713
| 21> C -0.8466012392 -1.342569272 3.2455518586
| 22> O -3.656695163 0.2008556026 0.5527456092
| 23> C -4.6831828008 0.4301379108 -0.4298073049
| 24> C -4.8470357653 -0.7377621308 -1.3803364866
| 25> H 5.9074467604 0.8318070072 -0.0119055402
| 26> H 5.7674619268 -0.321599042 1.3205329291
| 27> H 6.5417110428 -0.8107438192 -0.1965758318
| 28> H 4.2406841121 -1.7400102949 -0.0679799954
| 29> H 4.3467825569 -0.5442453218 -1.3860510437
| 30> H 0.8272570996 2.8418008545 -0.5081076247
| 31> H 0.5993469959 3.0262656387 1.2508051635
| 32> H 3.2735454358 2.8150215969 -0.2341849177
| 33> H 2.6180284755 4.2800512084 0.5133122468
| 34> H 3.1114970031 2.9079390026 1.5277146612
| 35> H -0.0298185069 -2.8519619755 -1.4406045822
| 36> H -0.1449900929 -1.0743705342 -1.6884807068
| 37> H -1.8967751253 0.5270853157 3.5385368386
| 38> H -2.8442340443 -0.7166179589 2.678550265
| 39> H 0.1521155318 -0.9143954636 3.2787430303
| 40> H -1.1153893486 -1.7017613803 4.2338759068
| 41> H -0.8403390357 -2.1803112373 2.5524417895
| 42> H -5.5800736647 0.5906926849 0.1702220386
| 43> H -4.4346751291 1.3428511211 -0.9799674735
| 44> H -3.9735473701 -0.8211809115 -2.0248457517
| 45> H -4.9646101202 -1.6652549932 -0.825782325
| 46> H -5.7234440291 -0.572661412 -1.9988043798
| 47> *
| 48>
| 49>                          ****END OF INPUT****

CARTESIAN COORDINATES (ANGSTROEM)
---------------------------------
  C      5.748644   -0.212902    0.240153
  C      4.415075   -0.686363   -0.302010
  O      3.377105    0.090020    0.327481
  P      1.916894    0.186155   -0.296261
  S      1.889945    0.588551   -2.219436
  O      1.233742    1.211211    0.695555
  C      1.260916    2.634632    0.476344
  C      2.661398    3.197522    0.581796
  S      1.090465   -1.648602    0.298845
  C     -0.206278   -1.891324   -0.964151
  S     -1.867434   -1.975325   -0.262921
  P     -2.114503    0.088100    0.182465
  S     -1.487828    1.333013   -1.191365
  O     -1.429562    0.347163    1.579204
  C     -1.849398   -0.290536    2.817472
  C     -0.846601   -1.342569    3.245552
  O     -3.656695    0.200856    0.552746
  C     -4.683183    0.430138   -0.429807
  C     -4.847036   -0.737762   -1.380336
  H      5.907447    0.831807   -0.011906
  H      5.767462   -0.321599    1.320533
  H      6.541711   -0.810744   -0.196576
  H      4.240684   -1.740010   -0.067980
  H      4.346783   -0.544245   -1.386051
  H      0.827257    2.841801   -0.508108
  H      0.599347    3.026266    1.250805
  H      3.273545    2.815022   -0.234185
  H      2.618028    4.280051    0.513312
  H      3.111497    2.907939    1.527715
  H     -0.029819   -2.851962   -1.440605
  H     -0.144990   -1.074371   -1.688481
  H     -1.896775    0.527085    3.538537
  H     -2.844234   -0.716618    2.678550
  H      0.152116   -0.914395    3.278743
  H     -1.115389   -1.701761    4.233876
  H     -0.840339   -2.180311    2.552442
  H     -5.580074    0.590693    0.170222
  H     -4.434675    1.342851   -0.979967
  H     -3.973547   -0.821181   -2.024846
  H     -4.964610   -1.665255   -0.825782
  H     -5.723444   -0.572661   -1.998804

 Total Charge           Charge          ....    0
 Multiplicity           Mult            ....    1
 Number of Electrons    NEL             ....  202
 Basis Dimension        Dim             ....  539

ORBITAL ENERGIES
----------------

  NO   OCC          E(Eh)            E(eV)
   0   2.0000     -88.575487     -2410.2615
   1   2.0000     -88.571153     -2410.1436
   2   2.0000     -88.514802     -2408.6102
   3   2.0000     -88.511237     -2408.5132
   4   2.0000     -76.911821     -2092.8771
   5   2.0000     -76.906466     -2092.7313
   6   2.0000     -18.992700      -516.8176
   7   2.0000     -18.986489      -516.6486
   8   2.0000     -18.985001      -516.6081
   9   2.0000     -18.979434      -516.4566
  10   2.0000     -10.105234      -274.9774
  11   2.0000     -10.100179      -274.8399
  12   2.0000     -10.099509      -274.8216
  13   2.0000     -10.092333      -274.6263
  14   2.0000     -10.084707      -274.4188
  15   2.0000     -10.029529      -272.9174
  16   2.0000     -10.028877      -272.8996
  17   2.0000     -10.025575      -272.8098
  18   2.0000     -10.019729      -272.6507
  19   2.0000      -7.870077      -214.1557
  20   2.0000      -7.865912      -214.0423
  21   2.0000      -7.809625      -212.5107
  22   2.0000      -7.805945      -212.4106
  23   2.0000      -6.590155      -179.3272
  24   2.0000      -6.584940      -179.1853
  25   2.0000      -5.816909      -158.2861
  26   2.0000      -5.813801      -158.2016
  27   2.0000      -5.812727      -158.1723
  28   2.0000      -5.809703      -158.0901
  29   2.0000      -5.807311      -158.0250
  30   2.0000      -5.803050      -157.9090
  31   2.0000      -5.757416      -156.6673
  32   2.0000      -5.753607      -156.5636
  33   2.0000      -5.749765      -156.4591
  34   2.0000      -5.749615      -156.4550
  35   2.0000      -5.746431      -156.3683
  36   2.0000      -5.745741      -156.3495
  37   2.0000      -4.736065      -128.8749
  38   2.0000      -4.735011      -128.8462
  39   2.0000      -4.733599      -128.8078
  40   2.0000      -4.730279      -128.7174
  41   2.0000      -4.729829      -128.7052
  42   2.0000      -4.728853      -128.6786
  43   2.0000      -1.049228       -28.5510
  44   2.0000      -1.041839       -28.3499
  45   2.0000      -1.007132       -27.4055
  46   2.0000      -1.001774       -27.2597
  47   2.0000      -0.798263       -21.7218
  48   2.0000      -0.755822       -20.5670
  49   2.0000      -0.746985       -20.3265
  50   2.0000      -0.732742       -19.9389
  51   2.0000      -0.725540       -19.7429
  52   2.0000      -0.708502       -19.2793
  53   2.0000      -0.682362       -18.5680
  54   2.0000      -0.660624       -17.9765
  55   2.0000      -0.628350       -17.0983
  56   2.0000      -0.619076       -16.8459
  57   2.0000      -0.606842       -16.5130
  58   2.0000      -0.593975       -16.1629
  59   2.0000      -0.588481       -16.0134
  60   2.0000      -0.526239       -14.3197
  61   2.0000      -0.520032       -14.1508
  62   2.0000      -0.491330       -13.3698
  63   2.0000      -0.486299       -13.2329
  64   2.0000      -0.467551       -12.7227
  65   2.0000      -0.462926       -12.5969
  66   2.0000      -0.459014       -12.4904
  67   2.0000      -0.448883       -12.2147
  68   2.0000      -0.443351       -12.0642
  69   2.0000      -0.433830       -11.8051
  70   2.0000      -0.426362       -11.6019
  71   2.0000      -0.410905       -11.1813
  72   2.0000      -0.404613       -11.0101
  73   2.0000      -0.394278       -10.7288
  74   2.0000      -0.389434       -10.5970
  75   2.0000      -0.385928       -10.5016
  76   2.0000      -0.382841       -10.4176
  77   2.0000      -0.370075       -10.0702
  78   2.0000      -0.368664       -10.0319
  79   2.0000      -0.364383        -9.9154
  80   2.0000      -0.358007        -9.7419
  81   2.0000      -0.355071        -9.6620
  82   2.0000      -0.351026        -9.5519
  83   2.0000      -0.349932        -9.5221
  84   2.0000      -0.344436        -9.3726
  85   2.0000      -0.327878        -8.9220
  86   2.0000      -0.319856        -8.7037
  87   2.0000      -0.314612        -8.5610
  88   2.0000      -0.309414        -8.4196
  89   2.0000      -0.307619        -8.3707
  90   2.0000      -0.290409        -7.9024
  91   2.0000      -0.283692        -7.7197
  92   2.0000      -0.277183        -7.5425
  93   2.0000      -0.275394        -7.4939
  94   2.0000      -0.269708        -7.3391
  95   2.0000      -0.245301        -6.6750
  96   2.0000      -0.231901        -6.3103
  97   2.0000      -0.227228        -6.1832
  98   2.0000      -0.214596        -5.8395
  99   2.0000      -0.204361        -5.5609
 100   2.0000      -0.196534        -5.3480
 101   0.0000      -0.040576        -1.1041
 102   0.0000      -0.029451        -0.8014
 103   0.0000      -0.008365        -0.2276
 104   0.0000       0.014006         0.3811
 105   0.0000       0.016258         0.4424

MULLIKEN ATOMIC CHARGES
-----------------------
   0 C :   -0.442632
   1 C :   -0.158899
   2 O :   -0.280266
   3 P :    0.660596
   4 S :   -0.468538
   5 O :   -0.268816
   6 C :   -0.150705
   7 C :   -0.452226
   8 S :   -0.140066
   9 C :   -0.224912
  10 S :   -0.147222
  11 P :    0.669793
  12 S :   -0.415897
  13 O :   -0.253644
  14 C :   -0.132774
  15 C :   -0.443000
  16 O :   -0.315022
  17 C :   -0.166623
  18 C :   -0.455575
  19 H :    0.154895
  20 H :    0.152519
  21 H :    0.145816
  22 H :    0.150653
  23 H :    0.172639
  24 H :    0.181362
  25 H :    0.154814
  26 H :    0.167881
  27 H :    0.145906
  28 H :    0.153741
  29 H :    0.197984
  30 H :    0.218368
  31 H :    0.151256
  32 H :    0.160224
  33 H :    0.164171
  34 H :    0.141765
  35 H :    0.165327
  36 H :    0.147277
  37 H :    0.175280
  38 H :    0.183152
  39 H :    0.152912
  40 H :    0.148487
Sum of atomic charges:   -0.0000000

LOEWDIN ATOMIC CHARGES
----------------------
   0 C :   -0.386983
   1 C :    0.015520
   2 O :   -0.671814
   3 P :    0.365314
   4 S :   -0.131766
   5 O :   -0.663240
   6 C :    0.013256
   7 C :   -0.401640
   8 S :    0.167600
   9 C :   -0.412994
  10 S :    0.131156
  11 P :    0.380645
  12 S :   -0.070176
  13 O :   -0.647881
  14 C :    0.029291
  15 C :   -0.405439
  16 O :   -0.677963
  17 C :    0.021849
  18 C :   -0.409157
  19 H :    0.159846
  20 H :    0.159227
  21 H :    0.159228
  22 H :    0.171122
  23 H :    0.181065
  24 H :    0.184704
  25 H :    0.182711
  26 H :    0.164964
  27 H :    0.158569
  28 H :    0.160026
  29 H :    0.180922
  30 H :    0.203049
  31 H :    0.180473
  32 H :    0.178916
  33 H :    0.164929
  34 H :    0.156077
  35 H :    0.162321
  36 H :    0.179210
  37 H :    0.180899
  38 H :    0.167210
  39 H :    0.159242
  40 H :    0.159715

  Mayer bond orders larger than 0.100000
B(  0-C ,  1-C ) :   0.9547 B(  0-C , 19-H ) :   0.9716 B(  0-C , 20-H ) :   0.9721
B(  0-C , 21-H ) :   0.9654 B(  1-C ,  2-O ) :   0.7886 B(  1-C , 22-H ) :   0.9468
B(  1-C , 23-H ) :   0.9505 B(  2-O ,  3-P ) :   1.0740 B(  3-P ,  4-S ) :   1.7522
B(  3-P ,  5-O ) :   1.1873 B(  3-P ,  8-S ) :   1.1042 B(  5-O ,  6-C ) :   0.8019
B(  6-C ,  7-C ) :   0.9120 B(  6-C , 24-H ) :   0.9626 B(  6-C , 25-H ) :   0.9622
B(  7-C , 26-H ) :   0.9629 B(  7-C , 27-H ) :   0.9612 B(  7-C , 28-H ) :   0.9722
B(  8-S ,  9-C ) :   0.8966 B(  9-C , 10-S ) :   0.9116 B(  9-C , 29-H ) :   0.9132
B(  9-C , 30-H ) :   0.9059 B( 10-S , 11-P ) :   1.0025 B( 11-P , 12-S ) :   1.8324
B( 11-P , 13-O ) :   1.1186 B( 11-P , 16-O ) :   1.0599 B( 13-O , 14-C ) :   0.7428
B( 14-C , 15-C ) :   0.9523 B( 14-C , 31-H ) :   0.9604 B( 14-C , 32-H ) :   0.9756
B( 15-C , 33-H ) :   0.9647 B( 15-C , 34-H ) :   0.9621 B( 15-C , 35-H ) :   0.9620
B( 16-O , 17-C ) :   0.8255 B( 17-C , 18-C ) :   0.9165 B( 17-C , 36-H ) :   0.9613
B( 17-C , 37-H ) :   0.9677 B( 18-C , 38-H ) :   0.9628 B( 18-C , 39-H ) :   0.9675
B( 18-C , 40-H ) :   0.9572

Dispersion correction           -0.022150736
FINAL SINGLE POINT ENERGY     -2932.458533191575

DIPOLE MOMENT
-------------

Method             : SCF
Type of density    : Electron Density
Multiplicity       :   1
Irrep              :   0
Energy             : -2932.4829756379458559 Eh
Relativity type    :
Basis              : AO
                                X                 Y                 Z
Electronic contribution:     -6.024136361      -3.434211941      -8.124740052
Nuclear contribution   :      5.657402778       2.879176100       9.347717866
                        -----------------------------------------
Total Dipole Moment    :     -0.366733583      -0.555035841       1.222977813
                        -----------------------------------------
Magnitude (a.u.)       :      1.392204381
Magnitude (Debye)      :      3.538702310

Rotational constants in cm-1:             0.013348             0.005124             0.004958
Rotational constants in MHz :           400.166442           153.605228           148.640956

                             ****ORCA TERMINATED NORMALLY****
TOTAL RUN TIME: 0 days 0 hours 1 minutes 22 seconds 2 msec
