                         Program Version 6.0.0  -   RELEASE  -
|  1> ! r2scan-3c def2/J RI DEFGRID2 scfconv6 printgap
|  2> %output
|  3>     printlevel normal
|  4> end
|  5> %cpcm
|  6>     smd true
|  7>     smdsolvent "water"
|  8> end
|  9> * xyz 0 1
| 10> C 5.7486435477 -0.2129022757 0.2401532175
| 11> C 4.4150745289 -0.6863627526 -0.3020096442
| 12> O 3.377104759 0.0900196191 0.327481215
| 13> P 1.9168940601 0.1861545767 -0.2962607871
| 14> S 1.8899448536 0.5885512725 -2.2194356808
| 15> O 1.2337418613 1.2112113745 0.6955547574
| 16> C 1.2609164582 2.6346317019 0.4763437936
| 17> C 2.661398113 3.1975216161 0.5817962471
| 18> S 1.0904651634 -1.6486020852 0.2988445723
| 19> C -0.2062784314 -1.8913244583 -0.9641514275
| 20> S -1.8674339714 -1.9753249611 -0.2629213326
| 21> P -2.1145025622 0.088099764 0.1824654768
| 22> S -1.4878284741 1.3330128318 -1.1913649136
| 23> O -1.4295618151 0.3471627329 1.5792037169
| 24> C -1.8493978915 -0.2905356355 2.817471713
| 25> C -0.8466012392 -1.342569272 3.2455518586
| 26> O -3.656695163 0.2008556026 0.5527456092
| 27> C -4.6831828008 0.4301379108 -0.4298073049
| 28> C -4.8470357653 -0.7377621308 -1.3803364866
| 29> H 5.9074467604 0.8318070072 -0.0119055402
| 30> H 5.7674619268 -0.321599042 1.3205329291
| 31> H 6.5417110428 -0.8107438192 -0.1965758318
| 32> H 4.2406841121 -1.7400102949 -0.0679799954
| 33> H 4.3467825569 -0.5442453218 -1.3860510437
| 34> H 0.8272570996 2.8418008545 -0.5081076247
| 35> H 0.5993469959 3.0262656387 1.2508051635
| 36> H 3.2735454358 2.8150215969 -0.2341849177
| 37> H 2.6180284755 4.2800512084 0.5133122468
| 38> H 3.1114970031 2.9079390026 1.5277146612
| 39> H -0.0298185069 -2.8519619755 -1.4406045822
| 40> H -0.1449900929 -1.0743705342 -1.6884807068
| 41> H -1.8967751253 0.5270853157 3.5385368386
| 42> H -2.8442340443 -0.7166179589 2.678550265
| 43> H 0.1521155318 -0.9143954636 3.2787430303
| 44> H -1.1153893486 -1.7017613803 4.2338759068
| 45> H -0.8403390357 -2.1803112373 2.5524417895
| 46> H -5.5800736647 0.5906926849 0.1702220386
| 47> H -4.4346751291 1.3428511211 -0.9799674735
| 48> H -3.9735473701 -0.8211809115 -2.0248457517
| 49> H -4.9646101202 -1.6652549932 -0.825782325
| 50> H -5.7234440291 -0.572661412 -1.9988043798
| 51> *
| 52>
| 53>                          ****END OF INPUT****

CARTESIAN COORDINATES (ANGSTROEM)
---------------------------------
  C      5.748644   -0.212902    0.240153
  C      4.415075   -0.686363   -0.302010
  O      3.377105    0.090020    0.327481
  P      1.916894    0.186155   -0.296261
  S      1.889945    0.588551   -2.219436
  O      1.233742    1.211211    0.695555
  C      1.260916    2.634632    0.476344
  C      2.661398    3.197522    0.581796
  S      1.090465   -1.648602    0.298845
  C     -0.206278   -1.891324   -0.964151
  S     -1.867434   -1.975325   -0.262921
  P     -2.114503    0.088100    0.182465
  S     -1.487828    1.333013   -1.191365
  O     -1.429562    0.347163    1.579204
  C     -1.849398   -0.290536    2.817472
  C     -0.846601   -1.342569    3.245552
  O     -3.656695    0.200856    0.552746
  C     -4.683183    0.430138   -0.429807
  C     -4.847036   -0.737762   -1.380336
  H      5.907447    0.831807   -0.011906
  H      5.767462   -0.321599    1.320533
  H      6.541711   -0.810744   -0.196576
  H      4.240684   -1.740010   -0.067980
  H      4.346783   -0.544245   -1.386051
  H      0.827257    2.841801   -0.508108
  H      0.599347    3.026266    1.250805
  H      3.273545    2.815022   -0.234185
  H      2.618028    4.280051    0.513312
  H      3.111497    2.907939    1.527715
  H     -0.029819   -2.851962   -1.440605
  H     -0.144990   -1.074371   -1.688481
  H     -1.896775    0.527085    3.538537
  H     -2.844234   -0.716618    2.678550
  H      0.152116   -0.914395    3.278743
  H     -1.115389   -1.701761    4.233876
  H     -0.840339   -2.180311    2.552442
  H     -5.580074    0.590693    0.170222
  H     -4.434675    1.342851   -0.979967
  H     -3.973547   -0.821181   -2.024846
  H     -4.964610   -1.665255   -0.825782
  H     -5.723444   -0.572661   -1.998804

 Total Charge           Charge          ....    0
 Multiplicity           Mult            ....    1
 Number of Electrons    NEL             ....  202
 Basis Dimension        Dim             ....  539

ORBITAL ENERGIES
----------------

  NO   OCC          E(Eh)            E(eV)
   0   2.0000     -88.578235     -2410.3363
   1   2.0000     -88.577013     -2410.3031
   2   2.0000     -88.524389     -2408.8711
   3   2.0000     -88.523798     -2408.8550
   4   2.0000     -76.917829     -2093.0405
   5   2.0000     -76.916734     -2093.0107
   6   2.0000     -18.994043      -516.8542
   7   2.0000     -18.992069      -516.8005
   8   2.0000     -18.991515      -516.7854
   9   2.0000     -18.990525      -516.7585
  10   2.0000     -10.105033      -274.9719
  11   2.0000     -10.091301      -274.5983
  12   2.0000     -10.090024      -274.5635
  13   2.0000     -10.087841      -274.5041
  14   2.0000     -10.086713      -274.4734
  15   2.0000     -10.019001      -272.6309
  16   2.0000     -10.018372      -272.6137
  17   2.0000     -10.017538      -272.5911
  18   2.0000     -10.016513      -272.5632
  19   2.0000      -7.872731      -214.2279
  20   2.0000      -7.871689      -214.1995
  21   2.0000      -7.819558      -212.7810
  22   2.0000      -7.818845      -212.7616
  23   2.0000      -6.596209      -179.4920
  24   2.0000      -6.595262      -179.4662
  25   2.0000      -5.819594      -158.3592
  26   2.0000      -5.818505      -158.3296
  27   2.0000      -5.816485      -158.2746
  28   2.0000      -5.815479      -158.2472
  29   2.0000      -5.809923      -158.0960
  30   2.0000      -5.808846      -158.0667
  31   2.0000      -5.767243      -156.9346
  32   2.0000      -5.766429      -156.9125
  33   2.0000      -5.759691      -156.7292
  34   2.0000      -5.759596      -156.7266
  35   2.0000      -5.759324      -156.7192
  36   2.0000      -5.758661      -156.7011
  37   2.0000      -4.742070      -129.0383
  38   2.0000      -4.741035      -129.0101
  39   2.0000      -4.740572      -128.9975
  40   2.0000      -4.740152      -128.9861
  41   2.0000      -4.739765      -128.9756
  42   2.0000      -4.739232      -128.9611
  43   2.0000      -1.052165       -28.6309
  44   2.0000      -1.050405       -28.5830
  45   2.0000      -1.010732       -27.5034
  46   2.0000      -1.009112       -27.4593
  47   2.0000      -0.800843       -21.7920
  48   2.0000      -0.755704       -20.5637
  49   2.0000      -0.744311       -20.2537
  50   2.0000      -0.724697       -19.7200
  51   2.0000      -0.723205       -19.6794
  52   2.0000      -0.709955       -19.3189
  53   2.0000      -0.688161       -18.7258
  54   2.0000      -0.669123       -18.2078
  55   2.0000      -0.630347       -17.1526
  56   2.0000      -0.618246       -16.8233
  57   2.0000      -0.602361       -16.3911
  58   2.0000      -0.591490       -16.0953
  59   2.0000      -0.588748       -16.0206
  60   2.0000      -0.524671       -14.2770
  61   2.0000      -0.520249       -14.1567
  62   2.0000      -0.492233       -13.3943
  63   2.0000      -0.486798       -13.2465
  64   2.0000      -0.470555       -12.8045
  65   2.0000      -0.464721       -12.6457
  66   2.0000      -0.455844       -12.4042
  67   2.0000      -0.446038       -12.1373
  68   2.0000      -0.440826       -11.9955
  69   2.0000      -0.435068       -11.8388
  70   2.0000      -0.424730       -11.5575
  71   2.0000      -0.411579       -11.1996
  72   2.0000      -0.403406       -10.9772
  73   2.0000      -0.395977       -10.7751
  74   2.0000      -0.388514       -10.5720
  75   2.0000      -0.385894       -10.5007
  76   2.0000      -0.382716       -10.4142
  77   2.0000      -0.365700        -9.9512
  78   2.0000      -0.361860        -9.8467
  79   2.0000      -0.359331        -9.7779
  80   2.0000      -0.353869        -9.6293
  81   2.0000      -0.352247        -9.5851
  82   2.0000      -0.350015        -9.5244
  83   2.0000      -0.344993        -9.3877
  84   2.0000      -0.343976        -9.3601
  85   2.0000      -0.326349        -8.8804
  86   2.0000      -0.321696        -8.7538
  87   2.0000      -0.311626        -8.4798
  88   2.0000      -0.309897        -8.4327
  89   2.0000      -0.303786        -8.2664
  90   2.0000      -0.296092        -8.0571
  91   2.0000      -0.287418        -7.8210
  92   2.0000      -0.281039        -7.6475
  93   2.0000      -0.276985        -7.5372
  94   2.0000      -0.273599        -7.4450
  95   2.0000      -0.249843        -6.7986
  96   2.0000      -0.240682        -6.5493
  97   2.0000      -0.237199        -6.4545
  98   2.0000      -0.225591        -6.1386
  99   2.0000      -0.214231        -5.8295
 100   2.0000      -0.208681        -5.6785
 101   0.0000      -0.045297        -1.2326
 102   0.0000      -0.036715        -0.9991
 103   0.0000      -0.012266        -0.3338
 104   0.0000       0.007953         0.2164
 105   0.0000       0.013949         0.3796

MULLIKEN ATOMIC CHARGES
-----------------------
   0 C :   -0.484465
   1 C :   -0.150399
   2 O :   -0.307906
   3 P :    0.691519
   4 S :   -0.525263
   5 O :   -0.298668
   6 C :   -0.147474
   7 C :   -0.495763
   8 S :   -0.136036
   9 C :   -0.225806
  10 S :   -0.141736
  11 P :    0.684985
  12 S :   -0.468628
  13 O :   -0.288675
  14 C :   -0.127422
  15 C :   -0.479408
  16 O :   -0.335523
  17 C :   -0.160188
  18 C :   -0.491308
  19 H :    0.165587
  20 H :    0.165504
  21 H :    0.169058
  22 H :    0.170252
  23 H :    0.172410
  24 H :    0.180518
  25 H :    0.177785
  26 H :    0.169376
  27 H :    0.171619
  28 H :    0.169356
  29 H :    0.238879
  30 H :    0.211393
  31 H :    0.176671
  32 H :    0.178723
  33 H :    0.166258
  34 H :    0.167442
  35 H :    0.166650
  36 H :    0.174867
  37 H :    0.178250
  38 H :    0.175909
  39 H :    0.168914
  40 H :    0.172743
Sum of atomic charges:   -0.0000000

LOEWDIN ATOMIC CHARGES
----------------------
   0 C :   -0.390206
   1 C :    0.020221
   2 O :   -0.685301
   3 P :    0.368700
   4 S :   -0.168081
   5 O :   -0.682978
   6 C :    0.014033
   7 C :   -0.403532
   8 S :    0.172464
   9 C :   -0.407607
  10 S :    0.142446
  11 P :    0.382792
  12 S :   -0.108090
  13 O :   -0.670270
  14 C :    0.035260
  15 C :   -0.406811
  16 O :   -0.683971
  17 C :    0.026967
  18 C :   -0.411757
  19 H :    0.162185
  20 H :    0.162973
  21 H :    0.168477
  22 H :    0.178986
  23 H :    0.181325
  24 H :    0.183529
  25 H :    0.190803
  26 H :    0.163246
  27 H :    0.168434
  28 H :    0.164171
  29 H :    0.197264
  30 H :    0.200010
  31 H :    0.190998
  32 H :    0.186562
  33 H :    0.163440
  34 H :    0.166172
  35 H :    0.160733
  36 H :    0.190973
  37 H :    0.181314
  38 H :    0.162007
  39 H :    0.163619
  40 H :    0.168500

  Mayer bond orders larger than 0.100000
B(  0-C ,  1-C ) :   0.9517 B(  0-C , 19-H ) :   0.9693 B(  0-C , 20-H ) :   0.9691
B(  0-C , 21-H ) :   0.9589 B(  1-C ,  2-O ) :   0.7807 B(  1-C , 22-H ) :   0.9378
B(  1-C , 23-H ) :   0.9475 B(  2-O ,  3-P ) :   1.0811 B(  3-P ,  4-S ) :   1.6987
B(  3-P ,  5-O ) :   1.1828 B(  3-P ,  8-S ) :   1.1361 B(  5-O ,  6-C ) :   0.7865
B(  6-C ,  7-C ) :   0.9085 B(  6-C , 24-H ) :   0.9590 B(  6-C , 25-H ) :   0.9501
B(  7-C , 26-H ) :   0.9620 B(  7-C , 27-H ) :   0.9544 B(  7-C , 28-H ) :   0.9705
B(  8-S ,  9-C ) :   0.8893 B(  9-C , 10-S ) :   0.9073 B(  9-C , 29-H ) :   0.8971
B(  9-C , 30-H ) :   0.9105 B( 10-S , 11-P ) :   1.0204 B( 11-P , 12-S ) :   1.8055
B( 11-P , 13-O ) :   1.1194 B( 11-P , 16-O ) :   1.0691 B( 13-O , 14-C ) :   0.7315
B( 14-C , 15-C ) :   0.9421 B( 14-C , 31-H ) :   0.9499 B( 14-C , 32-H ) :   0.9655
B( 15-C , 33-H ) :   0.9650 B( 15-C , 34-H ) :   0.9569 B( 15-C , 35-H ) :   0.9623
B( 16-O , 17-C ) :   0.8144 B( 17-C , 18-C ) :   0.9048 B( 17-C , 36-H ) :   0.9510
B( 17-C , 37-H ) :   0.9661 B( 18-C , 38-H ) :   0.9651 B( 18-C , 39-H ) :   0.9645
B( 18-C , 40-H ) :   0.9519

Dispersion correction           -0.022150736
FINAL SINGLE POINT ENERGY     -2932.467801286324

DIPOLE MOMENT
-------------

Method             : SCF
Type of density    : Electron Density
Multiplicity       :   1
Irrep              :   0
Energy             : -2932.4922437326940781 Eh
Relativity type    :
Basis              : AO
                                X                 Y                 Z
Electronic contribution:     -6.238191838      -3.899725920      -7.712343801
Nuclear contribution   :      5.657402778       2.879176100       9.347717866
                        -----------------------------------------
Total Dipole Moment    :     -0.580789059      -1.020549820       1.635374064
                        -----------------------------------------
Magnitude (a.u.)       :      2.013277476
Magnitude (Debye)      :      5.117344663

Rotational constants in cm-1:             0.013348             0.005124             0.004958
Rotational constants in MHz :           400.166442           153.605228           148.640956

                             ****ORCA TERMINATED NORMALLY****
TOTAL RUN TIME: 0 days 0 hours 1 minutes 50 seconds 944 msec
