                         Program Version 6.0.0  -   RELEASE  -
|  1> ! pbe def2-sv(p) def2/J RI DEFGRID1 loosescf d4 GCP(DFT/SV(P)) printgap
|  2> %output
|  3>     printlevel normal
|  4> end
|  5> * xyz 0 1
|  6> C 4.7263535779 -2.1639216271 -0.7470706939
|  7> C 4.4619518871 -1.3699716392 0.5148856563
|  8> O 3.8604689838 -0.0870844788 0.2567694329
|  9> P 2.5322498154 0.1586294817 -0.5771303666
| 10> S 2.6843038392 0.1062867021 -2.5288108537
| 11> O 2.1371404521 1.62269662 -0.1408287983
| 12> C 1.5903850046 2.0601484032 1.1237187525
| 13> C 2.3608319732 1.5620445933 2.3274090887
| 14> S 1.1400913121 -1.2033095003 0.2847641901
| 15> C -0.0580270333 -1.1540288599 -1.0634405764
| 16> S -0.7883619706 0.497032085 -1.3198859912
| 17> P -2.2892893885 0.4009073789 0.172660362
| 18> S -3.3844025869 2.0102231281 0.3792613072
| 19> O -1.4219838158 -0.0411088041 1.4179031578
| 20> C -1.8941303957 0.112245314 2.7757215785
| 21> C -3.0932375213 -0.7661275453 3.0581934587
| 22> O -3.0935097665 -0.9360250915 -0.1606270879
| 23> C -4.2117162951 -0.9530870818 -1.067039797
| 24> C -5.1347965921 -2.0825357692 -0.6542509839
| 25> H 5.2582386019 -3.0755242358 -0.4944601485
| 26> H 3.7873427542 -2.4223589393 -1.2339295008
| 27> H 5.3218702724 -1.5801228369 -1.4449309019
| 28> H 5.3914647516 -1.1174461273 1.0280803518
| 29> H 3.8031764899 -1.9250365433 1.1884654994
| 30> H 1.6248054474 3.1482758989 1.0456188962
| 31> H 0.5447294347 1.7377747287 1.1664027762
| 32> H 2.263832357 0.4823422297 2.4231522728
| 33> H 3.412707715 1.8171805713 2.2292208179
| 34> H 1.9584367601 2.0338437992 3.2188734376
| 35> H -0.8392261104 -1.8709305448 -0.8246309531
| 36> H 0.4470561 -1.3960403781 -1.998672499
| 37> H -1.0308889881 -0.170937265 3.3793372688
| 38> H -2.1399947805 1.166203404 2.9377573301
| 39> H -3.9432856084 -0.4292634118 2.4663291973
| 40> H -2.8712384805 -1.7993087546 2.8050270179
| 41> H -3.3484609632 -0.6975360406 4.1110391495
| 42> H -4.7187988331 0.0166163976 -1.0173143961
| 43> H -3.8278233481 -1.1011055627 -2.0801589964
| 44> H -5.9648354286 -2.1340887402 -1.3511499481
| 45> H -4.5974353741 -3.0262490688 -0.6651434297
| 46> H -5.5195070797 -1.9069189726 0.3463379949
| 47> *
| 48>
| 49>                          ****END OF INPUT****

CARTESIAN COORDINATES (ANGSTROEM)
---------------------------------
  C      4.726354   -2.163922   -0.747071
  C      4.461952   -1.369972    0.514886
  O      3.860469   -0.087084    0.256769
  P      2.532250    0.158629   -0.577130
  S      2.684304    0.106287   -2.528811
  O      2.137140    1.622697   -0.140829
  C      1.590385    2.060148    1.123719
  C      2.360832    1.562045    2.327409
  S      1.140091   -1.203310    0.284764
  C     -0.058027   -1.154029   -1.063441
  S     -0.788362    0.497032   -1.319886
  P     -2.289289    0.400907    0.172660
  S     -3.384403    2.010223    0.379261
  O     -1.421984   -0.041109    1.417903
  C     -1.894130    0.112245    2.775722
  C     -3.093238   -0.766128    3.058193
  O     -3.093510   -0.936025   -0.160627
  C     -4.211716   -0.953087   -1.067040
  C     -5.134797   -2.082536   -0.654251
  H      5.258239   -3.075524   -0.494460
  H      3.787343   -2.422359   -1.233930
  H      5.321870   -1.580123   -1.444931
  H      5.391465   -1.117446    1.028080
  H      3.803176   -1.925037    1.188465
  H      1.624805    3.148276    1.045619
  H      0.544729    1.737775    1.166403
  H      2.263832    0.482342    2.423152
  H      3.412708    1.817181    2.229221
  H      1.958437    2.033844    3.218873
  H     -0.839226   -1.870931   -0.824631
  H      0.447056   -1.396040   -1.998672
  H     -1.030889   -0.170937    3.379337
  H     -2.139995    1.166203    2.937757
  H     -3.943286   -0.429263    2.466329
  H     -2.871238   -1.799309    2.805027
  H     -3.348461   -0.697536    4.111039
  H     -4.718799    0.016616   -1.017314
  H     -3.827823   -1.101106   -2.080159
  H     -5.964835   -2.134089   -1.351150
  H     -4.597435   -3.026249   -0.665143
  H     -5.519507   -1.906919    0.346338

 Total Charge           Charge          ....    0
 Multiplicity           Mult            ....    1
 Number of Electrons    NEL             ....  202
 Basis Dimension        Dim             ....  334

ORBITAL ENERGIES
----------------

  NO   OCC          E(Eh)            E(eV)
   0   2.0000     -88.044742     -2395.8192
   1   2.0000     -88.043298     -2395.7799
   2   2.0000     -87.991614     -2394.3736
   3   2.0000     -87.978122     -2394.0064
   4   2.0000     -76.429786     -2079.7602
   5   2.0000     -76.425313     -2079.6385
   6   2.0000     -18.798609      -511.5362
   7   2.0000     -18.798512      -511.5335
   8   2.0000     -18.793303      -511.3918
   9   2.0000     -18.784817      -511.1608
  10   2.0000      -9.960642      -271.0429
  11   2.0000      -9.959048      -270.9995
  12   2.0000      -9.958049      -270.9723
  13   2.0000      -9.957013      -270.9441
  14   2.0000      -9.949627      -270.7431
  15   2.0000      -9.893340      -269.2115
  16   2.0000      -9.891619      -269.1646
  17   2.0000      -9.886786      -269.0331
  18   2.0000      -9.882793      -268.9245
  19   2.0000      -7.689540      -209.2430
  20   2.0000      -7.688105      -209.2040
  21   2.0000      -7.636733      -207.8061
  22   2.0000      -7.623496      -207.4459
  23   2.0000      -6.427518      -174.9017
  24   2.0000      -6.422041      -174.7526
  25   2.0000      -5.717198      -155.5729
  26   2.0000      -5.716291      -155.5482
  27   2.0000      -5.714036      -155.4868
  28   2.0000      -5.712490      -155.4447
  29   2.0000      -5.706782      -155.2894
  30   2.0000      -5.704958      -155.2398
  31   2.0000      -5.665650      -154.1702
  32   2.0000      -5.657306      -153.9431
  33   2.0000      -5.656970      -153.9340
  34   2.0000      -5.652579      -153.8145
  35   2.0000      -5.644088      -153.5834
  36   2.0000      -5.643468      -153.5666
  37   2.0000      -4.649947      -126.5315
  38   2.0000      -4.649515      -126.5197
  39   2.0000      -4.647839      -126.4741
  40   2.0000      -4.644726      -126.3894
  41   2.0000      -4.644350      -126.3792
  42   2.0000      -4.642023      -126.3159
  43   2.0000      -0.993584       -27.0368
  44   2.0000      -0.984197       -26.7814
  45   2.0000      -0.952622       -25.9222
  46   2.0000      -0.941461       -25.6185
  47   2.0000      -0.765657       -20.8346
  48   2.0000      -0.725424       -19.7398
  49   2.0000      -0.711955       -19.3733
  50   2.0000      -0.695551       -18.9269
  51   2.0000      -0.689844       -18.7716
  52   2.0000      -0.677456       -18.4345
  53   2.0000      -0.654849       -17.8193
  54   2.0000      -0.638202       -17.3664
  55   2.0000      -0.603408       -16.4196
  56   2.0000      -0.590167       -16.0593
  57   2.0000      -0.576837       -15.6965
  58   2.0000      -0.573149       -15.5962
  59   2.0000      -0.568500       -15.4697
  60   2.0000      -0.510143       -13.8817
  61   2.0000      -0.492677       -13.4064
  62   2.0000      -0.483875       -13.1669
  63   2.0000      -0.469137       -12.7659
  64   2.0000      -0.465821       -12.6756
  65   2.0000      -0.448287       -12.1985
  66   2.0000      -0.440699       -11.9920
  67   2.0000      -0.437045       -11.8926
  68   2.0000      -0.431971       -11.7545
  69   2.0000      -0.420672       -11.4471
  70   2.0000      -0.412326       -11.2200
  71   2.0000      -0.407111       -11.0781
  72   2.0000      -0.400897       -10.9090
  73   2.0000      -0.391399       -10.6505
  74   2.0000      -0.385280       -10.4840
  75   2.0000      -0.372551       -10.1376
  76   2.0000      -0.366020        -9.9599
  77   2.0000      -0.363537        -9.8923
  78   2.0000      -0.356265        -9.6945
  79   2.0000      -0.351805        -9.5731
  80   2.0000      -0.350489        -9.5373
  81   2.0000      -0.346882        -9.4391
  82   2.0000      -0.345308        -9.3963
  83   2.0000      -0.340688        -9.2706
  84   2.0000      -0.337692        -9.1891
  85   2.0000      -0.326437        -8.8828
  86   2.0000      -0.317235        -8.6324
  87   2.0000      -0.302379        -8.2282
  88   2.0000      -0.296571        -8.0701
  89   2.0000      -0.294654        -8.0179
  90   2.0000      -0.283006        -7.7010
  91   2.0000      -0.281343        -7.6557
  92   2.0000      -0.272214        -7.4073
  93   2.0000      -0.267399        -7.2763
  94   2.0000      -0.259302        -7.0560
  95   2.0000      -0.233927        -6.3655
  96   2.0000      -0.220647        -6.0041
  97   2.0000      -0.211021        -5.7422
  98   2.0000      -0.207122        -5.6361
  99   2.0000      -0.198081        -5.3901
 100   2.0000      -0.192582        -5.2404
 101   0.0000      -0.042721        -1.1625
 102   0.0000      -0.023935        -0.6513
 103   0.0000      -0.011082        -0.3016
 104   0.0000       0.000502         0.0137
 105   0.0000       0.011243         0.3059

MULLIKEN ATOMIC CHARGES
-----------------------
   0 C :   -0.305511
   1 C :   -0.009668
   2 O :   -0.373284
   3 P :    0.595892
   4 S :   -0.313497
   5 O :   -0.352114
   6 C :   -0.009062
   7 C :   -0.314769
   8 S :   -0.108060
   9 C :   -0.356753
  10 S :   -0.046496
  11 P :    0.600318
  12 S :   -0.320869
  13 O :   -0.371874
  14 C :   -0.007021
  15 C :   -0.309326
  16 O :   -0.385935
  17 C :   -0.011141
  18 C :   -0.285400
  19 H :    0.109413
  20 H :    0.122589
  21 H :    0.128515
  22 H :    0.109150
  23 H :    0.107622
  24 H :    0.110451
  25 H :    0.124982
  26 H :    0.113175
  27 H :    0.123626
  28 H :    0.111366
  29 H :    0.183015
  30 H :    0.196487
  31 H :    0.106407
  32 H :    0.113738
  33 H :    0.127557
  34 H :    0.117717
  35 H :    0.114570
  36 H :    0.110784
  37 H :    0.103000
  38 H :    0.114849
  39 H :    0.114731
  40 H :    0.120825
Sum of atomic charges:    0.0000000

LOEWDIN ATOMIC CHARGES
----------------------
   0 C :   -0.368934
   1 C :   -0.114414
   2 O :   -0.242131
   3 P :    0.567312
   4 S :   -0.313233
   5 O :   -0.230772
   6 C :   -0.114374
   7 C :   -0.368007
   8 S :    0.070522
   9 C :   -0.480737
  10 S :    0.105046
  11 P :    0.561272
  12 S :   -0.320529
  13 O :   -0.240493
  14 C :   -0.114726
  15 C :   -0.365762
  16 O :   -0.252091
  17 C :   -0.121045
  18 C :   -0.350714
  19 H :    0.129118
  20 H :    0.120206
  21 H :    0.131300
  22 H :    0.121263
  23 H :    0.105826
  24 H :    0.123700
  25 H :    0.107300
  26 H :    0.113788
  27 H :    0.128312
  28 H :    0.129891
  29 H :    0.131351
  30 H :    0.132528
  31 H :    0.118755
  32 H :    0.112898
  33 H :    0.122684
  34 H :    0.126685
  35 H :    0.132039
  36 H :    0.108789
  37 H :    0.112056
  38 H :    0.132203
  39 H :    0.125677
  40 H :    0.127441

  Mayer bond orders larger than 0.100000
B(  0-C ,  1-C ) :   1.1674 B(  0-C , 19-H ) :   0.9348 B(  0-C , 20-H ) :   0.9330
B(  0-C , 21-H ) :   0.9424 B(  1-C ,  2-O ) :   0.9137 B(  1-C , 22-H ) :   0.9336
B(  1-C , 23-H ) :   0.9259 B(  2-O ,  3-P ) :   1.0947 B(  3-P ,  4-S ) :   1.6324
B(  3-P ,  5-O ) :   1.1432 B(  3-P ,  8-S ) :   0.9358 B(  4-S ,  8-S ) :   0.1104
B(  5-O ,  6-C ) :   0.9024 B(  6-C ,  7-C ) :   1.1666 B(  6-C , 24-H ) :   0.9343
B(  6-C , 25-H ) :   0.9110 B(  7-C , 26-H ) :   0.9393 B(  7-C , 27-H ) :   0.9421
B(  7-C , 28-H ) :   0.9366 B(  8-S ,  9-C ) :   1.0029 B(  9-C , 10-S ) :   0.9858
B(  9-C , 29-H ) :   0.8920 B(  9-C , 30-H ) :   0.8773 B( 10-S , 11-P ) :   0.9836
B( 11-P , 12-S ) :   1.6473 B( 11-P , 13-O ) :   1.1010 B( 11-P , 16-O ) :   1.0637
B( 13-O , 14-C ) :   0.8964 B( 14-C , 15-C ) :   1.1703 B( 14-C , 31-H ) :   0.9323
B( 14-C , 32-H ) :   0.9188 B( 15-C , 33-H ) :   0.9331 B( 15-C , 34-H ) :   0.9454
B( 15-C , 35-H ) :   0.9370 B( 16-O , 17-C ) :   0.9005 B( 17-C , 18-C ) :   1.1611
B( 17-C , 36-H ) :   0.9056 B( 17-C , 37-H ) :   0.9300 B( 18-C , 38-H ) :   0.9414
B( 18-C , 39-H ) :   0.9508 B( 18-C , 40-H ) :   0.9506

Dispersion correction           -0.065185353
FINAL SINGLE POINT ENERGY     -2929.516763859966

DIPOLE MOMENT
-------------

Method             : SCF
Type of density    : Electron Density
Multiplicity       :   1
Irrep              :   0
Energy             : -2929.6374144494370739 Eh
Relativity type    :
Basis              : AO
                                X                 Y                 Z
Electronic contribution:      4.523945376      12.349804244     -14.948022185
Nuclear contribution   :     -4.864497158     -13.902039761      16.643547844
                        -----------------------------------------
Total Dipole Moment    :     -0.340551782      -1.552235517       1.695525658
                        -----------------------------------------
Magnitude (a.u.)       :      2.323836886
Magnitude (Debye)      :      5.906723950

Rotational constants in cm-1:             0.013379             0.004598             0.004318
Rotational constants in MHz :           401.078919           137.837691           129.447872

                             ****ORCA TERMINATED NORMALLY****
TOTAL RUN TIME: 0 days 0 hours 0 minutes 21 seconds 257 msec
