                         Program Version 6.0.0  -   RELEASE  -
|  1> ! pbe def2-sv(p) def2/J RI DEFGRID1 loosescf d4 GCP(DFT/SV(P)) printgap
|  2> %output
|  3>     printlevel normal
|  4> end
|  5> * xyz 0 1
|  6> C 5.7339329598 -1.4708404161 -0.2476957665
|  7> C 4.787195244 -0.2886938966 -0.2250800137
|  8> O 3.4536872248 -0.7965291699 -0.0066182477
|  9> P 2.1823979751 0.1354252246 -0.2064595498
| 10> S 2.1001407022 1.05153427 -1.9414975645
| 11> O 2.2471990213 1.0809139992 1.0742480745
| 12> C 2.0340657814 2.5019521938 1.0685590493
| 13> C 3.3577637089 3.2316175482 0.9562093143
| 14> S 0.7725537914 -1.3503607398 0.247302293
| 15> C -0.1953397498 -1.3382301597 -1.3109714117
| 16> S -1.9558376413 -1.5745618983 -1.0286303465
| 17> P -2.4190715867 0.2258339563 0.024705604
| 18> S -1.0316455602 1.6098034576 -0.0633395548
| 19> O -2.8643009539 -0.1895889295 1.4942859348
| 20> C -1.9555268103 -0.5796344163 2.5390093998
| 21> C -1.8397072579 -2.0889482966 2.6248002938
| 22> O -3.7731961887 0.745095633 -0.5795016221
| 23> C -5.0835264206 0.1823996243 -0.3096497723
| 24> C -5.1977327409 -1.2594441791 -0.7536545133
| 25> H 5.6720650438 -2.0110864153 0.6924055891
| 26> H 5.4686907024 -2.1442395477 -1.0575619932
| 27> H 6.7478639927 -1.1131534226 -0.3941980711
| 28> H 4.798164351 0.2553500774 -1.1761037355
| 29> H 5.0289845686 0.4033291758 0.5861944442
| 30> H 1.3701863428 2.766479638 0.2402519454
| 31> H 1.5297358526 2.7156038094 2.0120092691
| 32> H 3.8237043272 3.0084364928 -0.0021580237
| 33> H 3.180753538 4.3001838933 1.0215640116
| 34> H 4.0239719435 2.926351764 1.7585883267
| 35> H 0.1215015971 -2.1753572137 -1.9279378518
| 36> H -0.0177659325 -0.3854981501 -1.8161702006
| 37> H -0.9803799842 -0.1144726384 2.361398889
| 38> H -2.3928909775 -0.1638614122 3.4489000003
| 39> H -1.2377792666 -2.3468972556 3.4898419611
| 40> H -2.8261334798 -2.531760096 2.7277775978
| 41> H -1.3581563211 -2.4886066969 1.7351245084
| 42> H -5.2810115251 0.2821995153 0.758920381
| 43> H -5.7512062657 0.8338930678 -0.8752495127
| 44> H -4.5245523091 -1.8886955628 -0.1741899202
| 45> H -6.2180779699 -1.5969367375 -0.6001609238
| 46> H -4.942465279 -1.3556610404 -1.8056292621
| 47> *
| 48>
| 49>                          ****END OF INPUT****

CARTESIAN COORDINATES (ANGSTROEM)
---------------------------------
  C      5.733933   -1.470840   -0.247696
  C      4.787195   -0.288694   -0.225080
  O      3.453687   -0.796529   -0.006618
  P      2.182398    0.135425   -0.206460
  S      2.100141    1.051534   -1.941498
  O      2.247199    1.080914    1.074248
  C      2.034066    2.501952    1.068559
  C      3.357764    3.231618    0.956209
  S      0.772554   -1.350361    0.247302
  C     -0.195340   -1.338230   -1.310971
  S     -1.955838   -1.574562   -1.028630
  P     -2.419072    0.225834    0.024706
  S     -1.031646    1.609803   -0.063340
  O     -2.864301   -0.189589    1.494286
  C     -1.955527   -0.579634    2.539009
  C     -1.839707   -2.088948    2.624800
  O     -3.773196    0.745096   -0.579502
  C     -5.083526    0.182400   -0.309650
  C     -5.197733   -1.259444   -0.753655
  H      5.672065   -2.011086    0.692406
  H      5.468691   -2.144240   -1.057562
  H      6.747864   -1.113153   -0.394198
  H      4.798164    0.255350   -1.176104
  H      5.028985    0.403329    0.586194
  H      1.370186    2.766480    0.240252
  H      1.529736    2.715604    2.012009
  H      3.823704    3.008436   -0.002158
  H      3.180754    4.300184    1.021564
  H      4.023972    2.926352    1.758588
  H      0.121502   -2.175357   -1.927938
  H     -0.017766   -0.385498   -1.816170
  H     -0.980380   -0.114473    2.361399
  H     -2.392891   -0.163861    3.448900
  H     -1.237779   -2.346897    3.489842
  H     -2.826133   -2.531760    2.727778
  H     -1.358156   -2.488607    1.735125
  H     -5.281012    0.282200    0.758920
  H     -5.751206    0.833893   -0.875250
  H     -4.524552   -1.888696   -0.174190
  H     -6.218078   -1.596937   -0.600161
  H     -4.942465   -1.355661   -1.805629

 Total Charge           Charge          ....    0
 Multiplicity           Mult            ....    1
 Number of Electrons    NEL             ....  202
 Basis Dimension        Dim             ....  334

ORBITAL ENERGIES
----------------

  NO   OCC          E(Eh)            E(eV)
   0   2.0000     -88.045212     -2395.8320
   1   2.0000     -88.036831     -2395.6039
   2   2.0000     -87.983540     -2394.1538
   3   2.0000     -87.980003     -2394.0576
   4   2.0000     -76.426089     -2079.6596
   5   2.0000     -76.420490     -2079.5072
   6   2.0000     -18.792751      -511.3767
   7   2.0000     -18.791995      -511.3562
   8   2.0000     -18.784647      -511.1562
   9   2.0000     -18.781737      -511.0771
  10   2.0000      -9.959653      -271.0159
  11   2.0000      -9.951336      -270.7896
  12   2.0000      -9.951302      -270.7887
  13   2.0000      -9.947925      -270.6968
  14   2.0000      -9.943980      -270.5894
  15   2.0000      -9.893760      -269.2229
  16   2.0000      -9.884627      -268.9744
  17   2.0000      -9.882915      -268.9278
  18   2.0000      -9.880013      -268.8488
  19   2.0000      -7.689860      -209.2517
  20   2.0000      -7.681973      -209.0371
  21   2.0000      -7.628472      -207.5813
  22   2.0000      -7.624808      -207.4816
  23   2.0000      -6.423437      -174.7906
  24   2.0000      -6.418168      -174.6472
  25   2.0000      -5.717913      -155.5923
  26   2.0000      -5.714129      -155.4894
  27   2.0000      -5.709946      -155.3755
  28   2.0000      -5.706991      -155.2951
  29   2.0000      -5.706757      -155.2887
  30   2.0000      -5.698486      -155.0637
  31   2.0000      -5.657338      -153.9440
  32   2.0000      -5.653939      -153.8515
  33   2.0000      -5.649330      -153.7261
  34   2.0000      -5.648433      -153.7017
  35   2.0000      -5.645197      -153.6136
  36   2.0000      -5.644985      -153.6078
  37   2.0000      -4.646346      -126.4335
  38   2.0000      -4.645092      -126.3994
  39   2.0000      -4.643704      -126.3616
  40   2.0000      -4.640543      -126.2756
  41   2.0000      -4.639666      -126.2517
  42   2.0000      -4.639066      -126.2354
  43   2.0000      -0.989115       -26.9152
  44   2.0000      -0.978190       -26.6179
  45   2.0000      -0.944211       -25.6933
  46   2.0000      -0.936383       -25.4803
  47   2.0000      -0.760247       -20.6874
  48   2.0000      -0.722101       -19.6494
  49   2.0000      -0.711147       -19.3513
  50   2.0000      -0.692446       -18.8424
  51   2.0000      -0.683104       -18.5882
  52   2.0000      -0.672241       -18.2926
  53   2.0000      -0.648337       -17.6422
  54   2.0000      -0.632461       -17.2101
  55   2.0000      -0.598446       -16.2845
  56   2.0000      -0.586876       -15.9697
  57   2.0000      -0.579383       -15.7658
  58   2.0000      -0.568067       -15.4579
  59   2.0000      -0.554120       -15.0784
  60   2.0000      -0.501833       -13.6556
  61   2.0000      -0.496244       -13.5035
  62   2.0000      -0.475574       -12.9410
  63   2.0000      -0.474601       -12.9145
  64   2.0000      -0.451034       -12.2732
  65   2.0000      -0.445602       -12.1255
  66   2.0000      -0.436949       -11.8900
  67   2.0000      -0.433539       -11.7972
  68   2.0000      -0.428281       -11.6541
  69   2.0000      -0.419441       -11.4136
  70   2.0000      -0.412182       -11.2160
  71   2.0000      -0.394389       -10.7319
  72   2.0000      -0.390711       -10.6318
  73   2.0000      -0.384568       -10.4646
  74   2.0000      -0.379862       -10.3366
  75   2.0000      -0.371543       -10.1102
  76   2.0000      -0.362650        -9.8682
  77   2.0000      -0.361219        -9.8293
  78   2.0000      -0.354198        -9.6382
  79   2.0000      -0.351002        -9.5512
  80   2.0000      -0.348100        -9.4723
  81   2.0000      -0.345134        -9.3916
  82   2.0000      -0.337188        -9.1753
  83   2.0000      -0.334884        -9.1127
  84   2.0000      -0.331102        -9.0097
  85   2.0000      -0.315356        -8.5813
  86   2.0000      -0.309958        -8.4344
  87   2.0000      -0.298879        -8.1329
  88   2.0000      -0.294193        -8.0054
  89   2.0000      -0.289434        -7.8759
  90   2.0000      -0.282082        -7.6758
  91   2.0000      -0.276625        -7.5274
  92   2.0000      -0.269607        -7.3364
  93   2.0000      -0.260315        -7.0835
  94   2.0000      -0.258922        -7.0456
  95   2.0000      -0.232948        -6.3388
  96   2.0000      -0.217801        -5.9267
  97   2.0000      -0.212282        -5.7765
  98   2.0000      -0.199436        -5.4269
  99   2.0000      -0.190875        -5.1940
 100   2.0000      -0.185971        -5.0605
 101   0.0000      -0.045083        -1.2268
 102   0.0000      -0.033724        -0.9177
 103   0.0000      -0.009466        -0.2576
 104   0.0000       0.003514         0.0956
 105   0.0000       0.014748         0.4013

MULLIKEN ATOMIC CHARGES
-----------------------
   0 C :   -0.271007
   1 C :   -0.023799
   2 O :   -0.372854
   3 P :    0.643896
   4 S :   -0.324498
   5 O :   -0.386275
   6 C :   -0.019426
   7 C :   -0.291329
   8 S :   -0.109596
   9 C :   -0.324226
  10 S :   -0.136219
  11 P :    0.623576
  12 S :   -0.318799
  13 O :   -0.384936
  14 C :   -0.007398
  15 C :   -0.301305
  16 O :   -0.359023
  17 C :    0.006752
  18 C :   -0.339206
  19 H :    0.115936
  20 H :    0.119124
  21 H :    0.108678
  22 H :    0.104652
  23 H :    0.101549
  24 H :    0.132428
  25 H :    0.103311
  26 H :    0.115948
  27 H :    0.111032
  28 H :    0.111037
  29 H :    0.180479
  30 H :    0.211506
  31 H :    0.115284
  32 H :    0.103904
  33 H :    0.110065
  34 H :    0.109604
  35 H :    0.129953
  36 H :    0.112375
  37 H :    0.113403
  38 H :    0.133702
  39 H :    0.119637
  40 H :    0.132067
Sum of atomic charges:   -0.0000000

LOEWDIN ATOMIC CHARGES
----------------------
   0 C :   -0.349338
   1 C :   -0.121475
   2 O :   -0.252708
   3 P :    0.573189
   4 S :   -0.306428
   5 O :   -0.247857
   6 C :   -0.120291
   7 C :   -0.361287
   8 S :    0.084726
   9 C :   -0.475928
  10 S :    0.077620
  11 P :    0.569380
  12 S :   -0.298403
  13 O :   -0.248752
  14 C :   -0.118037
  15 C :   -0.364078
  16 O :   -0.235040
  17 C :   -0.107649
  18 C :   -0.372901
  19 H :    0.126954
  20 H :    0.128750
  21 H :    0.129268
  22 H :    0.107373
  23 H :    0.109011
  24 H :    0.106989
  25 H :    0.117054
  26 H :    0.122262
  27 H :    0.130779
  28 H :    0.121243
  29 H :    0.136098
  30 H :    0.125419
  31 H :    0.107539
  32 H :    0.117945
  33 H :    0.130727
  34 H :    0.122746
  35 H :    0.112391
  36 H :    0.115840
  37 H :    0.124174
  38 H :    0.118050
  39 H :    0.134785
  40 H :    0.129859

  Mayer bond orders larger than 0.100000
B(  0-C ,  1-C ) :   1.1606 B(  0-C , 19-H ) :   0.9506 B(  0-C , 20-H ) :   0.9509
B(  0-C , 21-H ) :   0.9421 B(  1-C ,  2-O ) :   0.9116 B(  1-C , 22-H ) :   0.9135
B(  1-C , 23-H ) :   0.9256 B(  2-O ,  3-P ) :   1.1173 B(  3-P ,  4-S ) :   1.6069
B(  3-P ,  5-O ) :   1.1081 B(  3-P ,  8-S ) :   0.9571 B(  4-S ,  8-S ) :   0.1125
B(  5-O ,  6-C ) :   0.9013 B(  6-C ,  7-C ) :   1.1628 B(  6-C , 24-H ) :   0.9030
B(  6-C , 25-H ) :   0.9347 B(  7-C , 26-H ) :   0.9396 B(  7-C , 27-H ) :   0.9400
B(  7-C , 28-H ) :   0.9445 B(  8-S ,  9-C ) :   0.9877 B(  9-C , 10-S ) :   1.0162
B(  9-C , 29-H ) :   0.9071 B(  9-C , 30-H ) :   0.8523 B( 10-S , 11-P ) :   0.9296
B( 10-S , 12-S ) :   0.1107 B( 11-P , 12-S ) :   1.6532 B( 11-P , 13-O ) :   1.0732
B( 11-P , 16-O ) :   1.1493 B( 13-O , 14-C ) :   0.9047 B( 14-C , 15-C ) :   1.1708
B( 14-C , 31-H ) :   0.9047 B( 14-C , 32-H ) :   0.9350 B( 15-C , 33-H ) :   0.9400
B( 15-C , 34-H ) :   0.9459 B( 15-C , 35-H ) :   0.9297 B( 16-O , 17-C ) :   0.8975
B( 17-C , 18-C ) :   1.1698 B( 17-C , 36-H ) :   0.9269 B( 17-C , 37-H ) :   0.9335
B( 18-C , 38-H ) :   0.9298 B( 18-C , 39-H ) :   0.9349 B( 18-C , 40-H ) :   0.9414

Dispersion correction           -0.065260455
FINAL SINGLE POINT ENERGY     -2929.514163076379

DIPOLE MOMENT
-------------

Method             : SCF
Type of density    : Electron Density
Multiplicity       :   1
Irrep              :   0
Energy             : -2929.6333324552360864 Eh
Relativity type    :
Basis              : AO
                                X                 Y                 Z
Electronic contribution:     -6.410372006       2.305076365      -9.571569850
Nuclear contribution   :      6.050611984      -2.952489172      10.595693448
                        -----------------------------------------
Total Dipole Moment    :     -0.359760023      -0.647412807       1.024123598
                        -----------------------------------------
Magnitude (a.u.)       :      1.263882811
Magnitude (Debye)      :      3.212534802

Rotational constants in cm-1:             0.014320             0.004497             0.004278
Rotational constants in MHz :           429.288213           134.811906           128.259869

                             ****ORCA TERMINATED NORMALLY****
TOTAL RUN TIME: 0 days 0 hours 0 minutes 20 seconds 663 msec
