                         Program Version 6.0.0  -   RELEASE  -
|  1> ! r2scan-3c def2/J RI DEFGRID2 scfconv6 printgap
|  2> %output
|  3>     printlevel normal
|  4> end
|  5> * xyz 0 1
|  6> C -3.0602658836 -0.3812010875 -0.0017871696
|  7> C -1.597233843 -0.0544583847 0.0026027149
|  8> C -1.1685541546 1.2689854007 0.0006175352
|  9> C 0.1783900296 1.5586852438 -0.0009863106
| 10> C 1.150450724 0.5586558428 -0.0009299446
| 11> C 0.732669031 -0.7708397751 -0.0005025623
| 12> C -0.6341531198 -1.0466983449 0.0013949264
| 13> C 1.6584648182 -1.9549583961 -0.0004610402
| 14> C 2.5853776822 1.0056397495 0.0009532007
| 15> H -3.5136527789 -0.0613449299 -0.9393329298
| 16> H -3.2199576533 -1.4499945726 0.1131500707
| 17> H -3.5681612971 0.1395107408 0.8081565464
| 18> H -1.8951887435 2.0688937171 0.001112334
| 19> H 0.4994022004 2.5912434645 -0.0016672822
| 20> H -0.9465177405 -2.0824740593 0.0027509503
| 21> H 1.4587896138 -2.5765006469 -0.8721738935
| 22> H 2.7053996906 -1.6746240039 -0.0157745435
| 23> H 1.4800498289 -2.559878307 0.8874622647
| 24> H 3.2868796618 0.1793469295 -0.0077864371
| 25> H 2.7779386235 1.6262317005 -0.8731814176
| 26> H 2.7804000755 1.6091495498 0.8865430771
| 27> *
| 28>
| 29>                          ****END OF INPUT****

CARTESIAN COORDINATES (ANGSTROEM)
---------------------------------
  C     -3.060266   -0.381201   -0.001787
  C     -1.597234   -0.054458    0.002603
  C     -1.168554    1.268985    0.000618
  C      0.178390    1.558685   -0.000986
  C      1.150451    0.558656   -0.000930
  C      0.732669   -0.770840   -0.000503
  C     -0.634153   -1.046698    0.001395
  C      1.658465   -1.954958   -0.000461
  C      2.585378    1.005640    0.000953
  H     -3.513653   -0.061345   -0.939333
  H     -3.219958   -1.449995    0.113150
  H     -3.568161    0.139511    0.808157
  H     -1.895189    2.068894    0.001112
  H      0.499402    2.591243   -0.001667
  H     -0.946518   -2.082474    0.002751
  H      1.458790   -2.576501   -0.872174
  H      2.705400   -1.674624   -0.015775
  H      1.480050   -2.559878    0.887462
  H      3.286880    0.179347   -0.007786
  H      2.777939    1.626232   -0.873181
  H      2.780400    1.609150    0.886543

 Total Charge           Charge          ....    0
 Multiplicity           Mult            ....    1
 Number of Electrons    NEL             ....   66
 Basis Dimension        Dim             ....  231

ORBITAL ENERGIES
----------------

  NO   OCC          E(Eh)            E(eV)
   0   2.0000     -10.035178      -273.0711
   1   2.0000     -10.033192      -273.0170
   2   2.0000     -10.032967      -273.0109
   3   2.0000     -10.023348      -272.7492
   4   2.0000     -10.022836      -272.7352
   5   2.0000     -10.022730      -272.7324
   6   2.0000     -10.022663      -272.7305
   7   2.0000     -10.020881      -272.6820
   8   2.0000     -10.019380      -272.6412
   9   2.0000      -0.826138       -22.4803
  10   2.0000      -0.755046       -20.5458
  11   2.0000      -0.730284       -19.8721
  12   2.0000      -0.685006       -18.6400
  13   2.0000      -0.652374       -17.7520
  14   2.0000      -0.615818       -16.7573
  15   2.0000      -0.562169       -15.2974
  16   2.0000      -0.524854       -14.2820
  17   2.0000      -0.451451       -12.2846
  18   2.0000      -0.446815       -12.1585
  19   2.0000      -0.406145       -11.0518
  20   2.0000      -0.400291       -10.8925
  21   2.0000      -0.384440       -10.4612
  22   2.0000      -0.376450       -10.2437
  23   2.0000      -0.375114       -10.2074
  24   2.0000      -0.369707       -10.0602
  25   2.0000      -0.359508        -9.7827
  26   2.0000      -0.347542        -9.4571
  27   2.0000      -0.338214        -9.2033
  28   2.0000      -0.307129        -8.3574
  29   2.0000      -0.297871        -8.1055
  30   2.0000      -0.294358        -8.0099
  31   2.0000      -0.220045        -5.9877
  32   2.0000      -0.207456        -5.6452
  33   0.0000      -0.025933        -0.7057
  34   0.0000      -0.014908        -0.4057
  35   0.0000       0.083153         2.2627
  36   0.0000       0.094894         2.5822
  37   0.0000       0.100413         2.7324

MULLIKEN ATOMIC CHARGES
-----------------------
   0 C :   -0.550879
   1 C :    0.247119
   2 C :   -0.226586
   3 C :   -0.196954
   4 C :    0.153072
   5 C :    0.134282
   6 C :   -0.280857
   7 C :   -0.553916
   8 C :   -0.542022
   9 H :    0.161969
  10 H :    0.149912
  11 H :    0.155591
  12 H :    0.143656
  13 H :    0.142843
  14 H :    0.142573
  15 H :    0.161808
  16 H :    0.136643
  17 H :    0.162890
  18 H :    0.135950
  19 H :    0.161020
  20 H :    0.161885
Sum of atomic charges:    0.0000000

LOEWDIN ATOMIC CHARGES
----------------------
   0 C :   -0.390962
   1 C :   -0.100783
   2 C :   -0.167438
   3 C :   -0.154689
   4 C :   -0.103206
   5 C :   -0.091152
   6 C :   -0.162575
   7 C :   -0.391076
   8 C :   -0.391376
   9 H :    0.163821
  10 H :    0.157890
  11 H :    0.162618
  12 H :    0.167531
  13 H :    0.167488
  14 H :    0.168163
  15 H :    0.164875
  16 H :    0.153735
  17 H :    0.165055
  18 H :    0.153483
  19 H :    0.164233
  20 H :    0.164366

  Mayer bond orders larger than 0.100000
B(  0-C ,  1-C ) :   0.7603 B(  0-C ,  9-H ) :   0.9756 B(  0-C , 10-H ) :   0.9974
B(  0-C , 11-H ) :   0.9816 B(  1-C ,  2-C ) :   1.3642 B(  1-C ,  6-C ) :   1.4684
B(  2-C ,  3-C ) :   1.4936 B(  2-C , 12-H ) :   0.9478 B(  3-C ,  4-C ) :   1.3465
B(  3-C , 13-H ) :   0.9394 B(  4-C ,  5-C ) :   1.5316 B(  4-C ,  8-C ) :   0.7896
B(  5-C ,  6-C ) :   1.3849 B(  5-C ,  7-C ) :   0.7884 B(  6-C , 14-H ) :   0.9293
B(  7-C , 15-H ) :   0.9804 B(  7-C , 16-H ) :   0.9883 B(  7-C , 17-H ) :   0.9796
B(  8-C , 18-H ) :   0.9888 B(  8-C , 19-H ) :   0.9797 B(  8-C , 20-H ) :   0.9795

Dispersion correction           -0.006911580
FINAL SINGLE POINT ENERGY      -350.081961906961

DIPOLE MOMENT
-------------

Method             : SCF
Type of density    : Electron Density
Multiplicity       :   1
Irrep              :   0
Energy             :  -350.0829006544233266 Eh
Relativity type    :
Basis              : AO
                                X                 Y                 Z
Electronic contribution:     -1.654108479       1.973402185       0.005636275
Nuclear contribution   :      1.731276100      -2.054999024      -0.010077096
                        -----------------------------------------
Total Dipole Moment    :      0.077167621      -0.081596838      -0.004440821
                        -----------------------------------------
Magnitude (a.u.)       :      0.112394869
Magnitude (Debye)      :      0.285685054

Rotational constants in cm-1:             0.095746             0.043920             0.030621
Rotational constants in MHz :          2870.390280          1316.679548           917.987152

                             ****ORCA TERMINATED NORMALLY****
TOTAL RUN TIME: 0 days 0 hours 0 minutes 42 seconds 856 msec
