                         Program Version 6.0.0  -   RELEASE  -
|  1> ! r2scan-3c def2/J RI DEFGRID2 scfconv6 printgap
|  2> %output
|  3>     printlevel normal
|  4> end
|  5> %cpcm
|  6>     smd true
|  7>     smdsolvent "water"
|  8> end
|  9> * xyz 0 1
| 10> C -3.0602658836 -0.3812010875 -0.0017871696
| 11> C -1.597233843 -0.0544583847 0.0026027149
| 12> C -1.1685541546 1.2689854007 0.0006175352
| 13> C 0.1783900296 1.5586852438 -0.0009863106
| 14> C 1.150450724 0.5586558428 -0.0009299446
| 15> C 0.732669031 -0.7708397751 -0.0005025623
| 16> C -0.6341531198 -1.0466983449 0.0013949264
| 17> C 1.6584648182 -1.9549583961 -0.0004610402
| 18> C 2.5853776822 1.0056397495 0.0009532007
| 19> H -3.5136527789 -0.0613449299 -0.9393329298
| 20> H -3.2199576533 -1.4499945726 0.1131500707
| 21> H -3.5681612971 0.1395107408 0.8081565464
| 22> H -1.8951887435 2.0688937171 0.001112334
| 23> H 0.4994022004 2.5912434645 -0.0016672822
| 24> H -0.9465177405 -2.0824740593 0.0027509503
| 25> H 1.4587896138 -2.5765006469 -0.8721738935
| 26> H 2.7053996906 -1.6746240039 -0.0157745435
| 27> H 1.4800498289 -2.559878307 0.8874622647
| 28> H 3.2868796618 0.1793469295 -0.0077864371
| 29> H 2.7779386235 1.6262317005 -0.8731814176
| 30> H 2.7804000755 1.6091495498 0.8865430771
| 31> *
| 32>
| 33>                          ****END OF INPUT****

CARTESIAN COORDINATES (ANGSTROEM)
---------------------------------
  C     -3.060266   -0.381201   -0.001787
  C     -1.597234   -0.054458    0.002603
  C     -1.168554    1.268985    0.000618
  C      0.178390    1.558685   -0.000986
  C      1.150451    0.558656   -0.000930
  C      0.732669   -0.770840   -0.000503
  C     -0.634153   -1.046698    0.001395
  C      1.658465   -1.954958   -0.000461
  C      2.585378    1.005640    0.000953
  H     -3.513653   -0.061345   -0.939333
  H     -3.219958   -1.449995    0.113150
  H     -3.568161    0.139511    0.808157
  H     -1.895189    2.068894    0.001112
  H      0.499402    2.591243   -0.001667
  H     -0.946518   -2.082474    0.002751
  H      1.458790   -2.576501   -0.872174
  H      2.705400   -1.674624   -0.015775
  H      1.480050   -2.559878    0.887462
  H      3.286880    0.179347   -0.007786
  H      2.777939    1.626232   -0.873181
  H      2.780400    1.609150    0.886543

 Total Charge           Charge          ....    0
 Multiplicity           Mult            ....    1
 Number of Electrons    NEL             ....   66
 Basis Dimension        Dim             ....  231

ORBITAL ENERGIES
----------------

  NO   OCC          E(Eh)            E(eV)
   0   2.0000     -10.036338      -273.1026
   1   2.0000     -10.034417      -273.0504
   2   2.0000     -10.034212      -273.0448
   3   2.0000     -10.023412      -272.7509
   4   2.0000     -10.021560      -272.7005
   5   2.0000     -10.019663      -272.6489
   6   2.0000     -10.016127      -272.5527
   7   2.0000     -10.015673      -272.5403
   8   2.0000     -10.015353      -272.5316
   9   2.0000      -0.828303       -22.5393
  10   2.0000      -0.753971       -20.5166
  11   2.0000      -0.729530       -19.8515
  12   2.0000      -0.681215       -18.5368
  13   2.0000      -0.649240       -17.6667
  14   2.0000      -0.612740       -16.6735
  15   2.0000      -0.561549       -15.2805
  16   2.0000      -0.523256       -14.2385
  17   2.0000      -0.449106       -12.2208
  18   2.0000      -0.444815       -12.1040
  19   2.0000      -0.402914       -10.9639
  20   2.0000      -0.397843       -10.8259
  21   2.0000      -0.379552       -10.3281
  22   2.0000      -0.370152       -10.0723
  23   2.0000      -0.369936       -10.0665
  24   2.0000      -0.365249        -9.9389
  25   2.0000      -0.357126        -9.7179
  26   2.0000      -0.340219        -9.2578
  27   2.0000      -0.332828        -9.0567
  28   2.0000      -0.308862        -8.4046
  29   2.0000      -0.295662        -8.0454
  30   2.0000      -0.291914        -7.9434
  31   2.0000      -0.224468        -6.1081
  32   2.0000      -0.210283        -5.7221
  33   0.0000      -0.029273        -0.7966
  34   0.0000      -0.017494        -0.4760
  35   0.0000       0.089689         2.4406
  36   0.0000       0.101575         2.7640
  37   0.0000       0.107034         2.9125

MULLIKEN ATOMIC CHARGES
-----------------------
   0 C :   -0.568764
   1 C :    0.198536
   2 C :   -0.256775
   3 C :   -0.233634
   4 C :    0.129739
   5 C :    0.101832
   6 C :   -0.296312
   7 C :   -0.569862
   8 C :   -0.558705
   9 H :    0.176480
  10 H :    0.169224
  11 H :    0.170878
  12 H :    0.172341
  13 H :    0.171300
  14 H :    0.171922
  15 H :    0.176136
  16 H :    0.159218
  17 H :    0.177113
  18 H :    0.158647
  19 H :    0.174958
  20 H :    0.175727
Sum of atomic charges:    0.0000000

LOEWDIN ATOMIC CHARGES
----------------------
   0 C :   -0.396115
   1 C :   -0.111931
   2 C :   -0.181967
   3 C :   -0.167439
   4 C :   -0.113487
   5 C :   -0.100439
   6 C :   -0.174184
   7 C :   -0.395538
   8 C :   -0.396087
   9 H :    0.169416
  10 H :    0.163863
  11 H :    0.168260
  12 H :    0.177442
  13 H :    0.177630
  14 H :    0.178943
  15 H :    0.170493
  16 H :    0.160698
  17 H :    0.170662
  18 H :    0.160451
  19 H :    0.169612
  20 H :    0.169718

  Mayer bond orders larger than 0.100000
B(  0-C ,  1-C ) :   0.7839 B(  0-C ,  9-H ) :   0.9686 B(  0-C , 10-H ) :   0.9917
B(  0-C , 11-H ) :   0.9744 B(  1-C ,  2-C ) :   1.3258 B(  1-C ,  6-C ) :   1.4367
B(  2-C ,  3-C ) :   1.4549 B(  2-C , 12-H ) :   0.9636 B(  3-C ,  4-C ) :   1.3212
B(  3-C , 13-H ) :   0.9578 B(  4-C ,  5-C ) :   1.4631 B(  4-C ,  8-C ) :   0.8085
B(  5-C ,  6-C ) :   1.3613 B(  5-C ,  7-C ) :   0.8125 B(  6-C , 14-H ) :   0.9479
B(  7-C , 15-H ) :   0.9719 B(  7-C , 16-H ) :   0.9847 B(  7-C , 17-H ) :   0.9711
B(  8-C , 18-H ) :   0.9855 B(  8-C , 19-H ) :   0.9718 B(  8-C , 20-H ) :   0.9716

Dispersion correction           -0.006911580
FINAL SINGLE POINT ENERGY      -350.082829012793

DIPOLE MOMENT
-------------

Method             : SCF
Type of density    : Electron Density
Multiplicity       :   1
Irrep              :   0
Energy             :  -350.0837677602555686 Eh
Relativity type    :
Basis              : AO
                                X                 Y                 Z
Electronic contribution:     -1.610775451       1.923478576       0.003636123
Nuclear contribution   :      1.731276100      -2.054999024      -0.010077096
                        -----------------------------------------
Total Dipole Moment    :      0.120500649      -0.131520448      -0.006440974
                        -----------------------------------------
Magnitude (a.u.)       :      0.178492355
Magnitude (Debye)      :      0.453691512

Rotational constants in cm-1:             0.095746             0.043920             0.030621
Rotational constants in MHz :          2870.390280          1316.679548           917.987152

                             ****ORCA TERMINATED NORMALLY****
TOTAL RUN TIME: 0 days 0 hours 0 minutes 49 seconds 17 msec
