                         Program Version 6.0.0  -   RELEASE  -
|  1> ! r2scan-3c def2/J RI DEFGRID2 scfconv6 printgap
|  2> %output
|  3>     printlevel normal
|  4> end
|  5> * xyz 0 1
|  6> C 3.2255202066 1.9546082093 2.5966900486
|  7> C 1.8178771325 1.4503274595 2.3604625236
|  8> O 1.6160891497 1.0592059964 0.9848869153
|  9> P 2.309424698 -0.2232629731 0.3631660953
| 10> S 2.6113004485 -1.7200044452 1.5977670785
| 11> O 3.6169153436 0.397273582 -0.2906381908
| 12> C 4.7278494729 -0.4155398434 -0.7067467938
| 13> C 4.3810479179 -1.293030576 -1.8921756393
| 14> S 1.0105352025 -0.5709432716 -1.2709066398
| 15> C -0.1777002435 -1.5849273289 -0.3473436073
| 16> S -1.2152322334 -0.6140780659 0.7669764642
| 17> P -2.4516242276 0.2467840814 -0.74949738
| 18> S -2.7863865383 -0.8804386425 -2.3127909534
| 19> O -1.7787877293 1.605882609 -1.1762386604
| 20> C -1.1286594961 2.5910007857 -0.3378108353
| 21> C -1.9398021891 2.9633591873 0.8842349657
| 22> O -3.7560000362 0.7198216423 0.0250414633
| 23> C -4.8961592375 -0.1374702157 0.2085795025
| 24> C -4.5946076629 -1.3142324033 1.1139918841
| 25> H 3.3069997353 2.3337853747 3.6104831433
| 26> H 3.937332054 1.1404856964 2.4655145443
| 27> H 3.4645918607 2.7466219605 1.8918685906
| 28> H 1.07327935 2.2303627653 2.5236721486
| 29> H 1.5991809216 0.5889794579 2.9992272315
| 30> H 5.5047473439 0.3088037503 -0.9547120734
| 31> H 5.0451941484 -1.0284345595 0.1431418214
| 32> H 3.6461035034 -2.0423108468 -1.5996833923
| 33> H 3.9649740429 -0.6937193454 -2.6983950744
| 34> H 5.2762672841 -1.7971068608 -2.2419819842
| 35> H 0.3619126206 -2.3070356301 0.2658703038
| 36> H -0.8078688503 -2.0782985927 -1.0883427629
| 37> H -0.1480684486 2.1984339467 -0.0559780056
| 38> H -1.0002617974 3.4403322214 -1.0109704085
| 39> H -2.0313304179 2.1088406614 1.5525138513
| 40> H -1.4391797513 3.7726056247 1.4075108945
| 41> H -2.9348165971 3.2874723064 0.590663543
| 42> H -5.648782805 0.5220265827 0.642819565
| 43> H -5.2280839322 -0.4856066604 -0.774522386
| 44> H -4.1569253282 -0.9730719161 2.0486837181
| 45> H -5.5148444325 -1.8508697093 1.3212593127
| 46> H -3.8962837815 -1.9915173744 0.6246548268
| 47> *
| 48>
| 49>                          ****END OF INPUT****

CARTESIAN COORDINATES (ANGSTROEM)
---------------------------------
  C      3.225520    1.954608    2.596690
  C      1.817877    1.450327    2.360463
  O      1.616089    1.059206    0.984887
  P      2.309425   -0.223263    0.363166
  S      2.611300   -1.720004    1.597767
  O      3.616915    0.397274   -0.290638
  C      4.727849   -0.415540   -0.706747
  C      4.381048   -1.293031   -1.892176
  S      1.010535   -0.570943   -1.270907
  C     -0.177700   -1.584927   -0.347344
  S     -1.215232   -0.614078    0.766976
  P     -2.451624    0.246784   -0.749497
  S     -2.786387   -0.880439   -2.312791
  O     -1.778788    1.605883   -1.176239
  C     -1.128659    2.591001   -0.337811
  C     -1.939802    2.963359    0.884235
  O     -3.756000    0.719822    0.025041
  C     -4.896159   -0.137470    0.208580
  C     -4.594608   -1.314232    1.113992
  H      3.307000    2.333785    3.610483
  H      3.937332    1.140486    2.465515
  H      3.464592    2.746622    1.891869
  H      1.073279    2.230363    2.523672
  H      1.599181    0.588979    2.999227
  H      5.504747    0.308804   -0.954712
  H      5.045194   -1.028435    0.143142
  H      3.646104   -2.042311   -1.599683
  H      3.964974   -0.693719   -2.698395
  H      5.276267   -1.797107   -2.241982
  H      0.361913   -2.307036    0.265870
  H     -0.807869   -2.078299   -1.088343
  H     -0.148068    2.198434   -0.055978
  H     -1.000262    3.440332   -1.010970
  H     -2.031330    2.108841    1.552514
  H     -1.439180    3.772606    1.407511
  H     -2.934817    3.287472    0.590664
  H     -5.648783    0.522027    0.642820
  H     -5.228084   -0.485607   -0.774522
  H     -4.156925   -0.973072    2.048684
  H     -5.514844   -1.850870    1.321259
  H     -3.896284   -1.991517    0.624655

 Total Charge           Charge          ....    0
 Multiplicity           Mult            ....    1
 Number of Electrons    NEL             ....  202
 Basis Dimension        Dim             ....  539

ORBITAL ENERGIES
----------------

  NO   OCC          E(Eh)            E(eV)
   0   2.0000     -88.576083     -2410.2778
   1   2.0000     -88.573736     -2410.2139
   2   2.0000     -88.526468     -2408.9277
   3   2.0000     -88.516323     -2408.6516
   4   2.0000     -76.917722     -2093.0376
   5   2.0000     -76.912808     -2092.9039
   6   2.0000     -18.997988      -516.9615
   7   2.0000     -18.995036      -516.8812
   8   2.0000     -18.992301      -516.8068
   9   2.0000     -18.986615      -516.6521
  10   2.0000     -10.102905      -274.9140
  11   2.0000     -10.102458      -274.9018
  12   2.0000     -10.102085      -274.8917
  13   2.0000     -10.098175      -274.7853
  14   2.0000     -10.097056      -274.7549
  15   2.0000     -10.033907      -273.0365
  16   2.0000     -10.032762      -273.0053
  17   2.0000     -10.030702      -272.9493
  18   2.0000     -10.027556      -272.8637
  19   2.0000      -7.870198      -214.1590
  20   2.0000      -7.868092      -214.1017
  21   2.0000      -7.821223      -212.8263
  22   2.0000      -7.811231      -212.5544
  23   2.0000      -6.596419      -179.4977
  24   2.0000      -6.591062      -179.3519
  25   2.0000      -5.817047      -158.2899
  26   2.0000      -5.814886      -158.2311
  27   2.0000      -5.814140      -158.2108
  28   2.0000      -5.811962      -158.1515
  29   2.0000      -5.807301      -158.0247
  30   2.0000      -5.805282      -157.9697
  31   2.0000      -5.768754      -156.9758
  32   2.0000      -5.761540      -156.7795
  33   2.0000      -5.761306      -156.7731
  34   2.0000      -5.758887      -156.7073
  35   2.0000      -5.751485      -156.5059
  36   2.0000      -5.751220      -156.4986
  37   2.0000      -4.741832      -129.0318
  38   2.0000      -4.741285      -129.0169
  39   2.0000      -4.740250      -128.9888
  40   2.0000      -4.736782      -128.8944
  41   2.0000      -4.736056      -128.8746
  42   2.0000      -4.734573      -128.8343
  43   2.0000      -1.055177       -28.7128
  44   2.0000      -1.047830       -28.5129
  45   2.0000      -1.016750       -27.6672
  46   2.0000      -1.008411       -27.4403
  47   2.0000      -0.801731       -21.8162
  48   2.0000      -0.759545       -20.6683
  49   2.0000      -0.750538       -20.4232
  50   2.0000      -0.735526       -20.0147
  51   2.0000      -0.733802       -19.9678
  52   2.0000      -0.714443       -19.4410
  53   2.0000      -0.687976       -18.7208
  54   2.0000      -0.669005       -18.2046
  55   2.0000      -0.637114       -17.3367
  56   2.0000      -0.627196       -17.0669
  57   2.0000      -0.610057       -16.6005
  58   2.0000      -0.608456       -16.5569
  59   2.0000      -0.590254       -16.0616
  60   2.0000      -0.524699       -14.2778
  61   2.0000      -0.514192       -13.9919
  62   2.0000      -0.497482       -13.5372
  63   2.0000      -0.488343       -13.2885
  64   2.0000      -0.479309       -13.0427
  65   2.0000      -0.463534       -12.6134
  66   2.0000      -0.461670       -12.5627
  67   2.0000      -0.459689       -12.5088
  68   2.0000      -0.448018       -12.1912
  69   2.0000      -0.439531       -11.9602
  70   2.0000      -0.426701       -11.6111
  71   2.0000      -0.416922       -11.3450
  72   2.0000      -0.414433       -11.2773
  73   2.0000      -0.408069       -11.1041
  74   2.0000      -0.394959       -10.7474
  75   2.0000      -0.390351       -10.6220
  76   2.0000      -0.383029       -10.4227
  77   2.0000      -0.378978       -10.3125
  78   2.0000      -0.374828       -10.1996
  79   2.0000      -0.367514       -10.0006
  80   2.0000      -0.366143        -9.9632
  81   2.0000      -0.363103        -9.8805
  82   2.0000      -0.358957        -9.7677
  83   2.0000      -0.355593        -9.6762
  84   2.0000      -0.349712        -9.5162
  85   2.0000      -0.335238        -9.1223
  86   2.0000      -0.324199        -8.8219
  87   2.0000      -0.313396        -8.5279
  88   2.0000      -0.308177        -8.3859
  89   2.0000      -0.306090        -8.3291
  90   2.0000      -0.303672        -8.2633
  91   2.0000      -0.293701        -7.9920
  92   2.0000      -0.284797        -7.7497
  93   2.0000      -0.279356        -7.6017
  94   2.0000      -0.274745        -7.4762
  95   2.0000      -0.247531        -6.7357
  96   2.0000      -0.230755        -6.2792
  97   2.0000      -0.229082        -6.2336
  98   2.0000      -0.219367        -5.9693
  99   2.0000      -0.215295        -5.8585
 100   2.0000      -0.212841        -5.7917
 101   0.0000      -0.046177        -1.2565
 102   0.0000      -0.026948        -0.7333
 103   0.0000      -0.003606        -0.0981
 104   0.0000       0.000401         0.0109
 105   0.0000       0.015341         0.4174

MULLIKEN ATOMIC CHARGES
-----------------------
   0 C :   -0.440087
   1 C :   -0.154151
   2 O :   -0.273674
   3 P :    0.679381
   4 S :   -0.486744
   5 O :   -0.309775
   6 C :   -0.149262
   7 C :   -0.452789
   8 S :   -0.099342
   9 C :   -0.250646
  10 S :   -0.159632
  11 P :    0.657587
  12 S :   -0.464016
  13 O :   -0.257125
  14 C :   -0.151025
  15 C :   -0.455082
  16 O :   -0.268433
  17 C :   -0.169668
  18 C :   -0.441993
  19 H :    0.148135
  20 H :    0.167315
  21 H :    0.156100
  22 H :    0.149722
  23 H :    0.175549
  24 H :    0.149154
  25 H :    0.170354
  26 H :    0.177839
  27 H :    0.158243
  28 H :    0.148767
  29 H :    0.214509
  30 H :    0.221147
  31 H :    0.185511
  32 H :    0.150462
  33 H :    0.161148
  34 H :    0.148236
  35 H :    0.162663
  36 H :    0.147892
  37 H :    0.175787
  38 H :    0.152439
  39 H :    0.147346
  40 H :    0.178160
Sum of atomic charges:    0.0000000

LOEWDIN ATOMIC CHARGES
----------------------
   0 C :   -0.397896
   1 C :    0.018151
   2 O :   -0.697397
   3 P :    0.378778
   4 S :   -0.134175
   5 O :   -0.660004
   6 C :    0.020508
   7 C :   -0.405820
   8 S :    0.179784
   9 C :   -0.426134
  10 S :    0.145201
  11 P :    0.387098
  12 S :   -0.110704
  13 O :   -0.650435
  14 C :    0.024435
  15 C :   -0.403981
  16 O :   -0.670914
  17 C :    0.021207
  18 C :   -0.408504
  19 H :    0.159943
  20 H :    0.165152
  21 H :    0.161182
  22 H :    0.178804
  23 H :    0.182049
  24 H :    0.180024
  25 H :    0.179327
  26 H :    0.166236
  27 H :    0.161391
  28 H :    0.160010
  29 H :    0.192228
  30 H :    0.194601
  31 H :    0.196448
  32 H :    0.182178
  33 H :    0.162562
  34 H :    0.158701
  35 H :    0.165369
  36 H :    0.179026
  37 H :    0.181091
  38 H :    0.159230
  39 H :    0.159123
  40 H :    0.166124

  Mayer bond orders larger than 0.100000
B(  0-C ,  1-C ) :   0.9256 B(  0-C , 19-H ) :   0.9621 B(  0-C , 20-H ) :   0.9586
B(  0-C , 21-H ) :   0.9722 B(  1-C ,  2-O ) :   0.7890 B(  1-C , 22-H ) :   0.9628
B(  1-C , 23-H ) :   0.9610 B(  2-O ,  3-P ) :   1.1284 B(  3-P ,  4-S ) :   1.7414
B(  3-P ,  5-O ) :   1.0712 B(  3-P ,  8-S ) :   1.1052 B(  5-O ,  6-C ) :   0.8114
B(  6-C ,  7-C ) :   0.9241 B(  6-C , 24-H ) :   0.9576 B(  6-C , 25-H ) :   0.9658
B(  7-C , 26-H ) :   0.9611 B(  7-C , 27-H ) :   0.9682 B(  7-C , 28-H ) :   0.9582
B(  8-S ,  9-C ) :   0.9132 B(  9-C , 10-S ) :   0.9076 B(  9-C , 29-H ) :   0.9042
B(  9-C , 30-H ) :   0.9003 B( 10-S , 11-P ) :   0.9982 B( 11-P , 12-S ) :   1.8040
B( 11-P , 13-O ) :   1.1846 B( 11-P , 16-O ) :   1.0408 B( 13-O , 14-C ) :   0.8140
B( 14-C , 15-C ) :   0.9011 B( 14-C , 31-H ) :   0.9503 B( 14-C , 32-H ) :   0.9609
B( 15-C , 33-H ) :   0.9658 B( 15-C , 34-H ) :   0.9593 B( 15-C , 35-H ) :   0.9657
B( 16-O , 17-C ) :   0.8099 B( 17-C , 18-C ) :   0.9133 B( 17-C , 36-H ) :   0.9617
B( 17-C , 37-H ) :   0.9681 B( 18-C , 38-H ) :   0.9685 B( 18-C , 39-H ) :   0.9571
B( 18-C , 40-H ) :   0.9637

Dispersion correction           -0.021791126
FINAL SINGLE POINT ENERGY     -2932.462203899103

DIPOLE MOMENT
-------------

Method             : SCF
Type of density    : Electron Density
Multiplicity       :   1
Irrep              :   0
Energy             : -2932.4870751228013432 Eh
Relativity type    :
Basis              : AO
                                X                 Y                 Z
Electronic contribution:     -3.751315838      -7.914197928     -10.239533759
Nuclear contribution   :      4.237271982       8.992268175      11.315883644
                        -----------------------------------------
Total Dipole Moment    :      0.485956145       1.078070247       1.076349885
                        -----------------------------------------
Magnitude (a.u.)       :      1.599036556
Magnitude (Debye)      :      4.064427920

Rotational constants in cm-1:             0.013222             0.004803             0.004404
Rotational constants in MHz :           396.394428           143.982464           132.030123

                             ****ORCA TERMINATED NORMALLY****
TOTAL RUN TIME: 0 days 0 hours 1 minutes 19 seconds 512 msec
