                         Program Version 6.0.0  -   RELEASE  -
|  1> ! r2scan-3c def2/J RI DEFGRID2 scfconv6 printgap
|  2> %output
|  3>     printlevel normal
|  4> end
|  5> %cpcm
|  6>     smd true
|  7>     smdsolvent "water"
|  8> end
|  9> * xyz 0 1
| 10> C 3.2255202066 1.9546082093 2.5966900486
| 11> C 1.8178771325 1.4503274595 2.3604625236
| 12> O 1.6160891497 1.0592059964 0.9848869153
| 13> P 2.309424698 -0.2232629731 0.3631660953
| 14> S 2.6113004485 -1.7200044452 1.5977670785
| 15> O 3.6169153436 0.397273582 -0.2906381908
| 16> C 4.7278494729 -0.4155398434 -0.7067467938
| 17> C 4.3810479179 -1.293030576 -1.8921756393
| 18> S 1.0105352025 -0.5709432716 -1.2709066398
| 19> C -0.1777002435 -1.5849273289 -0.3473436073
| 20> S -1.2152322334 -0.6140780659 0.7669764642
| 21> P -2.4516242276 0.2467840814 -0.74949738
| 22> S -2.7863865383 -0.8804386425 -2.3127909534
| 23> O -1.7787877293 1.605882609 -1.1762386604
| 24> C -1.1286594961 2.5910007857 -0.3378108353
| 25> C -1.9398021891 2.9633591873 0.8842349657
| 26> O -3.7560000362 0.7198216423 0.0250414633
| 27> C -4.8961592375 -0.1374702157 0.2085795025
| 28> C -4.5946076629 -1.3142324033 1.1139918841
| 29> H 3.3069997353 2.3337853747 3.6104831433
| 30> H 3.937332054 1.1404856964 2.4655145443
| 31> H 3.4645918607 2.7466219605 1.8918685906
| 32> H 1.07327935 2.2303627653 2.5236721486
| 33> H 1.5991809216 0.5889794579 2.9992272315
| 34> H 5.5047473439 0.3088037503 -0.9547120734
| 35> H 5.0451941484 -1.0284345595 0.1431418214
| 36> H 3.6461035034 -2.0423108468 -1.5996833923
| 37> H 3.9649740429 -0.6937193454 -2.6983950744
| 38> H 5.2762672841 -1.7971068608 -2.2419819842
| 39> H 0.3619126206 -2.3070356301 0.2658703038
| 40> H -0.8078688503 -2.0782985927 -1.0883427629
| 41> H -0.1480684486 2.1984339467 -0.0559780056
| 42> H -1.0002617974 3.4403322214 -1.0109704085
| 43> H -2.0313304179 2.1088406614 1.5525138513
| 44> H -1.4391797513 3.7726056247 1.4075108945
| 45> H -2.9348165971 3.2874723064 0.590663543
| 46> H -5.648782805 0.5220265827 0.642819565
| 47> H -5.2280839322 -0.4856066604 -0.774522386
| 48> H -4.1569253282 -0.9730719161 2.0486837181
| 49> H -5.5148444325 -1.8508697093 1.3212593127
| 50> H -3.8962837815 -1.9915173744 0.6246548268
| 51> *
| 52>
| 53>                          ****END OF INPUT****

CARTESIAN COORDINATES (ANGSTROEM)
---------------------------------
  C      3.225520    1.954608    2.596690
  C      1.817877    1.450327    2.360463
  O      1.616089    1.059206    0.984887
  P      2.309425   -0.223263    0.363166
  S      2.611300   -1.720004    1.597767
  O      3.616915    0.397274   -0.290638
  C      4.727849   -0.415540   -0.706747
  C      4.381048   -1.293031   -1.892176
  S      1.010535   -0.570943   -1.270907
  C     -0.177700   -1.584927   -0.347344
  S     -1.215232   -0.614078    0.766976
  P     -2.451624    0.246784   -0.749497
  S     -2.786387   -0.880439   -2.312791
  O     -1.778788    1.605883   -1.176239
  C     -1.128659    2.591001   -0.337811
  C     -1.939802    2.963359    0.884235
  O     -3.756000    0.719822    0.025041
  C     -4.896159   -0.137470    0.208580
  C     -4.594608   -1.314232    1.113992
  H      3.307000    2.333785    3.610483
  H      3.937332    1.140486    2.465515
  H      3.464592    2.746622    1.891869
  H      1.073279    2.230363    2.523672
  H      1.599181    0.588979    2.999227
  H      5.504747    0.308804   -0.954712
  H      5.045194   -1.028435    0.143142
  H      3.646104   -2.042311   -1.599683
  H      3.964974   -0.693719   -2.698395
  H      5.276267   -1.797107   -2.241982
  H      0.361913   -2.307036    0.265870
  H     -0.807869   -2.078299   -1.088343
  H     -0.148068    2.198434   -0.055978
  H     -1.000262    3.440332   -1.010970
  H     -2.031330    2.108841    1.552514
  H     -1.439180    3.772606    1.407511
  H     -2.934817    3.287472    0.590664
  H     -5.648783    0.522027    0.642820
  H     -5.228084   -0.485607   -0.774522
  H     -4.156925   -0.973072    2.048684
  H     -5.514844   -1.850870    1.321259
  H     -3.896284   -1.991517    0.624655

 Total Charge           Charge          ....    0
 Multiplicity           Mult            ....    1
 Number of Electrons    NEL             ....  202
 Basis Dimension        Dim             ....  539

ORBITAL ENERGIES
----------------

  NO   OCC          E(Eh)            E(eV)
   0   2.0000     -88.579659     -2410.3751
   1   2.0000     -88.577710     -2410.3220
   2   2.0000     -88.530382     -2409.0342
   3   2.0000     -88.528370     -2408.9794
   4   2.0000     -76.920769     -2093.1205
   5   2.0000     -76.919760     -2093.0931
   6   2.0000     -18.997431      -516.9464
   7   2.0000     -18.995624      -516.8972
   8   2.0000     -18.993490      -516.8391
   9   2.0000     -18.992774      -516.8197
  10   2.0000     -10.103111      -274.9196
  11   2.0000     -10.090535      -274.5774
  12   2.0000     -10.090150      -274.5669
  13   2.0000     -10.090069      -274.5647
  14   2.0000     -10.089423      -274.5472
  15   2.0000     -10.020320      -272.6668
  16   2.0000     -10.019087      -272.6332
  17   2.0000     -10.018918      -272.6286
  18   2.0000     -10.018128      -272.6071
  19   2.0000      -7.873903      -214.2598
  20   2.0000      -7.872012      -214.2083
  21   2.0000      -7.825406      -212.9401
  22   2.0000      -7.823638      -212.8920
  23   2.0000      -6.599090      -179.5704
  24   2.0000      -6.598471      -179.5535
  25   2.0000      -5.820708      -158.3895
  26   2.0000      -5.818849      -158.3389
  27   2.0000      -5.817836      -158.3114
  28   2.0000      -5.815902      -158.2588
  29   2.0000      -5.811055      -158.1268
  30   2.0000      -5.809149      -158.0750
  31   2.0000      -5.772894      -157.0884
  32   2.0000      -5.771175      -157.0417
  33   2.0000      -5.765717      -156.8931
  34   2.0000      -5.765490      -156.8870
  35   2.0000      -5.763907      -156.8439
  36   2.0000      -5.763662      -156.8372
  37   2.0000      -4.744774      -129.1119
  38   2.0000      -4.744026      -129.0915
  39   2.0000      -4.743805      -129.0855
  40   2.0000      -4.743336      -129.0727
  41   2.0000      -4.742726      -129.0561
  42   2.0000      -4.742415      -129.0477
  43   2.0000      -1.053486       -28.6668
  44   2.0000      -1.052447       -28.6386
  45   2.0000      -1.014138       -27.5961
  46   2.0000      -1.012782       -27.5592
  47   2.0000      -0.804263       -21.8851
  48   2.0000      -0.755922       -20.5697
  49   2.0000      -0.744572       -20.2608
  50   2.0000      -0.726176       -19.7603
  51   2.0000      -0.724094       -19.7036
  52   2.0000      -0.712483       -19.3877
  53   2.0000      -0.690335       -18.7850
  54   2.0000      -0.674676       -18.3589
  55   2.0000      -0.634326       -17.2609
  56   2.0000      -0.625018       -17.0076
  57   2.0000      -0.603550       -16.4234
  58   2.0000      -0.599825       -16.3221
  59   2.0000      -0.589340       -16.0368
  60   2.0000      -0.519399       -14.1336
  61   2.0000      -0.510749       -13.8982
  62   2.0000      -0.491627       -13.3778
  63   2.0000      -0.485886       -13.2216
  64   2.0000      -0.477862       -13.0033
  65   2.0000      -0.459025       -12.4907
  66   2.0000      -0.456283       -12.4161
  67   2.0000      -0.455051       -12.3826
  68   2.0000      -0.442875       -12.0513
  69   2.0000      -0.435636       -11.8543
  70   2.0000      -0.422509       -11.4971
  71   2.0000      -0.411339       -11.1931
  72   2.0000      -0.407118       -11.0783
  73   2.0000      -0.404193       -10.9987
  74   2.0000      -0.393694       -10.7130
  75   2.0000      -0.390562       -10.6277
  76   2.0000      -0.382077       -10.3968
  77   2.0000      -0.375691       -10.2231
  78   2.0000      -0.366052        -9.9608
  79   2.0000      -0.359464        -9.7815
  80   2.0000      -0.356635        -9.7045
  81   2.0000      -0.352945        -9.6041
  82   2.0000      -0.351645        -9.5687
  83   2.0000      -0.348161        -9.4739
  84   2.0000      -0.344730        -9.3806
  85   2.0000      -0.330992        -9.0067
  86   2.0000      -0.319096        -8.6830
  87   2.0000      -0.307820        -8.3762
  88   2.0000      -0.305540        -8.3142
  89   2.0000      -0.303837        -8.2678
  90   2.0000      -0.298636        -8.1263
  91   2.0000      -0.289512        -7.8780
  92   2.0000      -0.283867        -7.7244
  93   2.0000      -0.278797        -7.5864
  94   2.0000      -0.277574        -7.5532
  95   2.0000      -0.250762        -6.8236
  96   2.0000      -0.237128        -6.4526
  97   2.0000      -0.235274        -6.4021
  98   2.0000      -0.227244        -6.1836
  99   2.0000      -0.225731        -6.1425
 100   2.0000      -0.220991        -6.0135
 101   0.0000      -0.051583        -1.4036
 102   0.0000      -0.033197        -0.9033
 103   0.0000      -0.006769        -0.1842
 104   0.0000      -0.003813        -0.1038
 105   0.0000       0.014910         0.4057

MULLIKEN ATOMIC CHARGES
-----------------------
   0 C :   -0.483966
   1 C :   -0.148508
   2 O :   -0.293688
   3 P :    0.719688
   4 S :   -0.529690
   5 O :   -0.333426
   6 C :   -0.150750
   7 C :   -0.488883
   8 S :   -0.126186
   9 C :   -0.256274
  10 S :   -0.153324
  11 P :    0.670438
  12 S :   -0.519359
  13 O :   -0.294223
  14 C :   -0.146428
  15 C :   -0.482383
  16 O :   -0.288695
  17 C :   -0.161841
  18 C :   -0.480394
  19 H :    0.172318
  20 H :    0.167916
  21 H :    0.170026
  22 H :    0.179982
  23 H :    0.177444
  24 H :    0.176307
  25 H :    0.178111
  26 H :    0.172732
  27 H :    0.170142
  28 H :    0.173428
  29 H :    0.234183
  30 H :    0.233859
  31 H :    0.185281
  32 H :    0.175213
  33 H :    0.165509
  34 H :    0.176760
  35 H :    0.170343
  36 H :    0.175997
  37 H :    0.178722
  38 H :    0.168506
  39 H :    0.172032
  40 H :    0.173085
Sum of atomic charges:    0.0000000

LOEWDIN ATOMIC CHARGES
----------------------
   0 C :   -0.401567
   1 C :    0.023836
   2 O :   -0.702587
   3 P :    0.384712
   4 S :   -0.159648
   5 O :   -0.670309
   6 C :    0.026120
   7 C :   -0.409596
   8 S :    0.163106
   9 C :   -0.421522
  10 S :    0.152686
  11 P :    0.388953
  12 S :   -0.153064
  13 O :   -0.674402
  14 C :    0.029717
  15 C :   -0.402849
  16 O :   -0.678046
  17 C :    0.026790
  18 C :   -0.411168
  19 H :    0.168932
  20 H :    0.162720
  21 H :    0.164468
  22 H :    0.191117
  23 H :    0.182409
  24 H :    0.191475
  25 H :    0.181864
  26 H :    0.161714
  27 H :    0.163801
  28 H :    0.168870
  29 H :    0.197931
  30 H :    0.198120
  31 H :    0.197088
  32 H :    0.192289
  33 H :    0.162962
  34 H :    0.170652
  35 H :    0.166374
  36 H :    0.191128
  37 H :    0.181659
  38 H :    0.163506
  39 H :    0.168101
  40 H :    0.161659

  Mayer bond orders larger than 0.100000
B(  0-C ,  1-C ) :   0.9143 B(  0-C , 19-H ) :   0.9561 B(  0-C , 20-H ) :   0.9584
B(  0-C , 21-H ) :   0.9715 B(  1-C ,  2-O ) :   0.7770 B(  1-C , 22-H ) :   0.9519
B(  1-C , 23-H ) :   0.9579 B(  2-O ,  3-P ) :   1.1430 B(  3-P ,  4-S ) :   1.7047
B(  3-P ,  5-O ) :   1.0800 B(  3-P ,  8-S ) :   1.1065 B(  5-O ,  6-C ) :   0.7999
B(  6-C ,  7-C ) :   0.9097 B(  6-C , 24-H ) :   0.9481 B(  6-C , 25-H ) :   0.9649
B(  7-C , 26-H ) :   0.9628 B(  7-C , 27-H ) :   0.9658 B(  7-C , 28-H ) :   0.9529
B(  8-S ,  9-C ) :   0.9007 B(  9-C , 10-S ) :   0.8970 B(  9-C , 29-H ) :   0.9008
B(  9-C , 30-H ) :   0.8977 B( 10-S , 11-P ) :   1.0145 B( 11-P , 12-S ) :   1.7838
B( 11-P , 13-O ) :   1.1858 B( 11-P , 16-O ) :   1.0513 B( 13-O , 14-C ) :   0.8044
B( 14-C , 15-C ) :   0.8998 B( 14-C , 31-H ) :   0.9432 B( 14-C , 32-H ) :   0.9500
B( 15-C , 33-H ) :   0.9616 B( 15-C , 34-H ) :   0.9502 B( 15-C , 35-H ) :   0.9664
B( 16-O , 17-C ) :   0.7982 B( 17-C , 18-C ) :   0.9029 B( 17-C , 36-H ) :   0.9506
B( 17-C , 37-H ) :   0.9664 B( 18-C , 38-H ) :   0.9657 B( 18-C , 39-H ) :   0.9520
B( 18-C , 40-H ) :   0.9650

Dispersion correction           -0.021791126
FINAL SINGLE POINT ENERGY     -2932.470751210275

DIPOLE MOMENT
-------------

Method             : SCF
Type of density    : Electron Density
Multiplicity       :   1
Irrep              :   0
Energy             : -2932.4956224339734945 Eh
Relativity type    :
Basis              : AO
                                X                 Y                 Z
Electronic contribution:     -3.625510243      -7.567378866      -9.647439518
Nuclear contribution   :      4.237271982       8.992268175      11.315883644
                        -----------------------------------------
Total Dipole Moment    :      0.611761739       1.424889309       1.668444126
                        -----------------------------------------
Magnitude (a.u.)       :      2.277776936
Magnitude (Debye)      :      5.789648860

Rotational constants in cm-1:             0.013222             0.004803             0.004404
Rotational constants in MHz :           396.394428           143.982464           132.030123

                             ****ORCA TERMINATED NORMALLY****
TOTAL RUN TIME: 0 days 0 hours 1 minutes 49 seconds 249 msec
