                         Program Version 6.0.0  -   RELEASE  -
|  1> ! wb97x-v def2-tzvp def2/J RIJCOSX DEFGRID2 scfconv7 GCP(DFT/TZ) printgap
|  2> %output
|  3>     printlevel normal
|  4> end
|  5> * xyz 0 1
|  6> C -1.7163088865183178 -0.38222176974645894 -4.37833558500202e-05
|  7> C -0.6337281653738006 0.6649864082270337 3.0509570071182597e-05
|  8> Cl 1.0404950162373354 -0.11749398374943774 3.0596936133267383e-05
|  9> H -2.6858056602718516 0.12981436245967512 -4.203293571482806e-05
| 10> H -1.6639977237494217 -1.0137126065932351 -0.8906489902295158
| 11> H -1.6640397482814637 -1.0137979432052433 0.8905036514116734
| 12> H -0.659682896055982 1.2921079880431439 0.8921096809576028
| 13> H -0.6596429656769957 1.2921941747310113 -0.8919893753216023
| 14> *
| 15>
| 16>                          ****END OF INPUT****

CARTESIAN COORDINATES (ANGSTROEM)
---------------------------------
  C     -1.716309   -0.382222   -0.000044
  C     -0.633728    0.664986    0.000031
  Cl     1.040495   -0.117494    0.000031
  H     -2.685806    0.129814   -0.000042
  H     -1.663998   -1.013713   -0.890649
  H     -1.664040   -1.013798    0.890504
  H     -0.659683    1.292108    0.892110
  H     -0.659643    1.292194   -0.891989

 Total Charge           Charge          ....    0
 Multiplicity           Mult            ....    1
 Number of Electrons    NEL             ....   34
 Basis Dimension        Dim             ....  129

ORBITAL ENERGIES
----------------

  NO   OCC          E(Eh)            E(eV)
   0   2.0000    -107.122754     -2914.9583
   1   2.0000     -12.113871      -329.6352
   2   2.0000     -12.055026      -328.0339
   3   2.0000     -11.275868      -306.8320
   4   2.0000      -9.067222      -246.7316
   5   2.0000      -9.064653      -246.6617
   6   2.0000      -9.064563      -246.6593
   7   2.0000      -1.385404       -37.6988
   8   2.0000      -1.264864       -34.4187
   9   2.0000      -1.106536       -30.1104
  10   2.0000      -0.907659       -24.6987
  11   2.0000      -0.891153       -24.2495
  12   2.0000      -0.867793       -23.6138
  13   2.0000      -0.809396       -22.0248
  14   2.0000      -0.809134       -22.0177
  15   2.0000      -0.762913       -20.7599
  16   2.0000      -0.756280       -20.5794
  17   0.0000      -0.260309        -7.0834
  18   0.0000      -0.016080        -0.4376
  19   0.0000      -0.013014        -0.3541
  20   0.0000       0.014439         0.3929
  21   0.0000       0.040089         1.0909

MULLIKEN ATOMIC CHARGES
-----------------------
   0 C :   -0.317411
   1 C :   -0.104305
   2 Cl:   -0.182574
   3 H :    0.110203
   4 H :    0.121767
   5 H :    0.121767
   6 H :    0.125277
   7 H :    0.125276
Sum of atomic charges:   -0.0000000

LOEWDIN ATOMIC CHARGES
----------------------
   0 C :   -0.334380
   1 C :   -0.466801
   2 Cl:    0.194510
   3 H :    0.124676
   4 H :    0.121530
   5 H :    0.121529
   6 H :    0.119468
   7 H :    0.119468

  Mayer bond orders larger than 0.100000
B(  0-C ,  1-C ) :   1.0066 B(  0-C ,  3-H ) :   0.9610 B(  0-C ,  4-H ) :   0.9729
B(  0-C ,  5-H ) :   0.9729 B(  1-C ,  2-Cl) :   1.0483 B(  1-C ,  6-H ) :   0.9702
B(  1-C ,  7-H ) :   0.9702

FINAL SINGLE POINT ENERGY      -539.370659805621

DIPOLE MOMENT
-------------

Method             : SCF
Type of density    : Electron Density
Multiplicity       :   1
Irrep              :   0
Energy             :  -539.3758578793208471 Eh
Relativity type    :
Basis              : AO
                                X                 Y                 Z
Electronic contribution:      7.489306243      -0.498646048       0.000144538
Nuclear contribution   :     -8.342314232       0.805862258      -0.000148508
                        -----------------------------------------
Total Dipole Moment    :     -0.853007989       0.307216211      -0.000003970
                        -----------------------------------------
Magnitude (a.u.)       :      0.906644599
Magnitude (Debye)      :      2.304507429

Rotational constants in cm-1:             1.039760             0.176526             0.160087
Rotational constants in MHz :         31171.228548          5292.121971          4799.278507

                             ****ORCA TERMINATED NORMALLY****
TOTAL RUN TIME: 0 days 0 hours 0 minutes 31 seconds 936 msec
