                         Program Version 6.0.0  -   RELEASE  -
|  1> ! wb97x-v def2-tzvp def2/J RIJCOSX DEFGRID2 scfconv7 GCP(DFT/TZ) printgap
|  2> %output
|  3>     printlevel normal
|  4> end
|  5> %cpcm
|  6>     smd true
|  7>     smdsolvent "water"
|  8> end
|  9> * xyz 0 1
| 10> C -1.7163088865183178 -0.38222176974645894 -4.37833558500202e-05
| 11> C -0.6337281653738006 0.6649864082270337 3.0509570071182597e-05
| 12> Cl 1.0404950162373354 -0.11749398374943774 3.0596936133267383e-05
| 13> H -2.6858056602718516 0.12981436245967512 -4.203293571482806e-05
| 14> H -1.6639977237494217 -1.0137126065932351 -0.8906489902295158
| 15> H -1.6640397482814637 -1.0137979432052433 0.8905036514116734
| 16> H -0.659682896055982 1.2921079880431439 0.8921096809576028
| 17> H -0.6596429656769957 1.2921941747310113 -0.8919893753216023
| 18> *
| 19>
| 20>                          ****END OF INPUT****

CARTESIAN COORDINATES (ANGSTROEM)
---------------------------------
  C     -1.716309   -0.382222   -0.000044
  C     -0.633728    0.664986    0.000031
  Cl     1.040495   -0.117494    0.000031
  H     -2.685806    0.129814   -0.000042
  H     -1.663998   -1.013713   -0.890649
  H     -1.664040   -1.013798    0.890504
  H     -0.659683    1.292108    0.892110
  H     -0.659643    1.292194   -0.891989

 Total Charge           Charge          ....    0
 Multiplicity           Mult            ....    1
 Number of Electrons    NEL             ....   34
 Basis Dimension        Dim             ....  129

ORBITAL ENERGIES
----------------

  NO   OCC          E(Eh)            E(eV)
   0   2.0000    -107.123009     -2914.9653
   1   2.0000     -12.100367      -329.2677
   2   2.0000     -12.037767      -327.5643
   3   2.0000     -11.276364      -306.8455
   4   2.0000      -9.067650      -246.7433
   5   2.0000      -9.065268      -246.6785
   6   2.0000      -9.065182      -246.6761
   7   2.0000      -1.383722       -37.6530
   8   2.0000      -1.251626       -34.0585
   9   2.0000      -1.092273       -29.7223
  10   2.0000      -0.892901       -24.2971
  11   2.0000      -0.881602       -23.9896
  12   2.0000      -0.855502       -23.2794
  13   2.0000      -0.796534       -21.6748
  14   2.0000      -0.795615       -21.6498
  15   2.0000      -0.762902       -20.7596
  16   2.0000      -0.753084       -20.4925
  17   0.0000      -0.252051        -6.8587
  18   0.0000      -0.001832        -0.0498
  19   0.0000       0.005727         0.1558
  20   0.0000       0.033245         0.9046
  21   0.0000       0.057421         1.5625

MULLIKEN ATOMIC CHARGES
-----------------------
   0 C :   -0.356750
   1 C :   -0.111214
   2 Cl:   -0.236548
   3 H :    0.136334
   4 H :    0.131267
   5 H :    0.131267
   6 H :    0.152822
   7 H :    0.152821
Sum of atomic charges:    0.0000000

LOEWDIN ATOMIC CHARGES
----------------------
   0 C :   -0.335919
   1 C :   -0.455372
   2 Cl:    0.157820
   3 H :    0.133119
   4 H :    0.122582
   5 H :    0.122581
   6 H :    0.127595
   7 H :    0.127594

  Mayer bond orders larger than 0.100000
B(  0-C ,  1-C ) :   1.0099 B(  0-C ,  3-H ) :   0.9578 B(  0-C ,  4-H ) :   0.9699
B(  0-C ,  5-H ) :   0.9699 B(  1-C ,  2-Cl) :   0.9990 B(  1-C ,  6-H ) :   0.9648
B(  1-C ,  7-H ) :   0.9648

FINAL SINGLE POINT ENERGY      -539.373044089876

DIPOLE MOMENT
-------------

Method             : SCF
Type of density    : Electron Density
Multiplicity       :   1
Irrep              :   0
Energy             :  -539.3782421635760329 Eh
Relativity type    :
Basis              : AO
                                X                 Y                 Z
Electronic contribution:      7.227330563      -0.361070701       0.000144992
Nuclear contribution   :     -8.342314232       0.805862258      -0.000148508
                        -----------------------------------------
Total Dipole Moment    :     -1.114983669       0.444791557      -0.000003515
                        -----------------------------------------
Magnitude (a.u.)       :      1.200428303
Magnitude (Debye)      :      3.051246261

Rotational constants in cm-1:             1.039760             0.176526             0.160087
Rotational constants in MHz :         31171.228548          5292.121971          4799.278507

                             ****ORCA TERMINATED NORMALLY****
TOTAL RUN TIME: 0 days 0 hours 0 minutes 30 seconds 690 msec
