                         Program Version 6.0.0  -   RELEASE  -
|  1> ! pbe def2-sv(p) def2/J RI DEFGRID1 loosescf d4 GCP(DFT/SV(P)) printgap
|  2> %output
|  3>     printlevel normal
|  4> end
|  5> * xyz 0 1
|  6> C 3.9939351071 -1.2603350973 -2.772302284
|  7> C 4.0217790347 0.1555037701 -2.235325937
|  8> O 3.4335702486 0.2584522999 -0.9238816324
|  9> P 1.8954734308 -0.0153303024 -0.6401219514
| 10> S 0.6514666916 0.6699508698 -1.9803911921
| 11> O 1.7111110422 0.6346085872 0.7850849628
| 12> C 2.6217459132 0.3688610042 1.8852364692
| 13> C 1.8608727 0.5577980458 3.1806223822
| 14> S 1.777475598 -2.1095581391 -0.312880571
| 15> C -0.0278329509 -2.1839377591 -0.241683678
| 16> S -0.7161318731 -1.5027775021 1.3078053333
| 17> P -1.7605748966 0.2300753363 0.7457252992
| 18> S -1.0692413268 2.0690872124 0.7483522633
| 19> O -2.8696703929 0.0143873374 1.8755028089
| 20> C -3.6099005202 1.0833641185 2.4838285152
| 21> C -4.7124154063 1.5828460035 1.5712141987
| 22> O -2.4052717981 -0.2777392422 -0.6183792136
| 23> C -2.8803519237 0.5729883822 -1.6811861926
| 24> C -2.7418895981 -0.1748136734 -2.9911575898
| 25> H 4.4177302179 -1.9496626734 -2.0464555645
| 26> H 2.9690834618 -1.5594373783 -2.9849854638
| 27> H 4.5703106811 -1.3030720869 -3.6908587564
| 28> H 3.4860431862 0.8337748978 -2.9063725241
| 29> H 5.0421115457 0.5113943412 -2.0855299002
| 30> H 3.0017241401 -0.6525129017 1.7866479925
| 31> H 3.4480829954 1.0760609703 1.7960794413
| 32> H 1.0705194288 -0.1845060326 3.2685897887
| 33> H 2.5466994909 0.4528970949 4.0148061198
| 34> H 1.4115491773 1.5476816067 3.2026693044
| 35> H -0.2943589842 -3.2368192857 -0.2697820327
| 36> H -0.4480642995 -1.6414993219 -1.0888625837
| 37> H -4.0087291343 0.6433635558 3.3987457252
| 38> H -2.9178851551 1.8956565838 2.7286866073
| 39> H -5.3411691155 0.7547591267 1.2539725693
| 40> H -5.316564669 2.3127729832 2.1005014961
| 41> H -4.2738464957 2.0578749874 0.6938001279
| 42> H -3.9261491827 0.8093979454 -1.4701902464
| 43> H -2.2915377583 1.4966459772 -1.6836489621
| 44> H -3.2407292267 -1.1372771444 -2.9227393701
| 45> H -3.1961282769 0.413707337 -3.7812261245
| 46> H -1.6914653505 -0.326962911 -3.2266908831
| 47> *
| 48>
| 49>                          ****END OF INPUT****

CARTESIAN COORDINATES (ANGSTROEM)
---------------------------------
  C      3.993935   -1.260335   -2.772302
  C      4.021779    0.155504   -2.235326
  O      3.433570    0.258452   -0.923882
  P      1.895473   -0.015330   -0.640122
  S      0.651467    0.669951   -1.980391
  O      1.711111    0.634609    0.785085
  C      2.621746    0.368861    1.885236
  C      1.860873    0.557798    3.180622
  S      1.777476   -2.109558   -0.312881
  C     -0.027833   -2.183938   -0.241684
  S     -0.716132   -1.502778    1.307805
  P     -1.760575    0.230075    0.745725
  S     -1.069241    2.069087    0.748352
  O     -2.869670    0.014387    1.875503
  C     -3.609901    1.083364    2.483829
  C     -4.712415    1.582846    1.571214
  O     -2.405272   -0.277739   -0.618379
  C     -2.880352    0.572988   -1.681186
  C     -2.741890   -0.174814   -2.991158
  H      4.417730   -1.949663   -2.046456
  H      2.969083   -1.559437   -2.984985
  H      4.570311   -1.303072   -3.690859
  H      3.486043    0.833775   -2.906373
  H      5.042112    0.511394   -2.085530
  H      3.001724   -0.652513    1.786648
  H      3.448083    1.076061    1.796079
  H      1.070519   -0.184506    3.268590
  H      2.546699    0.452897    4.014806
  H      1.411549    1.547682    3.202669
  H     -0.294359   -3.236819   -0.269782
  H     -0.448064   -1.641499   -1.088863
  H     -4.008729    0.643364    3.398746
  H     -2.917885    1.895657    2.728687
  H     -5.341169    0.754759    1.253973
  H     -5.316565    2.312773    2.100501
  H     -4.273846    2.057875    0.693800
  H     -3.926149    0.809398   -1.470190
  H     -2.291538    1.496646   -1.683649
  H     -3.240729   -1.137277   -2.922739
  H     -3.196128    0.413707   -3.781226
  H     -1.691465   -0.326963   -3.226691

 Total Charge           Charge          ....    0
 Multiplicity           Mult            ....    1
 Number of Electrons    NEL             ....  202
 Basis Dimension        Dim             ....  334

ORBITAL ENERGIES
----------------

  NO   OCC          E(Eh)            E(eV)
   0   2.0000     -88.042737     -2395.7647
   1   2.0000     -88.037130     -2395.6121
   2   2.0000     -87.986720     -2394.2404
   3   2.0000     -87.975071     -2393.9234
   4   2.0000     -76.425401     -2079.6409
   5   2.0000     -76.417106     -2079.4152
   6   2.0000     -18.795442      -511.4500
   7   2.0000     -18.785591      -511.1819
   8   2.0000     -18.784809      -511.1606
   9   2.0000     -18.778572      -510.9909
  10   2.0000      -9.956330      -270.9255
  11   2.0000      -9.955542      -270.9041
  12   2.0000      -9.948631      -270.7160
  13   2.0000      -9.944420      -270.6014
  14   2.0000      -9.942369      -270.5456
  15   2.0000      -9.886624      -269.0287
  16   2.0000      -9.880637      -268.8658
  17   2.0000      -9.878285      -268.8018
  18   2.0000      -9.875848      -268.7355
  19   2.0000      -7.687964      -209.2001
  20   2.0000      -7.682606      -209.0543
  21   2.0000      -7.631675      -207.6684
  22   2.0000      -7.619925      -207.3487
  23   2.0000      -6.422935      -174.7769
  24   2.0000      -6.414471      -174.5466
  25   2.0000      -5.715666      -155.5312
  26   2.0000      -5.712443      -155.4435
  27   2.0000      -5.710903      -155.4016
  28   2.0000      -5.706912      -155.2930
  29   2.0000      -5.705103      -155.2438
  30   2.0000      -5.699208      -155.0833
  31   2.0000      -5.660486      -154.0297
  32   2.0000      -5.652289      -153.8066
  33   2.0000      -5.651875      -153.7954
  34   2.0000      -5.648957      -153.7159
  35   2.0000      -5.640604      -153.4886
  36   2.0000      -5.639917      -153.4699
  37   2.0000      -4.645835      -126.4196
  38   2.0000      -4.644597      -126.3859
  39   2.0000      -4.643204      -126.3480
  40   2.0000      -4.637085      -126.1815
  41   2.0000      -4.636075      -126.1540
  42   2.0000      -4.635104      -126.1276
  43   2.0000      -0.987201       -26.8631
  44   2.0000      -0.973147       -26.4807
  45   2.0000      -0.942251       -25.6399
  46   2.0000      -0.936197       -25.4752
  47   2.0000      -0.761162       -20.7123
  48   2.0000      -0.719698       -19.5840
  49   2.0000      -0.707332       -19.2475
  50   2.0000      -0.688024       -18.7221
  51   2.0000      -0.681498       -18.5445
  52   2.0000      -0.668904       -18.2018
  53   2.0000      -0.648988       -17.6598
  54   2.0000      -0.630630       -17.1603
  55   2.0000      -0.598129       -16.2759
  56   2.0000      -0.585621       -15.9356
  57   2.0000      -0.566495       -15.4151
  58   2.0000      -0.564664       -15.3653
  59   2.0000      -0.558022       -15.1846
  60   2.0000      -0.502787       -13.6815
  61   2.0000      -0.492959       -13.4141
  62   2.0000      -0.473903       -12.8956
  63   2.0000      -0.471194       -12.8219
  64   2.0000      -0.451332       -12.2814
  65   2.0000      -0.442787       -12.0488
  66   2.0000      -0.438104       -11.9214
  67   2.0000      -0.430531       -11.7153
  68   2.0000      -0.429034       -11.6746
  69   2.0000      -0.417030       -11.3479
  70   2.0000      -0.401099       -10.9145
  71   2.0000      -0.391108       -10.6426
  72   2.0000      -0.388525       -10.5723
  73   2.0000      -0.383649       -10.4396
  74   2.0000      -0.379340       -10.3224
  75   2.0000      -0.367853       -10.0098
  76   2.0000      -0.363541        -9.8925
  77   2.0000      -0.353992        -9.6326
  78   2.0000      -0.350329        -9.5329
  79   2.0000      -0.348772        -9.4906
  80   2.0000      -0.345416        -9.3992
  81   2.0000      -0.338455        -9.2098
  82   2.0000      -0.337237        -9.1767
  83   2.0000      -0.331772        -9.0280
  84   2.0000      -0.324770        -8.8374
  85   2.0000      -0.313365        -8.5271
  86   2.0000      -0.307864        -8.3774
  87   2.0000      -0.299078        -8.1383
  88   2.0000      -0.295763        -8.0481
  89   2.0000      -0.287315        -7.8182
  90   2.0000      -0.277039        -7.5386
  91   2.0000      -0.267621        -7.2823
  92   2.0000      -0.265510        -7.2249
  93   2.0000      -0.261973        -7.1286
  94   2.0000      -0.253418        -6.8959
  95   2.0000      -0.236043        -6.4230
  96   2.0000      -0.218878        -5.9560
  97   2.0000      -0.213785        -5.8174
  98   2.0000      -0.203153        -5.5281
  99   2.0000      -0.190732        -5.1901
 100   2.0000      -0.177260        -4.8235
 101   0.0000      -0.037469        -1.0196
 102   0.0000      -0.029937        -0.8146
 103   0.0000      -0.013482        -0.3669
 104   0.0000       0.005300         0.1442
 105   0.0000       0.019996         0.5441

MULLIKEN ATOMIC CHARGES
-----------------------
   0 C :   -0.321595
   1 C :    0.000901
   2 O :   -0.381313
   3 P :    0.602008
   4 S :   -0.307414
   5 O :   -0.340416
   6 C :   -0.007335
   7 C :   -0.285410
   8 S :   -0.097543
   9 C :   -0.371799
  10 S :   -0.078783
  11 P :    0.625836
  12 S :   -0.303406
  13 O :   -0.384431
  14 C :   -0.004043
  15 C :   -0.312544
  16 O :   -0.384059
  17 C :   -0.018982
  18 C :   -0.294870
  19 H :    0.118417
  20 H :    0.128459
  21 H :    0.115233
  22 H :    0.114020
  23 H :    0.106038
  24 H :    0.096981
  25 H :    0.106546
  26 H :    0.123706
  27 H :    0.102293
  28 H :    0.125569
  29 H :    0.184141
  30 H :    0.212319
  31 H :    0.100100
  32 H :    0.108704
  33 H :    0.114544
  34 H :    0.110683
  35 H :    0.120209
  36 H :    0.102738
  37 H :    0.121455
  38 H :    0.109506
  39 H :    0.107559
  40 H :    0.135978
Sum of atomic charges:    0.0000000

LOEWDIN ATOMIC CHARGES
----------------------
   0 C :   -0.372190
   1 C :   -0.115050
   2 O :   -0.246543
   3 P :    0.571555
   4 S :   -0.290473
   5 O :   -0.227632
   6 C :   -0.112849
   7 C :   -0.356013
   8 S :    0.070709
   9 C :   -0.480008
  10 S :    0.099442
  11 P :    0.558984
  12 S :   -0.293878
  13 O :   -0.255053
  14 C :   -0.124363
  15 C :   -0.365300
  16 O :   -0.248860
  17 C :   -0.119659
  18 C :   -0.358024
  19 H :    0.123537
  20 H :    0.121502
  21 H :    0.132296
  22 H :    0.113958
  23 H :    0.119374
  24 H :    0.101205
  25 H :    0.115364
  26 H :    0.121003
  27 H :    0.126198
  28 H :    0.130636
  29 H :    0.139047
  30 H :    0.129943
  31 H :    0.116312
  32 H :    0.106550
  33 H :    0.123905
  34 H :    0.130183
  35 H :    0.120061
  36 H :    0.109312
  37 H :    0.109898
  38 H :    0.123676
  39 H :    0.129363
  40 H :    0.121883

  Mayer bond orders larger than 0.100000
B(  0-C ,  1-C ) :   1.1661 B(  0-C , 19-H ) :   0.9435 B(  0-C , 20-H ) :   0.9338
B(  0-C , 21-H ) :   0.9368 B(  1-C ,  2-O ) :   0.9055 B(  1-C , 22-H ) :   0.9194
B(  1-C , 23-H ) :   0.9343 B(  2-O ,  3-P ) :   1.0922 B(  3-P ,  4-S ) :   1.6246
B(  3-P ,  5-O ) :   1.1540 B(  3-P ,  8-S ) :   0.9450 B(  4-S ,  8-S ) :   0.1043
B(  5-O ,  6-C ) :   0.8857 B(  6-C ,  7-C ) :   1.1655 B(  6-C , 24-H ) :   0.9108
B(  6-C , 25-H ) :   0.9329 B(  7-C , 26-H ) :   0.9419 B(  7-C , 27-H ) :   0.9389
B(  7-C , 28-H ) :   0.9451 B(  8-S ,  9-C ) :   0.9977 B(  9-C , 10-S ) :   0.9919
B(  9-C , 29-H ) :   0.9110 B(  9-C , 30-H ) :   0.8601 B( 10-S , 11-P ) :   0.9661
B( 10-S , 12-S ) :   0.1078 B( 11-P , 12-S ) :   1.6224 B( 11-P , 13-O ) :   1.0878
B( 11-P , 16-O ) :   1.1032 B( 13-O , 14-C ) :   0.9200 B( 14-C , 15-C ) :   1.1617
B( 14-C , 31-H ) :   0.9329 B( 14-C , 32-H ) :   0.9058 B( 15-C , 33-H ) :   0.9470
B( 15-C , 34-H ) :   0.9391 B( 15-C , 35-H ) :   0.9307 B( 16-O , 17-C ) :   0.8985
B( 17-C , 18-C ) :   1.1648 B( 17-C , 36-H ) :   0.9277 B( 17-C , 37-H ) :   0.9048
B( 18-C , 38-H ) :   0.9483 B( 18-C , 39-H ) :   0.9409 B( 18-C , 40-H ) :   0.9364

Dispersion correction           -0.068415070
FINAL SINGLE POINT ENERGY     -2929.515112480892

DIPOLE MOMENT
-------------

Method             : SCF
Type of density    : Electron Density
Multiplicity       :   1
Irrep              :   0
Energy             : -2929.6320389040033660 Eh
Relativity type    :
Basis              : AO
                                X                 Y                 Z
Electronic contribution:      5.105770552      -3.052561343       3.598240478
Nuclear contribution   :     -4.815788519       2.482968356      -3.741849879
                        -----------------------------------------
Total Dipole Moment    :      0.289982033      -0.569592987      -0.143609401
                        -----------------------------------------
Magnitude (a.u.)       :      0.655094963
Magnitude (Debye)      :      1.665119067

Rotational constants in cm-1:             0.012478             0.005746             0.005073
Rotational constants in MHz :           374.079539           172.259585           152.095231

                             ****ORCA TERMINATED NORMALLY****
TOTAL RUN TIME: 0 days 0 hours 0 minutes 21 seconds 782 msec
