                         Program Version 6.0.0  -   RELEASE  -
|  1> ! wb97x-v def2-tzvp def2/J RIJCOSX DEFGRID2 scfconv7 GCP(DFT/TZ) printgap
|  2> %output
|  3>     printlevel normal
|  4> end
|  5> * xyz 0 1
|  6> C -2.503860091563714 0.8007427743807941 -0.0036695857573329368
|  7> C -1.2122868911210987 0.03165100883453642 -7.523815765925014e-05
|  8> C -1.2410063870378372 -1.3619246426234928 -0.0017105245397646572
|  9> C -0.05765061074686996 -2.0961767896100296 0.001556021723008994
| 10> C 1.157446191094992 -1.4290543923818688 0.0036527366055584772
| 11> C 1.2230196278919925 -0.027464307094646357 0.003454232018816248
| 12> C 0.027232269477976495 0.714701153092155 0.004971986582666144
| 13> C -0.004252526749590803 2.2197379914150583 0.003517513446674493
| 14> C 2.60074605767998 0.5872040200661202 -0.006817632853902941
| 15> H -2.6056383285561737 1.420357540658269 0.8952162061640571
| 16> H -2.5650261201903577 1.4813731402531918 -0.8606673023354283
| 17> H -3.3582437991085143 0.12103621007656135 -0.04556910130122013
| 18> H -2.1996619471693934 -1.8737395744156573 -0.005684430770129458
| 19> H -0.08672699264390174 -3.181820850108649 0.0012596138590841113
| 20> H 2.0857132234679625 -1.9952031053680277 0.003796996462342726
| 21> H 0.983554263459416 2.6687370339368552 0.08844652469116746
| 22> H -0.46441415986150275 2.599483778828783 -0.9167120128816516
| 23> H -0.6129134633184271 2.596835003892586 0.832894968552333
| 24> H 3.1842964985488464 0.22617569945964017 0.8469892627437876
| 25> H 3.1429482610302215 0.2866883093659966 -0.9103737057595769
| 26> H 2.5990729254180795 1.6754093704364914 0.02907324793564964
| 27> *
| 28>
| 29>                          ****END OF INPUT****

CARTESIAN COORDINATES (ANGSTROEM)
---------------------------------
  C     -2.503860    0.800743   -0.003670
  C     -1.212287    0.031651   -0.000075
  C     -1.241006   -1.361925   -0.001711
  C     -0.057651   -2.096177    0.001556
  C      1.157446   -1.429054    0.003653
  C      1.223020   -0.027464    0.003454
  C      0.027232    0.714701    0.004972
  C     -0.004253    2.219738    0.003518
  C      2.600746    0.587204   -0.006818
  H     -2.605638    1.420358    0.895216
  H     -2.565026    1.481373   -0.860667
  H     -3.358244    0.121036   -0.045569
  H     -2.199662   -1.873740   -0.005684
  H     -0.086727   -3.181821    0.001260
  H      2.085713   -1.995203    0.003797
  H      0.983554    2.668737    0.088447
  H     -0.464414    2.599484   -0.916712
  H     -0.612913    2.596835    0.832895
  H      3.184296    0.226176    0.846989
  H      3.142948    0.286688   -0.910374
  H      2.599073    1.675409    0.029073

 Total Charge           Charge          ....    0
 Multiplicity           Mult            ....    1
 Number of Electrons    NEL             ....   66
 Basis Dimension        Dim             ....  351

ORBITAL ENERGIES
----------------

  NO   OCC          E(Eh)            E(eV)
   0   2.0000     -12.054836      -328.0288
   1   2.0000     -12.053141      -327.9826
   2   2.0000     -12.051279      -327.9320
   3   2.0000     -12.041996      -327.6794
   4   2.0000     -12.040433      -327.6368
   5   2.0000     -12.040145      -327.6290
   6   2.0000     -12.039745      -327.6181
   7   2.0000     -12.038547      -327.5855
   8   2.0000     -12.037679      -327.5619
   9   2.0000      -1.381476       -37.5919
  10   2.0000      -1.297402       -35.3041
  11   2.0000      -1.290456       -35.1151
  12   2.0000      -1.218794       -33.1651
  13   2.0000      -1.182841       -32.1867
  14   2.0000      -1.166954       -31.7544
  15   2.0000      -1.071107       -29.1463
  16   2.0000      -1.065627       -28.9972
  17   2.0000      -0.959238       -26.1022
  18   2.0000      -0.939357       -25.5612
  19   2.0000      -0.898555       -24.4509
  20   2.0000      -0.862928       -23.4815
  21   2.0000      -0.860305       -23.4101
  22   2.0000      -0.849989       -23.1294
  23   2.0000      -0.836416       -22.7600
  24   2.0000      -0.831333       -22.6217
  25   2.0000      -0.830434       -22.5972
  26   2.0000      -0.819156       -22.2904
  27   2.0000      -0.807197       -21.9649
  28   2.0000      -0.795774       -21.6541
  29   2.0000      -0.793709       -21.5979
  30   2.0000      -0.743055       -20.2196
  31   2.0000      -0.623124       -16.9561
  32   2.0000      -0.622040       -16.9266
  33   0.0000      -0.233013        -6.3406
  34   0.0000      -0.231169        -6.2904
  35   0.0000      -0.069928        -1.9028
  36   0.0000      -0.061203        -1.6654
  37   0.0000      -0.023114        -0.6290

MULLIKEN ATOMIC CHARGES
-----------------------
   0 C :   -0.346132
   1 C :    0.139825
   2 C :   -0.217598
   3 C :   -0.110610
   4 C :   -0.226247
   5 C :    0.170384
   6 C :   -0.068613
   7 C :   -0.356698
   8 C :   -0.361198
   9 H :    0.121389
  10 H :    0.116408
  11 H :    0.115883
  12 H :    0.104299
  13 H :    0.110908
  14 H :    0.110978
  15 H :    0.102078
  16 H :    0.125121
  17 H :    0.117892
  18 H :    0.125507
  19 H :    0.125836
  20 H :    0.100586
Sum of atomic charges:   -0.0000000

LOEWDIN ATOMIC CHARGES
----------------------
   0 C :   -0.250173
   1 C :   -0.140699
   2 C :   -0.127338
   3 C :   -0.146192
   4 C :   -0.122770
   5 C :   -0.139658
   6 C :   -0.116746
   7 C :   -0.248683
   8 C :   -0.253034
   9 H :    0.125402
  10 H :    0.125422
  11 H :    0.124044
  12 H :    0.141147
  13 H :    0.140213
  14 H :    0.143211
  15 H :    0.118396
  16 H :    0.127461
  17 H :    0.126954
  18 H :    0.127977
  19 H :    0.128380
  20 H :    0.116687

  Mayer bond orders larger than 0.100000
B(  0-C ,  1-C ) :   0.9265 B(  0-C ,  9-H ) :   0.9824 B(  0-C , 10-H ) :   0.9751
B(  0-C , 11-H ) :   0.9886 B(  1-C ,  2-C ) :   1.4428 B(  1-C ,  6-C ) :   1.3343
B(  2-C ,  3-C ) :   1.3989 B(  2-C , 12-H ) :   0.9751 B(  3-C ,  4-C ) :   1.4480
B(  3-C , 13-H ) :   0.9832 B(  4-C ,  5-C ) :   1.3624 B(  4-C , 14-H ) :   0.9848
B(  5-C ,  6-C ) :   1.4145 B(  5-C ,  8-C ) :   0.8823 B(  6-C ,  7-C ) :   0.9189
B(  7-C , 15-H ) :   0.9985 B(  7-C , 16-H ) :   0.9859 B(  7-C , 17-H ) :   0.9816
B(  8-C , 18-H ) :   0.9797 B(  8-C , 19-H ) :   0.9772 B(  8-C , 20-H ) :   1.0080

FINAL SINGLE POINT ENERGY      -350.203784634262

DIPOLE MOMENT
-------------

Method             : SCF
Type of density    : Electron Density
Multiplicity       :   1
Irrep              :   0
Energy             :  -350.2167448465615962 Eh
Relativity type    :
Basis              : AO
                                X                 Y                 Z
Electronic contribution:     -0.078146999      -5.459385811       0.033483524
Nuclear contribution   :      0.098813076       5.714609381      -0.040361967
                        -----------------------------------------
Total Dipole Moment    :      0.020666077       0.255223570      -0.006878443
                        -----------------------------------------
Magnitude (a.u.)       :      0.256151265
Magnitude (Debye)      :      0.651084773

Rotational constants in cm-1:             0.074401             0.057191             0.032925
Rotational constants in MHz :          2230.483508          1714.528592           987.073539

                             ****ORCA TERMINATED NORMALLY****
TOTAL RUN TIME: 0 days 0 hours 3 minutes 50 seconds 171 msec
