                         Program Version 6.0.0  -   RELEASE  -
|  1> ! wb97x-v def2-tzvp def2/J RIJCOSX DEFGRID2 scfconv7 GCP(DFT/TZ) printgap
|  2> %output
|  3>     printlevel normal
|  4> end
|  5> %cpcm
|  6>     smd true
|  7>     smdsolvent "water"
|  8> end
|  9> * xyz 0 1
| 10> C -2.503860091563714 0.8007427743807941 -0.0036695857573329368
| 11> C -1.2122868911210987 0.03165100883453642 -7.523815765925014e-05
| 12> C -1.2410063870378372 -1.3619246426234928 -0.0017105245397646572
| 13> C -0.05765061074686996 -2.0961767896100296 0.001556021723008994
| 14> C 1.157446191094992 -1.4290543923818688 0.0036527366055584772
| 15> C 1.2230196278919925 -0.027464307094646357 0.003454232018816248
| 16> C 0.027232269477976495 0.714701153092155 0.004971986582666144
| 17> C -0.004252526749590803 2.2197379914150583 0.003517513446674493
| 18> C 2.60074605767998 0.5872040200661202 -0.006817632853902941
| 19> H -2.6056383285561737 1.420357540658269 0.8952162061640571
| 20> H -2.5650261201903577 1.4813731402531918 -0.8606673023354283
| 21> H -3.3582437991085143 0.12103621007656135 -0.04556910130122013
| 22> H -2.1996619471693934 -1.8737395744156573 -0.005684430770129458
| 23> H -0.08672699264390174 -3.181820850108649 0.0012596138590841113
| 24> H 2.0857132234679625 -1.9952031053680277 0.003796996462342726
| 25> H 0.983554263459416 2.6687370339368552 0.08844652469116746
| 26> H -0.46441415986150275 2.599483778828783 -0.9167120128816516
| 27> H -0.6129134633184271 2.596835003892586 0.832894968552333
| 28> H 3.1842964985488464 0.22617569945964017 0.8469892627437876
| 29> H 3.1429482610302215 0.2866883093659966 -0.9103737057595769
| 30> H 2.5990729254180795 1.6754093704364914 0.02907324793564964
| 31> *
| 32>
| 33>                          ****END OF INPUT****

CARTESIAN COORDINATES (ANGSTROEM)
---------------------------------
  C     -2.503860    0.800743   -0.003670
  C     -1.212287    0.031651   -0.000075
  C     -1.241006   -1.361925   -0.001711
  C     -0.057651   -2.096177    0.001556
  C      1.157446   -1.429054    0.003653
  C      1.223020   -0.027464    0.003454
  C      0.027232    0.714701    0.004972
  C     -0.004253    2.219738    0.003518
  C      2.600746    0.587204   -0.006818
  H     -2.605638    1.420358    0.895216
  H     -2.565026    1.481373   -0.860667
  H     -3.358244    0.121036   -0.045569
  H     -2.199662   -1.873740   -0.005684
  H     -0.086727   -3.181821    0.001260
  H      2.085713   -1.995203    0.003797
  H      0.983554    2.668737    0.088447
  H     -0.464414    2.599484   -0.916712
  H     -0.612913    2.596835    0.832895
  H      3.184296    0.226176    0.846989
  H      3.142948    0.286688   -0.910374
  H      2.599073    1.675409    0.029073

 Total Charge           Charge          ....    0
 Multiplicity           Mult            ....    1
 Number of Electrons    NEL             ....   66
 Basis Dimension        Dim             ....  351

ORBITAL ENERGIES
----------------

  NO   OCC          E(Eh)            E(eV)
   0   2.0000     -12.054593      -328.0221
   1   2.0000     -12.052843      -327.9745
   2   2.0000     -12.050947      -327.9229
   3   2.0000     -12.041871      -327.6760
   4   2.0000     -12.037981      -327.5701
   5   2.0000     -12.037228      -327.5496
   6   2.0000     -12.031216      -327.3860
   7   2.0000     -12.030924      -327.3781
   8   2.0000     -12.029956      -327.3517
   9   2.0000      -1.382086       -37.6085
  10   2.0000      -1.295688       -35.2575
  11   2.0000      -1.289484       -35.0886
  12   2.0000      -1.212539       -32.9949
  13   2.0000      -1.179259       -32.0893
  14   2.0000      -1.161838       -31.6152
  15   2.0000      -1.069038       -29.0900
  16   2.0000      -1.063320       -28.9344
  17   2.0000      -0.958148       -26.0725
  18   2.0000      -0.936911       -25.4947
  19   2.0000      -0.894194       -24.3322
  20   2.0000      -0.859648       -23.3922
  21   2.0000      -0.857323       -23.3289
  22   2.0000      -0.843515       -22.9532
  23   2.0000      -0.829037       -22.5592
  24   2.0000      -0.824323       -22.4310
  25   2.0000      -0.822964       -22.3940
  26   2.0000      -0.810171       -22.0459
  27   2.0000      -0.798114       -21.7178
  28   2.0000      -0.791214       -21.5300
  29   2.0000      -0.788781       -21.4638
  30   2.0000      -0.743992       -20.2451
  31   2.0000      -0.624639       -16.9973
  32   2.0000      -0.623337       -16.9619
  33   0.0000      -0.234328        -6.3764
  34   0.0000      -0.232569        -6.3285
  35   0.0000      -0.070147        -1.9088
  36   0.0000      -0.056212        -1.5296
  37   0.0000      -0.011778        -0.3205

MULLIKEN ATOMIC CHARGES
-----------------------
   0 C :   -0.386412
   1 C :    0.114299
   2 C :   -0.270544
   3 C :   -0.157518
   4 C :   -0.275413
   5 C :    0.146990
   6 C :   -0.084770
   7 C :   -0.405242
   8 C :   -0.393722
   9 H :    0.143396
  10 H :    0.138763
  11 H :    0.140299
  12 H :    0.149943
  13 H :    0.154539
  14 H :    0.152467
  15 H :    0.133183
  16 H :    0.145068
  17 H :    0.140107
  18 H :    0.141495
  19 H :    0.141467
  20 H :    0.131604
Sum of atomic charges:   -0.0000000

LOEWDIN ATOMIC CHARGES
----------------------
   0 C :   -0.252914
   1 C :   -0.148900
   2 C :   -0.141641
   3 C :   -0.162892
   4 C :   -0.135995
   5 C :   -0.148605
   6 C :   -0.123222
   7 C :   -0.250838
   8 C :   -0.254828
   9 H :    0.131379
  10 H :    0.131114
  11 H :    0.128743
  12 H :    0.150314
  13 H :    0.148601
  14 H :    0.151860
  15 H :    0.124478
  16 H :    0.132918
  17 H :    0.132394
  18 H :    0.132164
  19 H :    0.132503
  20 H :    0.123368

  Mayer bond orders larger than 0.100000
B(  0-C ,  1-C ) :   0.9393 B(  0-C ,  9-H ) :   0.9755 B(  0-C , 10-H ) :   0.9704
B(  0-C , 11-H ) :   0.9833 B(  1-C ,  2-C ) :   1.4219 B(  1-C ,  6-C ) :   1.3147
B(  2-C ,  3-C ) :   1.3752 B(  2-C , 12-H ) :   0.9833 B(  3-C ,  4-C ) :   1.4271
B(  3-C , 13-H ) :   0.9881 B(  4-C ,  5-C ) :   1.3410 B(  4-C , 14-H ) :   0.9920
B(  5-C ,  6-C ) :   1.3905 B(  5-C ,  8-C ) :   0.9019 B(  6-C ,  7-C ) :   0.9384
B(  7-C , 15-H ) :   0.9917 B(  7-C , 16-H ) :   0.9787 B(  7-C , 17-H ) :   0.9766
B(  8-C , 18-H ) :   0.9727 B(  8-C , 19-H ) :   0.9709 B(  8-C , 20-H ) :   1.0031

FINAL SINGLE POINT ENERGY      -350.204934966953

DIPOLE MOMENT
-------------

Method             : SCF
Type of density    : Electron Density
Multiplicity       :   1
Irrep              :   0
Energy             :  -350.2178951792532189 Eh
Relativity type    :
Basis              : AO
                                X                 Y                 Z
Electronic contribution:     -0.078466984      -5.286482931       0.031766296
Nuclear contribution   :      0.098813076       5.714609381      -0.040361967
                        -----------------------------------------
Total Dipole Moment    :      0.020346092       0.428126449      -0.008595671
                        -----------------------------------------
Magnitude (a.u.)       :      0.428695820
Magnitude (Debye)      :      1.089658177

Rotational constants in cm-1:             0.074401             0.057191             0.032925
Rotational constants in MHz :          2230.483508          1714.528592           987.073539

                             ****ORCA TERMINATED NORMALLY****
TOTAL RUN TIME: 0 days 0 hours 3 minutes 56 seconds 701 msec
