                         Program Version 6.0.0  -   RELEASE  -
|  1> ! r2scan-3c def2/J RI DEFGRID2 scfconv6 printgap
|  2> %output
|  3>     printlevel normal
|  4> end
|  5> * xyz 0 1
|  6> C 2.4582888493 -3.1686593468 -1.1588243528
|  7> C 3.3589061443 -2.0799758565 -1.7038022703
|  8> O 3.5771863012 -1.0104317091 -0.7552282258
|  9> P 2.4657863407 -0.0717135892 -0.1203843595
| 10> S 3.3041161933 1.5407009526 0.5948958507
| 11> O 1.6631209885 -0.9566666701 0.9419648647
| 12> C 1.9414097531 -0.9459086091 2.3565946678
| 13> C 0.9641410205 -0.0552441622 3.0974304461
| 14> S 1.0287381221 0.1288421649 -1.6575027863
| 15> C 0.4038341418 1.7580523715 -1.179466603
| 16> S -0.4499541381 1.758956646 0.4188168569
| 17> P -1.9484924766 0.3576493421 -0.0922200599
| 18> S -2.6435212869 0.4613071833 -1.9266904021
| 19> O -3.0277184198 0.561993252 1.0539181754
| 20> C -3.9600301004 1.6613067743 1.0298709903
| 21> C -5.1056344289 1.3211036653 1.9618154913
| 22> O -1.2852293065 -1.0065290396 0.3503222085
| 23> C -1.6543009464 -2.2660225161 -0.2472205547
| 24> C -3.0580190674 -2.6752334945 0.1449148409
| 25> H 2.8644965485 -3.567220916 -0.2326711251
| 26> H 1.4644769528 -2.7680846549 -0.9681635127
| 27> H 2.3835755287 -3.9664528716 -1.8910950258
| 28> H 2.9380035431 -1.6476700023 -2.6154210425
| 29> H 4.3667436205 -2.4491582466 -1.9006121278
| 30> H 1.8392044546 -1.9881101964 2.664509129
| 31> H 2.9704929591 -0.6116012899 2.5192300205
| 32> H -0.0569370389 -0.3252468858 2.8382652739
| 33> H 1.1104152279 -0.1756857878 4.1659980411
| 34> H 1.1278201025 0.9868970885 2.8310262727
| 35> H -0.2875826933 2.0595268325 -1.9657955652
| 36> H 1.2344249642 2.4569561887 -1.0846498501
| 37> H -3.4337316891 2.5625802395 1.3558782503
| 38> H -4.3070484629 1.8020203607 0.0004837264
| 39> H -5.8044241271 2.1508259874 1.9840527817
| 40> H -5.6196071048 0.4291448296 1.6149707326
| 41> H -4.7261405076 1.1425185832 2.9636241969
| 42> H -1.5646178637 -2.1748844524 -1.334769108
| 43> H -0.9065443162 -2.9645488727 0.131245348
| 44> H -3.1560595933 -2.6951039092 1.2270055959
| 45> H -3.7739276403 -1.9610493957 -0.260676627
| 46> H -3.2738065201 -3.6595636641 -0.2585100058
| 47> *
| 48>
| 49>                          ****END OF INPUT****

CARTESIAN COORDINATES (ANGSTROEM)
---------------------------------
  C      2.458289   -3.168659   -1.158824
  C      3.358906   -2.079976   -1.703802
  O      3.577186   -1.010432   -0.755228
  P      2.465786   -0.071714   -0.120384
  S      3.304116    1.540701    0.594896
  O      1.663121   -0.956667    0.941965
  C      1.941410   -0.945909    2.356595
  C      0.964141   -0.055244    3.097430
  S      1.028738    0.128842   -1.657503
  C      0.403834    1.758052   -1.179467
  S     -0.449954    1.758957    0.418817
  P     -1.948492    0.357649   -0.092220
  S     -2.643521    0.461307   -1.926690
  O     -3.027718    0.561993    1.053918
  C     -3.960030    1.661307    1.029871
  C     -5.105634    1.321104    1.961815
  O     -1.285229   -1.006529    0.350322
  C     -1.654301   -2.266023   -0.247221
  C     -3.058019   -2.675233    0.144915
  H      2.864497   -3.567221   -0.232671
  H      1.464477   -2.768085   -0.968164
  H      2.383576   -3.966453   -1.891095
  H      2.938004   -1.647670   -2.615421
  H      4.366744   -2.449158   -1.900612
  H      1.839204   -1.988110    2.664509
  H      2.970493   -0.611601    2.519230
  H     -0.056937   -0.325247    2.838265
  H      1.110415   -0.175686    4.165998
  H      1.127820    0.986897    2.831026
  H     -0.287583    2.059527   -1.965796
  H      1.234425    2.456956   -1.084650
  H     -3.433732    2.562580    1.355878
  H     -4.307048    1.802020    0.000484
  H     -5.804424    2.150826    1.984053
  H     -5.619607    0.429145    1.614971
  H     -4.726141    1.142519    2.963624
  H     -1.564618   -2.174884   -1.334769
  H     -0.906544   -2.964549    0.131245
  H     -3.156060   -2.695104    1.227006
  H     -3.773928   -1.961049   -0.260677
  H     -3.273807   -3.659564   -0.258510

 Total Charge           Charge          ....    0
 Multiplicity           Mult            ....    1
 Number of Electrons    NEL             ....  202
 Basis Dimension        Dim             ....  539

ORBITAL ENERGIES
----------------

  NO   OCC          E(Eh)            E(eV)
   0   2.0000     -88.577046     -2410.3039
   1   2.0000     -88.575195     -2410.2536
   2   2.0000     -88.522316     -2408.8147
   3   2.0000     -88.515821     -2408.6379
   4   2.0000     -76.914938     -2092.9619
   5   2.0000     -76.912157     -2092.8862
   6   2.0000     -18.994915      -516.8779
   7   2.0000     -18.990973      -516.7706
   8   2.0000     -18.988909      -516.7145
   9   2.0000     -18.983151      -516.5578
  10   2.0000     -10.107445      -275.0376
  11   2.0000     -10.105909      -274.9958
  12   2.0000     -10.100775      -274.8561
  13   2.0000     -10.100031      -274.8358
  14   2.0000     -10.093820      -274.6668
  15   2.0000     -10.037514      -273.1346
  16   2.0000     -10.035519      -273.0804
  17   2.0000     -10.030699      -272.9492
  18   2.0000     -10.018636      -272.6210
  19   2.0000      -7.871594      -214.1970
  20   2.0000      -7.869544      -214.1412
  21   2.0000      -7.817088      -212.7138
  22   2.0000      -7.810749      -212.5413
  23   2.0000      -6.593595      -179.4208
  24   2.0000      -6.590310      -179.3315
  25   2.0000      -5.818506      -158.3296
  26   2.0000      -5.816438      -158.2733
  27   2.0000      -5.815443      -158.2463
  28   2.0000      -5.813405      -158.1908
  29   2.0000      -5.808616      -158.0605
  30   2.0000      -5.806628      -158.0064
  31   2.0000      -5.764697      -156.8654
  32   2.0000      -5.758560      -156.6984
  33   2.0000      -5.757355      -156.6656
  34   2.0000      -5.757139      -156.6597
  35   2.0000      -5.751282      -156.5003
  36   2.0000      -5.750302      -156.4737
  37   2.0000      -4.738947      -128.9533
  38   2.0000      -4.738528      -128.9419
  39   2.0000      -4.737432      -128.9121
  40   2.0000      -4.736116      -128.8763
  41   2.0000      -4.735039      -128.8470
  42   2.0000      -4.734003      -128.8188
  43   2.0000      -1.052426       -28.6380
  44   2.0000      -1.041956       -28.3531
  45   2.0000      -1.013296       -27.5732
  46   2.0000      -1.004939       -27.3458
  47   2.0000      -0.804227       -21.8841
  48   2.0000      -0.760642       -20.6981
  49   2.0000      -0.752197       -20.4683
  50   2.0000      -0.735196       -20.0057
  51   2.0000      -0.732580       -19.9345
  52   2.0000      -0.709107       -19.2958
  53   2.0000      -0.685082       -18.6420
  54   2.0000      -0.670678       -18.2501
  55   2.0000      -0.632533       -17.2121
  56   2.0000      -0.622779       -16.9467
  57   2.0000      -0.611282       -16.6338
  58   2.0000      -0.601513       -16.3680
  59   2.0000      -0.591093       -16.0845
  60   2.0000      -0.531157       -14.4535
  61   2.0000      -0.520969       -14.1763
  62   2.0000      -0.498904       -13.5759
  63   2.0000      -0.493748       -13.4356
  64   2.0000      -0.476055       -12.9541
  65   2.0000      -0.466468       -12.6932
  66   2.0000      -0.457812       -12.4577
  67   2.0000      -0.454506       -12.3677
  68   2.0000      -0.447712       -12.1829
  69   2.0000      -0.431130       -11.7317
  70   2.0000      -0.422817       -11.5054
  71   2.0000      -0.417042       -11.3483
  72   2.0000      -0.411918       -11.2088
  73   2.0000      -0.401472       -10.9246
  74   2.0000      -0.394217       -10.7272
  75   2.0000      -0.389802       -10.6070
  76   2.0000      -0.383453       -10.4343
  77   2.0000      -0.375444       -10.2164
  78   2.0000      -0.371120       -10.0987
  79   2.0000      -0.369573       -10.0566
  80   2.0000      -0.363887        -9.9019
  81   2.0000      -0.361112        -9.8264
  82   2.0000      -0.360870        -9.8198
  83   2.0000      -0.354779        -9.6540
  84   2.0000      -0.349245        -9.5034
  85   2.0000      -0.333692        -9.0802
  86   2.0000      -0.323150        -8.7934
  87   2.0000      -0.318374        -8.6634
  88   2.0000      -0.314998        -8.5715
  89   2.0000      -0.303054        -8.2465
  90   2.0000      -0.293538        -7.9876
  91   2.0000      -0.293179        -7.9778
  92   2.0000      -0.287702        -7.8288
  93   2.0000      -0.279665        -7.6101
  94   2.0000      -0.272302        -7.4097
  95   2.0000      -0.244163        -6.6440
  96   2.0000      -0.229971        -6.2578
  97   2.0000      -0.227813        -6.1991
  98   2.0000      -0.219527        -5.9736
  99   2.0000      -0.212672        -5.7871
 100   2.0000      -0.208763        -5.6807
 101   0.0000      -0.048616        -1.3229
 102   0.0000      -0.026609        -0.7241
 103   0.0000      -0.000127        -0.0035
 104   0.0000       0.005945         0.1618
 105   0.0000       0.009918         0.2699

MULLIKEN ATOMIC CHARGES
-----------------------
   0 C :   -0.427109
   1 C :   -0.172759
   2 O :   -0.261708
   3 P :    0.645454
   4 S :   -0.456797
   5 O :   -0.239101
   6 C :   -0.133754
   7 C :   -0.468160
   8 S :   -0.160715
   9 C :   -0.240459
  10 S :   -0.131816
  11 P :    0.703010
  12 S :   -0.488989
  13 O :   -0.286537
  14 C :   -0.157551
  15 C :   -0.440054
  16 O :   -0.250874
  17 C :   -0.165038
  18 C :   -0.452892
  19 H :    0.156088
  20 H :    0.160759
  21 H :    0.152494
  22 H :    0.164862
  23 H :    0.156079
  24 H :    0.143471
  25 H :    0.161250
  26 H :    0.162274
  27 H :    0.139203
  28 H :    0.180614
  29 H :    0.211395
  30 H :    0.210473
  31 H :    0.153182
  32 H :    0.170900
  33 H :    0.147857
  34 H :    0.154709
  35 H :    0.154149
  36 H :    0.178435
  37 H :    0.153505
  38 H :    0.155625
  39 H :    0.171396
  40 H :    0.147131
Sum of atomic charges:    0.0000000

LOEWDIN ATOMIC CHARGES
----------------------
   0 C :   -0.401031
   1 C :    0.020695
   2 O :   -0.662526
   3 P :    0.388090
   4 S :   -0.102593
   5 O :   -0.685187
   6 C :    0.022714
   7 C :   -0.406947
   8 S :    0.165756
   9 C :   -0.417380
  10 S :    0.172262
  11 P :    0.374297
  12 S :   -0.133001
  13 O :   -0.664701
  14 C :    0.019780
  15 C :   -0.385525
  16 O :   -0.667808
  17 C :    0.014422
  18 C :   -0.399670
  19 H :    0.161705
  20 H :    0.165199
  21 H :    0.160239
  22 H :    0.174957
  23 H :    0.183852
  24 H :    0.174669
  25 H :    0.178252
  26 H :    0.163539
  27 H :    0.155185
  28 H :    0.167317
  29 H :    0.190175
  30 H :    0.192101
  31 H :    0.172433
  32 H :    0.180683
  33 H :    0.160371
  34 H :    0.160029
  35 H :    0.160096
  36 H :    0.181563
  37 H :    0.179779
  38 H :    0.160345
  39 H :    0.166326
  40 H :    0.159539

  Mayer bond orders larger than 0.100000
B(  0-C ,  1-C ) :   0.9265 B(  0-C , 19-H ) :   0.9703 B(  0-C , 20-H ) :   0.9566
B(  0-C , 21-H ) :   0.9632 B(  1-C ,  2-O ) :   0.8036 B(  1-C , 22-H ) :   0.9688
B(  1-C , 23-H ) :   0.9556 B(  2-O ,  3-P ) :   1.1394 B(  3-P ,  4-S ) :   1.8303
B(  3-P ,  5-O ) :   1.0644 B(  3-P ,  8-S ) :   1.0384 B(  5-O ,  6-C ) :   0.7766
B(  6-C ,  7-C ) :   0.9436 B(  6-C , 24-H ) :   0.9643 B(  6-C , 25-H ) :   0.9631
B(  7-C , 26-H ) :   0.9690 B(  7-C , 27-H ) :   0.9621 B(  7-C , 28-H ) :   0.9620
B(  8-S ,  9-C ) :   0.9072 B(  9-C , 10-S ) :   0.9052 B(  9-C , 29-H ) :   0.9119
B(  9-C , 30-H ) :   0.9103 B( 10-S , 11-P ) :   1.0629 B( 11-P , 12-S ) :   1.7335
B( 11-P , 13-O ) :   1.0871 B( 11-P , 16-O ) :   1.1593 B( 13-O , 14-C ) :   0.7789
B( 14-C , 15-C ) :   0.9569 B( 14-C , 31-H ) :   0.9454 B( 14-C , 32-H ) :   0.9520
B( 15-C , 33-H ) :   0.9643 B( 15-C , 34-H ) :   0.9714 B( 15-C , 35-H ) :   0.9717
B( 16-O , 17-C ) :   0.7786 B( 17-C , 18-C ) :   0.9273 B( 17-C , 36-H ) :   0.9619
B( 17-C , 37-H ) :   0.9596 B( 18-C , 38-H ) :   0.9727 B( 18-C , 39-H ) :   0.9600
B( 18-C , 40-H ) :   0.9623

Dispersion correction           -0.022143137
FINAL SINGLE POINT ENERGY     -2932.460378629084

DIPOLE MOMENT
-------------

Method             : SCF
Type of density    : Electron Density
Multiplicity       :   1
Irrep              :   0
Energy             : -2932.4845801967321677 Eh
Relativity type    :
Basis              : AO
                                X                 Y                 Z
Electronic contribution:     13.324922530      15.286012489     -10.801615995
Nuclear contribution   :    -14.191762769     -16.694132716      11.343280572
                        -----------------------------------------
Total Dipole Moment    :     -0.866840239      -1.408120226       0.541664577
                        -----------------------------------------
Magnitude (a.u.)       :      1.740004335
Magnitude (Debye)      :      4.422739539

Rotational constants in cm-1:             0.012153             0.005416             0.005059
Rotational constants in MHz :           364.334714           162.380957           151.665780

                             ****ORCA TERMINATED NORMALLY****
TOTAL RUN TIME: 0 days 0 hours 1 minutes 22 seconds 855 msec
