                         Program Version 6.0.0  -   RELEASE  -
|  1> ! r2scan-3c def2/J RI DEFGRID2 scfconv6 printgap
|  2> %output
|  3>     printlevel normal
|  4> end
|  5> %cpcm
|  6>     smd true
|  7>     smdsolvent "water"
|  8> end
|  9> * xyz 0 1
| 10> C 2.4582888493 -3.1686593468 -1.1588243528
| 11> C 3.3589061443 -2.0799758565 -1.7038022703
| 12> O 3.5771863012 -1.0104317091 -0.7552282258
| 13> P 2.4657863407 -0.0717135892 -0.1203843595
| 14> S 3.3041161933 1.5407009526 0.5948958507
| 15> O 1.6631209885 -0.9566666701 0.9419648647
| 16> C 1.9414097531 -0.9459086091 2.3565946678
| 17> C 0.9641410205 -0.0552441622 3.0974304461
| 18> S 1.0287381221 0.1288421649 -1.6575027863
| 19> C 0.4038341418 1.7580523715 -1.179466603
| 20> S -0.4499541381 1.758956646 0.4188168569
| 21> P -1.9484924766 0.3576493421 -0.0922200599
| 22> S -2.6435212869 0.4613071833 -1.9266904021
| 23> O -3.0277184198 0.561993252 1.0539181754
| 24> C -3.9600301004 1.6613067743 1.0298709903
| 25> C -5.1056344289 1.3211036653 1.9618154913
| 26> O -1.2852293065 -1.0065290396 0.3503222085
| 27> C -1.6543009464 -2.2660225161 -0.2472205547
| 28> C -3.0580190674 -2.6752334945 0.1449148409
| 29> H 2.8644965485 -3.567220916 -0.2326711251
| 30> H 1.4644769528 -2.7680846549 -0.9681635127
| 31> H 2.3835755287 -3.9664528716 -1.8910950258
| 32> H 2.9380035431 -1.6476700023 -2.6154210425
| 33> H 4.3667436205 -2.4491582466 -1.9006121278
| 34> H 1.8392044546 -1.9881101964 2.664509129
| 35> H 2.9704929591 -0.6116012899 2.5192300205
| 36> H -0.0569370389 -0.3252468858 2.8382652739
| 37> H 1.1104152279 -0.1756857878 4.1659980411
| 38> H 1.1278201025 0.9868970885 2.8310262727
| 39> H -0.2875826933 2.0595268325 -1.9657955652
| 40> H 1.2344249642 2.4569561887 -1.0846498501
| 41> H -3.4337316891 2.5625802395 1.3558782503
| 42> H -4.3070484629 1.8020203607 0.0004837264
| 43> H -5.8044241271 2.1508259874 1.9840527817
| 44> H -5.6196071048 0.4291448296 1.6149707326
| 45> H -4.7261405076 1.1425185832 2.9636241969
| 46> H -1.5646178637 -2.1748844524 -1.334769108
| 47> H -0.9065443162 -2.9645488727 0.131245348
| 48> H -3.1560595933 -2.6951039092 1.2270055959
| 49> H -3.7739276403 -1.9610493957 -0.260676627
| 50> H -3.2738065201 -3.6595636641 -0.2585100058
| 51> *
| 52>
| 53>                          ****END OF INPUT****

CARTESIAN COORDINATES (ANGSTROEM)
---------------------------------
  C      2.458289   -3.168659   -1.158824
  C      3.358906   -2.079976   -1.703802
  O      3.577186   -1.010432   -0.755228
  P      2.465786   -0.071714   -0.120384
  S      3.304116    1.540701    0.594896
  O      1.663121   -0.956667    0.941965
  C      1.941410   -0.945909    2.356595
  C      0.964141   -0.055244    3.097430
  S      1.028738    0.128842   -1.657503
  C      0.403834    1.758052   -1.179467
  S     -0.449954    1.758957    0.418817
  P     -1.948492    0.357649   -0.092220
  S     -2.643521    0.461307   -1.926690
  O     -3.027718    0.561993    1.053918
  C     -3.960030    1.661307    1.029871
  C     -5.105634    1.321104    1.961815
  O     -1.285229   -1.006529    0.350322
  C     -1.654301   -2.266023   -0.247221
  C     -3.058019   -2.675233    0.144915
  H      2.864497   -3.567221   -0.232671
  H      1.464477   -2.768085   -0.968164
  H      2.383576   -3.966453   -1.891095
  H      2.938004   -1.647670   -2.615421
  H      4.366744   -2.449158   -1.900612
  H      1.839204   -1.988110    2.664509
  H      2.970493   -0.611601    2.519230
  H     -0.056937   -0.325247    2.838265
  H      1.110415   -0.175686    4.165998
  H      1.127820    0.986897    2.831026
  H     -0.287583    2.059527   -1.965796
  H      1.234425    2.456956   -1.084650
  H     -3.433732    2.562580    1.355878
  H     -4.307048    1.802020    0.000484
  H     -5.804424    2.150826    1.984053
  H     -5.619607    0.429145    1.614971
  H     -4.726141    1.142519    2.963624
  H     -1.564618   -2.174884   -1.334769
  H     -0.906544   -2.964549    0.131245
  H     -3.156060   -2.695104    1.227006
  H     -3.773928   -1.961049   -0.260677
  H     -3.273807   -3.659564   -0.258510

 Total Charge           Charge          ....    0
 Multiplicity           Mult            ....    1
 Number of Electrons    NEL             ....  202
 Basis Dimension        Dim             ....  539

ORBITAL ENERGIES
----------------

  NO   OCC          E(Eh)            E(eV)
   0   2.0000     -88.581328     -2410.4205
   1   2.0000     -88.578529     -2410.3443
   2   2.0000     -88.528117     -2408.9725
   3   2.0000     -88.527423     -2408.9537
   4   2.0000     -76.919782     -2093.0937
   5   2.0000     -76.918913     -2093.0700
   6   2.0000     -18.995787      -516.9016
   7   2.0000     -18.993187      -516.8309
   8   2.0000     -18.992899      -516.8230
   9   2.0000     -18.987900      -516.6870
  10   2.0000     -10.106821      -275.0206
  11   2.0000     -10.093767      -274.6654
  12   2.0000     -10.090217      -274.5688
  13   2.0000     -10.089717      -274.5552
  14   2.0000     -10.087713      -274.5006
  15   2.0000     -10.020973      -272.6845
  16   2.0000     -10.019718      -272.6504
  17   2.0000     -10.018531      -272.6181
  18   2.0000     -10.014173      -272.4995
  19   2.0000      -7.875828      -214.3122
  20   2.0000      -7.872925      -214.2332
  21   2.0000      -7.823166      -212.8792
  22   2.0000      -7.822714      -212.8669
  23   2.0000      -6.597972      -179.5399
  24   2.0000      -6.597598      -179.5298
  25   2.0000      -5.822744      -158.4449
  26   2.0000      -5.819790      -158.3645
  27   2.0000      -5.819658      -158.3610
  28   2.0000      -5.816775      -158.2825
  29   2.0000      -5.812879      -158.1765
  30   2.0000      -5.810051      -158.0995
  31   2.0000      -5.770725      -157.0294
  32   2.0000      -5.770411      -157.0209
  33   2.0000      -5.763419      -156.8306
  34   2.0000      -5.763230      -156.8254
  35   2.0000      -5.763178      -156.8240
  36   2.0000      -5.762380      -156.8023
  37   2.0000      -4.743721      -129.0832
  38   2.0000      -4.742906      -129.0610
  39   2.0000      -4.742676      -129.0548
  40   2.0000      -4.742538      -129.0510
  41   2.0000      -4.741785      -129.0305
  42   2.0000      -4.741502      -129.0228
  43   2.0000      -1.053668       -28.6718
  44   2.0000      -1.045780       -28.4571
  45   2.0000      -1.013859       -27.5885
  46   2.0000      -1.008346       -27.4385
  47   2.0000      -0.806456       -21.9448
  48   2.0000      -0.756969       -20.5982
  49   2.0000      -0.744991       -20.2722
  50   2.0000      -0.726485       -19.7687
  51   2.0000      -0.724125       -19.7044
  52   2.0000      -0.708429       -19.2773
  53   2.0000      -0.688257       -18.7284
  54   2.0000      -0.676333       -18.4040
  55   2.0000      -0.629967       -17.1423
  56   2.0000      -0.620138       -16.8748
  57   2.0000      -0.605609       -16.4795
  58   2.0000      -0.592318       -16.1178
  59   2.0000      -0.589055       -16.0290
  60   2.0000      -0.527051       -14.3418
  61   2.0000      -0.518269       -14.1028
  62   2.0000      -0.495449       -13.4819
  63   2.0000      -0.490080       -13.3357
  64   2.0000      -0.474885       -12.9223
  65   2.0000      -0.461679       -12.5629
  66   2.0000      -0.453883       -12.3508
  67   2.0000      -0.446722       -12.1559
  68   2.0000      -0.442416       -12.0388
  69   2.0000      -0.430890       -11.7251
  70   2.0000      -0.418759       -11.3950
  71   2.0000      -0.412284       -11.2188
  72   2.0000      -0.408020       -11.1028
  73   2.0000      -0.399544       -10.8722
  74   2.0000      -0.390665       -10.6305
  75   2.0000      -0.386212       -10.5094
  76   2.0000      -0.383746       -10.4423
  77   2.0000      -0.370651       -10.0859
  78   2.0000      -0.362932        -9.8759
  79   2.0000      -0.358577        -9.7574
  80   2.0000      -0.354151        -9.6369
  81   2.0000      -0.353154        -9.6098
  82   2.0000      -0.352637        -9.5957
  83   2.0000      -0.347827        -9.4649
  84   2.0000      -0.346621        -9.4320
  85   2.0000      -0.328380        -8.9357
  86   2.0000      -0.317854        -8.6492
  87   2.0000      -0.314556        -8.5595
  88   2.0000      -0.312300        -8.4981
  89   2.0000      -0.300529        -8.1778
  90   2.0000      -0.295335        -8.0365
  91   2.0000      -0.291832        -7.9411
  92   2.0000      -0.286135        -7.7861
  93   2.0000      -0.278998        -7.5919
  94   2.0000      -0.273516        -7.4428
  95   2.0000      -0.247596        -6.7374
  96   2.0000      -0.237448        -6.4613
  97   2.0000      -0.234906        -6.3921
  98   2.0000      -0.227276        -6.1845
  99   2.0000      -0.221860        -6.0371
 100   2.0000      -0.219237        -5.9657
 101   0.0000      -0.053022        -1.4428
 102   0.0000      -0.032811        -0.8928
 103   0.0000      -0.003107        -0.0846
 104   0.0000       0.001339         0.0364
 105   0.0000       0.008556         0.2328

MULLIKEN ATOMIC CHARGES
-----------------------
   0 C :   -0.459894
   1 C :   -0.166877
   2 O :   -0.299546
   3 P :    0.659712
   4 S :   -0.513959
   5 O :   -0.260711
   6 C :   -0.130120
   7 C :   -0.491876
   8 S :   -0.164863
   9 C :   -0.252541
  10 S :   -0.142947
  11 P :    0.734084
  12 S :   -0.531096
  13 O :   -0.313617
  14 C :   -0.149059
  15 C :   -0.483136
  16 O :   -0.285324
  17 C :   -0.150222
  18 C :   -0.493903
  19 H :    0.171594
  20 H :    0.161859
  21 H :    0.177422
  22 H :    0.176836
  23 H :    0.179839
  24 H :    0.174287
  25 H :    0.167687
  26 H :    0.164135
  27 H :    0.164997
  28 H :    0.171931
  29 H :    0.235254
  30 H :    0.230359
  31 H :    0.171655
  32 H :    0.172541
  33 H :    0.169840
  34 H :    0.166137
  35 H :    0.166190
  36 H :    0.180364
  37 H :    0.180711
  38 H :    0.170332
  39 H :    0.169091
  40 H :    0.172838
Sum of atomic charges:   -0.0000000

LOEWDIN ATOMIC CHARGES
----------------------
   0 C :   -0.400732
   1 C :    0.027115
   2 O :   -0.683168
   3 P :    0.389841
   4 S :   -0.144196
   5 O :   -0.694881
   6 C :    0.027872
   7 C :   -0.409365
   8 S :    0.166799
   9 C :   -0.412223
  10 S :    0.166096
  11 P :    0.378606
  12 S :   -0.159331
  13 O :   -0.676650
  14 C :    0.024419
  15 C :   -0.389249
  16 O :   -0.684227
  17 C :    0.020529
  18 C :   -0.402866
  19 H :    0.165632
  20 H :    0.164239
  21 H :    0.170538
  22 H :    0.180405
  23 H :    0.194159
  24 H :    0.187599
  25 H :    0.180736
  26 H :    0.163200
  27 H :    0.164430
  28 H :    0.162174
  29 H :    0.197583
  30 H :    0.197895
  31 H :    0.179774
  32 H :    0.181710
  33 H :    0.168966
  34 H :    0.162653
  35 H :    0.163357
  36 H :    0.182949
  37 H :    0.191279
  38 H :    0.164176
  39 H :    0.163024
  40 H :    0.169134

  Mayer bond orders larger than 0.100000
B(  0-C ,  1-C ) :   0.9156 B(  0-C , 19-H ) :   0.9693 B(  0-C , 20-H ) :   0.9534
B(  0-C , 21-H ) :   0.9566 B(  1-C ,  2-O ) :   0.7915 B(  1-C , 22-H ) :   0.9589
B(  1-C , 23-H ) :   0.9452 B(  2-O ,  3-P ) :   1.1481 B(  3-P ,  4-S ) :   1.8024
B(  3-P ,  5-O ) :   1.0700 B(  3-P ,  8-S ) :   1.0585 B(  5-O ,  6-C ) :   0.7637
B(  6-C ,  7-C ) :   0.9330 B(  6-C , 24-H ) :   0.9545 B(  6-C , 25-H ) :   0.9611
B(  7-C , 26-H ) :   0.9669 B(  7-C , 27-H ) :   0.9583 B(  7-C , 28-H ) :   0.9645
B(  8-S ,  9-C ) :   0.8936 B(  9-C , 10-S ) :   0.8956 B(  9-C , 29-H ) :   0.9053
B(  9-C , 30-H ) :   0.9050 B( 10-S , 11-P ) :   1.0753 B( 11-P , 12-S ) :   1.6992
B( 11-P , 13-O ) :   1.0944 B( 11-P , 16-O ) :   1.1635 B( 13-O , 14-C ) :   0.7719
B( 14-C , 15-C ) :   0.9524 B( 14-C , 31-H ) :   0.9370 B( 14-C , 32-H ) :   0.9487
B( 15-C , 33-H ) :   0.9584 B( 15-C , 34-H ) :   0.9689 B( 15-C , 35-H ) :   0.9690
B( 16-O , 17-C ) :   0.7686 B( 17-C , 18-C ) :   0.9144 B( 17-C , 36-H ) :   0.9575
B( 17-C , 37-H ) :   0.9488 B( 18-C , 38-H ) :   0.9712 B( 18-C , 39-H ) :   0.9601
B( 18-C , 40-H ) :   0.9563

Dispersion correction           -0.022143137
FINAL SINGLE POINT ENERGY     -2932.470928291785

DIPOLE MOMENT
-------------

Method             : SCF
Type of density    : Electron Density
Multiplicity       :   1
Irrep              :   0
Energy             : -2932.4951298594337459 Eh
Relativity type    :
Basis              : AO
                                X                 Y                 Z
Electronic contribution:     13.072215514      14.790786955     -10.734274926
Nuclear contribution   :    -14.191762769     -16.694132716      11.343280572
                        -----------------------------------------
Total Dipole Moment    :     -1.119547255      -1.903345760       0.609005646
                        -----------------------------------------
Magnitude (a.u.)       :      2.290632886
Magnitude (Debye)      :      5.822326088

Rotational constants in cm-1:             0.012153             0.005416             0.005059
Rotational constants in MHz :           364.334714           162.380957           151.665780

                             ****ORCA TERMINATED NORMALLY****
TOTAL RUN TIME: 0 days 0 hours 1 minutes 53 seconds 270 msec
