                         Program Version 6.0.1  -  RELEASE   -
|  1> ! pbe def2-sv(p) def2/J RI DEFGRID1 loosescf d4 GCP(DFT/SV(P)) printgap
|  2> %output
|  3>     printlevel normal
|  4> end
|  5> * xyz 0 1
|  6> C 2.8030756811 -4.1089469362 -0.9895025598
|  7> C 3.7470944348 -2.9196836349 -1.0643824096
|  8> O 3.1161934959 -1.8158376868 -1.7445826064
|  9> C 2.3848341614 -0.9809952437 -1.0471286916
| 10> O 2.2231505804 -1.0335382594 0.1569417024
| 11> C 1.7631988727 0.0978316269 -1.909595016
| 12> C 0.5314758123 0.639455462 -1.1977178639
| 13> H 0.1472868927 1.5362788841 -1.6918209832
| 14> C 0.8374618729 0.9886852285 0.2453086065
| 15> O 0.1060621577 0.650414154 1.1602126932
| 16> O 1.8803326953 1.7602040007 0.3613611999
| 17> C 2.2080239491 2.2650915136 1.6743265005
| 18> C 1.4140245011 3.5258639556 1.9741576581
| 19> S -0.7952450046 -0.6115061348 -1.1819090031
| 20> P -2.1157001382 0.2868965864 0.2402939907
| 21> S -2.1919404145 2.2359118463 0.4534395119
| 22> O -3.5086193387 -0.0758615058 -0.4549819627
| 23> C -3.9096302876 -1.4083328851 -0.807276129
| 24> O -2.2763931135 -0.6840859803 1.5005289626
| 25> C -1.5235789206 -0.8150963672 2.703067834
| 26> H 1.9260495201 -3.8533865101 -0.398569691
| 27> H 2.4827736924 -4.3955276695 -1.987120026
| 28> H 3.3126901852 -4.9446956307 -0.5215973649
| 29> H 4.6264489329 -3.1455793617 -1.6672786146
| 30> H 4.0419344739 -2.592752193 -0.0633361597
| 31> H 1.5091565921 -0.310090756 -2.8866512138
| 32> H 2.4925076821 0.9010831657 -2.0341670043
| 33> H 2.0000690049 1.4818889998 2.4076207113
| 34> H 3.2779309724 2.4667668468 1.6245217648
| 35> H 0.345562356 3.3172460289 1.9436764046
| 36> H 1.6747192721 3.8888911721 2.962550729
| 37> H 1.6354525342 4.2936025454 1.2383395833
| 38> H -3.1360326503 -1.8844842114 -1.4111680325
| 39> H -4.8236291005 -1.2875971349 -1.3833465114
| 40> H -4.0944160853 -1.9910589046 0.0933222586
| 41> H -0.5599796701 -1.2784493088 2.4967507987
| 42> H -2.1308027252 -1.452008899 3.3434668435
| 43> H -1.3681852711 0.1589481035 3.1638395158
| 44> *
| 45>
| 46>                          ****END OF INPUT****

CARTESIAN COORDINATES (ANGSTROEM)
---------------------------------
  C      2.803076   -4.108947   -0.989503
  C      3.747094   -2.919684   -1.064382
  O      3.116193   -1.815838   -1.744583
  C      2.384834   -0.980995   -1.047129
  O      2.223151   -1.033538    0.156942
  C      1.763199    0.097832   -1.909595
  C      0.531476    0.639455   -1.197718
  H      0.147287    1.536279   -1.691821
  C      0.837462    0.988685    0.245309
  O      0.106062    0.650414    1.160213
  O      1.880333    1.760204    0.361361
  C      2.208024    2.265092    1.674327
  C      1.414025    3.525864    1.974158
  S     -0.795245   -0.611506   -1.181909
  P     -2.115700    0.286897    0.240294
  S     -2.191940    2.235912    0.453440
  O     -3.508619   -0.075862   -0.454982
  C     -3.909630   -1.408333   -0.807276
  O     -2.276393   -0.684086    1.500529
  C     -1.523579   -0.815096    2.703068
  H      1.926050   -3.853387   -0.398570
  H      2.482774   -4.395528   -1.987120
  H      3.312690   -4.944696   -0.521597
  H      4.626449   -3.145579   -1.667279
  H      4.041934   -2.592752   -0.063336
  H      1.509157   -0.310091   -2.886651
  H      2.492508    0.901083   -2.034167
  H      2.000069    1.481889    2.407621
  H      3.277931    2.466767    1.624522
  H      0.345562    3.317246    1.943676
  H      1.674719    3.888891    2.962551
  H      1.635453    4.293603    1.238340
  H     -3.136033   -1.884484   -1.411168
  H     -4.823629   -1.287597   -1.383347
  H     -4.094416   -1.991059    0.093322
  H     -0.559980   -1.278449    2.496751
  H     -2.130803   -1.452009    3.343467
  H     -1.368185    0.158948    3.163840

 Total Charge           Charge          ....    0
 Multiplicity           Mult            ....    1
 Number of Electrons    NEL             ....  174
 Basis Dimension        Dim             ....  316

ORBITAL ENERGIES
----------------

  NO   OCC          E(Eh)            E(eV)
   0   2.0000     -88.027695     -2395.3553
   1   2.0000     -87.957446     -2393.4438
   2   2.0000     -76.413036     -2079.3044
   3   2.0000     -18.818609      -512.0804
   4   2.0000     -18.812276      -511.9081
   5   2.0000     -18.775233      -510.9001
   6   2.0000     -18.761437      -510.5247
   7   2.0000     -18.755017      -510.3499
   8   2.0000     -18.750330      -510.2224
   9   2.0000     -10.026141      -272.8252
  10   2.0000     -10.022672      -272.7308
  11   2.0000      -9.960013      -271.0257
  12   2.0000      -9.950693      -270.7721
  13   2.0000      -9.947449      -270.6839
  14   2.0000      -9.931806      -270.2582
  15   2.0000      -9.930133      -270.2126
  16   2.0000      -9.924519      -270.0599
  17   2.0000      -9.896041      -269.2850
  18   2.0000      -9.880604      -268.8649
  19   2.0000      -7.672619      -208.7826
  20   2.0000      -7.602863      -206.8844
  21   2.0000      -6.407788      -174.3648
  22   2.0000      -5.700588      -155.1209
  23   2.0000      -5.697356      -155.0329
  24   2.0000      -5.689301      -154.8138
  25   2.0000      -5.632389      -153.2651
  26   2.0000      -5.623738      -153.0297
  27   2.0000      -5.622095      -152.9850
  28   2.0000      -4.630802      -126.0105
  29   2.0000      -4.629862      -125.9849
  30   2.0000      -4.628187      -125.9394
  31   2.0000      -1.028637       -27.9906
  32   2.0000      -1.022378       -27.8203
  33   2.0000      -0.963318       -26.2132
  34   2.0000      -0.932996       -25.3881
  35   2.0000      -0.928778       -25.2733
  36   2.0000      -0.916076       -24.9277
  37   2.0000      -0.767261       -20.8782
  38   2.0000      -0.720697       -19.6112
  39   2.0000      -0.704917       -19.1818
  40   2.0000      -0.687267       -18.7015
  41   2.0000      -0.657217       -17.8838
  42   2.0000      -0.622841       -16.9484
  43   2.0000      -0.622619       -16.9423
  44   2.0000      -0.602987       -16.4081
  45   2.0000      -0.596061       -16.2196
  46   2.0000      -0.564031       -15.3481
  47   2.0000      -0.512023       -13.9329
  48   2.0000      -0.506798       -13.7907
  49   2.0000      -0.500290       -13.6136
  50   2.0000      -0.488665       -13.2973
  51   2.0000      -0.465585       -12.6692
  52   2.0000      -0.461868       -12.5681
  53   2.0000      -0.450482       -12.2582
  54   2.0000      -0.439305       -11.9541
  55   2.0000      -0.434531       -11.8242
  56   2.0000      -0.432300       -11.7635
  57   2.0000      -0.417037       -11.3482
  58   2.0000      -0.411959       -11.2100
  59   2.0000      -0.402100       -10.9417
  60   2.0000      -0.400143       -10.8884
  61   2.0000      -0.396020       -10.7762
  62   2.0000      -0.386718       -10.5231
  63   2.0000      -0.384132       -10.4528
  64   2.0000      -0.381021       -10.3681
  65   2.0000      -0.371563       -10.1107
  66   2.0000      -0.364668        -9.9231
  67   2.0000      -0.351178        -9.5560
  68   2.0000      -0.349022        -9.4974
  69   2.0000      -0.338673        -9.2158
  70   2.0000      -0.335451        -9.1281
  71   2.0000      -0.334077        -9.0907
  72   2.0000      -0.322086        -8.7644
  73   2.0000      -0.308454        -8.3935
  74   2.0000      -0.303148        -8.2491
  75   2.0000      -0.298901        -8.1335
  76   2.0000      -0.283805        -7.7227
  77   2.0000      -0.278720        -7.5844
  78   2.0000      -0.275320        -7.4918
  79   2.0000      -0.267401        -7.2764
  80   2.0000      -0.252855        -6.8805
  81   2.0000      -0.246302        -6.7022
  82   2.0000      -0.241793        -6.5795
  83   2.0000      -0.237055        -6.4506
  84   2.0000      -0.204978        -5.5777
  85   2.0000      -0.180907        -4.9227
  86   2.0000      -0.167626        -4.5613
  87   0.0000      -0.042822        -1.1652
  88   0.0000      -0.033223        -0.9041
  89   0.0000      -0.024796        -0.6747
  90   0.0000       0.006768         0.1842
  91   0.0000       0.035969         0.9788

MULLIKEN ATOMIC CHARGES
-----------------------
   0 C :   -0.306304
   1 C :   -0.016206
   2 O :   -0.219007
   3 C :    0.118821
   4 O :   -0.198256
   5 C :   -0.096720
   6 C :   -0.269152
   7 H :    0.151069
   8 C :    0.245233
   9 O :   -0.211217
  10 O :   -0.227549
  11 C :   -0.008323
  12 C :   -0.313888
  13 S :   -0.132728
  14 P :    0.653072
  15 S :   -0.347588
  16 O :   -0.375027
  17 C :   -0.107696
  18 O :   -0.400043
  19 C :   -0.075633
  20 H :    0.132665
  21 H :    0.118269
  22 H :    0.116819
  23 H :    0.108085
  24 H :    0.111912
  25 H :    0.129115
  26 H :    0.140887
  27 H :    0.113180
  28 H :    0.101223
  29 H :    0.147376
  30 H :    0.109627
  31 H :    0.111256
  32 H :    0.113054
  33 H :    0.124583
  34 H :    0.113406
  35 H :    0.118553
  36 H :    0.112559
  37 H :    0.114572
Sum of atomic charges:   -0.0000000

LOEWDIN ATOMIC CHARGES
----------------------
   0 C :   -0.354964
   1 C :   -0.109101
   2 O :   -0.048324
   3 C :    0.037756
   4 O :   -0.150595
   5 C :   -0.250327
   6 C :   -0.258291
   7 H :    0.147593
   8 C :    0.025556
   9 O :   -0.157646
  10 O :   -0.039283
  11 C :   -0.103118
  12 C :   -0.360619
  13 S :    0.072161
  14 P :    0.589520
  15 S :   -0.344987
  16 O :   -0.258942
  17 C :   -0.214871
  18 O :   -0.252375
  19 C :   -0.204933
  20 H :    0.133190
  21 H :    0.127075
  22 H :    0.132526
  23 H :    0.120300
  24 H :    0.121276
  25 H :    0.142982
  26 H :    0.155961
  27 H :    0.122508
  28 H :    0.117302
  29 H :    0.133045
  30 H :    0.129611
  31 H :    0.124628
  32 H :    0.100399
  33 H :    0.122334
  34 H :    0.110403
  35 H :    0.114152
  36 H :    0.114300
  37 H :    0.113799

  Mayer bond orders larger than 0.100000
B(  0-C ,  1-C ) :   1.1755 B(  0-C , 20-H ) :   0.9450 B(  0-C , 21-H ) :   0.9484
B(  0-C , 22-H ) :   0.9435 B(  1-C ,  2-O ) :   0.9058 B(  1-C , 23-H ) :   0.9365
B(  1-C , 24-H ) :   0.9142 B(  2-O ,  3-C ) :   1.2636 B(  3-C ,  4-O ) :   1.9777
B(  3-C ,  5-C ) :   0.9894 B(  4-O ,  8-C ) :   0.1121 B(  5-C ,  6-C ) :   1.0589
B(  5-C , 25-H ) :   0.9034 B(  5-C , 26-H ) :   0.8740 B(  6-C ,  7-H ) :   0.8614
B(  6-C ,  8-C ) :   0.8896 B(  6-C , 13-S ) :   1.0471 B(  8-C ,  9-O ) :   1.8732
B(  8-C , 10-O ) :   1.2688 B(  9-O , 14-P ) :   0.1496 B( 10-O , 11-C ) :   0.8991
B( 11-C , 12-C ) :   1.1770 B( 11-C , 27-H ) :   0.9162 B( 11-C , 28-H ) :   0.9375
B( 12-C , 29-H ) :   0.9282 B( 12-C , 30-H ) :   0.9417 B( 12-C , 31-H ) :   0.9480
B( 13-S , 14-P ) :   0.9082 B( 13-S , 15-S ) :   0.1058 B( 14-P , 15-S ) :   1.5799
B( 14-P , 16-O ) :   1.0845 B( 14-P , 18-O ) :   1.0826 B( 16-O , 17-C ) :   0.9417
B( 17-C , 32-H ) :   0.9361 B( 17-C , 33-H ) :   0.9613 B( 17-C , 34-H ) :   0.9471
B( 18-O , 19-C ) :   0.9311 B( 19-C , 35-H ) :   0.9506 B( 19-C , 36-H ) :   0.9528
B( 19-C , 37-H ) :   0.9505

Dispersion correction           -0.052114731
FINAL SINGLE POINT ENERGY     -1979.004046987654

DIPOLE MOMENT
-------------

Method             : SCF
Type of density    : Electron Density
Multiplicity       :   1
Irrep              :   0
Energy             : -1979.1360744429189253 Eh
Relativity type    :
Basis              : AO
                                X                 Y                 Z
Electronic contribution:    -12.459694262       7.452773110      -4.913121053
Nuclear contribution   :     14.533219457      -8.849966454       4.726619027
                        -----------------------------------------
Total Dipole Moment    :      2.073525195      -1.397193344      -0.186502025
                        -----------------------------------------
Magnitude (a.u.)       :      2.507277205
Magnitude (Debye)      :      6.372992184

Rotational constants in cm-1:             0.012427             0.007576             0.005767
Rotational constants in MHz :           372.547559           227.123428           172.876199

                             ****ORCA TERMINATED NORMALLY****
TOTAL RUN TIME: 0 days 0 hours 0 minutes 41 seconds 346 msec
