                         Program Version 6.0.0  -   RELEASE  -
|  1> ! pbe def2-sv(p) def2/J RI DEFGRID1 loosescf d4 GCP(DFT/SV(P)) printgap
|  2> %output
|  3>     printlevel normal
|  4> end
|  5> * xyz 0 1
|  6> C 4.3920965833 -0.0445434328 -2.2159394812
|  7> C 4.5453896589 0.1499037946 -0.721519283
|  8> O 3.4756087295 -0.4623545957 0.0195298583
|  9> P 1.9817371507 0.0902876584 -0.0157121303
| 10> S 1.9004030338 2.0511689852 -0.1108567039
| 11> O 1.3686865567 -0.6588471081 1.2323495568
| 12> C 1.9072439021 -0.6108824674 2.5700613264
| 13> C 1.5124703262 0.6651098922 3.285601169
| 14> S 1.0560219373 -0.9594804074 -1.5914764278
| 15> C -0.0566144716 0.3317397262 -2.2255817285
| 16> S -1.8186218651 0.0086903201 -1.9314834217
| 17> P -1.8340881598 -0.3637339842 0.1722031752
| 18> S -1.2919006916 -2.1250555851 0.8271640415
| 19> O -3.3329938143 0.0081159916 0.5547512921
| 20> C -4.3982696429 -0.955825888 0.5038106691
| 21> C -4.7189758227 -1.3745515143 -0.9160549155
| 22> O -1.0171455943 0.845971516 0.783057226
| 23> C -1.5052846273 2.2141233139 0.7017399945
| 24> C -2.1797037035 2.620332674 1.9946219495
| 25> H 4.2470915902 -1.096864215 -2.4470887031
| 26> H 3.5320772088 0.5163416678 -2.5788425603
| 27> H 5.2848647814 0.316204691 -2.7164267893
| 28> H 4.571144884 1.2159305852 -0.4729955693
| 29> H 5.4411454229 -0.3424760704 -0.3406109558
| 30> H 1.4686567238 -1.4884539088 3.0498838722
| 31> H 2.9930928878 -0.7223769481 2.5162245389
| 32> H 1.9510059403 1.5308980177 2.7927075258
| 33> H 0.430051181 0.7687001001 3.2749772368
| 34> H 1.8613087398 0.6236339381 4.3125788383
| 35> H 0.0482727934 0.3557008457 -3.3076466362
| 36> H 0.2335758219 1.2884308458 -1.7815420787
| 37> H -4.1078907693 -1.8231831908 1.1051466454
| 38> H -5.2384975102 -0.4413206485 0.9720902732
| 39> H -4.9049989082 -0.5019054158 -1.5369218645
| 40> H -3.8820409687 -1.9310425061 -1.3363239251
| 41> H -5.5978188031 -2.0111510379 -0.9130113265
| 42> H -0.6122263585 2.8154419799 0.5154862837
| 43> H -2.1919384021 2.2950545087 -0.14450528
| 44> H -2.4943103421 3.6560428929 1.9129463959
| 45> H -3.047488546 1.9936670029 2.1822107499
| 46> H -1.486993891 2.5239905683 2.8264632196
| 47> *
| 48>
| 49>                          ****END OF INPUT****

CARTESIAN COORDINATES (ANGSTROEM)
---------------------------------
  C      4.392097   -0.044543   -2.215939
  C      4.545390    0.149904   -0.721519
  O      3.475609   -0.462355    0.019530
  P      1.981737    0.090288   -0.015712
  S      1.900403    2.051169   -0.110857
  O      1.368687   -0.658847    1.232350
  C      1.907244   -0.610882    2.570061
  C      1.512470    0.665110    3.285601
  S      1.056022   -0.959480   -1.591476
  C     -0.056614    0.331740   -2.225582
  S     -1.818622    0.008690   -1.931483
  P     -1.834088   -0.363734    0.172203
  S     -1.291901   -2.125056    0.827164
  O     -3.332994    0.008116    0.554751
  C     -4.398270   -0.955826    0.503811
  C     -4.718976   -1.374552   -0.916055
  O     -1.017146    0.845972    0.783057
  C     -1.505285    2.214123    0.701740
  C     -2.179704    2.620333    1.994622
  H      4.247092   -1.096864   -2.447089
  H      3.532077    0.516342   -2.578843
  H      5.284865    0.316205   -2.716427
  H      4.571145    1.215931   -0.472996
  H      5.441145   -0.342476   -0.340611
  H      1.468657   -1.488454    3.049884
  H      2.993093   -0.722377    2.516225
  H      1.951006    1.530898    2.792708
  H      0.430051    0.768700    3.274977
  H      1.861309    0.623634    4.312579
  H      0.048273    0.355701   -3.307647
  H      0.233576    1.288431   -1.781542
  H     -4.107891   -1.823183    1.105147
  H     -5.238498   -0.441321    0.972090
  H     -4.904999   -0.501905   -1.536922
  H     -3.882041   -1.931043   -1.336324
  H     -5.597819   -2.011151   -0.913011
  H     -0.612226    2.815442    0.515486
  H     -2.191938    2.295055   -0.144505
  H     -2.494310    3.656043    1.912946
  H     -3.047489    1.993667    2.182211
  H     -1.486994    2.523991    2.826463

 Total Charge           Charge          ....    0
 Multiplicity           Mult            ....    1
 Number of Electrons    NEL             ....  202
 Basis Dimension        Dim             ....  334

ORBITAL ENERGIES
----------------

  NO   OCC          E(Eh)            E(eV)
   0   2.0000     -88.042642     -2395.7621
   1   2.0000     -88.036965     -2395.6076
   2   2.0000     -87.990321     -2394.3384
   3   2.0000     -87.976925     -2393.9738
   4   2.0000     -76.425908     -2079.6547
   5   2.0000     -76.421215     -2079.5270
   6   2.0000     -18.792397      -511.3671
   7   2.0000     -18.790121      -511.3052
   8   2.0000     -18.788414      -511.2587
   9   2.0000     -18.781640      -511.0744
  10   2.0000      -9.954495      -270.8756
  11   2.0000      -9.951285      -270.7882
  12   2.0000      -9.950431      -270.7650
  13   2.0000      -9.947104      -270.6745
  14   2.0000      -9.945047      -270.6185
  15   2.0000      -9.883460      -268.9426
  16   2.0000      -9.883373      -268.9403
  17   2.0000      -9.881114      -268.8788
  18   2.0000      -9.875820      -268.7347
  19   2.0000      -7.687587      -209.1899
  20   2.0000      -7.682035      -209.0388
  21   2.0000      -7.635065      -207.7607
  22   2.0000      -7.622071      -207.4071
  23   2.0000      -6.423258      -174.7857
  24   2.0000      -6.418539      -174.6573
  25   2.0000      -5.715445      -155.5252
  26   2.0000      -5.712228      -155.4376
  27   2.0000      -5.709981      -155.3765
  28   2.0000      -5.706436      -155.2800
  29   2.0000      -5.704391      -155.2244
  30   2.0000      -5.699079      -155.0798
  31   2.0000      -5.663674      -154.1164
  32   2.0000      -5.656079      -153.9097
  33   2.0000      -5.655094      -153.8829
  34   2.0000      -5.651248      -153.7783
  35   2.0000      -5.642481      -153.5397
  36   2.0000      -5.642180      -153.5315
  37   2.0000      -4.645940      -126.4225
  38   2.0000      -4.644658      -126.3876
  39   2.0000      -4.644007      -126.3699
  40   2.0000      -4.641702      -126.3071
  41   2.0000      -4.640326      -126.2697
  42   2.0000      -4.638464      -126.2190
  43   2.0000      -0.985722       -26.8229
  44   2.0000      -0.983772       -26.7698
  45   2.0000      -0.941810       -25.6280
  46   2.0000      -0.938832       -25.5469
  47   2.0000      -0.759665       -20.6715
  48   2.0000      -0.716586       -19.4993
  49   2.0000      -0.705232       -19.1903
  50   2.0000      -0.687409       -18.7054
  51   2.0000      -0.684916       -18.6375
  52   2.0000      -0.671826       -18.2813
  53   2.0000      -0.648600       -17.6493
  54   2.0000      -0.637078       -17.3358
  55   2.0000      -0.597280       -16.2528
  56   2.0000      -0.586758       -15.9665
  57   2.0000      -0.573563       -15.6074
  58   2.0000      -0.569608       -15.4998
  59   2.0000      -0.557655       -15.1746
  60   2.0000      -0.496875       -13.5206
  61   2.0000      -0.495418       -13.4810
  62   2.0000      -0.471792       -12.8381
  63   2.0000      -0.465805       -12.6752
  64   2.0000      -0.452223       -12.3056
  65   2.0000      -0.448519       -12.2048
  66   2.0000      -0.434185       -11.8148
  67   2.0000      -0.432208       -11.7610
  68   2.0000      -0.421211       -11.4617
  69   2.0000      -0.417793       -11.3687
  70   2.0000      -0.410674       -11.1750
  71   2.0000      -0.401386       -10.9223
  72   2.0000      -0.388204       -10.5636
  73   2.0000      -0.385644       -10.4939
  74   2.0000      -0.377732       -10.2786
  75   2.0000      -0.369216       -10.0469
  76   2.0000      -0.360076        -9.7982
  77   2.0000      -0.354859        -9.6562
  78   2.0000      -0.353885        -9.6297
  79   2.0000      -0.350415        -9.5353
  80   2.0000      -0.344497        -9.3742
  81   2.0000      -0.341959        -9.3052
  82   2.0000      -0.338059        -9.1990
  83   2.0000      -0.334290        -9.0965
  84   2.0000      -0.329915        -8.9774
  85   2.0000      -0.314532        -8.5588
  86   2.0000      -0.309795        -8.4299
  87   2.0000      -0.299014        -8.1366
  88   2.0000      -0.292879        -7.9697
  89   2.0000      -0.290149        -7.8954
  90   2.0000      -0.281396        -7.6572
  91   2.0000      -0.270131        -7.3507
  92   2.0000      -0.263741        -7.1768
  93   2.0000      -0.260812        -7.0970
  94   2.0000      -0.255947        -6.9647
  95   2.0000      -0.237631        -6.4663
  96   2.0000      -0.221350        -6.0232
  97   2.0000      -0.208553        -5.6750
  98   2.0000      -0.201910        -5.4942
  99   2.0000      -0.191228        -5.2036
 100   2.0000      -0.185826        -5.0566
 101   0.0000      -0.043884        -1.1941
 102   0.0000      -0.031907        -0.8682
 103   0.0000      -0.011115        -0.3025
 104   0.0000       0.009090         0.2473
 105   0.0000       0.013506         0.3675

MULLIKEN ATOMIC CHARGES
-----------------------
   0 C :   -0.308523
   1 C :   -0.003751
   2 O :   -0.380040
   3 P :    0.645288
   4 S :   -0.342080
   5 O :   -0.342817
   6 C :    0.000452
   7 C :   -0.322380
   8 S :   -0.068657
   9 C :   -0.351485
  10 S :   -0.111290
  11 P :    0.593023
  12 S :   -0.287617
  13 O :   -0.382245
  14 C :   -0.000151
  15 C :   -0.326546
  16 O :   -0.359647
  17 C :   -0.023516
  18 C :   -0.292765
  19 H :    0.119479
  20 H :    0.117510
  21 H :    0.111695
  22 H :    0.110638
  23 H :    0.103701
  24 H :    0.109353
  25 H :    0.101874
  26 H :    0.121670
  27 H :    0.134644
  28 H :    0.104372
  29 H :    0.180099
  30 H :    0.197691
  31 H :    0.111106
  32 H :    0.102396
  33 H :    0.119405
  34 H :    0.133178
  35 H :    0.115646
  36 H :    0.120803
  37 H :    0.099826
  38 H :    0.107186
  39 H :    0.117683
  40 H :    0.124796
Sum of atomic charges:   -0.0000000

LOEWDIN ATOMIC CHARGES
----------------------
   0 C :   -0.368517
   1 C :   -0.120739
   2 O :   -0.246072
   3 P :    0.575552
   4 S :   -0.302382
   5 O :   -0.222818
   6 C :   -0.107878
   7 C :   -0.367590
   8 S :    0.110027
   9 C :   -0.483608
  10 S :    0.059903
  11 P :    0.564721
  12 S :   -0.296926
  13 O :   -0.247528
  14 C :   -0.120721
  15 C :   -0.373013
  16 O :   -0.235307
  17 C :   -0.125313
  18 C :   -0.357234
  19 H :    0.125442
  20 H :    0.118376
  21 H :    0.130157
  22 H :    0.108736
  23 H :    0.117823
  24 H :    0.121326
  25 H :    0.108776
  26 H :    0.119794
  27 H :    0.128261
  28 H :    0.126689
  29 H :    0.137752
  30 H :    0.119995
  31 H :    0.110558
  32 H :    0.117097
  33 H :    0.123787
  34 H :    0.123034
  35 H :    0.132647
  36 H :    0.110386
  37 H :    0.104588
  38 H :    0.129510
  39 H :    0.124261
  40 H :    0.126447

  Mayer bond orders larger than 0.100000
B(  0-C ,  1-C ) :   1.1665 B(  0-C , 19-H ) :   0.9444 B(  0-C , 20-H ) :   0.9379
B(  0-C , 21-H ) :   0.9380 B(  1-C ,  2-O ) :   0.9123 B(  1-C , 22-H ) :   0.9134
B(  1-C , 23-H ) :   0.9332 B(  2-O ,  3-P ) :   1.0885 B(  3-P ,  4-S ) :   1.5597
B(  3-P ,  5-O ) :   1.1577 B(  3-P ,  8-S ) :   0.9753 B(  4-S ,  8-S ) :   0.1211
B(  4-S , 30-H ) :   0.1088 B(  5-O ,  6-C ) :   0.9053 B(  6-C ,  7-C ) :   1.1647
B(  6-C , 24-H ) :   0.9309 B(  6-C , 25-H ) :   0.9265 B(  7-C , 26-H ) :   0.9368
B(  7-C , 27-H ) :   0.9360 B(  7-C , 28-H ) :   0.9376 B(  8-S ,  9-C ) :   1.0116
B(  9-C , 10-S ) :   0.9881 B(  9-C , 29-H ) :   0.9121 B(  9-C , 30-H ) :   0.8526
B( 10-S , 11-P ) :   0.9493 B( 10-S , 12-S ) :   0.1101 B( 11-P , 12-S ) :   1.6751
B( 11-P , 13-O ) :   1.0612 B( 11-P , 16-O ) :   1.1111 B( 13-O , 14-C ) :   0.9101
B( 14-C , 15-C ) :   1.1659 B( 14-C , 31-H ) :   0.9126 B( 14-C , 32-H ) :   0.9325
B( 15-C , 33-H ) :   0.9429 B( 15-C , 34-H ) :   0.9313 B( 15-C , 35-H ) :   0.9378
B( 16-O , 17-C ) :   0.8846 B( 17-C , 18-C ) :   1.1678 B( 17-C , 36-H ) :   0.9071
B( 17-C , 37-H ) :   0.9112 B( 18-C , 38-H ) :   0.9394 B( 18-C , 39-H ) :   0.9434
B( 18-C , 40-H ) :   0.9443

Dispersion correction           -0.069532534
FINAL SINGLE POINT ENERGY     -2929.514564341497

DIPOLE MOMENT
-------------

Method             : SCF
Type of density    : Electron Density
Multiplicity       :   1
Irrep              :   0
Energy             : -2929.6327983524606680 Eh
Relativity type    :
Basis              : AO
                                X                 Y                 Z
Electronic contribution:      1.559228794      -8.632965678      -7.378127101
Nuclear contribution   :     -1.529201624       9.221375742       7.377069967
                        -----------------------------------------
Total Dipole Moment    :      0.030027170       0.588410064      -0.001057134
                        -----------------------------------------
Magnitude (a.u.)       :      0.589176673
Magnitude (Debye)      :      1.497568089

Rotational constants in cm-1:             0.012645             0.005808             0.005280
Rotational constants in MHz :           379.076603           174.112434           158.287089

                             ****ORCA TERMINATED NORMALLY****
TOTAL RUN TIME: 0 days 0 hours 0 minutes 21 seconds 591 msec
