                         Program Version 6.0.1  -  RELEASE   -
|  1> ! pbe def2-sv(p) def2/J RI DEFGRID1 loosescf d4 GCP(DFT/SV(P)) printgap
|  2> %output
|  3>     printlevel normal
|  4> end
|  5> * xyz 0 1
|  6> C 5.275330505 -2.2271855105 0.6392834195
|  7> C 4.6211032922 -1.1316430985 -0.1804479139
|  8> O 3.1943396743 -1.3366501603 -0.1524288884
|  9> C 2.4698654518 -0.8316395334 -1.1242220363
| 10> O 2.9124404456 -0.1881084027 -2.0516281492
| 11> C 0.9999503415 -1.1777848407 -0.9616264381
| 12> C 0.1543614476 0.012841031 -1.3971668813
| 13> H 0.5182271434 0.3651297791 -2.3699341799
| 14> C 0.2389956659 1.1741984875 -0.4305209519
| 15> O -0.7077376747 1.9005346222 -0.189956174
| 16> O 1.427728243 1.3093677896 0.083806867
| 17> C 1.6292557515 2.3668559638 1.0478304497
| 18> C 3.0734377541 2.3118397991 1.5008320527
| 19> S -1.6017756249 -0.3933227305 -1.6630363248
| 20> P -2.3900278185 -0.1186580115 0.2868645838
| 21> S -1.1947336866 -0.3635810476 1.8310523225
| 22> O -3.3658483487 1.1287684662 0.2907804519
| 23> C -3.2100178511 2.315724714 1.0723566272
| 24> O -3.5681717684 -1.1968690658 0.2510784997
| 25> C -3.2868982018 -2.6004590293 0.2175478174
| 26> H 5.0614882791 -3.1997941187 0.2060707847
| 27> H 6.3488019013 -2.0710436614 0.6545248593
| 28> H 4.8946431884 -2.2065242372 1.6558999771
| 29> H 4.9529027957 -1.1434943659 -1.2231074933
| 30> H 4.824305338 -0.1424602729 0.239778062
| 31> H 0.8067853589 -1.4553840669 0.0751394074
| 32> H 0.7770181814 -2.0273400453 -1.6097428629
| 33> H 1.3831996153 3.3190318922 0.5689843309
| 34> H 0.9337336281 2.1985515565 1.8761822493
| 35> H 3.7339002377 2.4342404629 0.6468324896
| 36> H 3.2549672329 3.110126125 2.212462646
| 37> H 3.2754305423 1.3560387788 1.9755077269
| 38> H -2.7436859342 3.0879315447 0.463335629
| 39> H -2.591354478 2.1173392325 1.949495024
| 40> H -4.2136453276 2.6069004123 1.3739987119
| 41> H -2.8934712399 -2.8810626197 -0.7595077731
| 42> H -4.2391542268 -3.0914317248 0.4008917025
| 43> H -2.5701186519 -2.858367816 0.9994456311
| 44> *
| 45>
| 46>                          ****END OF INPUT****

CARTESIAN COORDINATES (ANGSTROEM)
---------------------------------
  C      5.275331   -2.227186    0.639283
  C      4.621103   -1.131643   -0.180448
  O      3.194340   -1.336650   -0.152429
  C      2.469865   -0.831640   -1.124222
  O      2.912440   -0.188108   -2.051628
  C      0.999950   -1.177785   -0.961626
  C      0.154361    0.012841   -1.397167
  H      0.518227    0.365130   -2.369934
  C      0.238996    1.174198   -0.430521
  O     -0.707738    1.900535   -0.189956
  O      1.427728    1.309368    0.083807
  C      1.629256    2.366856    1.047830
  C      3.073438    2.311840    1.500832
  S     -1.601776   -0.393323   -1.663036
  P     -2.390028   -0.118658    0.286865
  S     -1.194734   -0.363581    1.831052
  O     -3.365848    1.128768    0.290780
  C     -3.210018    2.315725    1.072357
  O     -3.568172   -1.196869    0.251078
  C     -3.286898   -2.600459    0.217548
  H      5.061488   -3.199794    0.206071
  H      6.348802   -2.071044    0.654525
  H      4.894643   -2.206524    1.655900
  H      4.952903   -1.143494   -1.223107
  H      4.824305   -0.142460    0.239778
  H      0.806785   -1.455384    0.075139
  H      0.777018   -2.027340   -1.609743
  H      1.383200    3.319032    0.568984
  H      0.933734    2.198552    1.876182
  H      3.733900    2.434240    0.646832
  H      3.254967    3.110126    2.212463
  H      3.275431    1.356039    1.975508
  H     -2.743686    3.087932    0.463336
  H     -2.591354    2.117339    1.949495
  H     -4.213645    2.606900    1.373999
  H     -2.893471   -2.881063   -0.759508
  H     -4.239154   -3.091432    0.400892
  H     -2.570119   -2.858368    0.999446

 Total Charge           Charge          ....    0
 Multiplicity           Mult            ....    1
 Number of Electrons    NEL             ....  174
 Basis Dimension        Dim             ....  316

ORBITAL ENERGIES
----------------

  NO   OCC          E(Eh)            E(eV)
   0   2.0000     -88.037021     -2395.6091
   1   2.0000     -87.981476     -2394.0977
   2   2.0000     -76.423437     -2079.5874
   3   2.0000     -18.820345      -512.1276
   4   2.0000     -18.804682      -511.7014
   5   2.0000     -18.782666      -511.1023
   6   2.0000     -18.781153      -511.0612
   7   2.0000     -18.748152      -510.1631
   8   2.0000     -18.738610      -509.9035
   9   2.0000     -10.026055      -272.8228
  10   2.0000     -10.010758      -272.4066
  11   2.0000      -9.956700      -270.9356
  12   2.0000      -9.951167      -270.7850
  13   2.0000      -9.948553      -270.7139
  14   2.0000      -9.937256      -270.4065
  15   2.0000      -9.933143      -270.2946
  16   2.0000      -9.906374      -269.5661
  17   2.0000      -9.896019      -269.2844
  18   2.0000      -9.892462      -269.1876
  19   2.0000      -7.682150      -209.0419
  20   2.0000      -7.626421      -207.5255
  21   2.0000      -6.419632      -174.6871
  22   2.0000      -5.710223      -155.3831
  23   2.0000      -5.706663      -155.2862
  24   2.0000      -5.698898      -155.0749
  25   2.0000      -5.655297      -153.8885
  26   2.0000      -5.647196      -153.6680
  27   2.0000      -5.646418      -153.6468
  28   2.0000      -4.641933      -126.3134
  29   2.0000      -4.641766      -126.3089
  30   2.0000      -4.640259      -126.2679
  31   2.0000      -1.029741       -28.0207
  32   2.0000      -1.012488       -27.5512
  33   2.0000      -0.977396       -26.5963
  34   2.0000      -0.933684       -25.4068
  35   2.0000      -0.928296       -25.2602
  36   2.0000      -0.916214       -24.9315
  37   2.0000      -0.765749       -20.8371
  38   2.0000      -0.716886       -19.5075
  39   2.0000      -0.715597       -19.4724
  40   2.0000      -0.691457       -18.8155
  41   2.0000      -0.656731       -17.8706
  42   2.0000      -0.629996       -17.1431
  43   2.0000      -0.620696       -16.8900
  44   2.0000      -0.615981       -16.7617
  45   2.0000      -0.590611       -16.0713
  46   2.0000      -0.562339       -15.3020
  47   2.0000      -0.520289       -14.1578
  48   2.0000      -0.512969       -13.9586
  49   2.0000      -0.504650       -13.7322
  50   2.0000      -0.480789       -13.0829
  51   2.0000      -0.464588       -12.6421
  52   2.0000      -0.462895       -12.5960
  53   2.0000      -0.451880       -12.2963
  54   2.0000      -0.445346       -12.1185
  55   2.0000      -0.437839       -11.9142
  56   2.0000      -0.419374       -11.4118
  57   2.0000      -0.416983       -11.3467
  58   2.0000      -0.412708       -11.2303
  59   2.0000      -0.404500       -11.0070
  60   2.0000      -0.400679       -10.9030
  61   2.0000      -0.395601       -10.7649
  62   2.0000      -0.386599       -10.5199
  63   2.0000      -0.384755       -10.4697
  64   2.0000      -0.371437       -10.1073
  65   2.0000      -0.368312       -10.0223
  66   2.0000      -0.363531        -9.8922
  67   2.0000      -0.360968        -9.8224
  68   2.0000      -0.355313        -9.6686
  69   2.0000      -0.344232        -9.3670
  70   2.0000      -0.340902        -9.2764
  71   2.0000      -0.326352        -8.8805
  72   2.0000      -0.325636        -8.8610
  73   2.0000      -0.310046        -8.4368
  74   2.0000      -0.308580        -8.3969
  75   2.0000      -0.297923        -8.1069
  76   2.0000      -0.296805        -8.0765
  77   2.0000      -0.285879        -7.7792
  78   2.0000      -0.275406        -7.4942
  79   2.0000      -0.263525        -7.1709
  80   2.0000      -0.260959        -7.1011
  81   2.0000      -0.253298        -6.8926
  82   2.0000      -0.236802        -6.4437
  83   2.0000      -0.230212        -6.2644
  84   2.0000      -0.215753        -5.8709
  85   2.0000      -0.198399        -5.3987
  86   2.0000      -0.196760        -5.3541
  87   0.0000      -0.048553        -1.3212
  88   0.0000      -0.030591        -0.8324
  89   0.0000      -0.017184        -0.4676
  90   0.0000       0.007683         0.2091
  91   0.0000       0.025786         0.7017

MULLIKEN ATOMIC CHARGES
-----------------------
   0 C :   -0.277167
   1 C :   -0.038671
   2 O :   -0.224905
   3 C :    0.111479
   4 O :   -0.215476
   5 C :   -0.054398
   6 C :   -0.300854
   7 H :    0.168149
   8 C :    0.190811
   9 O :   -0.207380
  10 O :   -0.212076
  11 C :   -0.028887
  12 C :   -0.290575
  13 S :   -0.077570
  14 P :    0.620970
  15 S :   -0.349587
  16 O :   -0.363769
  17 C :   -0.090471
  18 O :   -0.368685
  19 C :   -0.100734
  20 H :    0.116079
  21 H :    0.112046
  22 H :    0.117009
  23 H :    0.113321
  24 H :    0.107033
  25 H :    0.117679
  26 H :    0.118690
  27 H :    0.109668
  28 H :    0.119202
  29 H :    0.128134
  30 H :    0.115065
  31 H :    0.126455
  32 H :    0.127605
  33 H :    0.114065
  34 H :    0.117922
  35 H :    0.112481
  36 H :    0.124751
  37 H :    0.112592
Sum of atomic charges:   -0.0000000

LOEWDIN ATOMIC CHARGES
----------------------
   0 C :   -0.350216
   1 C :   -0.108685
   2 O :   -0.054748
   3 C :    0.024872
   4 O :   -0.175797
   5 C :   -0.256715
   6 C :   -0.266294
   7 H :    0.158901
   8 C :    0.014925
   9 O :   -0.169894
  10 O :   -0.026830
  11 C :   -0.102269
  12 C :   -0.352325
  13 S :    0.113230
  14 P :    0.588293
  15 S :   -0.330935
  16 O :   -0.234022
  17 C :   -0.207166
  18 O :   -0.253095
  19 C :   -0.219611
  20 H :    0.127252
  21 H :    0.130662
  22 H :    0.127359
  23 H :    0.119364
  24 H :    0.115145
  25 H :    0.132950
  26 H :    0.145388
  27 H :    0.119411
  28 H :    0.122193
  29 H :    0.129105
  30 H :    0.133241
  31 H :    0.128769
  32 H :    0.116934
  33 H :    0.107558
  34 H :    0.117250
  35 H :    0.105409
  36 H :    0.122317
  37 H :    0.108074

  Mayer bond orders larger than 0.100000
B(  0-C ,  1-C ) :   1.1577 B(  0-C , 20-H ) :   0.9517 B(  0-C , 21-H ) :   0.9441
B(  0-C , 22-H ) :   0.9483 B(  1-C ,  2-O ) :   0.9076 B(  1-C , 23-H ) :   0.9205
B(  1-C , 24-H ) :   0.9283 B(  2-O ,  3-C ) :   1.2447 B(  3-C ,  4-O ) :   2.0369
B(  3-C ,  5-C ) :   0.9935 B(  5-C ,  6-C ) :   1.0291 B(  5-C , 25-H ) :   0.8903
B(  5-C , 26-H ) :   0.8788 B(  6-C ,  7-H ) :   0.8453 B(  6-C ,  8-C ) :   0.9204
B(  6-C , 13-S ) :   1.0208 B(  8-C ,  9-O ) :   1.9632 B(  8-C , 10-O ) :   1.2807
B( 10-O , 11-C ) :   0.8886 B( 11-C , 12-C ) :   1.1578 B( 11-C , 27-H ) :   0.9310
B( 11-C , 28-H ) :   0.9242 B( 12-C , 29-H ) :   0.9444 B( 12-C , 30-H ) :   0.9403
B( 12-C , 31-H ) :   0.9445 B( 13-S , 14-P ) :   0.9457 B( 13-S , 15-S ) :   0.1151
B( 14-P , 15-S ) :   1.5511 B( 14-P , 16-O ) :   1.1479 B( 14-P , 18-O ) :   1.1009
B( 16-O , 17-C ) :   0.9231 B( 17-C , 32-H ) :   0.9501 B( 17-C , 33-H ) :   0.9359
B( 17-C , 34-H ) :   0.9542 B( 18-O , 19-C ) :   0.9395 B( 19-C , 35-H ) :   0.9438
B( 19-C , 36-H ) :   0.9591 B( 19-C , 37-H ) :   0.9352

Dispersion correction           -0.052029626
FINAL SINGLE POINT ENERGY     -1979.018414505957

DIPOLE MOMENT
-------------

Method             : SCF
Type of density    : Electron Density
Multiplicity       :   1
Irrep              :   0
Energy             : -1979.1492967051253800 Eh
Relativity type    :
Basis              : AO
                                X                 Y                 Z
Electronic contribution:    -21.278085777       0.275253821      -8.005909800
Nuclear contribution   :     22.398665335      -0.299954001       8.471639968
                        -----------------------------------------
Total Dipole Moment    :      1.120579558      -0.024700180       0.465730168
                        -----------------------------------------
Magnitude (a.u.)       :      1.213759957
Magnitude (Debye)      :      3.085132632

Rotational constants in cm-1:             0.015807             0.006177             0.005488
Rotational constants in MHz :           473.880919           185.171995           164.520092

                             ****ORCA TERMINATED NORMALLY****
TOTAL RUN TIME: 0 days 0 hours 0 minutes 28 seconds 236 msec
