                         Program Version 6.0.0  -   RELEASE  -
|  1> ! pbe def2-sv(p) def2/J RI DEFGRID1 loosescf d4 GCP(DFT/SV(P)) printgap
|  2> %output
|  3>     printlevel normal
|  4> end
|  5> * xyz 0 1
|  6> C 4.8525763087 1.6469277111 -0.23906719
|  7> C 4.0556592645 1.3093688854 -1.4820070822
|  8> O 3.2918409902 0.0951941083 -1.3509035034
|  9> P 2.3165927588 -0.2698780107 -0.1506753545
| 10> S 3.1464714593 -0.8793612237 1.5217196923
| 11> O 1.4040683241 -1.3530468844 -0.8521230518
| 12> C 1.5569803047 -2.7795933989 -0.6936118767
| 13> C 0.2604395437 -3.3751722296 -0.1835403299
| 14> S 1.0467150668 1.4095721873 -0.0267975648
| 15> C 0.3675752123 1.0654056706 1.6150430878
| 16> S -0.8367644351 -0.2944561194 1.6416053067
| 17> P -2.1120793581 0.3069270901 0.0516370477
| 18> S -1.7276697497 -0.3070963798 -1.7745284234
| 19> O -2.1110396305 1.8695224057 0.300547973
| 20> C -2.4301374011 2.8055009526 -0.7503143156
| 21> C -3.9018240268 2.765328683 -1.1028158389
| 22> O -3.563293939 -0.1051168354 0.5581289888
| 23> C -4.13627732 -1.3950063183 0.2982592029
| 24> C -3.544363177 -2.4561181605 1.2036598572
| 25> H 4.1819850829 1.8690508419 0.5900198546
| 26> H 5.4860779755 0.8097985628 0.0448010014
| 27> H 5.4721623796 2.5159866538 -0.4356680079
| 28> H 4.7087280913 1.108797955 -2.3333400425
| 29> H 3.3625943043 2.1181321931 -1.7306796963
| 30> H 1.8100015121 -3.1640630307 -1.6833312632
| 31> H 2.3806306024 -2.9753381438 0.0010209826
| 32> H 0.3393526936 -4.4572359114 -0.1837003756
| 33> H 0.062005001 -3.029248513 0.8289336799
| 34> H -0.5590014769 -3.0729760198 -0.8319705189
| 35> H -0.1084112416 1.9799478058 1.9580202315
| 36> H 1.1748407753 0.7580927546 2.2827205157
| 37> H -2.1348172426 3.7716024498 -0.3392247373
| 38> H -1.8132032198 2.5705879903 -1.6237912773
| 39> H -4.5054022344 2.9122378662 -0.2111701515
| 40> H -4.12125747 3.5468680322 -1.8233794391
| 41> H -4.1496965564 1.7993067564 -1.540833482
| 42> H -5.202746357 -1.2572703817 0.4817178822
| 43> H -3.9692813936 -1.6438476606 -0.7557018755
| 44> H -3.6737807348 -2.1773967459 2.2459344013
| 45> H -4.0345085827 -3.406413651 1.0187398296
| 46> H -2.4784511436 -2.5609784129 1.0029814165
| 47> *
| 48>
| 49>                          ****END OF INPUT****

CARTESIAN COORDINATES (ANGSTROEM)
---------------------------------
  C      4.852576    1.646928   -0.239067
  C      4.055659    1.309369   -1.482007
  O      3.291841    0.095194   -1.350904
  P      2.316593   -0.269878   -0.150675
  S      3.146471   -0.879361    1.521720
  O      1.404068   -1.353047   -0.852123
  C      1.556980   -2.779593   -0.693612
  C      0.260440   -3.375172   -0.183540
  S      1.046715    1.409572   -0.026798
  C      0.367575    1.065406    1.615043
  S     -0.836764   -0.294456    1.641605
  P     -2.112079    0.306927    0.051637
  S     -1.727670   -0.307096   -1.774528
  O     -2.111040    1.869522    0.300548
  C     -2.430137    2.805501   -0.750314
  C     -3.901824    2.765329   -1.102816
  O     -3.563294   -0.105117    0.558129
  C     -4.136277   -1.395006    0.298259
  C     -3.544363   -2.456118    1.203660
  H      4.181985    1.869051    0.590020
  H      5.486078    0.809799    0.044801
  H      5.472162    2.515987   -0.435668
  H      4.708728    1.108798   -2.333340
  H      3.362594    2.118132   -1.730680
  H      1.810002   -3.164063   -1.683331
  H      2.380631   -2.975338    0.001021
  H      0.339353   -4.457236   -0.183700
  H      0.062005   -3.029249    0.828934
  H     -0.559001   -3.072976   -0.831971
  H     -0.108411    1.979948    1.958020
  H      1.174841    0.758093    2.282721
  H     -2.134817    3.771602   -0.339225
  H     -1.813203    2.570588   -1.623791
  H     -4.505402    2.912238   -0.211170
  H     -4.121257    3.546868   -1.823379
  H     -4.149697    1.799307   -1.540833
  H     -5.202746   -1.257270    0.481718
  H     -3.969281   -1.643848   -0.755702
  H     -3.673781   -2.177397    2.245934
  H     -4.034509   -3.406414    1.018740
  H     -2.478451   -2.560978    1.002981

 Total Charge           Charge          ....    0
 Multiplicity           Mult            ....    1
 Number of Electrons    NEL             ....  202
 Basis Dimension        Dim             ....  334

ORBITAL ENERGIES
----------------

  NO   OCC          E(Eh)            E(eV)
   0   2.0000     -88.045402     -2395.8372
   1   2.0000     -88.039249     -2395.6698
   2   2.0000     -87.984398     -2394.1772
   3   2.0000     -87.983860     -2394.1625
   4   2.0000     -76.426361     -2079.6670
   5   2.0000     -76.424193     -2079.6080
   6   2.0000     -18.796284      -511.4729
   7   2.0000     -18.791140      -511.3329
   8   2.0000     -18.788816      -511.2697
   9   2.0000     -18.779642      -511.0200
  10   2.0000      -9.956688      -270.9353
  11   2.0000      -9.955941      -270.9149
  12   2.0000      -9.954502      -270.8758
  13   2.0000      -9.952094      -270.8102
  14   2.0000      -9.941381      -270.5187
  15   2.0000      -9.887323      -269.0477
  16   2.0000      -9.885208      -268.9902
  17   2.0000      -9.881985      -268.9025
  18   2.0000      -9.871018      -268.6041
  19   2.0000      -7.690429      -209.2672
  20   2.0000      -7.684302      -209.1005
  21   2.0000      -7.629315      -207.6042
  22   2.0000      -7.628888      -207.5926
  23   2.0000      -6.423831      -174.8013
  24   2.0000      -6.421498      -174.7379
  25   2.0000      -5.718215      -155.6005
  26   2.0000      -5.714882      -155.5098
  27   2.0000      -5.712451      -155.4437
  28   2.0000      -5.708840      -155.3454
  29   2.0000      -5.707504      -155.3091
  30   2.0000      -5.700950      -155.1307
  31   2.0000      -5.658117      -153.9652
  32   2.0000      -5.657646      -153.9524
  33   2.0000      -5.650170      -153.7489
  34   2.0000      -5.649765      -153.7379
  35   2.0000      -5.649387      -153.7276
  36   2.0000      -5.648947      -153.7157
  37   2.0000      -4.646446      -126.4362
  38   2.0000      -4.645641      -126.4143
  39   2.0000      -4.644197      -126.3750
  40   2.0000      -4.643935      -126.3679
  41   2.0000      -4.643411      -126.3536
  42   2.0000      -4.641980      -126.3147
  43   2.0000      -0.989170       -26.9167
  44   2.0000      -0.980111       -26.6702
  45   2.0000      -0.948937       -25.8219
  46   2.0000      -0.937610       -25.5137
  47   2.0000      -0.764391       -20.8001
  48   2.0000      -0.720297       -19.6003
  49   2.0000      -0.707360       -19.2483
  50   2.0000      -0.688967       -18.7478
  51   2.0000      -0.682260       -18.5652
  52   2.0000      -0.670867       -18.2552
  53   2.0000      -0.651298       -17.7227
  54   2.0000      -0.638020       -17.3614
  55   2.0000      -0.600328       -16.3357
  56   2.0000      -0.590401       -16.0656
  57   2.0000      -0.574491       -15.6327
  58   2.0000      -0.571037       -15.5387
  59   2.0000      -0.556886       -15.1536
  60   2.0000      -0.498077       -13.5534
  61   2.0000      -0.493875       -13.4390
  62   2.0000      -0.477006       -12.9800
  63   2.0000      -0.465580       -12.6691
  64   2.0000      -0.460525       -12.5315
  65   2.0000      -0.442784       -12.0488
  66   2.0000      -0.439959       -11.9719
  67   2.0000      -0.429618       -11.6905
  68   2.0000      -0.425050       -11.5662
  69   2.0000      -0.414939       -11.2911
  70   2.0000      -0.411971       -11.2103
  71   2.0000      -0.396254       -10.7826
  72   2.0000      -0.394445       -10.7334
  73   2.0000      -0.388708       -10.5773
  74   2.0000      -0.379472       -10.3260
  75   2.0000      -0.371972       -10.1219
  76   2.0000      -0.368795       -10.0354
  77   2.0000      -0.358056        -9.7432
  78   2.0000      -0.352598        -9.5947
  79   2.0000      -0.349076        -9.4989
  80   2.0000      -0.346733        -9.4351
  81   2.0000      -0.343625        -9.3505
  82   2.0000      -0.338874        -9.2212
  83   2.0000      -0.334477        -9.1016
  84   2.0000      -0.329060        -8.9542
  85   2.0000      -0.320179        -8.7125
  86   2.0000      -0.305064        -8.3012
  87   2.0000      -0.295831        -8.0500
  88   2.0000      -0.294694        -8.0190
  89   2.0000      -0.286230        -7.7887
  90   2.0000      -0.282351        -7.6831
  91   2.0000      -0.275577        -7.4988
  92   2.0000      -0.268461        -7.3052
  93   2.0000      -0.262352        -7.1390
  94   2.0000      -0.259556        -7.0629
  95   2.0000      -0.234559        -6.3827
  96   2.0000      -0.220599        -6.0028
  97   2.0000      -0.206646        -5.6231
  98   2.0000      -0.199708        -5.4343
  99   2.0000      -0.197784        -5.3820
 100   2.0000      -0.192490        -5.2379
 101   0.0000      -0.048634        -1.3234
 102   0.0000      -0.022000        -0.5986
 103   0.0000      -0.020893        -0.5685
 104   0.0000       0.002320         0.0631
 105   0.0000       0.018332         0.4988

MULLIKEN ATOMIC CHARGES
-----------------------
   0 C :   -0.310354
   1 C :   -0.007076
   2 O :   -0.371890
   3 P :    0.622782
   4 S :   -0.340215
   5 O :   -0.347931
   6 C :    0.004497
   7 C :   -0.320344
   8 S :   -0.099544
   9 C :   -0.337106
  10 S :   -0.099410
  11 P :    0.616116
  12 S :   -0.307572
  13 O :   -0.377143
  14 C :   -0.005960
  15 C :   -0.303240
  16 O :   -0.366449
  17 C :   -0.006097
  18 C :   -0.335425
  19 H :    0.121480
  20 H :    0.127954
  21 H :    0.110063
  22 H :    0.109504
  23 H :    0.111258
  24 H :    0.100667
  25 H :    0.104813
  26 H :    0.100343
  27 H :    0.134389
  28 H :    0.127640
  29 H :    0.186695
  30 H :    0.192003
  31 H :    0.102722
  32 H :    0.115495
  33 H :    0.117346
  34 H :    0.112522
  35 H :    0.123339
  36 H :    0.105657
  37 H :    0.107245
  38 H :    0.121797
  39 H :    0.115410
  40 H :    0.144018
Sum of atomic charges:   -0.0000000

LOEWDIN ATOMIC CHARGES
----------------------
   0 C :   -0.370379
   1 C :   -0.112908
   2 O :   -0.245638
   3 P :    0.574288
   4 S :   -0.321822
   5 O :   -0.231556
   6 C :   -0.112631
   7 C :   -0.365411
   8 S :    0.089440
   9 C :   -0.476524
  10 S :    0.085493
  11 P :    0.569982
  12 S :   -0.305415
  13 O :   -0.241380
  14 C :   -0.118223
  15 C :   -0.364027
  16 O :   -0.243064
  17 C :   -0.122454
  18 C :   -0.367587
  19 H :    0.119226
  20 H :    0.129996
  21 H :    0.129270
  22 H :    0.121748
  23 H :    0.109008
  24 H :    0.115370
  25 H :    0.104605
  26 H :    0.124961
  27 H :    0.119939
  28 H :    0.122456
  29 H :    0.133960
  30 H :    0.129189
  31 H :    0.117279
  32 H :    0.111778
  33 H :    0.126986
  34 H :    0.130881
  35 H :    0.123463
  36 H :    0.118894
  37 H :    0.106878
  38 H :    0.127827
  39 H :    0.132638
  40 H :    0.123461

  Mayer bond orders larger than 0.100000
B(  0-C ,  1-C ) :   1.1636 B(  0-C , 19-H ) :   0.9338 B(  0-C , 20-H ) :   0.9419
B(  0-C , 21-H ) :   0.9350 B(  1-C ,  2-O ) :   0.9160 B(  1-C , 22-H ) :   0.9345
B(  1-C , 23-H ) :   0.9289 B(  2-O ,  3-P ) :   1.1204 B(  3-P ,  4-S ) :   1.5934
B(  3-P ,  5-O ) :   1.1570 B(  3-P ,  8-S ) :   0.9423 B(  4-S ,  8-S ) :   0.1074
B(  5-O ,  6-C ) :   0.9014 B(  6-C ,  7-C ) :   1.1664 B(  6-C , 24-H ) :   0.9324
B(  6-C , 25-H ) :   0.9035 B(  7-C , 26-H ) :   0.9364 B(  7-C , 27-H ) :   0.9351
B(  7-C , 28-H ) :   0.9360 B(  8-S ,  9-C ) :   1.0165 B(  9-C , 10-S ) :   1.0008
B(  9-C , 29-H ) :   0.9028 B(  9-C , 30-H ) :   0.8716 B( 10-S , 11-P ) :   0.9545
B( 10-S , 12-S ) :   0.1042 B( 11-P , 12-S ) :   1.6275 B( 11-P , 13-O ) :   1.1085
B( 11-P , 16-O ) :   1.1002 B( 13-O , 14-C ) :   0.8988 B( 14-C , 15-C ) :   1.1660
B( 14-C , 31-H ) :   0.9343 B( 14-C , 32-H ) :   0.9146 B( 15-C , 33-H ) :   0.9459
B( 15-C , 34-H ) :   0.9389 B( 15-C , 35-H ) :   0.9355 B( 16-O , 17-C ) :   0.9143
B( 17-C , 18-C ) :   1.1634 B( 17-C , 36-H ) :   0.9322 B( 17-C , 37-H ) :   0.9083
B( 18-C , 38-H ) :   0.9442 B( 18-C , 39-H ) :   0.9390 B( 18-C , 40-H ) :   0.9281

Dispersion correction           -0.067194712
FINAL SINGLE POINT ENERGY     -2929.519119133897

DIPOLE MOMENT
-------------

Method             : SCF
Type of density    : Electron Density
Multiplicity       :   1
Irrep              :   0
Energy             : -2929.6362211304303855 Eh
Relativity type    :
Basis              : AO
                                X                 Y                 Z
Electronic contribution:      6.952845568       2.556923744       2.578051426
Nuclear contribution   :     -7.536011654      -1.885205555      -2.820918153
                        -----------------------------------------
Total Dipole Moment    :     -0.583166085       0.671718189      -0.242866728
                        -----------------------------------------
Magnitude (a.u.)       :      0.922102086
Magnitude (Debye)      :      2.343797237

Rotational constants in cm-1:             0.012341             0.005494             0.004702
Rotational constants in MHz :           369.969890           164.698137           140.972588

                             ****ORCA TERMINATED NORMALLY****
TOTAL RUN TIME: 0 days 0 hours 0 minutes 21 seconds 515 msec
