                         Program Version 6.0.1  -  RELEASE   -
|  1> ! pbe def2-sv(p) def2/J RI DEFGRID1 loosescf d4 GCP(DFT/SV(P)) printgap
|  2> %output
|  3>     printlevel normal
|  4> end
|  5> * xyz 0 1
|  6> C 3.9481653179 -3.9428132429 -0.5635925594
|  7> C 2.4553473619 -3.705144945 -0.7277517357
|  8> O 2.0803733834 -2.4079474272 -0.2247787501
|  9> C 2.2248262959 -1.3653938054 -1.01725775
| 10> O 2.6141707081 -1.4139745543 -2.1619538518
| 11> C 1.8088553904 -0.081055696 -0.3226574079
| 12> C 0.7246462567 0.6046742767 -1.1533861144
| 13> H 1.1001594748 0.7769804899 -2.1663917334
| 14> C 0.2913210837 1.9186366935 -0.5363956169
| 15> O -0.8604762217 2.133245795 -0.2088091674
| 16> O 1.2800265517 2.7534362886 -0.410149729
| 17> C 1.0401973441 4.0100161928 0.2651134095
| 18> C 1.2280453049 3.844771915 1.7640290121
| 19> S -0.7525254021 -0.4460489638 -1.3632851232
| 20> P -1.7883411122 -0.1129174306 0.4688227172
| 21> S -0.8187805402 0.3114367612 2.1289186751
| 22> O -3.1467228528 0.6470551888 0.1736926992
| 23> C -3.4963160994 1.9481474744 0.6502027849
| 24> O -2.50064711 -1.5473812064 0.5764823135
| 25> C -1.7433539279 -2.7213074913 0.875158761
| 26> H 4.1872652973 -4.9520735399 -0.8818264862
| 27> H 4.5081314711 -3.2383320767 -1.1741848111
| 28> H 4.2345642003 -3.8173323217 0.4769885755
| 29> H 1.8732532421 -4.407307079 -0.1307895021
| 30> H 2.1662145321 -3.7655795454 -1.7808746168
| 31> H 2.672495015 0.5838688983 -0.2640098505
| 32> H 1.4529161204 -0.3104932145 0.6827320175
| 33> H 1.778291223 4.6897533301 -0.1597635602
| 34> H 0.0270886029 4.3460350922 0.0314890483
| 35> H 2.2402708434 3.5186717488 1.9842061675
| 36> H 1.0426516911 4.7936531055 2.2558437467
| 37> H 0.5324413653 3.1032568035 2.1537275512
| 38> H -2.9087180383 2.2023284986 1.5337802717
| 39> H -4.5543906716 1.9009665633 0.898781843
| 40> H -3.3132634354 2.6790787421 -0.1350964742
| 41> H -1.1045330472 -2.9847267227 0.03099663
| 42> H -2.4755648969 -3.503572915 1.0574275857
| 43> H -1.1309719715 -2.5574264615 1.7645357502
| 44> *
| 45>
| 46>                          ****END OF INPUT****

CARTESIAN COORDINATES (ANGSTROEM)
---------------------------------
  C      3.948165   -3.942813   -0.563593
  C      2.455347   -3.705145   -0.727752
  O      2.080373   -2.407947   -0.224779
  C      2.224826   -1.365394   -1.017258
  O      2.614171   -1.413975   -2.161954
  C      1.808855   -0.081056   -0.322657
  C      0.724646    0.604674   -1.153386
  H      1.100159    0.776980   -2.166392
  C      0.291321    1.918637   -0.536396
  O     -0.860476    2.133246   -0.208809
  O      1.280027    2.753436   -0.410150
  C      1.040197    4.010016    0.265113
  C      1.228045    3.844772    1.764029
  S     -0.752525   -0.446049   -1.363285
  P     -1.788341   -0.112917    0.468823
  S     -0.818781    0.311437    2.128919
  O     -3.146723    0.647055    0.173693
  C     -3.496316    1.948147    0.650203
  O     -2.500647   -1.547381    0.576482
  C     -1.743354   -2.721307    0.875159
  H      4.187265   -4.952074   -0.881826
  H      4.508131   -3.238332   -1.174185
  H      4.234564   -3.817332    0.476989
  H      1.873253   -4.407307   -0.130790
  H      2.166215   -3.765580   -1.780875
  H      2.672495    0.583869   -0.264010
  H      1.452916   -0.310493    0.682732
  H      1.778291    4.689753   -0.159764
  H      0.027089    4.346035    0.031489
  H      2.240271    3.518672    1.984206
  H      1.042652    4.793653    2.255844
  H      0.532441    3.103257    2.153728
  H     -2.908718    2.202328    1.533780
  H     -4.554391    1.900967    0.898782
  H     -3.313263    2.679079   -0.135096
  H     -1.104533   -2.984727    0.030997
  H     -2.475565   -3.503573    1.057428
  H     -1.130972   -2.557426    1.764536

 Total Charge           Charge          ....    0
 Multiplicity           Mult            ....    1
 Number of Electrons    NEL             ....  174
 Basis Dimension        Dim             ....  316

ORBITAL ENERGIES
----------------

  NO   OCC          E(Eh)            E(eV)
   0   2.0000     -88.036351     -2395.5909
   1   2.0000     -87.977013     -2393.9762
   2   2.0000     -76.421893     -2079.5454
   3   2.0000     -18.827790      -512.3302
   4   2.0000     -18.806417      -511.7486
   5   2.0000     -18.781014      -511.0574
   6   2.0000     -18.774421      -510.8780
   7   2.0000     -18.763190      -510.5724
   8   2.0000     -18.740857      -509.9646
   9   2.0000     -10.033656      -273.0297
  10   2.0000     -10.012130      -272.4439
  11   2.0000      -9.962046      -271.0811
  12   2.0000      -9.953458      -270.8474
  13   2.0000      -9.950244      -270.7599
  14   2.0000      -9.933888      -270.3148
  15   2.0000      -9.931445      -270.2484
  16   2.0000      -9.907856      -269.6065
  17   2.0000      -9.891591      -269.1639
  18   2.0000      -9.889256      -269.1003
  19   2.0000      -7.681058      -209.0122
  20   2.0000      -7.622022      -207.4058
  21   2.0000      -6.417426      -174.6270
  22   2.0000      -5.709146      -155.3537
  23   2.0000      -5.705604      -155.2574
  24   2.0000      -5.697812      -155.0453
  25   2.0000      -5.651010      -153.7718
  26   2.0000      -5.642960      -153.5527
  27   2.0000      -5.641727      -153.5192
  28   2.0000      -4.639838      -126.2564
  29   2.0000      -4.639597      -126.2498
  30   2.0000      -4.638065      -126.2082
  31   2.0000      -1.037829       -28.2408
  32   2.0000      -1.013422       -27.5766
  33   2.0000      -0.973972       -26.5031
  34   2.0000      -0.942695       -25.6520
  35   2.0000      -0.927911       -25.2497
  36   2.0000      -0.918936       -25.0055
  37   2.0000      -0.768035       -20.8993
  38   2.0000      -0.717931       -19.5359
  39   2.0000      -0.710018       -19.3206
  40   2.0000      -0.688279       -18.7290
  41   2.0000      -0.654211       -17.8020
  42   2.0000      -0.630839       -17.1660
  43   2.0000      -0.624462       -16.9925
  44   2.0000      -0.611690       -16.6449
  45   2.0000      -0.599257       -16.3066
  46   2.0000      -0.568717       -15.4756
  47   2.0000      -0.513586       -13.9754
  48   2.0000      -0.507612       -13.8128
  49   2.0000      -0.499048       -13.5798
  50   2.0000      -0.489696       -13.3253
  51   2.0000      -0.466034       -12.6814
  52   2.0000      -0.462256       -12.5786
  53   2.0000      -0.450684       -12.2637
  54   2.0000      -0.441779       -12.0214
  55   2.0000      -0.431426       -11.7397
  56   2.0000      -0.423668       -11.5286
  57   2.0000      -0.417432       -11.3589
  58   2.0000      -0.415503       -11.3064
  59   2.0000      -0.406101       -11.0506
  60   2.0000      -0.400010       -10.8848
  61   2.0000      -0.398893       -10.8544
  62   2.0000      -0.390027       -10.6132
  63   2.0000      -0.387062       -10.5325
  64   2.0000      -0.382111       -10.3978
  65   2.0000      -0.371159       -10.0998
  66   2.0000      -0.363053        -9.8792
  67   2.0000      -0.358429        -9.7533
  68   2.0000      -0.352565        -9.5938
  69   2.0000      -0.341145        -9.2830
  70   2.0000      -0.337651        -9.1880
  71   2.0000      -0.335081        -9.1180
  72   2.0000      -0.329020        -8.9531
  73   2.0000      -0.310648        -8.4532
  74   2.0000      -0.304453        -8.2846
  75   2.0000      -0.297106        -8.0847
  76   2.0000      -0.295070        -8.0293
  77   2.0000      -0.286758        -7.8031
  78   2.0000      -0.277827        -7.5601
  79   2.0000      -0.265059        -7.2126
  80   2.0000      -0.261284        -7.1099
  81   2.0000      -0.248468        -6.7612
  82   2.0000      -0.245246        -6.6735
  83   2.0000      -0.227792        -6.1985
  84   2.0000      -0.220429        -5.9982
  85   2.0000      -0.196257        -5.3404
  86   2.0000      -0.189930        -5.1683
  87   0.0000      -0.051284        -1.3955
  88   0.0000      -0.037768        -1.0277
  89   0.0000      -0.019321        -0.5258
  90   0.0000       0.003890         0.1059
  91   0.0000       0.029927         0.8143

MULLIKEN ATOMIC CHARGES
-----------------------
   0 C :   -0.306758
   1 C :   -0.013257
   2 O :   -0.219073
   3 C :    0.128124
   4 O :   -0.207012
   5 C :   -0.082241
   6 C :   -0.324508
   7 H :    0.159423
   8 C :    0.234315
   9 O :   -0.195486
  10 O :   -0.215947
  11 C :   -0.013874
  12 C :   -0.315813
  13 S :   -0.083268
  14 P :    0.623396
  15 S :   -0.346505
  16 O :   -0.365467
  17 C :   -0.085264
  18 O :   -0.372918
  19 C :   -0.103249
  20 H :    0.114342
  21 H :    0.128135
  22 H :    0.115928
  23 H :    0.104164
  24 H :    0.110842
  25 H :    0.120383
  26 H :    0.116991
  27 H :    0.110576
  28 H :    0.113848
  29 H :    0.116328
  30 H :    0.115174
  31 H :    0.145537
  32 H :    0.114475
  33 H :    0.119609
  34 H :    0.116653
  35 H :    0.110126
  36 H :    0.120413
  37 H :    0.111858
Sum of atomic charges:    0.0000000

LOEWDIN ATOMIC CHARGES
----------------------
   0 C :   -0.356350
   1 C :   -0.111047
   2 O :   -0.050562
   3 C :    0.026145
   4 O :   -0.170519
   5 C :   -0.257446
   6 C :   -0.259119
   7 H :    0.155124
   8 C :    0.028417
   9 O :   -0.156346
  10 O :   -0.032008
  11 C :   -0.105078
  12 C :   -0.359195
  13 S :    0.111190
  14 P :    0.590435
  15 S :   -0.333340
  16 O :   -0.235902
  17 C :   -0.207266
  18 O :   -0.257836
  19 C :   -0.222983
  20 H :    0.131476
  21 H :    0.130730
  22 H :    0.125696
  23 H :    0.117927
  24 H :    0.121243
  25 H :    0.145060
  26 H :    0.129258
  27 H :    0.121610
  28 H :    0.122200
  29 H :    0.126616
  30 H :    0.132538
  31 H :    0.131807
  32 H :    0.108270
  33 H :    0.117655
  34 H :    0.113137
  35 H :    0.101867
  36 H :    0.119960
  37 H :    0.106637

  Mayer bond orders larger than 0.100000
B(  0-C ,  1-C ) :   1.1736 B(  0-C , 20-H ) :   0.9441 B(  0-C , 21-H ) :   0.9457
B(  0-C , 22-H ) :   0.9483 B(  1-C ,  2-O ) :   0.9155 B(  1-C , 23-H ) :   0.9358
B(  1-C , 24-H ) :   0.9150 B(  2-O ,  3-C ) :   1.2444 B(  3-C ,  4-O ) :   2.0361
B(  3-C ,  5-C ) :   1.0027 B(  5-C ,  6-C ) :   1.0577 B(  5-C , 25-H ) :   0.8708
B(  5-C , 26-H ) :   0.8794 B(  6-C ,  7-H ) :   0.8534 B(  6-C ,  8-C ) :   0.9205
B(  6-C , 13-S ) :   1.0267 B(  8-C ,  9-O ) :   1.9291 B(  8-C , 10-O ) :   1.2889
B(  9-O , 14-P ) :   0.1149 B( 10-O , 11-C ) :   0.8929 B( 11-C , 12-C ) :   1.1779
B( 11-C , 27-H ) :   0.9361 B( 11-C , 28-H ) :   0.9144 B( 12-C , 29-H ) :   0.9483
B( 12-C , 30-H ) :   0.9410 B( 12-C , 31-H ) :   0.9298 B( 13-S , 14-P ) :   0.9281
B( 13-S , 15-S ) :   0.1171 B( 14-P , 15-S ) :   1.5425 B( 14-P , 16-O ) :   1.1428
B( 14-P , 18-O ) :   1.0833 B( 16-O , 17-C ) :   0.9279 B( 17-C , 32-H ) :   0.9357
B( 17-C , 33-H ) :   0.9542 B( 17-C , 34-H ) :   0.9538 B( 18-O , 19-C ) :   0.9461
B( 19-C , 35-H ) :   0.9402 B( 19-C , 36-H ) :   0.9585 B( 19-C , 37-H ) :   0.9342

Dispersion correction           -0.052322742
FINAL SINGLE POINT ENERGY     -1979.018247959052

DIPOLE MOMENT
-------------

Method             : SCF
Type of density    : Electron Density
Multiplicity       :   1
Irrep              :   0
Energy             : -1979.1485054383638271 Eh
Relativity type    :
Basis              : AO
                                X                 Y                 Z
Electronic contribution:    -12.446578882       1.281089464      -5.176116307
Nuclear contribution   :     13.201542228      -0.776767869       5.321156429
                        -----------------------------------------
Total Dipole Moment    :      0.754963346       0.504321596       0.145040122
                        -----------------------------------------
Magnitude (a.u.)       :      0.919427302
Magnitude (Debye)      :      2.336998476

Rotational constants in cm-1:             0.012278             0.007623             0.005707
Rotational constants in MHz :           368.075731           228.525550           171.102081

                             ****ORCA TERMINATED NORMALLY****
TOTAL RUN TIME: 0 days 0 hours 0 minutes 38 seconds 827 msec
