                         Program Version 6.0.0  -   RELEASE  -
|  1> ! pbe def2-sv(p) def2/J RI DEFGRID1 loosescf d4 GCP(DFT/SV(P)) printgap
|  2> %output
|  3>     printlevel normal
|  4> end
|  5> * xyz 0 1
|  6> C 4.3500022541 -2.3796187367 -0.7482889643
|  7> C 4.9545774038 -0.9967362521 -0.6139116553
|  8> O 4.0950974704 -0.0911876082 0.0998699148
|  9> P 2.7039633693 0.4078670988 -0.4823494114
| 10> S 2.6986328854 0.7795114173 -2.4051995874
| 11> O 2.4219572923 1.7195529123 0.3432150178
| 12> C 2.0234473847 1.8184443329 1.7318892035
| 13> C 2.9195233563 1.0338771774 2.6647353148
| 14> S 1.2915604098 -1.0482104826 0.1721519678
| 15> C -0.0267951052 -0.5729286672 -0.9606304167
| 16> S -0.8683016341 0.9671716221 -0.4421029692
| 17> P -2.7435152532 0.135345302 0.0697481591
| 18> S -4.0653212751 1.3450470466 0.8571106467
| 19> O -2.4268137854 -1.1761876069 0.9195853129
| 20> C -2.4147483873 -1.1710871571 2.3570625828
| 21> C -1.231556387 -0.4033112553 2.909559397
| 22> O -3.1038952135 -0.4896977508 -1.3456536035
| 23> C -4.4607964571 -0.8227251609 -1.7056274525
| 24> C -5.0012630754 -1.9727602916 -0.8820309281
| 25> H 3.4882679474 -2.3468285442 -1.4128883656
| 26> H 5.0899955242 -3.0533212266 -1.1682687083
| 27> H 4.0329592895 -2.7511401829 0.2226651246
| 28> H 5.1634668223 -0.5709811655 -1.6004138561
| 29> H 5.8670502805 -1.012345374 -0.0162883821
| 30> H 2.0743431903 2.890575466 1.9272659129
| 31> H 0.9849371787 1.4858324343 1.8068003751
| 32> H 3.9547378418 1.3386685692 2.5364705842
| 33> H 2.6124782746 1.2230912407 3.6887310505
| 34> H 2.8390179506 -0.0319312128 2.4605094998
| 35> H -0.7483226946 -1.3836518155 -0.9889423032
| 36> H 0.4068027687 -0.3853986543 -1.9440034432
| 37> H -3.3541749722 -0.7318725616 2.7077830931
| 38> H -2.370886211 -2.2276007437 2.6238235058
| 39> H -1.3151360206 0.6469834307 2.6283502292
| 40> H -1.2281614089 -0.4769511399 3.9921101627
| 41> H -0.3020756006 -0.8097087984 2.5173174871
| 42> H -5.0808341471 0.0698192786 -1.5755442702
| 43> H -4.3929903883 -1.0760896237 -2.7644965005
| 44> H -5.9798767632 -2.2534176678 -1.2586789366
| 45> H -4.3324240871 -2.8273845842 -0.9404247163
| 46> H -5.0978785866 -1.6683098647 0.1592250922
| 47> *
| 48>
| 49>                          ****END OF INPUT****

CARTESIAN COORDINATES (ANGSTROEM)
---------------------------------
  C      4.350002   -2.379619   -0.748289
  C      4.954577   -0.996736   -0.613912
  O      4.095097   -0.091188    0.099870
  P      2.703963    0.407867   -0.482349
  S      2.698633    0.779511   -2.405200
  O      2.421957    1.719553    0.343215
  C      2.023447    1.818444    1.731889
  C      2.919523    1.033877    2.664735
  S      1.291560   -1.048210    0.172152
  C     -0.026795   -0.572929   -0.960630
  S     -0.868302    0.967172   -0.442103
  P     -2.743515    0.135345    0.069748
  S     -4.065321    1.345047    0.857111
  O     -2.426814   -1.176188    0.919585
  C     -2.414748   -1.171087    2.357063
  C     -1.231556   -0.403311    2.909559
  O     -3.103895   -0.489698   -1.345654
  C     -4.460796   -0.822725   -1.705627
  C     -5.001263   -1.972760   -0.882031
  H      3.488268   -2.346829   -1.412888
  H      5.089996   -3.053321   -1.168269
  H      4.032959   -2.751140    0.222665
  H      5.163467   -0.570981   -1.600414
  H      5.867050   -1.012345   -0.016288
  H      2.074343    2.890575    1.927266
  H      0.984937    1.485832    1.806800
  H      3.954738    1.338669    2.536471
  H      2.612478    1.223091    3.688731
  H      2.839018   -0.031931    2.460509
  H     -0.748323   -1.383652   -0.988942
  H      0.406803   -0.385399   -1.944003
  H     -3.354175   -0.731873    2.707783
  H     -2.370886   -2.227601    2.623824
  H     -1.315136    0.646983    2.628350
  H     -1.228161   -0.476951    3.992110
  H     -0.302076   -0.809709    2.517317
  H     -5.080834    0.069819   -1.575544
  H     -4.392990   -1.076090   -2.764497
  H     -5.979877   -2.253418   -1.258679
  H     -4.332424   -2.827385   -0.940425
  H     -5.097879   -1.668310    0.159225

 Total Charge           Charge          ....    0
 Multiplicity           Mult            ....    1
 Number of Electrons    NEL             ....  202
 Basis Dimension        Dim             ....  334

ORBITAL ENERGIES
----------------

  NO   OCC          E(Eh)            E(eV)
   0   2.0000     -88.050394     -2395.9730
   1   2.0000     -88.042327     -2395.7535
   2   2.0000     -87.991914     -2394.3817
   3   2.0000     -87.986998     -2394.2479
   4   2.0000     -76.430394     -2079.7768
   5   2.0000     -76.428811     -2079.7337
   6   2.0000     -18.798166      -511.5241
   7   2.0000     -18.796934      -511.4906
   8   2.0000     -18.793718      -511.4031
   9   2.0000     -18.792524      -511.3706
  10   2.0000      -9.956708      -270.9358
  11   2.0000      -9.956579      -270.9323
  12   2.0000      -9.956387      -270.9271
  13   2.0000      -9.956250      -270.9233
  14   2.0000      -9.954422      -270.8736
  15   2.0000      -9.890124      -269.1240
  16   2.0000      -9.887982      -269.0657
  17   2.0000      -9.887125      -269.0424
  18   2.0000      -9.886990      -269.0387
  19   2.0000      -7.694902      -209.3889
  20   2.0000      -7.687372      -209.1840
  21   2.0000      -7.637007      -207.8135
  22   2.0000      -7.632226      -207.6834
  23   2.0000      -6.427765      -174.9084
  24   2.0000      -6.426585      -174.8763
  25   2.0000      -5.722523      -155.7178
  26   2.0000      -5.719452      -155.6342
  27   2.0000      -5.715595      -155.5292
  28   2.0000      -5.712146      -155.4354
  29   2.0000      -5.711790      -155.4257
  30   2.0000      -5.704082      -155.2160
  31   2.0000      -5.665982      -154.1792
  32   2.0000      -5.661202      -154.0491
  33   2.0000      -5.657595      -153.9510
  34   2.0000      -5.657162      -153.9392
  35   2.0000      -5.652806      -153.8207
  36   2.0000      -5.652329      -153.8077
  37   2.0000      -4.650535      -126.5475
  38   2.0000      -4.649587      -126.5217
  39   2.0000      -4.648959      -126.5046
  40   2.0000      -4.648515      -126.4925
  41   2.0000      -4.648013      -126.4789
  42   2.0000      -4.647055      -126.4528
  43   2.0000      -0.990598       -26.9555
  44   2.0000      -0.990005       -26.9394
  45   2.0000      -0.949232       -25.8299
  46   2.0000      -0.948853       -25.8196
  47   2.0000      -0.766239       -20.8504
  48   2.0000      -0.725100       -19.7310
  49   2.0000      -0.713039       -19.4028
  50   2.0000      -0.693859       -18.8809
  51   2.0000      -0.690646       -18.7934
  52   2.0000      -0.678481       -18.4624
  53   2.0000      -0.657722       -17.8975
  54   2.0000      -0.640541       -17.4300
  55   2.0000      -0.603612       -16.4251
  56   2.0000      -0.598909       -16.2971
  57   2.0000      -0.579979       -15.7820
  58   2.0000      -0.575615       -15.6633
  59   2.0000      -0.564630       -15.3644
  60   2.0000      -0.498995       -13.5784
  61   2.0000      -0.494401       -13.4533
  62   2.0000      -0.477320       -12.9885
  63   2.0000      -0.474370       -12.9083
  64   2.0000      -0.460292       -12.5252
  65   2.0000      -0.448825       -12.2132
  66   2.0000      -0.445875       -12.1329
  67   2.0000      -0.444884       -12.1059
  68   2.0000      -0.435564       -11.8523
  69   2.0000      -0.421633       -11.4732
  70   2.0000      -0.411288       -11.1917
  71   2.0000      -0.401372       -10.9219
  72   2.0000      -0.399883       -10.8814
  73   2.0000      -0.396805       -10.7976
  74   2.0000      -0.387345       -10.5402
  75   2.0000      -0.374417       -10.1884
  76   2.0000      -0.368479       -10.0268
  77   2.0000      -0.365601        -9.9485
  78   2.0000      -0.357110        -9.7175
  79   2.0000      -0.355615        -9.6768
  80   2.0000      -0.351675        -9.5696
  81   2.0000      -0.350092        -9.5265
  82   2.0000      -0.345748        -9.4083
  83   2.0000      -0.341235        -9.2855
  84   2.0000      -0.334036        -9.0896
  85   2.0000      -0.324482        -8.8296
  86   2.0000      -0.314582        -8.5602
  87   2.0000      -0.299903        -8.1608
  88   2.0000      -0.296209        -8.0602
  89   2.0000      -0.295281        -8.0350
  90   2.0000      -0.289885        -7.8882
  91   2.0000      -0.277802        -7.5594
  92   2.0000      -0.273978        -7.4553
  93   2.0000      -0.268074        -7.2947
  94   2.0000      -0.265345        -7.2204
  95   2.0000      -0.238409        -6.4874
  96   2.0000      -0.220312        -5.9950
  97   2.0000      -0.211494        -5.7550
  98   2.0000      -0.208261        -5.6671
  99   2.0000      -0.206814        -5.6277
 100   2.0000      -0.201104        -5.4723
 101   0.0000      -0.043412        -1.1813
 102   0.0000      -0.033213        -0.9038
 103   0.0000      -0.020463        -0.5568
 104   0.0000       0.003867         0.1052
 105   0.0000       0.015970         0.4346

MULLIKEN ATOMIC CHARGES
-----------------------
   0 C :   -0.317103
   1 C :   -0.002352
   2 O :   -0.374630
   3 P :    0.597171
   4 S :   -0.307275
   5 O :   -0.354784
   6 C :   -0.021767
   7 C :   -0.309438
   8 S :   -0.109518
   9 C :   -0.352718
  10 S :   -0.055165
  11 P :    0.596173
  12 S :   -0.317502
  13 O :   -0.382485
  14 C :    0.001270
  15 C :   -0.349413
  16 O :   -0.378274
  17 C :   -0.004829
  18 C :   -0.308471
  19 H :    0.128082
  20 H :    0.115302
  21 H :    0.114941
  22 H :    0.116164
  23 H :    0.106238
  24 H :    0.112724
  25 H :    0.134335
  26 H :    0.123338
  27 H :    0.114521
  28 H :    0.117674
  29 H :    0.192536
  30 H :    0.199587
  31 H :    0.110938
  32 H :    0.105080
  33 H :    0.138971
  34 H :    0.111097
  35 H :    0.133877
  36 H :    0.115494
  37 H :    0.108266
  38 H :    0.113811
  39 H :    0.115142
  40 H :    0.122991
Sum of atomic charges:    0.0000000

LOEWDIN ATOMIC CHARGES
----------------------
   0 C :   -0.370808
   1 C :   -0.116970
   2 O :   -0.241344
   3 P :    0.571427
   4 S :   -0.306568
   5 O :   -0.232160
   6 C :   -0.115815
   7 C :   -0.366447
   8 S :    0.086843
   9 C :   -0.479997
  10 S :    0.099004
  11 P :    0.567931
  12 S :   -0.317373
  13 O :   -0.248603
  14 C :   -0.119477
  15 C :   -0.376078
  16 O :   -0.249186
  17 C :   -0.115230
  18 C :   -0.365694
  19 H :    0.121684
  20 H :    0.132235
  21 H :    0.122500
  22 H :    0.114090
  23 H :    0.119375
  24 H :    0.125003
  25 H :    0.109398
  26 H :    0.129017
  27 H :    0.132019
  28 H :    0.115610
  29 H :    0.135338
  30 H :    0.129652
  31 H :    0.109967
  32 H :    0.118721
  33 H :    0.121731
  34 H :    0.130741
  35 H :    0.116443
  36 H :    0.113385
  37 H :    0.120416
  38 H :    0.131345
  39 H :    0.125420
  40 H :    0.122454

  Mayer bond orders larger than 0.100000
B(  0-C ,  1-C ) :   1.1656 B(  0-C , 19-H ) :   0.9348 B(  0-C , 20-H ) :   0.9374
B(  0-C , 21-H ) :   0.9449 B(  1-C ,  2-O ) :   0.9044 B(  1-C , 22-H ) :   0.9165
B(  1-C , 23-H ) :   0.9339 B(  2-O ,  3-P ) :   1.0962 B(  3-P ,  4-S ) :   1.6297
B(  3-P ,  5-O ) :   1.1539 B(  3-P ,  8-S ) :   0.9340 B(  4-S ,  8-S ) :   0.1079
B(  5-O ,  6-C ) :   0.8937 B(  6-C ,  7-C ) :   1.1714 B(  6-C , 24-H ) :   0.9328
B(  6-C , 25-H ) :   0.9072 B(  7-C , 26-H ) :   0.9423 B(  7-C , 27-H ) :   0.9358
B(  7-C , 28-H ) :   0.9369 B(  8-S ,  9-C ) :   1.0071 B(  9-C , 10-S ) :   0.9696
B(  9-C , 29-H ) :   0.8892 B(  9-C , 30-H ) :   0.8618 B( 10-S , 11-P ) :   0.9968
B( 11-P , 12-S ) :   1.6321 B( 11-P , 13-O ) :   1.0620 B( 11-P , 16-O ) :   1.0985
B( 13-O , 14-C ) :   0.9099 B( 14-C , 15-C ) :   1.1650 B( 14-C , 31-H ) :   0.9137
B( 14-C , 32-H ) :   0.9331 B( 15-C , 33-H ) :   0.9276 B( 15-C , 34-H ) :   0.9349
B( 15-C , 35-H ) :   0.9291 B( 16-O , 17-C ) :   0.9072 B( 17-C , 18-C ) :   1.1623
B( 17-C , 36-H ) :   0.9189 B( 17-C , 37-H ) :   0.9354 B( 18-C , 38-H ) :   0.9381
B( 18-C , 39-H ) :   0.9465 B( 18-C , 40-H ) :   0.9360

Dispersion correction           -0.064797089
FINAL SINGLE POINT ENERGY     -2929.517631733554

DIPOLE MOMENT
-------------

Method             : SCF
Type of density    : Electron Density
Multiplicity       :   1
Irrep              :   0
Energy             : -2929.6395307439611315 Eh
Relativity type    :
Basis              : AO
                                X                 Y                 Z
Electronic contribution:     -1.890716549      13.875134867     -12.088232286
Nuclear contribution   :      2.245650348     -15.510754582      13.181711673
                        -----------------------------------------
Total Dipole Moment    :      0.354933799      -1.635619715       1.093479387
                        -----------------------------------------
Magnitude (a.u.)       :      1.999231608
Magnitude (Debye)      :      5.081642902

Rotational constants in cm-1:             0.013975             0.004221             0.003951
Rotational constants in MHz :           418.972874           126.541271           118.451437

                             ****ORCA TERMINATED NORMALLY****
TOTAL RUN TIME: 0 days 0 hours 0 minutes 20 seconds 891 msec
