                         Program Version 6.0.0  -   RELEASE  -
|  1> ! r2scan-3c def2/J RI DEFGRID2 scfconv6 printgap
|  2> %output
|  3>     printlevel normal
|  4> end
|  5> * xyz 0 1
|  6> C 4.5636429746 -1.8873495148 0.8680350858
|  7> C 4.6746797891 -0.4096980071 0.5532968269
|  8> O 3.4291507453 0.2803034501 0.7605653387
|  9> P 2.1588648757 0.0445695444 -0.1706332018
| 10> S 2.6155783664 -0.1681833136 -2.0712004079
| 11> O 1.2712108916 1.3001301496 0.2348530387
| 12> C 1.5352593017 2.6144568241 -0.3010880172
| 13> C 0.5920129217 2.9298669754 -1.4453121756
| 14> S 1.0907388742 -1.4803192634 0.7912234028
| 15> C -0.079303659 -1.8903894564 -0.5441342337
| 16> S -0.8334704884 -0.4581888986 -1.3646710398
| 17> P -2.2090431522 0.1488427788 0.1087750101
| 18> S -3.2412791359 1.7730987697 -0.2588065515
| 19> O -1.2509461347 0.1970702182 1.3656484512
| 20> C -1.7190043445 0.6523447889 2.6542310516
| 21> C -0.5097057544 0.7715718011 3.5580379149
| 22> O -3.1004224237 -1.133721914 0.4579595974
| 23> C -4.3514012535 -1.3870292878 -0.200535901
| 24> C -4.1580590892 -1.7627143462 -1.6558985728
| 25> H 4.1499764115 -2.0318076997 1.8628039819
| 26> H 3.9122003497 -2.3728828832 0.1428617098
| 27> H 5.5484952242 -2.3402249824 0.8157311111
| 28> H 4.9830882127 -0.2597849651 -0.4863994505
| 29> H 5.3690759673 0.096785321 1.224869549
| 30> H 1.3820923204 3.2956209205 0.5379761478
| 31> H 2.5774696223 2.6663222681 -0.6291910455
| 32> H -0.4426125964 2.8408449947 -1.1190003062
| 33> H 0.7691884013 3.944161776 -1.7880752179
| 34> H 0.7545742001 2.2403764023 -2.2716395156
| 35> H -0.8493672721 -2.5120374162 -0.0933789401
| 36> H 0.4493457501 -2.4206891206 -1.3342125551
| 37> H -2.2237106218 1.6146698064 2.5174737262
| 38> H -2.4365359292 -0.0777933901 3.0367322823
| 39> H 0.2100713445 1.4611404186 3.124715002
| 40> H -0.8228551789 1.1391823865 4.5297108525
| 41> H -0.034239043 -0.1989528722 3.6705649674
| 42> H -4.793656796 -2.2021045124 0.3739323797
| 43> H -4.9731750798 -0.4900916409 -0.1167257267
| 44> H -3.4965913121 -2.6203801163 -1.7467907132
| 45> H -5.1205017572 -2.0038062654 -2.0955566416
| 46> H -3.722737723 -0.9239288287 -2.199196473
| 47> *
| 48>
| 49>                          ****END OF INPUT****

CARTESIAN COORDINATES (ANGSTROEM)
---------------------------------
  C      4.563643   -1.887350    0.868035
  C      4.674680   -0.409698    0.553297
  O      3.429151    0.280303    0.760565
  P      2.158865    0.044570   -0.170633
  S      2.615578   -0.168183   -2.071200
  O      1.271211    1.300130    0.234853
  C      1.535259    2.614457   -0.301088
  C      0.592013    2.929867   -1.445312
  S      1.090739   -1.480319    0.791223
  C     -0.079304   -1.890389   -0.544134
  S     -0.833470   -0.458189   -1.364671
  P     -2.209043    0.148843    0.108775
  S     -3.241279    1.773099   -0.258807
  O     -1.250946    0.197070    1.365648
  C     -1.719004    0.652345    2.654231
  C     -0.509706    0.771572    3.558038
  O     -3.100422   -1.133722    0.457960
  C     -4.351401   -1.387029   -0.200536
  C     -4.158059   -1.762714   -1.655899
  H      4.149976   -2.031808    1.862804
  H      3.912200   -2.372883    0.142862
  H      5.548495   -2.340225    0.815731
  H      4.983088   -0.259785   -0.486399
  H      5.369076    0.096785    1.224870
  H      1.382092    3.295621    0.537976
  H      2.577470    2.666322   -0.629191
  H     -0.442613    2.840845   -1.119000
  H      0.769188    3.944162   -1.788075
  H      0.754574    2.240376   -2.271640
  H     -0.849367   -2.512037   -0.093379
  H      0.449346   -2.420689   -1.334213
  H     -2.223711    1.614670    2.517474
  H     -2.436536   -0.077793    3.036732
  H      0.210071    1.461140    3.124715
  H     -0.822855    1.139182    4.529711
  H     -0.034239   -0.198953    3.670565
  H     -4.793657   -2.202105    0.373932
  H     -4.973175   -0.490092   -0.116726
  H     -3.496591   -2.620380   -1.746791
  H     -5.120502   -2.003806   -2.095557
  H     -3.722738   -0.923929   -2.199196

 Total Charge           Charge          ....    0
 Multiplicity           Mult            ....    1
 Number of Electrons    NEL             ....  202
 Basis Dimension        Dim             ....  539

ORBITAL ENERGIES
----------------

  NO   OCC          E(Eh)            E(eV)
   0   2.0000     -88.577020     -2410.3033
   1   2.0000     -88.574844     -2410.2440
   2   2.0000     -88.521221     -2408.7849
   3   2.0000     -88.518500     -2408.7108
   4   2.0000     -76.912866     -2092.9055
   5   2.0000     -76.912368     -2092.8919
   6   2.0000     -18.991218      -516.7773
   7   2.0000     -18.990870      -516.7678
   8   2.0000     -18.985238      -516.6146
   9   2.0000     -18.981472      -516.5121
  10   2.0000     -10.114253      -275.2228
  11   2.0000     -10.098071      -274.7825
  12   2.0000     -10.096624      -274.7431
  13   2.0000     -10.096572      -274.7417
  14   2.0000     -10.091310      -274.5985
  15   2.0000     -10.029613      -272.9196
  16   2.0000     -10.028507      -272.8896
  17   2.0000     -10.028378      -272.8860
  18   2.0000     -10.012452      -272.4527
  19   2.0000      -7.871240      -214.1873
  20   2.0000      -7.869699      -214.1454
  21   2.0000      -7.815818      -212.6792
  22   2.0000      -7.813188      -212.6077
  23   2.0000      -6.591094      -179.3528
  24   2.0000      -6.590882      -179.3470
  25   2.0000      -5.818660      -158.3338
  26   2.0000      -5.816758      -158.2820
  27   2.0000      -5.814744      -158.2272
  28   2.0000      -5.813605      -158.1962
  29   2.0000      -5.808131      -158.0473
  30   2.0000      -5.806457      -158.0017
  31   2.0000      -5.763432      -156.8310
  32   2.0000      -5.760848      -156.7606
  33   2.0000      -5.756212      -156.6345
  34   2.0000      -5.755776      -156.6226
  35   2.0000      -5.753624      -156.5641
  36   2.0000      -5.753056      -156.5486
  37   2.0000      -4.736646      -128.8907
  38   2.0000      -4.736333      -128.8822
  39   2.0000      -4.735976      -128.8724
  40   2.0000      -4.735933      -128.8713
  41   2.0000      -4.734884      -128.8428
  42   2.0000      -4.734562      -128.8340
  43   2.0000      -1.048467       -28.5302
  44   2.0000      -1.045331       -28.4449
  45   2.0000      -1.008377       -27.4393
  46   2.0000      -1.004307       -27.3286
  47   2.0000      -0.803830       -21.8733
  48   2.0000      -0.758003       -20.6263
  49   2.0000      -0.745853       -20.2957
  50   2.0000      -0.730988       -19.8912
  51   2.0000      -0.725267       -19.7355
  52   2.0000      -0.709245       -19.2995
  53   2.0000      -0.687710       -18.7135
  54   2.0000      -0.668844       -18.2002
  55   2.0000      -0.629211       -17.1217
  56   2.0000      -0.620450       -16.8833
  57   2.0000      -0.607202       -16.5228
  58   2.0000      -0.600386       -16.3373
  59   2.0000      -0.587739       -15.9932
  60   2.0000      -0.529264       -14.4020
  61   2.0000      -0.521939       -14.2027
  62   2.0000      -0.492704       -13.4072
  63   2.0000      -0.485382       -13.2079
  64   2.0000      -0.477103       -12.9826
  65   2.0000      -0.463020       -12.5994
  66   2.0000      -0.453696       -12.3457
  67   2.0000      -0.451134       -12.2760
  68   2.0000      -0.445139       -12.1128
  69   2.0000      -0.433865       -11.8061
  70   2.0000      -0.426128       -11.5955
  71   2.0000      -0.415938       -11.3182
  72   2.0000      -0.408444       -11.1143
  73   2.0000      -0.405524       -11.0349
  74   2.0000      -0.390146       -10.6164
  75   2.0000      -0.389702       -10.6043
  76   2.0000      -0.381300       -10.3757
  77   2.0000      -0.370522       -10.0824
  78   2.0000      -0.366599        -9.9757
  79   2.0000      -0.365000        -9.9322
  80   2.0000      -0.362335        -9.8596
  81   2.0000      -0.354402        -9.6438
  82   2.0000      -0.350587        -9.5400
  83   2.0000      -0.348312        -9.4781
  84   2.0000      -0.342516        -9.3203
  85   2.0000      -0.335763        -9.1366
  86   2.0000      -0.320994        -8.7347
  87   2.0000      -0.311741        -8.4829
  88   2.0000      -0.308579        -8.3969
  89   2.0000      -0.306125        -8.3301
  90   2.0000      -0.296622        -8.0715
  91   2.0000      -0.286663        -7.8005
  92   2.0000      -0.281863        -7.6699
  93   2.0000      -0.278269        -7.5721
  94   2.0000      -0.276284        -7.5181
  95   2.0000      -0.241000        -6.5579
  96   2.0000      -0.231658        -6.3037
  97   2.0000      -0.223195        -6.0735
  98   2.0000      -0.218023        -5.9327
  99   2.0000      -0.212231        -5.7751
 100   2.0000      -0.210798        -5.7361
 101   0.0000      -0.049113        -1.3364
 102   0.0000      -0.022376        -0.6089
 103   0.0000      -0.010190        -0.2773
 104   0.0000       0.002551         0.0694
 105   0.0000       0.004834         0.1315

MULLIKEN ATOMIC CHARGES
-----------------------
   0 C :   -0.455682
   1 C :   -0.151824
   2 O :   -0.305634
   3 P :    0.674819
   4 S :   -0.468137
   5 O :   -0.265500
   6 C :   -0.118287
   7 C :   -0.474722
   8 S :   -0.101437
   9 C :   -0.266775
  10 S :   -0.104910
  11 P :    0.684228
  12 S :   -0.476861
  13 O :   -0.217903
  14 C :   -0.154308
  15 C :   -0.446960
  16 O :   -0.311447
  17 C :   -0.162525
  18 C :   -0.431547
  19 H :    0.154219
  20 H :    0.177141
  21 H :    0.147859
  22 H :    0.174823
  23 H :    0.147286
  24 H :    0.146218
  25 H :    0.148064
  26 H :    0.178534
  27 H :    0.141430
  28 H :    0.178126
  29 H :    0.189986
  30 H :    0.205992
  31 H :    0.166542
  32 H :    0.149943
  33 H :    0.164632
  34 H :    0.142862
  35 H :    0.154959
  36 H :    0.146452
  37 H :    0.171749
  38 H :    0.147849
  39 H :    0.147731
  40 H :    0.173015
Sum of atomic charges:    0.0000000

LOEWDIN ATOMIC CHARGES
----------------------
   0 C :   -0.407863
   1 C :    0.017550
   2 O :   -0.663106
   3 P :    0.369530
   4 S :   -0.126512
   5 O :   -0.673600
   6 C :    0.026716
   7 C :   -0.406040
   8 S :    0.198015
   9 C :   -0.405490
  10 S :    0.202039
  11 P :    0.369731
  12 S :   -0.118895
  13 O :   -0.691783
  14 C :    0.027240
  15 C :   -0.387480
  16 O :   -0.679899
  17 C :    0.016417
  18 C :   -0.403650
  19 H :    0.159409
  20 H :    0.165158
  21 H :    0.159068
  22 H :    0.180217
  23 H :    0.178857
  24 H :    0.177431
  25 H :    0.174194
  26 H :    0.167484
  27 H :    0.156235
  28 H :    0.166998
  29 H :    0.187467
  30 H :    0.188906
  31 H :    0.179389
  32 H :    0.171141
  33 H :    0.165488
  34 H :    0.157409
  35 H :    0.161149
  36 H :    0.178016
  37 H :    0.180394
  38 H :    0.156646
  39 H :    0.159478
  40 H :    0.166546

  Mayer bond orders larger than 0.100000
B(  0-C ,  1-C ) :   0.9192 B(  0-C , 19-H ) :   0.9683 B(  0-C , 20-H ) :   0.9638
B(  0-C , 21-H ) :   0.9590 B(  1-C ,  2-O ) :   0.8208 B(  1-C , 22-H ) :   0.9677
B(  1-C , 23-H ) :   0.9583 B(  2-O ,  3-P ) :   1.0560 B(  3-P ,  4-S ) :   1.7532
B(  3-P ,  5-O ) :   1.1431 B(  3-P ,  8-S ) :   1.1144 B(  5-O ,  6-C ) :   0.7655
B(  6-C ,  7-C ) :   0.9393 B(  6-C , 24-H ) :   0.9619 B(  6-C , 25-H ) :   0.9655
B(  7-C , 26-H ) :   0.9606 B(  7-C , 27-H ) :   0.9631 B(  7-C , 28-H ) :   0.9624
B(  8-S ,  9-C ) :   0.9005 B(  9-C , 10-S ) :   0.9107 B(  9-C , 29-H ) :   0.9228
B(  9-C , 30-H ) :   0.9173 B( 10-S , 11-P ) :   1.0627 B( 11-P , 12-S ) :   1.7851
B( 11-P , 13-O ) :   1.1489 B( 11-P , 16-O ) :   1.0243 B( 13-O , 14-C ) :   0.7865
B( 14-C , 15-C ) :   0.9583 B( 14-C , 31-H ) :   0.9516 B( 14-C , 32-H ) :   0.9465
B( 15-C , 33-H ) :   0.9707 B( 15-C , 34-H ) :   0.9625 B( 15-C , 35-H ) :   0.9678
B( 16-O , 17-C ) :   0.8165 B( 17-C , 18-C ) :   0.9320 B( 17-C , 36-H ) :   0.9597
B( 17-C , 37-H ) :   0.9619 B( 18-C , 38-H ) :   0.9705 B( 18-C , 39-H ) :   0.9603
B( 18-C , 40-H ) :   0.9601

Dispersion correction           -0.022294315
FINAL SINGLE POINT ENERGY     -2932.458025929619

DIPOLE MOMENT
-------------

Method             : SCF
Type of density    : Electron Density
Multiplicity       :   1
Irrep              :   0
Energy             : -2932.4822132729486839 Eh
Relativity type    :
Basis              : AO
                                X                 Y                 Z
Electronic contribution:     -1.062534665       0.363612555      -6.455122646
Nuclear contribution   :      1.176712288      -1.237569050       7.646293349
                        -----------------------------------------
Total Dipole Moment    :      0.114177623      -0.873956496       1.191170703
                        -----------------------------------------
Magnitude (a.u.)       :      1.481797600
Magnitude (Debye)      :      3.766430177

Rotational constants in cm-1:             0.012598             0.005228             0.005193
Rotational constants in MHz :           377.670353           156.722342           155.683246

                             ****ORCA TERMINATED NORMALLY****
TOTAL RUN TIME: 0 days 0 hours 1 minutes 22 seconds 525 msec
