                         Program Version 6.0.0  -   RELEASE  -
|  1> ! r2scan-3c def2/J RI DEFGRID2 scfconv6 printgap
|  2> %output
|  3>     printlevel normal
|  4> end
|  5> %cpcm
|  6>     smd true
|  7>     smdsolvent "water"
|  8> end
|  9> * xyz 0 1
| 10> C 4.5636429746 -1.8873495148 0.8680350858
| 11> C 4.6746797891 -0.4096980071 0.5532968269
| 12> O 3.4291507453 0.2803034501 0.7605653387
| 13> P 2.1588648757 0.0445695444 -0.1706332018
| 14> S 2.6155783664 -0.1681833136 -2.0712004079
| 15> O 1.2712108916 1.3001301496 0.2348530387
| 16> C 1.5352593017 2.6144568241 -0.3010880172
| 17> C 0.5920129217 2.9298669754 -1.4453121756
| 18> S 1.0907388742 -1.4803192634 0.7912234028
| 19> C -0.079303659 -1.8903894564 -0.5441342337
| 20> S -0.8334704884 -0.4581888986 -1.3646710398
| 21> P -2.2090431522 0.1488427788 0.1087750101
| 22> S -3.2412791359 1.7730987697 -0.2588065515
| 23> O -1.2509461347 0.1970702182 1.3656484512
| 24> C -1.7190043445 0.6523447889 2.6542310516
| 25> C -0.5097057544 0.7715718011 3.5580379149
| 26> O -3.1004224237 -1.133721914 0.4579595974
| 27> C -4.3514012535 -1.3870292878 -0.200535901
| 28> C -4.1580590892 -1.7627143462 -1.6558985728
| 29> H 4.1499764115 -2.0318076997 1.8628039819
| 30> H 3.9122003497 -2.3728828832 0.1428617098
| 31> H 5.5484952242 -2.3402249824 0.8157311111
| 32> H 4.9830882127 -0.2597849651 -0.4863994505
| 33> H 5.3690759673 0.096785321 1.224869549
| 34> H 1.3820923204 3.2956209205 0.5379761478
| 35> H 2.5774696223 2.6663222681 -0.6291910455
| 36> H -0.4426125964 2.8408449947 -1.1190003062
| 37> H 0.7691884013 3.944161776 -1.7880752179
| 38> H 0.7545742001 2.2403764023 -2.2716395156
| 39> H -0.8493672721 -2.5120374162 -0.0933789401
| 40> H 0.4493457501 -2.4206891206 -1.3342125551
| 41> H -2.2237106218 1.6146698064 2.5174737262
| 42> H -2.4365359292 -0.0777933901 3.0367322823
| 43> H 0.2100713445 1.4611404186 3.124715002
| 44> H -0.8228551789 1.1391823865 4.5297108525
| 45> H -0.034239043 -0.1989528722 3.6705649674
| 46> H -4.793656796 -2.2021045124 0.3739323797
| 47> H -4.9731750798 -0.4900916409 -0.1167257267
| 48> H -3.4965913121 -2.6203801163 -1.7467907132
| 49> H -5.1205017572 -2.0038062654 -2.0955566416
| 50> H -3.722737723 -0.9239288287 -2.199196473
| 51> *
| 52>
| 53>                          ****END OF INPUT****

CARTESIAN COORDINATES (ANGSTROEM)
---------------------------------
  C      4.563643   -1.887350    0.868035
  C      4.674680   -0.409698    0.553297
  O      3.429151    0.280303    0.760565
  P      2.158865    0.044570   -0.170633
  S      2.615578   -0.168183   -2.071200
  O      1.271211    1.300130    0.234853
  C      1.535259    2.614457   -0.301088
  C      0.592013    2.929867   -1.445312
  S      1.090739   -1.480319    0.791223
  C     -0.079304   -1.890389   -0.544134
  S     -0.833470   -0.458189   -1.364671
  P     -2.209043    0.148843    0.108775
  S     -3.241279    1.773099   -0.258807
  O     -1.250946    0.197070    1.365648
  C     -1.719004    0.652345    2.654231
  C     -0.509706    0.771572    3.558038
  O     -3.100422   -1.133722    0.457960
  C     -4.351401   -1.387029   -0.200536
  C     -4.158059   -1.762714   -1.655899
  H      4.149976   -2.031808    1.862804
  H      3.912200   -2.372883    0.142862
  H      5.548495   -2.340225    0.815731
  H      4.983088   -0.259785   -0.486399
  H      5.369076    0.096785    1.224870
  H      1.382092    3.295621    0.537976
  H      2.577470    2.666322   -0.629191
  H     -0.442613    2.840845   -1.119000
  H      0.769188    3.944162   -1.788075
  H      0.754574    2.240376   -2.271640
  H     -0.849367   -2.512037   -0.093379
  H      0.449346   -2.420689   -1.334213
  H     -2.223711    1.614670    2.517474
  H     -2.436536   -0.077793    3.036732
  H      0.210071    1.461140    3.124715
  H     -0.822855    1.139182    4.529711
  H     -0.034239   -0.198953    3.670565
  H     -4.793657   -2.202105    0.373932
  H     -4.973175   -0.490092   -0.116726
  H     -3.496591   -2.620380   -1.746791
  H     -5.120502   -2.003806   -2.095557
  H     -3.722738   -0.923929   -2.199196

 Total Charge           Charge          ....    0
 Multiplicity           Mult            ....    1
 Number of Electrons    NEL             ....  202
 Basis Dimension        Dim             ....  539

ORBITAL ENERGIES
----------------

  NO   OCC          E(Eh)            E(eV)
   0   2.0000     -88.578798     -2410.3516
   1   2.0000     -88.575943     -2410.2739
   2   2.0000     -88.528849     -2408.9924
   3   2.0000     -88.525326     -2408.8966
   4   2.0000     -76.917733     -2093.0379
   5   2.0000     -76.916597     -2093.0070
   6   2.0000     -18.993384      -516.8363
   7   2.0000     -18.990811      -516.7662
   8   2.0000     -18.987467      -516.6752
   9   2.0000     -18.987171      -516.6672
  10   2.0000     -10.108160      -275.0570
  11   2.0000     -10.088661      -274.5264
  12   2.0000     -10.088166      -274.5130
  13   2.0000     -10.087940      -274.5068
  14   2.0000     -10.087369      -274.4913
  15   2.0000     -10.018311      -272.6121
  16   2.0000     -10.017907      -272.6011
  17   2.0000     -10.017848      -272.5995
  18   2.0000     -10.013784      -272.4889
  19   2.0000      -7.873123      -214.2386
  20   2.0000      -7.870700      -214.1726
  21   2.0000      -7.823819      -212.8969
  22   2.0000      -7.820330      -212.8020
  23   2.0000      -6.596029      -179.4871
  24   2.0000      -6.595148      -179.4631
  25   2.0000      -5.820505      -158.3840
  26   2.0000      -5.817768      -158.3095
  27   2.0000      -5.816599      -158.2777
  28   2.0000      -5.814593      -158.2231
  29   2.0000      -5.810077      -158.1002
  30   2.0000      -5.807490      -158.0298
  31   2.0000      -5.771326      -157.0458
  32   2.0000      -5.767921      -156.9531
  33   2.0000      -5.764226      -156.8526
  34   2.0000      -5.763801      -156.8410
  35   2.0000      -5.760755      -156.7581
  36   2.0000      -5.760217      -156.7435
  37   2.0000      -4.741556      -129.0243
  38   2.0000      -4.740911      -129.0067
  39   2.0000      -4.740532      -128.9964
  40   2.0000      -4.740190      -128.9871
  41   2.0000      -4.739862      -128.9782
  42   2.0000      -4.738940      -128.9531
  43   2.0000      -1.049630       -28.5619
  44   2.0000      -1.048348       -28.5270
  45   2.0000      -1.008792       -27.4506
  46   2.0000      -1.007473       -27.4147
  47   2.0000      -0.802385       -21.8340
  48   2.0000      -0.755679       -20.5631
  49   2.0000      -0.741321       -20.1724
  50   2.0000      -0.721686       -19.6381
  51   2.0000      -0.720626       -19.6092
  52   2.0000      -0.708614       -19.2824
  53   2.0000      -0.691357       -18.8128
  54   2.0000      -0.674048       -18.3418
  55   2.0000      -0.628389       -17.0993
  56   2.0000      -0.616224       -16.7683
  57   2.0000      -0.601801       -16.3758
  58   2.0000      -0.596653       -16.2358
  59   2.0000      -0.584547       -15.9063
  60   2.0000      -0.525039       -14.2870
  61   2.0000      -0.520200       -14.1554
  62   2.0000      -0.488167       -13.2837
  63   2.0000      -0.484067       -13.1721
  64   2.0000      -0.475512       -12.9393
  65   2.0000      -0.458751       -12.4833
  66   2.0000      -0.452293       -12.3075
  67   2.0000      -0.448375       -12.2009
  68   2.0000      -0.437370       -11.9014
  69   2.0000      -0.430065       -11.7027
  70   2.0000      -0.421611       -11.4726
  71   2.0000      -0.414143       -11.2694
  72   2.0000      -0.407598       -11.0913
  73   2.0000      -0.400710       -10.9039
  74   2.0000      -0.390882       -10.6364
  75   2.0000      -0.385639       -10.4938
  76   2.0000      -0.379171       -10.3178
  77   2.0000      -0.364367        -9.9149
  78   2.0000      -0.361708        -9.8426
  79   2.0000      -0.359075        -9.7709
  80   2.0000      -0.355757        -9.6806
  81   2.0000      -0.349228        -9.5030
  82   2.0000      -0.347425        -9.4539
  83   2.0000      -0.343431        -9.3452
  84   2.0000      -0.339908        -9.2494
  85   2.0000      -0.333468        -9.0741
  86   2.0000      -0.318857        -8.6765
  87   2.0000      -0.311013        -8.4631
  88   2.0000      -0.304303        -8.2805
  89   2.0000      -0.301572        -8.2062
  90   2.0000      -0.298065        -8.1108
  91   2.0000      -0.287335        -7.8188
  92   2.0000      -0.280827        -7.6417
  93   2.0000      -0.278152        -7.5689
  94   2.0000      -0.276728        -7.5301
  95   2.0000      -0.243695        -6.6313
  96   2.0000      -0.236105        -6.4247
  97   2.0000      -0.232063        -6.3147
  98   2.0000      -0.226353        -6.1594
  99   2.0000      -0.217821        -5.9272
 100   2.0000      -0.216519        -5.8918
 101   0.0000      -0.050776        -1.3817
 102   0.0000      -0.027080        -0.7369
 103   0.0000      -0.012759        -0.3472
 104   0.0000       0.000372         0.0101
 105   0.0000       0.003012         0.0820

MULLIKEN ATOMIC CHARGES
-----------------------
   0 C :   -0.490393
   1 C :   -0.151779
   2 O :   -0.332477
   3 P :    0.707905
   4 S :   -0.522068
   5 O :   -0.291583
   6 C :   -0.130247
   7 C :   -0.500001
   8 S :   -0.100906
   9 C :   -0.274271
  10 S :   -0.132297
  11 P :    0.717694
  12 S :   -0.534974
  13 O :   -0.247628
  14 C :   -0.141991
  15 C :   -0.493718
  16 O :   -0.328532
  17 C :   -0.155864
  18 C :   -0.470897
  19 H :    0.168813
  20 H :    0.173436
  21 H :    0.172177
  22 H :    0.177993
  23 H :    0.173733
  24 H :    0.174439
  25 H :    0.167287
  26 H :    0.166847
  27 H :    0.167607
  28 H :    0.172958
  29 H :    0.228066
  30 H :    0.234280
  31 H :    0.170563
  32 H :    0.172293
  33 H :    0.167987
  34 H :    0.167480
  35 H :    0.167290
  36 H :    0.173343
  37 H :    0.173419
  38 H :    0.168697
  39 H :    0.170493
  40 H :    0.164828
Sum of atomic charges:    0.0000000

LOEWDIN ATOMIC CHARGES
----------------------
   0 C :   -0.410689
   1 C :    0.022565
   2 O :   -0.675939
   3 P :    0.374321
   4 S :   -0.159965
   5 O :   -0.690691
   6 C :    0.029752
   7 C :   -0.411036
   8 S :    0.201817
   9 C :   -0.392878
  10 S :    0.188586
  11 P :    0.374589
  12 S :   -0.159512
  13 O :   -0.703781
  14 C :    0.031597
  15 C :   -0.391110
  16 O :   -0.683023
  17 C :    0.022233
  18 C :   -0.407516
  19 H :    0.163341
  20 H :    0.161486
  21 H :    0.167953
  22 H :    0.181099
  23 H :    0.189977
  24 H :    0.188495
  25 H :    0.180591
  26 H :    0.161965
  27 H :    0.164850
  28 H :    0.162913
  29 H :    0.202190
  30 H :    0.199136
  31 H :    0.181006
  32 H :    0.180165
  33 H :    0.163751
  34 H :    0.167168
  35 H :    0.163258
  36 H :    0.189672
  37 H :    0.180442
  38 H :    0.162791
  39 H :    0.167412
  40 H :    0.161018

  Mayer bond orders larger than 0.100000
B(  0-C ,  1-C ) :   0.9086 B(  0-C , 19-H ) :   0.9653 B(  0-C , 20-H ) :   0.9643
B(  0-C , 21-H ) :   0.9538 B(  1-C ,  2-O ) :   0.8085 B(  1-C , 22-H ) :   0.9659
B(  1-C , 23-H ) :   0.9489 B(  2-O ,  3-P ) :   1.0628 B(  3-P ,  4-S ) :   1.7039
B(  3-P ,  5-O ) :   1.1415 B(  3-P ,  8-S ) :   1.1380 B(  5-O ,  6-C ) :   0.7533
B(  6-C ,  7-C ) :   0.9309 B(  6-C , 24-H ) :   0.9527 B(  6-C , 25-H ) :   0.9618
B(  7-C , 26-H ) :   0.9627 B(  7-C , 27-H ) :   0.9593 B(  7-C , 28-H ) :   0.9654
B(  8-S ,  9-C ) :   0.8942 B(  9-C , 10-S ) :   0.9063 B(  9-C , 29-H ) :   0.9102
B(  9-C , 30-H ) :   0.9067 B( 10-S , 11-P ) :   1.0726 B( 11-P , 12-S ) :   1.7394
B( 11-P , 13-O ) :   1.1560 B( 11-P , 16-O ) :   1.0389 B( 13-O , 14-C ) :   0.7796
B( 14-C , 15-C ) :   0.9475 B( 14-C , 31-H ) :   0.9474 B( 14-C , 32-H ) :   0.9371
B( 15-C , 33-H ) :   0.9707 B( 15-C , 34-H ) :   0.9566 B( 15-C , 35-H ) :   0.9665
B( 16-O , 17-C ) :   0.8036 B( 17-C , 18-C ) :   0.9212 B( 17-C , 36-H ) :   0.9499
B( 17-C , 37-H ) :   0.9609 B( 18-C , 38-H ) :   0.9670 B( 18-C , 39-H ) :   0.9557
B( 18-C , 40-H ) :   0.9621

Dispersion correction           -0.022294315
FINAL SINGLE POINT ENERGY     -2932.466956130181

DIPOLE MOMENT
-------------

Method             : SCF
Type of density    : Electron Density
Multiplicity       :   1
Irrep              :   0
Energy             : -2932.4911434735099647 Eh
Relativity type    :
Basis              : AO
                                X                 Y                 Z
Electronic contribution:     -1.021236251      -0.169241495      -6.010575819
Nuclear contribution   :      1.176712288      -1.237569050       7.646293349
                        -----------------------------------------
Total Dipole Moment    :      0.155476038      -1.406810546       1.635717530
                        -----------------------------------------
Magnitude (a.u.)       :      2.163067393
Magnitude (Debye)      :      5.498080373

Rotational constants in cm-1:             0.012598             0.005228             0.005193
Rotational constants in MHz :           377.670353           156.722342           155.683246

                             ****ORCA TERMINATED NORMALLY****
TOTAL RUN TIME: 0 days 0 hours 2 minutes 0 seconds 755 msec
