                         Program Version 6.0.0  -   RELEASE  -
|  1> ! pbe def2-sv(p) def2/J RI DEFGRID1 loosescf d4 GCP(DFT/SV(P)) printgap
|  2> %output
|  3>     printlevel normal
|  4> end
|  5> * xyz 0 1
|  6> C 2.7241127286 -0.8758341544 -2.7830382917
|  7> C 1.6734872761 0.0149836773 -2.1570729494
|  8> O 1.1308779329 -0.5846999043 -0.9675347106
|  9> P 1.9631755421 -0.6489933641 0.390330804
| 10> S 3.3016646037 0.7735934267 0.6030335483
| 11> O 2.4936472331 -2.1430593071 0.3134375239
| 12> C 2.9323297483 -2.9434349944 1.428604328
| 13> C 3.960781352 -2.2448338262 2.2932603271
| 14> S 0.4256199327 -0.7849203057 1.8284428272
| 15> C 0.0296194316 0.9813274785 1.9855941658
| 16> S -0.0676142971 1.8731596986 0.4052361984
| 17> P -1.8106124908 1.0310314659 -0.4402576249
| 18> S -1.9298523123 1.2980969293 -2.377257478
| 19> O -2.8501645612 1.7496671457 0.5218057352
| 20> C -4.2321283632 1.3503558734 0.6527065207
| 21> C -5.0513720208 1.7244769992 -0.5655154777
| 22> O -1.9445282152 -0.4826114218 0.0286964124
| 23> C -1.7958421818 -1.6289720121 -0.8237590795
| 24> C -3.0671840388 -2.4518458892 -0.7620872092
| 25> H 2.3080655726 -1.8578559418 -2.9904988504
| 26> H 3.0747715988 -0.4256643607 -3.7061985508
| 27> H 3.5628308213 -0.9849307124 -2.0959463756
| 28> H 0.8100930018 0.157847207 -2.8106455675
| 29> H 2.0926583762 0.9933852022 -1.8960192561
| 30> H 2.0516797526 -3.2133750559 2.0180151309
| 31> H 3.3488065489 -3.833852989 0.9541088674
| 32> H 4.80392263 -1.9147445179 1.6910474753
| 33> H 3.5196903177 -1.3723126884 2.7730320045
| 34> H 4.3120715176 -2.9299305275 3.0581652938
| 35> H 0.8238135722 1.4785705142 2.5401154945
| 36> H -0.9203525456 1.0435674872 2.510401917
| 37> H -4.2678657336 0.273820889 0.8360835417
| 38> H -4.5708940267 1.8893149957 1.5392327898
| 39> H -4.6955219653 1.187945888 -1.4434804384
| 40> H -6.0922525559 1.47072915 -0.3908758685
| 41> H -4.9691745259 2.7907024858 -0.7611635022
| 42> H -1.5934894881 -1.2883549146 -1.8445499171
| 43> H -0.9358938914 -2.189963083 -0.4502271485
| 44> H -2.9347460034 -3.3517988211 -1.3535071537
| 45> H -3.2834565604 -2.7266812211 0.2664865597
| 46> H -3.9018388993 -1.8825893622 -1.1645945618
| 47> *
| 48>
| 49>                          ****END OF INPUT****

CARTESIAN COORDINATES (ANGSTROEM)
---------------------------------
  C      2.724113   -0.875834   -2.783038
  C      1.673487    0.014984   -2.157073
  O      1.130878   -0.584700   -0.967535
  P      1.963176   -0.648993    0.390331
  S      3.301665    0.773593    0.603034
  O      2.493647   -2.143059    0.313438
  C      2.932330   -2.943435    1.428604
  C      3.960781   -2.244834    2.293260
  S      0.425620   -0.784920    1.828443
  C      0.029619    0.981327    1.985594
  S     -0.067614    1.873160    0.405236
  P     -1.810612    1.031031   -0.440258
  S     -1.929852    1.298097   -2.377257
  O     -2.850165    1.749667    0.521806
  C     -4.232128    1.350356    0.652707
  C     -5.051372    1.724477   -0.565515
  O     -1.944528   -0.482611    0.028696
  C     -1.795842   -1.628972   -0.823759
  C     -3.067184   -2.451846   -0.762087
  H      2.308066   -1.857856   -2.990499
  H      3.074772   -0.425664   -3.706199
  H      3.562831   -0.984931   -2.095946
  H      0.810093    0.157847   -2.810646
  H      2.092658    0.993385   -1.896019
  H      2.051680   -3.213375    2.018015
  H      3.348807   -3.833853    0.954109
  H      4.803923   -1.914745    1.691047
  H      3.519690   -1.372313    2.773032
  H      4.312072   -2.929931    3.058165
  H      0.823814    1.478571    2.540115
  H     -0.920353    1.043567    2.510402
  H     -4.267866    0.273821    0.836084
  H     -4.570894    1.889315    1.539233
  H     -4.695522    1.187946   -1.443480
  H     -6.092253    1.470729   -0.390876
  H     -4.969175    2.790702   -0.761164
  H     -1.593489   -1.288355   -1.844550
  H     -0.935894   -2.189963   -0.450227
  H     -2.934746   -3.351799   -1.353507
  H     -3.283457   -2.726681    0.266487
  H     -3.901839   -1.882589   -1.164595

 Total Charge           Charge          ....    0
 Multiplicity           Mult            ....    1
 Number of Electrons    NEL             ....  202
 Basis Dimension        Dim             ....  334

ORBITAL ENERGIES
----------------

  NO   OCC          E(Eh)            E(eV)
   0   2.0000     -88.045556     -2395.8414
   1   2.0000     -88.040435     -2395.7020
   2   2.0000     -87.987949     -2394.2738
   3   2.0000     -87.984709     -2394.1856
   4   2.0000     -76.428423     -2079.7231
   5   2.0000     -76.426704     -2079.6763
   6   2.0000     -18.795353      -511.4476
   7   2.0000     -18.795232      -511.4443
   8   2.0000     -18.792873      -511.3801
   9   2.0000     -18.785295      -511.1739
  10   2.0000      -9.962120      -271.0831
  11   2.0000      -9.960916      -271.0503
  12   2.0000      -9.956839      -270.9394
  13   2.0000      -9.946434      -270.6562
  14   2.0000      -9.937043      -270.4007
  15   2.0000      -9.887603      -269.0554
  16   2.0000      -9.884979      -268.9839
  17   2.0000      -9.884094      -268.9599
  18   2.0000      -9.875322      -268.7212
  19   2.0000      -7.690734      -209.2755
  20   2.0000      -7.685305      -209.1278
  21   2.0000      -7.632962      -207.7035
  22   2.0000      -7.629671      -207.6139
  23   2.0000      -6.425103      -174.8359
  24   2.0000      -6.424325      -174.8148
  25   2.0000      -5.718615      -155.6114
  26   2.0000      -5.715214      -155.5189
  27   2.0000      -5.713649      -155.4763
  28   2.0000      -5.709711      -155.3691
  29   2.0000      -5.707668      -155.3135
  30   2.0000      -5.701860      -155.1555
  31   2.0000      -5.661812      -154.0657
  32   2.0000      -5.658621      -153.9789
  33   2.0000      -5.653521      -153.8401
  34   2.0000      -5.653245      -153.8326
  35   2.0000      -5.650403      -153.7553
  36   2.0000      -5.649744      -153.7374
  37   2.0000      -4.647603      -126.4677
  38   2.0000      -4.647153      -126.4555
  39   2.0000      -4.647106      -126.4542
  40   2.0000      -4.645995      -126.4240
  41   2.0000      -4.645547      -126.4118
  42   2.0000      -4.644686      -126.3883
  43   2.0000      -0.988530       -26.8993
  44   2.0000      -0.985532       -26.8177
  45   2.0000      -0.944870       -25.7112
  46   2.0000      -0.942737       -25.6532
  47   2.0000      -0.765800       -20.8385
  48   2.0000      -0.723583       -19.6897
  49   2.0000      -0.708616       -19.2824
  50   2.0000      -0.689389       -18.7592
  51   2.0000      -0.684075       -18.6146
  52   2.0000      -0.672218       -18.2920
  53   2.0000      -0.654945       -17.8220
  54   2.0000      -0.639851       -17.4112
  55   2.0000      -0.596799       -16.2397
  56   2.0000      -0.591684       -16.1006
  57   2.0000      -0.577107       -15.7039
  58   2.0000      -0.573472       -15.6050
  59   2.0000      -0.563046       -15.3213
  60   2.0000      -0.503839       -13.7102
  61   2.0000      -0.492215       -13.3939
  62   2.0000      -0.477501       -12.9935
  63   2.0000      -0.466839       -12.7033
  64   2.0000      -0.461642       -12.5619
  65   2.0000      -0.446986       -12.1631
  66   2.0000      -0.438041       -11.9197
  67   2.0000      -0.432228       -11.7615
  68   2.0000      -0.426071       -11.5940
  69   2.0000      -0.417941       -11.3728
  70   2.0000      -0.415666       -11.3109
  71   2.0000      -0.395363       -10.7584
  72   2.0000      -0.390854       -10.6357
  73   2.0000      -0.387873       -10.5546
  74   2.0000      -0.384636       -10.4665
  75   2.0000      -0.376934       -10.2569
  76   2.0000      -0.369063       -10.0427
  77   2.0000      -0.356709        -9.7065
  78   2.0000      -0.349760        -9.5175
  79   2.0000      -0.349201        -9.5022
  80   2.0000      -0.348328        -9.4785
  81   2.0000      -0.343459        -9.3460
  82   2.0000      -0.341367        -9.2891
  83   2.0000      -0.340777        -9.2730
  84   2.0000      -0.333926        -9.0866
  85   2.0000      -0.322001        -8.7621
  86   2.0000      -0.310660        -8.4535
  87   2.0000      -0.298547        -8.1239
  88   2.0000      -0.293836        -7.9957
  89   2.0000      -0.290963        -7.9175
  90   2.0000      -0.282891        -7.6978
  91   2.0000      -0.279125        -7.5954
  92   2.0000      -0.271472        -7.3871
  93   2.0000      -0.267166        -7.2700
  94   2.0000      -0.255855        -6.9622
  95   2.0000      -0.230940        -6.2842
  96   2.0000      -0.221869        -6.0374
  97   2.0000      -0.208173        -5.6647
  98   2.0000      -0.203269        -5.5312
  99   2.0000      -0.199954        -5.4410
 100   2.0000      -0.193754        -5.2723
 101   0.0000      -0.047328        -1.2879
 102   0.0000      -0.019500        -0.5306
 103   0.0000      -0.011268        -0.3066
 104   0.0000      -0.003056        -0.0832
 105   0.0000       0.011734         0.3193

MULLIKEN ATOMIC CHARGES
-----------------------
   0 C :   -0.297136
   1 C :   -0.021499
   2 O :   -0.367700
   3 P :    0.610885
   4 S :   -0.320912
   5 O :   -0.374134
   6 C :   -0.011047
   7 C :   -0.310302
   8 S :   -0.110942
   9 C :   -0.322493
  10 S :   -0.062098
  11 P :    0.636626
  12 S :   -0.322003
  13 O :   -0.374729
  14 C :   -0.013719
  15 C :   -0.311509
  16 O :   -0.380079
  17 C :   -0.012247
  18 C :   -0.287882
  19 H :    0.108701
  20 H :    0.110705
  21 H :    0.117847
  22 H :    0.114316
  23 H :    0.116033
  24 H :    0.112177
  25 H :    0.110181
  26 H :    0.127818
  27 H :    0.125468
  28 H :    0.111088
  29 H :    0.191798
  30 H :    0.178921
  31 H :    0.106412
  32 H :    0.106827
  33 H :    0.130935
  34 H :    0.108378
  35 H :    0.122655
  36 H :    0.110770
  37 H :    0.103501
  38 H :    0.112138
  39 H :    0.113494
  40 H :    0.112757
Sum of atomic charges:    0.0000000

LOEWDIN ATOMIC CHARGES
----------------------
   0 C :   -0.362896
   1 C :   -0.129967
   2 O :   -0.238547
   3 P :    0.568528
   4 S :   -0.319075
   5 O :   -0.244508
   6 C :   -0.113277
   7 C :   -0.370035
   8 S :    0.080694
   9 C :   -0.467937
  10 S :    0.114452
  11 P :    0.566955
  12 S :   -0.308484
  13 O :   -0.249022
  14 C :   -0.115202
  15 C :   -0.366865
  16 O :   -0.239076
  17 C :   -0.125772
  18 C :   -0.355638
  19 H :    0.122615
  20 H :    0.129888
  21 H :    0.120202
  22 H :    0.112359
  23 H :    0.109093
  24 H :    0.108769
  25 H :    0.121940
  26 H :    0.130232
  27 H :    0.121191
  28 H :    0.129802
  29 H :    0.138533
  30 H :    0.133882
  31 H :    0.109243
  32 H :    0.119627
  33 H :    0.120982
  34 H :    0.128563
  35 H :    0.130539
  36 H :    0.105752
  37 H :    0.105145
  38 H :    0.131129
  39 H :    0.123760
  40 H :    0.122426

  Mayer bond orders larger than 0.100000
B(  0-C ,  1-C ) :   1.1627 B(  0-C , 19-H ) :   0.9474 B(  0-C , 20-H ) :   0.9409
B(  0-C , 21-H ) :   0.9361 B(  1-C ,  2-O ) :   0.8916 B(  1-C , 22-H ) :   0.9168
B(  1-C , 23-H ) :   0.9119 B(  2-O ,  3-P ) :   1.0975 B(  3-P ,  4-S ) :   1.6082
B(  3-P ,  5-O ) :   1.1063 B(  3-P ,  8-S ) :   0.9599 B(  4-S ,  8-S ) :   0.1103
B(  5-O ,  6-C ) :   0.9148 B(  6-C ,  7-C ) :   1.1649 B(  6-C , 24-H ) :   0.9282
B(  6-C , 25-H ) :   0.9342 B(  7-C , 26-H ) :   0.9423 B(  7-C , 27-H ) :   0.9334
B(  7-C , 28-H ) :   0.9343 B(  8-S ,  9-C ) :   0.9844 B(  9-C , 10-S ) :   1.0023
B(  9-C , 29-H ) :   0.9001 B(  9-C , 30-H ) :   0.9051 B( 10-S , 11-P ) :   0.9666
B( 11-P , 12-S ) :   1.6413 B( 11-P , 13-O ) :   1.0991 B( 11-P , 16-O ) :   1.0913
B( 13-O , 14-C ) :   0.9107 B( 14-C , 15-C ) :   1.1673 B( 14-C , 31-H ) :   0.9230
B( 14-C , 32-H ) :   0.9356 B( 15-C , 33-H ) :   0.9327 B( 15-C , 34-H ) :   0.9376
B( 15-C , 35-H ) :   0.9458 B( 16-O , 17-C ) :   0.9004 B( 17-C , 18-C ) :   1.1561
B( 17-C , 36-H ) :   0.9037 B( 17-C , 37-H ) :   0.9198 B( 18-C , 38-H ) :   0.9418
B( 18-C , 39-H ) :   0.9485 B( 18-C , 40-H ) :   0.9454

Dispersion correction           -0.068117012
FINAL SINGLE POINT ENERGY     -2929.517566450191

DIPOLE MOMENT
-------------

Method             : SCF
Type of density    : Electron Density
Multiplicity       :   1
Irrep              :   0
Energy             : -2929.6358960160532661 Eh
Relativity type    :
Basis              : AO
                                X                 Y                 Z
Electronic contribution:      6.349201963      14.628534731       3.427853824
Nuclear contribution   :     -7.199744201     -16.108952112      -2.523006839
                        -----------------------------------------
Total Dipole Moment    :     -0.850542238      -1.480417381       0.904846985
                        -----------------------------------------
Magnitude (a.u.)       :      1.932305822
Magnitude (Debye)      :      4.911531073

Rotational constants in cm-1:             0.013312             0.005186             0.005079
Rotational constants in MHz :           399.094695           155.481421           152.269895

                             ****ORCA TERMINATED NORMALLY****
TOTAL RUN TIME: 0 days 0 hours 0 minutes 21 seconds 914 msec
