                         Program Version 6.0.0  -   RELEASE  -
|  1> ! pbe def2-sv(p) def2/J RI DEFGRID1 loosescf d4 GCP(DFT/SV(P)) printgap
|  2> %output
|  3>     printlevel normal
|  4> end
|  5> * xyz 0 1
|  6> C 1.4881207545 -1.2786878893 -2.7153013068
|  7> C 2.4128916884 -0.1119383565 -2.4406735289
|  8> O 2.1142582803 0.5457454873 -1.1848493616
|  9> P 2.2598500437 -0.0841521734 0.2495667764
| 10> S 2.4319894166 1.291922666 1.632494255
| 11> O 3.5093154116 -1.0441572673 0.0210639059
| 12> C 4.0205465297 -1.9634805943 1.0043427846
| 13> C 4.9530753248 -1.2820807982 1.9862153397
| 14> S 0.6962965297 -1.4917432621 0.6131506159
| 15> C -0.2331916823 -0.6531195465 1.9306623465
| 16> S -1.9995479182 -0.5485551094 1.5701412796
| 17> P -1.8786822015 0.5670209005 -0.2394613066
| 18> S -0.5798156241 2.0337760928 -0.2560248581
| 19> O -3.3920717933 0.9895282569 -0.4647651194
| 20> C -4.02044055 1.987560261 0.3654877918
| 21> C -5.295239121 2.4294342761 -0.3239301117
| 22> O -1.630025612 -0.4669497373 -1.3988110326
| 23> C -2.4688941654 -1.6335437008 -1.6198957157
| 24> C -3.4820211071 -1.3596774822 -2.711251176
| 25> H 0.4525774197 -0.9516628036 -2.6554051433
| 26> H 1.6873029331 -1.6623429209 -3.7110272716
| 27> H 1.6507458404 -2.0719926788 -1.9871500032
| 28> H 2.2790279263 0.6870815698 -3.1719398075
| 29> H 3.4571699361 -0.4289511918 -2.4191540536
| 30> H 3.1794957741 -2.4342197371 1.5210649597
| 31> H 4.5505954009 -2.7120686104 0.4119314945
| 32> H 5.3630976307 -2.0250130967 2.6626405804
| 33> H 5.7646582482 -0.7925227182 1.4545844582
| 34> H 4.4163065567 -0.5319210328 2.5626390726
| 35> H 0.1871017338 0.3489096441 2.0611749312
| 36> H -0.1482333984 -1.2356058082 2.8447184279
| 37> H -4.2273245062 1.5383597364 1.3405348371
| 38> H -3.3223482344 2.8211073959 0.4958596603
| 39> H -5.9595090269 1.5805399331 -0.4564446659
| 40> H -5.7877591875 3.1787970887 0.2868833563
| 41> H -5.0652320699 2.8552486599 -1.2965671576
| 42> H -1.7701425241 -2.4221997542 -1.9053278746
| 43> H -2.9591512422 -1.8990503924 -0.679580502
| 44> H -4.0555372361 -2.2626705852 -2.8951019717
| 45> H -4.1542657664 -0.5617120809 -2.4078159611
| 46> H -2.9770211127 -1.0626814824 -3.6262082346
| 47> *
| 48>
| 49>                          ****END OF INPUT****

CARTESIAN COORDINATES (ANGSTROEM)
---------------------------------
  C      1.488121   -1.278688   -2.715301
  C      2.412892   -0.111938   -2.440674
  O      2.114258    0.545745   -1.184849
  P      2.259850   -0.084152    0.249567
  S      2.431989    1.291923    1.632494
  O      3.509315   -1.044157    0.021064
  C      4.020547   -1.963481    1.004343
  C      4.953075   -1.282081    1.986215
  S      0.696297   -1.491743    0.613151
  C     -0.233192   -0.653120    1.930662
  S     -1.999548   -0.548555    1.570141
  P     -1.878682    0.567021   -0.239461
  S     -0.579816    2.033776   -0.256025
  O     -3.392072    0.989528   -0.464765
  C     -4.020441    1.987560    0.365488
  C     -5.295239    2.429434   -0.323930
  O     -1.630026   -0.466950   -1.398811
  C     -2.468894   -1.633544   -1.619896
  C     -3.482021   -1.359677   -2.711251
  H      0.452577   -0.951663   -2.655405
  H      1.687303   -1.662343   -3.711027
  H      1.650746   -2.071993   -1.987150
  H      2.279028    0.687082   -3.171940
  H      3.457170   -0.428951   -2.419154
  H      3.179496   -2.434220    1.521065
  H      4.550595   -2.712069    0.411931
  H      5.363098   -2.025013    2.662641
  H      5.764658   -0.792523    1.454584
  H      4.416307   -0.531921    2.562639
  H      0.187102    0.348910    2.061175
  H     -0.148233   -1.235606    2.844718
  H     -4.227325    1.538360    1.340535
  H     -3.322348    2.821107    0.495860
  H     -5.959509    1.580540   -0.456445
  H     -5.787759    3.178797    0.286883
  H     -5.065232    2.855249   -1.296567
  H     -1.770143   -2.422200   -1.905328
  H     -2.959151   -1.899050   -0.679581
  H     -4.055537   -2.262671   -2.895102
  H     -4.154266   -0.561712   -2.407816
  H     -2.977021   -1.062681   -3.626208

 Total Charge           Charge          ....    0
 Multiplicity           Mult            ....    1
 Number of Electrons    NEL             ....  202
 Basis Dimension        Dim             ....  334

ORBITAL ENERGIES
----------------

  NO   OCC          E(Eh)            E(eV)
   0   2.0000     -88.041543     -2395.7322
   1   2.0000     -88.039838     -2395.6858
   2   2.0000     -87.976283     -2393.9564
   3   2.0000     -87.975613     -2393.9381
   4   2.0000     -76.421854     -2079.5444
   5   2.0000     -76.421220     -2079.5271
   6   2.0000     -18.793608      -511.4001
   7   2.0000     -18.792667      -511.3745
   8   2.0000     -18.790544      -511.3167
   9   2.0000     -18.782119      -511.0874
  10   2.0000      -9.956686      -270.9352
  11   2.0000      -9.953719      -270.8545
  12   2.0000      -9.952304      -270.8160
  13   2.0000      -9.950107      -270.7562
  14   2.0000      -9.949410      -270.7372
  15   2.0000      -9.889965      -269.1196
  16   2.0000      -9.888317      -269.0748
  17   2.0000      -9.882449      -268.9151
  18   2.0000      -9.877263      -268.7740
  19   2.0000      -7.686718      -209.1662
  20   2.0000      -7.684029      -209.0931
  21   2.0000      -7.621198      -207.3833
  22   2.0000      -7.620840      -207.3736
  23   2.0000      -6.419401      -174.6808
  24   2.0000      -6.418136      -174.6464
  25   2.0000      -5.714522      -155.5001
  26   2.0000      -5.711851      -155.4274
  27   2.0000      -5.711024      -155.4049
  28   2.0000      -5.708468      -155.3353
  29   2.0000      -5.703990      -155.2135
  30   2.0000      -5.701248      -155.1389
  31   2.0000      -5.650347      -153.7538
  32   2.0000      -5.649929      -153.7424
  33   2.0000      -5.641693      -153.5183
  34   2.0000      -5.641287      -153.5072
  35   2.0000      -5.641270      -153.5068
  36   2.0000      -5.640941      -153.4978
  37   2.0000      -4.642272      -126.3226
  38   2.0000      -4.641313      -126.2965
  39   2.0000      -4.641068      -126.2899
  40   2.0000      -4.639852      -126.2568
  41   2.0000      -4.639386      -126.2441
  42   2.0000      -4.638422      -126.2179
  43   2.0000      -0.989220       -26.9180
  44   2.0000      -0.983168       -26.7534
  45   2.0000      -0.946403       -25.7529
  46   2.0000      -0.937062       -25.4988
  47   2.0000      -0.759389       -20.6640
  48   2.0000      -0.718917       -19.5627
  49   2.0000      -0.709485       -19.3061
  50   2.0000      -0.693848       -18.8806
  51   2.0000      -0.686257       -18.6740
  52   2.0000      -0.673670       -18.3315
  53   2.0000      -0.644788       -17.5456
  54   2.0000      -0.629597       -17.1322
  55   2.0000      -0.588168       -16.0049
  56   2.0000      -0.585781       -15.9399
  57   2.0000      -0.574690       -15.6381
  58   2.0000      -0.570956       -15.5365
  59   2.0000      -0.563245       -15.3267
  60   2.0000      -0.508181       -13.8283
  61   2.0000      -0.495981       -13.4963
  62   2.0000      -0.482914       -13.1408
  63   2.0000      -0.469145       -12.7661
  64   2.0000      -0.447095       -12.1661
  65   2.0000      -0.444988       -12.1087
  66   2.0000      -0.442103       -12.0302
  67   2.0000      -0.435563       -11.8523
  68   2.0000      -0.428236       -11.6529
  69   2.0000      -0.421241       -11.4625
  70   2.0000      -0.405114       -11.0237
  71   2.0000      -0.396021       -10.7763
  72   2.0000      -0.391848       -10.6627
  73   2.0000      -0.388483       -10.5712
  74   2.0000      -0.382668       -10.4129
  75   2.0000      -0.364330        -9.9139
  76   2.0000      -0.359060        -9.7705
  77   2.0000      -0.356056        -9.6888
  78   2.0000      -0.352859        -9.6018
  79   2.0000      -0.350676        -9.5424
  80   2.0000      -0.347025        -9.4430
  81   2.0000      -0.344871        -9.3844
  82   2.0000      -0.340873        -9.2756
  83   2.0000      -0.334831        -9.1112
  84   2.0000      -0.329459        -8.9650
  85   2.0000      -0.318520        -8.6674
  86   2.0000      -0.312214        -8.4958
  87   2.0000      -0.300046        -8.1647
  88   2.0000      -0.294882        -8.0241
  89   2.0000      -0.293604        -7.9894
  90   2.0000      -0.283979        -7.7275
  91   2.0000      -0.276133        -7.5140
  92   2.0000      -0.269342        -7.3292
  93   2.0000      -0.260434        -7.0868
  94   2.0000      -0.254121        -6.9150
  95   2.0000      -0.233512        -6.3542
  96   2.0000      -0.221290        -6.0216
  97   2.0000      -0.206418        -5.6169
  98   2.0000      -0.194909        -5.3037
  99   2.0000      -0.187243        -5.0951
 100   2.0000      -0.179081        -4.8730
 101   0.0000      -0.038872        -1.0578
 102   0.0000      -0.031095        -0.8462
 103   0.0000      -0.002400        -0.0653
 104   0.0000       0.013016         0.3542
 105   0.0000       0.015184         0.4132

MULLIKEN ATOMIC CHARGES
-----------------------
   0 C :   -0.352455
   1 C :    0.009960
   2 O :   -0.347092
   3 P :    0.630328
   4 S :   -0.296632
   5 O :   -0.385760
   6 C :   -0.006418
   7 C :   -0.296643
   8 S :   -0.139150
   9 C :   -0.336483
  10 S :   -0.118164
  11 P :    0.581352
  12 S :   -0.278142
  13 O :   -0.383827
  14 C :   -0.011487
  15 C :   -0.283364
  16 O :   -0.349240
  17 C :   -0.007973
  18 C :   -0.290163
  19 H :    0.155524
  20 H :    0.108716
  21 H :    0.116399
  22 H :    0.111144
  23 H :    0.107355
  24 H :    0.098755
  25 H :    0.101570
  26 H :    0.104622
  27 H :    0.114077
  28 H :    0.129694
  29 H :    0.210880
  30 H :    0.175453
  31 H :    0.104558
  32 H :    0.108351
  33 H :    0.114765
  34 H :    0.114214
  35 H :    0.122839
  36 H :    0.109128
  37 H :    0.103002
  38 H :    0.109473
  39 H :    0.123367
  40 H :    0.117468
Sum of atomic charges:   -0.0000000

LOEWDIN ATOMIC CHARGES
----------------------
   0 C :   -0.374936
   1 C :   -0.106195
   2 O :   -0.224565
   3 P :    0.571783
   4 S :   -0.291443
   5 O :   -0.248254
   6 C :   -0.118139
   7 C :   -0.366384
   8 S :    0.062890
   9 C :   -0.481761
  10 S :    0.058843
  11 P :    0.554186
  12 S :   -0.288132
  13 O :   -0.251422
  14 C :   -0.120534
  15 C :   -0.350766
  16 O :   -0.228740
  17 C :   -0.115644
  18 C :   -0.359122
  19 H :    0.132731
  20 H :    0.129157
  21 H :    0.113624
  22 H :    0.123919
  23 H :    0.112308
  24 H :    0.101452
  25 H :    0.116233
  26 H :    0.127349
  27 H :    0.126567
  28 H :    0.123117
  29 H :    0.125598
  30 H :    0.133923
  31 H :    0.108817
  32 H :    0.111430
  33 H :    0.124981
  34 H :    0.132006
  35 H :    0.129745
  36 H :    0.117994
  37 H :    0.103779
  38 H :    0.129434
  39 H :    0.126624
  40 H :    0.127550

  Mayer bond orders larger than 0.100000
B(  0-C ,  1-C ) :   1.1711 B(  0-C , 19-H ) :   0.9240 B(  0-C , 20-H ) :   0.9353
B(  0-C , 21-H ) :   0.9375 B(  1-C ,  2-O ) :   0.9019 B(  1-C , 22-H ) :   0.9320
B(  1-C , 23-H ) :   0.9271 B(  2-O ,  3-P ) :   1.1440 B(  3-P ,  4-S ) :   1.6446
B(  3-P ,  5-O ) :   1.0646 B(  3-P ,  8-S ) :   0.9294 B(  4-S ,  8-S ) :   0.1207
B(  4-S , 29-H ) :   0.1072 B(  5-O ,  6-C ) :   0.9141 B(  6-C ,  7-C ) :   1.1658
B(  6-C , 24-H ) :   0.9122 B(  6-C , 25-H ) :   0.9363 B(  7-C , 26-H ) :   0.9384
B(  7-C , 27-H ) :   0.9474 B(  7-C , 28-H ) :   0.9288 B(  8-S ,  9-C ) :   0.9977
B(  9-C , 10-S ) :   0.9972 B(  9-C , 29-H ) :   0.8402 B(  9-C , 30-H ) :   0.9112
B( 10-S , 11-P ) :   0.9418 B( 10-S , 12-S ) :   0.1095 B( 11-P , 12-S ) :   1.6921
B( 11-P , 13-O ) :   1.0733 B( 11-P , 16-O ) :   1.1209 B( 13-O , 14-C ) :   0.9043
B( 14-C , 15-C ) :   1.1594 B( 14-C , 31-H ) :   0.9282 B( 14-C , 32-H ) :   0.9095
B( 15-C , 33-H ) :   0.9509 B( 15-C , 34-H ) :   0.9418 B( 15-C , 35-H ) :   0.9508
B( 16-O , 17-C ) :   0.8785 B( 17-C , 18-C ) :   1.1667 B( 17-C , 36-H ) :   0.9327
B( 17-C , 37-H ) :   0.9107 B( 18-C , 38-H ) :   0.9400 B( 18-C , 39-H ) :   0.9408
B( 18-C , 40-H ) :   0.9483

Dispersion correction           -0.066033507
FINAL SINGLE POINT ENERGY     -2929.515078773196

DIPOLE MOMENT
-------------

Method             : SCF
Type of density    : Electron Density
Multiplicity       :   1
Irrep              :   0
Energy             : -2929.6345641534999231 Eh
Relativity type    :
Basis              : AO
                                X                 Y                 Z
Electronic contribution:      6.444906374       8.197207036      10.386577911
Nuclear contribution   :     -7.326096540      -9.891829811     -11.011268071
                        -----------------------------------------
Total Dipole Moment    :     -0.881190166      -1.694622775      -0.624690160
                        -----------------------------------------
Magnitude (a.u.)       :      2.009597038
Magnitude (Debye)      :      5.107989733

Rotational constants in cm-1:             0.013629             0.004961             0.004597
Rotational constants in MHz :           408.583314           148.733664           137.806267

                             ****ORCA TERMINATED NORMALLY****
TOTAL RUN TIME: 0 days 0 hours 0 minutes 20 seconds 989 msec
