                         Program Version 6.0.0  -   RELEASE  -
|  1> ! r2scan-3c def2/J RI DEFGRID2 scfconv6 printgap
|  2> %output
|  3>     printlevel normal
|  4> end
|  5> * xyz 0 1
|  6> C 5.797962587 -0.2158883602 -0.4001551384
|  7> C 4.3819762985 -0.6188560312 -0.7578632476
|  8> O 3.484622745 0.3390085575 -0.1602071219
|  9> P 1.9613691248 0.4367128305 -0.6158290398
| 10> S 1.7024424158 0.6234754795 -2.5446615465
| 11> O 1.4780651216 1.6638838942 0.2400853732
| 12> C 1.7479724269 1.7600554317 1.6645258932
| 13> C 0.7764828261 2.7603250862 2.2529446774
| 14> S 1.1627418888 -1.3352404549 0.2532812068
| 15> C -0.0582052613 -1.8203326186 -1.0065497334
| 16> S -1.7207841473 -2.0247517909 -0.3341461969
| 17> P -2.0622952887 0.0009940359 0.2226789356
| 18> S -1.4693906868 1.3704011517 -1.0457746488
| 19> O -1.3975808361 0.1618966795 1.6441579026
| 20> C -1.7833484175 -0.6747075696 2.7713000774
| 21> C -0.5564305804 -0.9420319876 3.6176935207
| 22> O -3.6084153973 0.0258434433 0.5932560834
| 23> C -4.6447722635 0.2706437065 -0.3738332728
| 24> C -4.7403713436 -0.8310404572 -1.409098999
| 25> H 6.0122140994 0.7760619259 -0.7879888544
| 26> H 5.9208602329 -0.2074404805 0.6788152263
| 27> H 6.490338949 -0.9281222021 -0.8364726329
| 28> H 4.1352494066 -1.6080064443 -0.3624839738
| 29> H 4.2222224681 -0.6142643681 -1.8411460409
| 30> H 1.6220166352 0.7677595123 2.1079135516
| 31> H 2.7840285836 2.082683913 1.7818494938
| 32> H 0.9763659532 2.8715411382 3.313879179
| 33> H 0.8890145328 3.7217163111 1.7595996585
| 34> H -0.2444045736 2.4154824315 2.1078528264
| 35> H 0.2287455993 -2.7914658304 -1.4016493494
| 36> H -0.0580449344 -1.0597488255 -1.7927172552
| 37> H -2.5463622766 -0.1257840339 3.3251514566
| 38> H -2.2126124161 -1.6043529875 2.3874862655
| 39> H -0.1299425945 -0.0058943576 3.966364901
| 40> H -0.8453311581 -1.5443601339 4.4729135822
| 41> H 0.1902559921 -1.4803530042 3.038713943
| 42> H -5.5503195032 0.3354479673 0.2310837731
| 43> H -4.4464335903 1.2337557301 -0.853960072
| 44> H -4.812479299 -1.8017838924 -0.9250703391
| 45> H -5.6191220432 -0.6676803341 -2.024677373
| 46> H -3.8582911747 -0.8200029065 -2.0477561891
| 47> *
| 48>
| 49>                          ****END OF INPUT****

CARTESIAN COORDINATES (ANGSTROEM)
---------------------------------
  C      5.797963   -0.215888   -0.400155
  C      4.381976   -0.618856   -0.757863
  O      3.484623    0.339009   -0.160207
  P      1.961369    0.436713   -0.615829
  S      1.702442    0.623475   -2.544662
  O      1.478065    1.663884    0.240085
  C      1.747972    1.760055    1.664526
  C      0.776483    2.760325    2.252945
  S      1.162742   -1.335240    0.253281
  C     -0.058205   -1.820333   -1.006550
  S     -1.720784   -2.024752   -0.334146
  P     -2.062295    0.000994    0.222679
  S     -1.469391    1.370401   -1.045775
  O     -1.397581    0.161897    1.644158
  C     -1.783348   -0.674708    2.771300
  C     -0.556431   -0.942032    3.617694
  O     -3.608415    0.025843    0.593256
  C     -4.644772    0.270644   -0.373833
  C     -4.740371   -0.831040   -1.409099
  H      6.012214    0.776062   -0.787989
  H      5.920860   -0.207440    0.678815
  H      6.490339   -0.928122   -0.836473
  H      4.135249   -1.608006   -0.362484
  H      4.222222   -0.614264   -1.841146
  H      1.622017    0.767760    2.107914
  H      2.784029    2.082684    1.781849
  H      0.976366    2.871541    3.313879
  H      0.889015    3.721716    1.759600
  H     -0.244405    2.415482    2.107853
  H      0.228746   -2.791466   -1.401649
  H     -0.058045   -1.059749   -1.792717
  H     -2.546362   -0.125784    3.325151
  H     -2.212612   -1.604353    2.387486
  H     -0.129943   -0.005894    3.966365
  H     -0.845331   -1.544360    4.472914
  H      0.190256   -1.480353    3.038714
  H     -5.550320    0.335448    0.231084
  H     -4.446434    1.233756   -0.853960
  H     -4.812479   -1.801784   -0.925070
  H     -5.619122   -0.667680   -2.024677
  H     -3.858291   -0.820003   -2.047756

 Total Charge           Charge          ....    0
 Multiplicity           Mult            ....    1
 Number of Electrons    NEL             ....  202
 Basis Dimension        Dim             ....  539

ORBITAL ENERGIES
----------------

  NO   OCC          E(Eh)            E(eV)
   0   2.0000     -88.575071     -2410.2502
   1   2.0000     -88.570939     -2410.1378
   2   2.0000     -88.513874     -2408.5850
   3   2.0000     -88.511606     -2408.5232
   4   2.0000     -76.910917     -2092.8524
   5   2.0000     -76.906900     -2092.7431
   6   2.0000     -18.992030      -516.7994
   7   2.0000     -18.991143      -516.7753
   8   2.0000     -18.985742      -516.6283
   9   2.0000     -18.983447      -516.5659
  10   2.0000     -10.103839      -274.9394
  11   2.0000     -10.103419      -274.9280
  12   2.0000     -10.098781      -274.8018
  13   2.0000     -10.096496      -274.7396
  14   2.0000     -10.093279      -274.6521
  15   2.0000     -10.036010      -273.0937
  16   2.0000     -10.030264      -272.9374
  17   2.0000     -10.028214      -272.8816
  18   2.0000     -10.023455      -272.7521
  19   2.0000      -7.869625      -214.1434
  20   2.0000      -7.865540      -214.0322
  21   2.0000      -7.808304      -212.4747
  22   2.0000      -7.806383      -212.4225
  23   2.0000      -6.589338      -179.3050
  24   2.0000      -6.585384      -179.1974
  25   2.0000      -5.816518      -158.2755
  26   2.0000      -5.813251      -158.1866
  27   2.0000      -5.812308      -158.1609
  28   2.0000      -5.809288      -158.0788
  29   2.0000      -5.806903      -158.0139
  30   2.0000      -5.802805      -157.9024
  31   2.0000      -5.756124      -156.6321
  32   2.0000      -5.754190      -156.5795
  33   2.0000      -5.748490      -156.4244
  34   2.0000      -5.748303      -156.4193
  35   2.0000      -5.746626      -156.3736
  36   2.0000      -5.746253      -156.3635
  37   2.0000      -4.735218      -128.8518
  38   2.0000      -4.734288      -128.8265
  39   2.0000      -4.732686      -128.7829
  40   2.0000      -4.731112      -128.7401
  41   2.0000      -4.730379      -128.7202
  42   2.0000      -4.728857      -128.6787
  43   2.0000      -1.051114       -28.6023
  44   2.0000      -1.045201       -28.4414
  45   2.0000      -1.009458       -27.4687
  46   2.0000      -1.002165       -27.2703
  47   2.0000      -0.797586       -21.7034
  48   2.0000      -0.757625       -20.6160
  49   2.0000      -0.750943       -20.4342
  50   2.0000      -0.734456       -19.9856
  51   2.0000      -0.730547       -19.8792
  52   2.0000      -0.709227       -19.2990
  53   2.0000      -0.681896       -18.5553
  54   2.0000      -0.661262       -17.9939
  55   2.0000      -0.624350       -16.9894
  56   2.0000      -0.610278       -16.6065
  57   2.0000      -0.607847       -16.5404
  58   2.0000      -0.597905       -16.2698
  59   2.0000      -0.593398       -16.1472
  60   2.0000      -0.533999       -14.5309
  61   2.0000      -0.526982       -14.3399
  62   2.0000      -0.495619       -13.4865
  63   2.0000      -0.493293       -13.4232
  64   2.0000      -0.469285       -12.7699
  65   2.0000      -0.465971       -12.6797
  66   2.0000      -0.456667       -12.4265
  67   2.0000      -0.452348       -12.3090
  68   2.0000      -0.450161       -12.2495
  69   2.0000      -0.435511       -11.8509
  70   2.0000      -0.426782       -11.6133
  71   2.0000      -0.411854       -11.2071
  72   2.0000      -0.407240       -11.0816
  73   2.0000      -0.394911       -10.7461
  74   2.0000      -0.387927       -10.5560
  75   2.0000      -0.381144       -10.3715
  76   2.0000      -0.379576       -10.3288
  77   2.0000      -0.376844       -10.2544
  78   2.0000      -0.369673       -10.0593
  79   2.0000      -0.363713        -9.8971
  80   2.0000      -0.362626        -9.8676
  81   2.0000      -0.359282        -9.7766
  82   2.0000      -0.353290        -9.6135
  83   2.0000      -0.348150        -9.4736
  84   2.0000      -0.345474        -9.4008
  85   2.0000      -0.328711        -8.9447
  86   2.0000      -0.321704        -8.7540
  87   2.0000      -0.320444        -8.7197
  88   2.0000      -0.313087        -8.5195
  89   2.0000      -0.308601        -8.3975
  90   2.0000      -0.307712        -8.3733
  91   2.0000      -0.285726        -7.7750
  92   2.0000      -0.279799        -7.6137
  93   2.0000      -0.276443        -7.5224
  94   2.0000      -0.268177        -7.2975
  95   2.0000      -0.246399        -6.7049
  96   2.0000      -0.233000        -6.3403
  97   2.0000      -0.224530        -6.1098
  98   2.0000      -0.212812        -5.7909
  99   2.0000      -0.203192        -5.5291
 100   2.0000      -0.195454        -5.3186
 101   0.0000      -0.040802        -1.1103
 102   0.0000      -0.031570        -0.8591
 103   0.0000      -0.007683        -0.2091
 104   0.0000       0.013549         0.3687
 105   0.0000       0.019066         0.5188

MULLIKEN ATOMIC CHARGES
-----------------------
   0 C :   -0.442400
   1 C :   -0.156008
   2 O :   -0.277746
   3 P :    0.689744
   4 S :   -0.439416
   5 O :   -0.269346
   6 C :   -0.096215
   7 C :   -0.482931
   8 S :   -0.212918
   9 C :   -0.228191
  10 S :   -0.151986
  11 P :    0.600604
  12 S :   -0.380188
  13 O :   -0.253238
  14 C :   -0.087911
  15 C :   -0.485520
  16 O :   -0.289479
  17 C :   -0.161295
  18 C :   -0.454456
  19 H :    0.159066
  20 H :    0.149355
  21 H :    0.145521
  22 H :    0.151271
  23 H :    0.170540
  24 H :    0.150040
  25 H :    0.156756
  26 H :    0.139878
  27 H :    0.155562
  28 H :    0.186230
  29 H :    0.193039
  30 H :    0.224519
  31 H :    0.156125
  32 H :    0.154821
  33 H :    0.157272
  34 H :    0.147348
  35 H :    0.174771
  36 H :    0.146727
  37 H :    0.175175
  38 H :    0.152434
  39 H :    0.148718
  40 H :    0.183728
Sum of atomic charges:    0.0000000

LOEWDIN ATOMIC CHARGES
----------------------
   0 C :   -0.387003
   1 C :    0.014903
   2 O :   -0.678447
   3 P :    0.371549
   4 S :   -0.101436
   5 O :   -0.648017
   6 C :    0.025267
   7 C :   -0.391852
   8 S :    0.126224
   9 C :   -0.418699
  10 S :    0.123681
  11 P :    0.372037
  12 S :   -0.048506
  13 O :   -0.670268
  14 C :    0.021384
  15 C :   -0.396432
  16 O :   -0.669539
  17 C :    0.022019
  18 C :   -0.409017
  19 H :    0.161725
  20 H :    0.157728
  21 H :    0.159389
  22 H :    0.171382
  23 H :    0.180721
  24 H :    0.174612
  25 H :    0.174982
  26 H :    0.156876
  27 H :    0.163404
  28 H :    0.174916
  29 H :    0.180010
  30 H :    0.202472
  31 H :    0.175781
  32 H :    0.177007
  33 H :    0.159640
  34 H :    0.159599
  35 H :    0.165604
  36 H :    0.179116
  37 H :    0.180962
  38 H :    0.159017
  39 H :    0.159661
  40 H :    0.167550

  Mayer bond orders larger than 0.100000
B(  0-C ,  1-C ) :   0.9533 B(  0-C , 19-H ) :   0.9720 B(  0-C , 20-H ) :   0.9720
B(  0-C , 21-H ) :   0.9648 B(  1-C ,  2-O ) :   0.7911 B(  1-C , 22-H ) :   0.9420
B(  1-C , 23-H ) :   0.9503 B(  2-O ,  3-P ) :   1.0513 B(  3-P ,  4-S ) :   1.8251
B(  3-P ,  5-O ) :   1.1968 B(  3-P ,  8-S ) :   0.9741 B(  5-O ,  6-C ) :   0.7259
B(  6-C ,  7-C ) :   0.9381 B(  6-C , 24-H ) :   0.9530 B(  6-C , 25-H ) :   0.9433
B(  7-C , 26-H ) :   0.9671 B(  7-C , 27-H ) :   0.9671 B(  7-C , 28-H ) :   0.9645
B(  8-S ,  9-C ) :   0.8969 B(  9-C , 10-S ) :   0.9165 B(  9-C , 29-H ) :   0.9158
B(  9-C , 30-H ) :   0.9053 B( 10-S , 11-P ) :   1.0084 B( 11-P , 12-S ) :   1.8900
B( 11-P , 13-O ) :   1.1003 B( 11-P , 16-O ) :   1.0428 B( 13-O , 14-C ) :   0.7479
B( 14-C , 15-C ) :   0.9426 B( 14-C , 31-H ) :   0.9489 B( 14-C , 32-H ) :   0.9540
B( 15-C , 33-H ) :   0.9728 B( 15-C , 34-H ) :   0.9626 B( 15-C , 35-H ) :   0.9668
B( 16-O , 17-C ) :   0.8245 B( 17-C , 18-C ) :   0.9158 B( 17-C , 36-H ) :   0.9612
B( 17-C , 37-H ) :   0.9686 B( 18-C , 38-H ) :   0.9678 B( 18-C , 39-H ) :   0.9568
B( 18-C , 40-H ) :   0.9625

Dispersion correction           -0.022151442
FINAL SINGLE POINT ENERGY     -2932.458498163128

DIPOLE MOMENT
-------------

Method             : SCF
Type of density    : Electron Density
Multiplicity       :   1
Irrep              :   0
Energy             : -2932.4829305666171422 Eh
Relativity type    :
Basis              : AO
                                X                 Y                 Z
Electronic contribution:     -3.252048212       0.227513163     -14.030692240
Nuclear contribution   :      3.052279761      -1.308698259      15.781919493
                        -----------------------------------------
Total Dipole Moment    :     -0.199768451      -1.081185096       1.751227253
                        -----------------------------------------
Magnitude (a.u.)       :      2.067768250
Magnitude (Debye)      :      5.255849203

Rotational constants in cm-1:             0.012501             0.005358             0.004956
Rotational constants in MHz :           374.765043           160.618262           148.566300

                             ****ORCA TERMINATED NORMALLY****
TOTAL RUN TIME: 0 days 0 hours 1 minutes 22 seconds 657 msec
