                         Program Version 6.0.0  -   RELEASE  -
|  1> ! r2scan-3c def2/J RI DEFGRID2 scfconv6 printgap
|  2> %output
|  3>     printlevel normal
|  4> end
|  5> %cpcm
|  6>     smd true
|  7>     smdsolvent "water"
|  8> end
|  9> * xyz 0 1
| 10> C 5.797962587 -0.2158883602 -0.4001551384
| 11> C 4.3819762985 -0.6188560312 -0.7578632476
| 12> O 3.484622745 0.3390085575 -0.1602071219
| 13> P 1.9613691248 0.4367128305 -0.6158290398
| 14> S 1.7024424158 0.6234754795 -2.5446615465
| 15> O 1.4780651216 1.6638838942 0.2400853732
| 16> C 1.7479724269 1.7600554317 1.6645258932
| 17> C 0.7764828261 2.7603250862 2.2529446774
| 18> S 1.1627418888 -1.3352404549 0.2532812068
| 19> C -0.0582052613 -1.8203326186 -1.0065497334
| 20> S -1.7207841473 -2.0247517909 -0.3341461969
| 21> P -2.0622952887 0.0009940359 0.2226789356
| 22> S -1.4693906868 1.3704011517 -1.0457746488
| 23> O -1.3975808361 0.1618966795 1.6441579026
| 24> C -1.7833484175 -0.6747075696 2.7713000774
| 25> C -0.5564305804 -0.9420319876 3.6176935207
| 26> O -3.6084153973 0.0258434433 0.5932560834
| 27> C -4.6447722635 0.2706437065 -0.3738332728
| 28> C -4.7403713436 -0.8310404572 -1.409098999
| 29> H 6.0122140994 0.7760619259 -0.7879888544
| 30> H 5.9208602329 -0.2074404805 0.6788152263
| 31> H 6.490338949 -0.9281222021 -0.8364726329
| 32> H 4.1352494066 -1.6080064443 -0.3624839738
| 33> H 4.2222224681 -0.6142643681 -1.8411460409
| 34> H 1.6220166352 0.7677595123 2.1079135516
| 35> H 2.7840285836 2.082683913 1.7818494938
| 36> H 0.9763659532 2.8715411382 3.313879179
| 37> H 0.8890145328 3.7217163111 1.7595996585
| 38> H -0.2444045736 2.4154824315 2.1078528264
| 39> H 0.2287455993 -2.7914658304 -1.4016493494
| 40> H -0.0580449344 -1.0597488255 -1.7927172552
| 41> H -2.5463622766 -0.1257840339 3.3251514566
| 42> H -2.2126124161 -1.6043529875 2.3874862655
| 43> H -0.1299425945 -0.0058943576 3.966364901
| 44> H -0.8453311581 -1.5443601339 4.4729135822
| 45> H 0.1902559921 -1.4803530042 3.038713943
| 46> H -5.5503195032 0.3354479673 0.2310837731
| 47> H -4.4464335903 1.2337557301 -0.853960072
| 48> H -4.812479299 -1.8017838924 -0.9250703391
| 49> H -5.6191220432 -0.6676803341 -2.024677373
| 50> H -3.8582911747 -0.8200029065 -2.0477561891
| 51> *
| 52>
| 53>                          ****END OF INPUT****

CARTESIAN COORDINATES (ANGSTROEM)
---------------------------------
  C      5.797963   -0.215888   -0.400155
  C      4.381976   -0.618856   -0.757863
  O      3.484623    0.339009   -0.160207
  P      1.961369    0.436713   -0.615829
  S      1.702442    0.623475   -2.544662
  O      1.478065    1.663884    0.240085
  C      1.747972    1.760055    1.664526
  C      0.776483    2.760325    2.252945
  S      1.162742   -1.335240    0.253281
  C     -0.058205   -1.820333   -1.006550
  S     -1.720784   -2.024752   -0.334146
  P     -2.062295    0.000994    0.222679
  S     -1.469391    1.370401   -1.045775
  O     -1.397581    0.161897    1.644158
  C     -1.783348   -0.674708    2.771300
  C     -0.556431   -0.942032    3.617694
  O     -3.608415    0.025843    0.593256
  C     -4.644772    0.270644   -0.373833
  C     -4.740371   -0.831040   -1.409099
  H      6.012214    0.776062   -0.787989
  H      5.920860   -0.207440    0.678815
  H      6.490339   -0.928122   -0.836473
  H      4.135249   -1.608006   -0.362484
  H      4.222222   -0.614264   -1.841146
  H      1.622017    0.767760    2.107914
  H      2.784029    2.082684    1.781849
  H      0.976366    2.871541    3.313879
  H      0.889015    3.721716    1.759600
  H     -0.244405    2.415482    2.107853
  H      0.228746   -2.791466   -1.401649
  H     -0.058045   -1.059749   -1.792717
  H     -2.546362   -0.125784    3.325151
  H     -2.212612   -1.604353    2.387486
  H     -0.129943   -0.005894    3.966365
  H     -0.845331   -1.544360    4.472914
  H      0.190256   -1.480353    3.038714
  H     -5.550320    0.335448    0.231084
  H     -4.446434    1.233756   -0.853960
  H     -4.812479   -1.801784   -0.925070
  H     -5.619122   -0.667680   -2.024677
  H     -3.858291   -0.820003   -2.047756

 Total Charge           Charge          ....    0
 Multiplicity           Mult            ....    1
 Number of Electrons    NEL             ....  202
 Basis Dimension        Dim             ....  539

ORBITAL ENERGIES
----------------

  NO   OCC          E(Eh)            E(eV)
   0   2.0000     -88.577529     -2410.3171
   1   2.0000     -88.575226     -2410.2544
   2   2.0000     -88.526326     -2408.9238
   3   2.0000     -88.524793     -2408.8821
   4   2.0000     -76.917316     -2093.0266
   5   2.0000     -76.916795     -2093.0124
   6   2.0000     -18.993851      -516.8490
   7   2.0000     -18.992302      -516.8068
   8   2.0000     -18.991794      -516.7930
   9   2.0000     -18.991764      -516.7922
  10   2.0000     -10.102731      -274.9093
  11   2.0000     -10.092309      -274.6257
  12   2.0000     -10.091316      -274.5987
  13   2.0000     -10.089829      -274.5582
  14   2.0000     -10.088009      -274.5087
  15   2.0000     -10.019050      -272.6322
  16   2.0000     -10.018965      -272.6299
  17   2.0000     -10.018583      -272.6195
  18   2.0000     -10.018448      -272.6158
  19   2.0000      -7.872004      -214.2081
  20   2.0000      -7.869705      -214.1456
  21   2.0000      -7.821510      -212.8341
  22   2.0000      -7.819698      -212.7848
  23   2.0000      -6.595839      -179.4819
  24   2.0000      -6.595244      -179.4657
  25   2.0000      -5.818933      -158.3412
  26   2.0000      -5.816510      -158.2753
  27   2.0000      -5.815659      -158.2521
  28   2.0000      -5.813488      -158.1930
  29   2.0000      -5.809232      -158.0772
  30   2.0000      -5.806914      -158.0142
  31   2.0000      -5.769177      -156.9873
  32   2.0000      -5.767382      -156.9384
  33   2.0000      -5.761818      -156.7870
  34   2.0000      -5.761378      -156.7751
  35   2.0000      -5.759863      -156.7338
  36   2.0000      -5.759764      -156.7312
  37   2.0000      -4.741539      -129.0238
  38   2.0000      -4.741071      -129.0111
  39   2.0000      -4.740743      -129.0022
  40   2.0000      -4.740163      -128.9864
  41   2.0000      -4.739469      -128.9675
  42   2.0000      -4.738736      -128.9476
  43   2.0000      -1.052778       -28.6476
  44   2.0000      -1.051989       -28.6261
  45   2.0000      -1.009744       -27.4765
  46   2.0000      -1.008829       -27.4516
  47   2.0000      -0.799404       -21.7529
  48   2.0000      -0.755120       -20.5479
  49   2.0000      -0.746674       -20.3180
  50   2.0000      -0.725503       -19.7419
  51   2.0000      -0.724787       -19.7225
  52   2.0000      -0.709862       -19.3163
  53   2.0000      -0.687930       -18.7195
  54   2.0000      -0.669837       -18.2272
  55   2.0000      -0.623659       -16.9706
  56   2.0000      -0.608773       -16.5656
  57   2.0000      -0.598656       -16.2903
  58   2.0000      -0.596462       -16.2306
  59   2.0000      -0.591492       -16.0953
  60   2.0000      -0.533193       -14.5089
  61   2.0000      -0.523443       -14.2436
  62   2.0000      -0.497119       -13.5273
  63   2.0000      -0.488920       -13.3042
  64   2.0000      -0.469262       -12.7693
  65   2.0000      -0.466843       -12.7034
  66   2.0000      -0.451016       -12.2728
  67   2.0000      -0.448829       -12.2133
  68   2.0000      -0.444828       -12.1044
  69   2.0000      -0.434774       -11.8308
  70   2.0000      -0.424545       -11.5525
  71   2.0000      -0.412134       -11.2147
  72   2.0000      -0.402333       -10.9480
  73   2.0000      -0.391391       -10.6503
  74   2.0000      -0.386291       -10.5115
  75   2.0000      -0.380243       -10.3469
  76   2.0000      -0.377672       -10.2770
  77   2.0000      -0.370452       -10.0805
  78   2.0000      -0.360972        -9.8225
  79   2.0000      -0.357371        -9.7246
  80   2.0000      -0.356638        -9.7046
  81   2.0000      -0.352857        -9.6017
  82   2.0000      -0.347911        -9.4671
  83   2.0000      -0.344750        -9.3811
  84   2.0000      -0.342889        -9.3305
  85   2.0000      -0.326490        -8.8843
  86   2.0000      -0.320042        -8.7088
  87   2.0000      -0.315268        -8.5789
  88   2.0000      -0.313769        -8.5381
  89   2.0000      -0.310979        -8.4622
  90   2.0000      -0.304421        -8.2837
  91   2.0000      -0.282810        -7.6956
  92   2.0000      -0.281891        -7.6706
  93   2.0000      -0.277650        -7.5552
  94   2.0000      -0.272415        -7.4128
  95   2.0000      -0.249499        -6.7892
  96   2.0000      -0.243863        -6.6359
  97   2.0000      -0.236056        -6.4234
  98   2.0000      -0.224758        -6.1160
  99   2.0000      -0.214255        -5.8302
 100   2.0000      -0.209327        -5.6961
 101   0.0000      -0.044727        -1.2171
 102   0.0000      -0.039027        -1.0620
 103   0.0000      -0.012041        -0.3277
 104   0.0000       0.007437         0.2024
 105   0.0000       0.014597         0.3972

MULLIKEN ATOMIC CHARGES
-----------------------
   0 C :   -0.482067
   1 C :   -0.143920
   2 O :   -0.301937
   3 P :    0.696242
   4 S :   -0.502358
   5 O :   -0.300821
   6 C :   -0.096527
   7 C :   -0.520126
   8 S :   -0.198665
   9 C :   -0.228884
  10 S :   -0.147233
  11 P :    0.631257
  12 S :   -0.455387
  13 O :   -0.275672
  14 C :   -0.090415
  15 C :   -0.511116
  16 O :   -0.310809
  17 C :   -0.157432
  18 C :   -0.489653
  19 H :    0.165539
  20 H :    0.165139
  21 H :    0.168886
  22 H :    0.169067
  23 H :    0.171422
  24 H :    0.173963
  25 H :    0.176814
  26 H :    0.171861
  27 H :    0.167582
  28 H :    0.175297
  29 H :    0.233942
  30 H :    0.215716
  31 H :    0.177540
  32 H :    0.167134
  33 H :    0.173216
  34 H :    0.170461
  35 H :    0.171601
  36 H :    0.174698
  37 H :    0.178318
  38 H :    0.168787
  39 H :    0.172943
  40 H :    0.175596
Sum of atomic charges:    0.0000000

LOEWDIN ATOMIC CHARGES
----------------------
   0 C :   -0.390085
   1 C :    0.020015
   2 O :   -0.688861
   3 P :    0.371685
   4 S :   -0.150794
   5 O :   -0.673333
   6 C :    0.030844
   7 C :   -0.394965
   8 S :    0.141885
   9 C :   -0.414174
  10 S :    0.134736
  11 P :    0.378421
  12 S :   -0.102462
  13 O :   -0.682163
  14 C :    0.028090
  15 C :   -0.396741
  16 O :   -0.676253
  17 C :    0.026770
  18 C :   -0.411740
  19 H :    0.162653
  20 H :    0.162689
  21 H :    0.168621
  22 H :    0.179059
  23 H :    0.180877
  24 H :    0.182918
  25 H :    0.184109
  26 H :    0.170490
  27 H :    0.164357
  28 H :    0.168614
  29 H :    0.195945
  30 H :    0.198816
  31 H :    0.184747
  32 H :    0.181589
  33 H :    0.165023
  34 H :    0.168537
  35 H :    0.163907
  36 H :    0.190999
  37 H :    0.181218
  38 H :    0.163561
  39 H :    0.168376
  40 H :    0.162019

  Mayer bond orders larger than 0.100000
B(  0-C ,  1-C ) :   0.9514 B(  0-C , 19-H ) :   0.9700 B(  0-C , 20-H ) :   0.9684
B(  0-C , 21-H ) :   0.9586 B(  1-C ,  2-O ) :   0.7830 B(  1-C , 22-H ) :   0.9331
B(  1-C , 23-H ) :   0.9480 B(  2-O ,  3-P ) :   1.0588 B(  3-P ,  4-S ) :   1.7904
B(  3-P ,  5-O ) :   1.1988 B(  3-P ,  8-S ) :   1.0052 B(  5-O ,  6-C ) :   0.7157
B(  6-C ,  7-C ) :   0.9258 B(  6-C , 24-H ) :   0.9443 B(  6-C , 25-H ) :   0.9331
B(  7-C , 26-H ) :   0.9587 B(  7-C , 27-H ) :   0.9682 B(  7-C , 28-H ) :   0.9666
B(  8-S ,  9-C ) :   0.8880 B(  9-C , 10-S ) :   0.9105 B(  9-C , 29-H ) :   0.9001
B(  9-C , 30-H ) :   0.9100 B( 10-S , 11-P ) :   1.0283 B( 11-P , 12-S ) :   1.8371
B( 11-P , 13-O ) :   1.1174 B( 11-P , 16-O ) :   1.0534 B( 13-O , 14-C ) :   0.7354
B( 14-C , 15-C ) :   0.9420 B( 14-C , 31-H ) :   0.9389 B( 14-C , 32-H ) :   0.9477
B( 15-C , 33-H ) :   0.9675 B( 15-C , 34-H ) :   0.9574 B( 15-C , 35-H ) :   0.9657
B( 16-O , 17-C ) :   0.8133 B( 17-C , 18-C ) :   0.9040 B( 17-C , 36-H ) :   0.9507
B( 17-C , 37-H ) :   0.9677 B( 18-C , 38-H ) :   0.9646 B( 18-C , 39-H ) :   0.9517
B( 18-C , 40-H ) :   0.9649

Dispersion correction           -0.022151442
FINAL SINGLE POINT ENERGY     -2932.469702881433

DIPOLE MOMENT
-------------

Method             : SCF
Type of density    : Electron Density
Multiplicity       :   1
Irrep              :   0
Energy             : -2932.4941352849218674 Eh
Relativity type    :
Basis              : AO
                                X                 Y                 Z
Electronic contribution:     -3.327711325      -0.600363874     -13.200808396
Nuclear contribution   :      3.052279761      -1.308698259      15.781919493
                        -----------------------------------------
Total Dipole Moment    :     -0.275431563      -1.909062133       2.581111097
                        -----------------------------------------
Magnitude (a.u.)       :      3.222191067
Magnitude (Debye)      :      8.190158809

Rotational constants in cm-1:             0.012501             0.005358             0.004956
Rotational constants in MHz :           374.765043           160.618262           148.566300

                             ****ORCA TERMINATED NORMALLY****
TOTAL RUN TIME: 0 days 0 hours 1 minutes 58 seconds 974 msec
