                         Program Version 6.0.0  -   RELEASE  -
|  1> ! pbe def2-sv(p) def2/J RI DEFGRID1 loosescf d4 GCP(DFT/SV(P)) printgap
|  2> %output
|  3>     printlevel normal
|  4> end
|  5> * xyz 0 1
|  6> C 1.508338189 -3.0886860881 0.7192348971
|  7> C 1.6606636106 -1.8883706147 1.6309314132
|  8> O 2.7457034637 -1.0279367961 1.2429449067
|  9> P 2.7984675339 -0.1572306895 -0.0912493329
| 10> S 3.1174714612 -1.0807305139 -1.7849389034
| 11> O 3.9803945193 0.8237084503 0.2358810337
| 12> C 4.0147529781 1.6406868076 1.4364712366
| 13> C 5.004233751 2.7622676549 1.2015931733
| 14> S 1.0309989918 1.0638969149 -0.0092531969
| 15> C 0.1259185644 0.3208003112 -1.3876672482
| 16> S -1.0760228951 -0.915558939 -0.8523201889
| 17> P -2.569341324 0.489209914 -0.2537936464
| 18> S -2.8481848529 1.962870008 -1.5096132582
| 19> O -2.1279701394 1.0043799414 1.1656179721
| 20> C -1.9341760781 0.1320409812 2.3085330859
| 21> C -3.1539282994 0.1524593352 3.2060138921
| 22> O -3.8422682237 -0.4007731691 0.0714302786
| 23> C -4.6824253105 -0.9576557277 -0.9588871467
| 24> C -4.2822306014 -2.3846626611 -1.2784783738
| 25> H 2.4556308862 -3.61346207 0.6266037417
| 26> H 0.7630674685 -3.7603284233 1.1324838702
| 27> H 1.1866375835 -2.7775175269 -0.2733286986
| 28> H 1.9249380423 -2.1903840666 2.6458247746
| 29> H 0.739973327 -1.2973644993 1.6490751348
| 30> H 3.0086121598 2.0271631272 1.6233106133
| 31> H 4.3195421366 1.0000369879 2.2657592825
| 32> H 5.983062247 2.3514050218 0.971666082
| 33> H 4.6806087743 3.3793958217 0.3680585199
| 34> H 5.0703893611 3.3731350239 2.0961056131
| 35> H 0.8378139841 -0.1755393378 -2.0518860142
| 36> H -0.4059547324 1.1223590879 -1.9024358463
| 37> H -1.7263843472 -0.8803070444 1.9506259586
| 38> H -1.0577574717 0.5403014599 2.8159583251
| 39> H -4.0153739979 -0.2480607105 2.6785762689
| 40> H -2.9576199197 -0.4522248658 4.0858412564
| 41> H -3.373521017 1.1715766227 3.5118723089
| 42> H -5.6909408505 -0.9141349353 -0.5434320087
| 43> H -4.6288753924 -0.3164903864 -1.8445436449
| 44> H -3.2774099468 -2.4189862798 -1.6933877039
| 45> H -4.3093839161 -2.989931954 -0.3770283751
| 46> H -4.9786837277 -2.792438227 -2.004087749
| 47> *
| 48>
| 49>                          ****END OF INPUT****

CARTESIAN COORDINATES (ANGSTROEM)
---------------------------------
  C      1.508338   -3.088686    0.719235
  C      1.660664   -1.888371    1.630931
  O      2.745703   -1.027937    1.242945
  P      2.798468   -0.157231   -0.091249
  S      3.117471   -1.080731   -1.784939
  O      3.980395    0.823708    0.235881
  C      4.014753    1.640687    1.436471
  C      5.004234    2.762268    1.201593
  S      1.030999    1.063897   -0.009253
  C      0.125919    0.320800   -1.387667
  S     -1.076023   -0.915559   -0.852320
  P     -2.569341    0.489210   -0.253794
  S     -2.848185    1.962870   -1.509613
  O     -2.127970    1.004380    1.165618
  C     -1.934176    0.132041    2.308533
  C     -3.153928    0.152459    3.206014
  O     -3.842268   -0.400773    0.071430
  C     -4.682425   -0.957656   -0.958887
  C     -4.282231   -2.384663   -1.278478
  H      2.455631   -3.613462    0.626604
  H      0.763067   -3.760328    1.132484
  H      1.186638   -2.777518   -0.273329
  H      1.924938   -2.190384    2.645825
  H      0.739973   -1.297364    1.649075
  H      3.008612    2.027163    1.623311
  H      4.319542    1.000037    2.265759
  H      5.983062    2.351405    0.971666
  H      4.680609    3.379396    0.368059
  H      5.070389    3.373135    2.096106
  H      0.837814   -0.175539   -2.051886
  H     -0.405955    1.122359   -1.902436
  H     -1.726384   -0.880307    1.950626
  H     -1.057757    0.540301    2.815958
  H     -4.015374   -0.248061    2.678576
  H     -2.957620   -0.452225    4.085841
  H     -3.373521    1.171577    3.511872
  H     -5.690941   -0.914135   -0.543432
  H     -4.628875   -0.316490   -1.844544
  H     -3.277410   -2.418986   -1.693388
  H     -4.309384   -2.989932   -0.377028
  H     -4.978684   -2.792438   -2.004088

 Total Charge           Charge          ....    0
 Multiplicity           Mult            ....    1
 Number of Electrons    NEL             ....  202
 Basis Dimension        Dim             ....  334

ORBITAL ENERGIES
----------------

  NO   OCC          E(Eh)            E(eV)
   0   2.0000     -88.046887     -2395.8776
   1   2.0000     -88.043535     -2395.7864
   2   2.0000     -87.988138     -2394.2790
   3   2.0000     -87.987917     -2394.2729
   4   2.0000     -76.430536     -2079.7806
   5   2.0000     -76.427640     -2079.7018
   6   2.0000     -18.802707      -511.6477
   7   2.0000     -18.797853      -511.5156
   8   2.0000     -18.794803      -511.4326
   9   2.0000     -18.793560      -511.3988
  10   2.0000      -9.962511      -271.0937
  11   2.0000      -9.961556      -271.0677
  12   2.0000      -9.960360      -271.0352
  13   2.0000      -9.957577      -270.9595
  14   2.0000      -9.949937      -270.7516
  15   2.0000      -9.892192      -269.1802
  16   2.0000      -9.891976      -269.1743
  17   2.0000      -9.891697      -269.1668
  18   2.0000      -9.883068      -268.9320
  19   2.0000      -7.691480      -209.2958
  20   2.0000      -7.688131      -209.2047
  21   2.0000      -7.633358      -207.7142
  22   2.0000      -7.633225      -207.7106
  23   2.0000      -6.428401      -174.9257
  24   2.0000      -6.425197      -174.8385
  25   2.0000      -5.719024      -155.6226
  26   2.0000      -5.716063      -155.5420
  27   2.0000      -5.715872      -155.5368
  28   2.0000      -5.712658      -155.4493
  29   2.0000      -5.708793      -155.3442
  30   2.0000      -5.705341      -155.2502
  31   2.0000      -5.662416      -154.0822
  32   2.0000      -5.662266      -154.0781
  33   2.0000      -5.654047      -153.8544
  34   2.0000      -5.653734      -153.8459
  35   2.0000      -5.653327      -153.8349
  36   2.0000      -5.653256      -153.8329
  37   2.0000      -4.651374      -126.5703
  38   2.0000      -4.650134      -126.5366
  39   2.0000      -4.648448      -126.4907
  40   2.0000      -4.647909      -126.4760
  41   2.0000      -4.647077      -126.4534
  42   2.0000      -4.645422      -126.4084
  43   2.0000      -0.996268       -27.1098
  44   2.0000      -0.990966       -26.9655
  45   2.0000      -0.953252       -25.9393
  46   2.0000      -0.946419       -25.7534
  47   2.0000      -0.764361       -20.7993
  48   2.0000      -0.726767       -19.7763
  49   2.0000      -0.717783       -19.5319
  50   2.0000      -0.698075       -18.9956
  51   2.0000      -0.692103       -18.8331
  52   2.0000      -0.679597       -18.4928
  53   2.0000      -0.652241       -17.7484
  54   2.0000      -0.640288       -17.4231
  55   2.0000      -0.599583       -16.3155
  56   2.0000      -0.589057       -16.0290
  57   2.0000      -0.580801       -15.8044
  58   2.0000      -0.576362       -15.6836
  59   2.0000      -0.565364       -15.3843
  60   2.0000      -0.513327       -13.9683
  61   2.0000      -0.506044       -13.7701
  62   2.0000      -0.487838       -13.2747
  63   2.0000      -0.479895       -13.0586
  64   2.0000      -0.463516       -12.6129
  65   2.0000      -0.453776       -12.3479
  66   2.0000      -0.444184       -12.0868
  67   2.0000      -0.438191       -11.9238
  68   2.0000      -0.435059       -11.8386
  69   2.0000      -0.420297       -11.4369
  70   2.0000      -0.412558       -11.2263
  71   2.0000      -0.402665       -10.9571
  72   2.0000      -0.398212       -10.8359
  73   2.0000      -0.391203       -10.6452
  74   2.0000      -0.387614       -10.5475
  75   2.0000      -0.372031       -10.1235
  76   2.0000      -0.368126       -10.0172
  77   2.0000      -0.360990        -9.8230
  78   2.0000      -0.359299        -9.7770
  79   2.0000      -0.356863        -9.7107
  80   2.0000      -0.352687        -9.5971
  81   2.0000      -0.349650        -9.5145
  82   2.0000      -0.343058        -9.3351
  83   2.0000      -0.340797        -9.2736
  84   2.0000      -0.338578        -9.2132
  85   2.0000      -0.327284        -8.9059
  86   2.0000      -0.321068        -8.7367
  87   2.0000      -0.301940        -8.2162
  88   2.0000      -0.300403        -8.1744
  89   2.0000      -0.298040        -8.1101
  90   2.0000      -0.297906        -8.1064
  91   2.0000      -0.280873        -7.6429
  92   2.0000      -0.278071        -7.5667
  93   2.0000      -0.269092        -7.3224
  94   2.0000      -0.259502        -7.0614
  95   2.0000      -0.240879        -6.5546
  96   2.0000      -0.222476        -6.0539
  97   2.0000      -0.212695        -5.7877
  98   2.0000      -0.205762        -5.5991
  99   2.0000      -0.202884        -5.5208
 100   2.0000      -0.198958        -5.4139
 101   0.0000      -0.046257        -1.2587
 102   0.0000      -0.031921        -0.8686
 103   0.0000      -0.013108        -0.3567
 104   0.0000      -0.001227        -0.0334
 105   0.0000       0.012189         0.3317

MULLIKEN ATOMIC CHARGES
-----------------------
   0 C :   -0.300259
   1 C :   -0.034575
   2 O :   -0.380105
   3 P :    0.601719
   4 S :   -0.295662
   5 O :   -0.357431
   6 C :   -0.021322
   7 C :   -0.278183
   8 S :   -0.118358
   9 C :   -0.357971
  10 S :   -0.111417
  11 P :    0.598703
  12 S :   -0.301845
  13 O :   -0.348770
  14 C :   -0.037465
  15 C :   -0.274507
  16 O :   -0.380823
  17 C :   -0.007338
  18 C :   -0.308187
  19 H :    0.121793
  20 H :    0.105196
  21 H :    0.126474
  22 H :    0.102941
  23 H :    0.121046
  24 H :    0.110153
  25 H :    0.110836
  26 H :    0.125054
  27 H :    0.124900
  28 H :    0.111769
  29 H :    0.195050
  30 H :    0.197062
  31 H :    0.113344
  32 H :    0.115901
  33 H :    0.120603
  34 H :    0.108841
  35 H :    0.121593
  36 H :    0.110498
  37 H :    0.110011
  38 H :    0.131398
  39 H :    0.113014
  40 H :    0.116318
Sum of atomic charges:   -0.0000000

LOEWDIN ATOMIC CHARGES
----------------------
   0 C :   -0.366834
   1 C :   -0.121858
   2 O :   -0.248425
   3 P :    0.567267
   4 S :   -0.289890
   5 O :   -0.235669
   6 C :   -0.113217
   7 C :   -0.349319
   8 S :    0.062597
   9 C :   -0.492659
  10 S :    0.076243
  11 P :    0.567766
  12 S :   -0.303754
  13 O :   -0.232293
  14 C :   -0.117628
  15 C :   -0.357614
  16 O :   -0.245095
  17 C :   -0.116444
  18 C :   -0.365296
  19 H :    0.129408
  20 H :    0.127939
  21 H :    0.114943
  22 H :    0.118248
  23 H :    0.101060
  24 H :    0.105616
  25 H :    0.116465
  26 H :    0.131735
  27 H :    0.131735
  28 H :    0.130894
  29 H :    0.125801
  30 H :    0.128514
  31 H :    0.102848
  32 H :    0.119784
  33 H :    0.126606
  34 H :    0.129371
  35 H :    0.130195
  36 H :    0.120985
  37 H :    0.111545
  38 H :    0.120230
  39 H :    0.124805
  40 H :    0.133396

  Mayer bond orders larger than 0.100000
B(  0-C ,  1-C ) :   1.1655 B(  0-C , 19-H ) :   0.9438 B(  0-C , 20-H ) :   0.9369
B(  0-C , 21-H ) :   0.9289 B(  1-C ,  2-O ) :   0.9195 B(  1-C , 22-H ) :   0.9337
B(  1-C , 23-H ) :   0.9042 B(  2-O ,  3-P ) :   1.0736 B(  3-P ,  4-S ) :   1.6526
B(  3-P ,  5-O ) :   1.1474 B(  3-P ,  8-S ) :   0.9383 B(  4-S ,  8-S ) :   0.1157
B(  4-S , 29-H ) :   0.1192 B(  5-O ,  6-C ) :   0.8896 B(  6-C ,  7-C ) :   1.1641
B(  6-C , 24-H ) :   0.9169 B(  6-C , 25-H ) :   0.9296 B(  7-C , 26-H ) :   0.9493
B(  7-C , 27-H ) :   0.9495 B(  7-C , 28-H ) :   0.9405 B(  8-S ,  9-C ) :   1.0081
B(  9-C , 10-S ) :   1.0012 B(  9-C , 29-H ) :   0.8492 B(  9-C , 30-H ) :   0.8610
B( 10-S , 11-P ) :   0.9462 B( 10-S , 12-S ) :   0.1083 B( 11-P , 12-S ) :   1.6568
B( 11-P , 13-O ) :   1.1435 B( 11-P , 16-O ) :   1.0861 B( 13-O , 14-C ) :   0.8929
B( 14-C , 15-C ) :   1.1562 B( 14-C , 31-H ) :   0.9029 B( 14-C , 32-H ) :   0.9319
B( 15-C , 33-H ) :   0.9415 B( 15-C , 34-H ) :   0.9401 B( 15-C , 35-H ) :   0.9457
B( 16-O , 17-C ) :   0.8986 B( 17-C , 18-C ) :   1.1668 B( 17-C , 36-H ) :   0.9346
B( 17-C , 37-H ) :   0.9068 B( 18-C , 38-H ) :   0.9325 B( 18-C , 39-H ) :   0.9483
B( 18-C , 40-H ) :   0.9393

Dispersion correction           -0.062704806
FINAL SINGLE POINT ENERGY     -2929.518734149030

DIPOLE MOMENT
-------------

Method             : SCF
Type of density    : Electron Density
Multiplicity       :   1
Irrep              :   0
Energy             : -2929.6406530304038824 Eh
Relativity type    :
Basis              : AO
                                X                 Y                 Z
Electronic contribution:      4.681002318       8.783959547     -15.106736654
Nuclear contribution   :     -5.314587808      -9.572599837      17.104145593
                        -----------------------------------------
Total Dipole Moment    :     -0.633585490      -0.788640291       1.997408939
                        -----------------------------------------
Magnitude (a.u.)       :      2.238978908
Magnitude (Debye)      :      5.691032110

Rotational constants in cm-1:             0.012157             0.004327             0.004182
Rotational constants in MHz :           364.446981           129.734914           125.383941

                             ****ORCA TERMINATED NORMALLY****
TOTAL RUN TIME: 0 days 0 hours 0 minutes 20 seconds 725 msec
