                         Program Version 6.0.0  -   RELEASE  -
|  1> ! r2scan-3c def2/J RI DEFGRID2 scfconv6 printgap
|  2> %output
|  3>     printlevel normal
|  4> end
|  5> * xyz 0 1
|  6> C 0.7211900362 0.5770539622 -0.2374619345
|  7> C -0.7205737355 0.5767428642 0.2377763556
|  8> Cl -1.8017104095 0.6465777841 -1.1727055649
|  9> Cl -1.0790227873 -0.8833743889 1.1910917242
| 10> Cl 1.8021910415 0.6464496963 1.1732296449
| 11> Cl 1.0783232392 -0.8827695444 -1.191737901
| 12> H 0.928194087 1.4464549735 -0.8656070461
| 13> H -0.9278379204 1.4459959042 0.8661549563
| 14> *
| 15>
| 16>                          ****END OF INPUT****

CARTESIAN COORDINATES (ANGSTROEM)
---------------------------------
  C      0.721190    0.577054   -0.237462
  C     -0.720574    0.576743    0.237776
  Cl    -1.801710    0.646578   -1.172706
  Cl    -1.079023   -0.883374    1.191092
  Cl     1.802191    0.646450    1.173230
  Cl     1.078323   -0.882770   -1.191738
  H      0.928194    1.446455   -0.865607
  H     -0.927838    1.445996    0.866155

 Total Charge           Charge          ....    0
 Multiplicity           Mult            ....    1
 Number of Electrons    NEL             ....   82
 Basis Dimension        Dim             ....  156

ORBITAL ENERGIES
----------------

  NO   OCC          E(Eh)            E(eV)
   0   2.0000    -101.240758     -2754.9011
   1   2.0000    -101.240707     -2754.8997
   2   2.0000    -101.234796     -2754.7389
   3   2.0000    -101.234794     -2754.7388
   4   2.0000     -10.191619      -277.3281
   5   2.0000     -10.191482      -277.3243
   6   2.0000      -9.396663      -255.6962
   7   2.0000      -9.396617      -255.6949
   8   2.0000      -9.390629      -255.5320
   9   2.0000      -9.390627      -255.5320
  10   2.0000      -7.143479      -194.3839
  11   2.0000      -7.143432      -194.3827
  12   2.0000      -7.137600      -194.2240
  13   2.0000      -7.137600      -194.2240
  14   2.0000      -7.132582      -194.0874
  15   2.0000      -7.132535      -194.0861
  16   2.0000      -7.132226      -194.0777
  17   2.0000      -7.132180      -194.0765
  18   2.0000      -7.126399      -193.9192
  19   2.0000      -7.126397      -193.9191
  20   2.0000      -7.126188      -193.9134
  21   2.0000      -7.126188      -193.9134
  22   2.0000      -0.923213       -25.1219
  23   2.0000      -0.859468       -23.3873
  24   2.0000      -0.807344       -21.9689
  25   2.0000      -0.799309       -21.7503
  26   2.0000      -0.696077       -18.9412
  27   2.0000      -0.593494       -16.1498
  28   2.0000      -0.507933       -13.8216
  29   2.0000      -0.480729       -13.0813
  30   2.0000      -0.464422       -12.6376
  31   2.0000      -0.422152       -11.4873
  32   2.0000      -0.417722       -11.3668
  33   2.0000      -0.331888        -9.0311
  34   2.0000      -0.321982        -8.7616
  35   2.0000      -0.314662        -8.5624
  36   2.0000      -0.310180        -8.4404
  37   2.0000      -0.298448        -8.1212
  38   2.0000      -0.292126        -7.9491
  39   2.0000      -0.288919        -7.8619
  40   2.0000      -0.285800        -7.7770
  41   0.0000      -0.058862        -1.6017
  42   0.0000      -0.049747        -1.3537
  43   0.0000      -0.009340        -0.2542
  44   0.0000       0.004612         0.1255
  45   0.0000       0.078450         2.1347

MULLIKEN ATOMIC CHARGES
-----------------------
   0 C :   -0.005888
   1 C :   -0.005896
   2 Cl:   -0.104662
   3 Cl:   -0.099516
   4 Cl:   -0.104600
   5 Cl:   -0.099538
   6 H :    0.210056
   7 H :    0.210044
Sum of atomic charges:   -0.0000000

LOEWDIN ATOMIC CHARGES
----------------------
   0 C :   -0.366440
   1 C :   -0.366538
   2 Cl:    0.093740
   3 Cl:    0.093496
   4 Cl:    0.093806
   5 Cl:    0.093499
   6 H :    0.179228
   7 H :    0.179209

  Mayer bond orders larger than 0.100000
B(  0-C ,  1-C ) :   0.9284 B(  0-C ,  4-Cl) :   1.0019 B(  0-C ,  5-Cl) :   1.0305
B(  0-C ,  6-H ) :   0.9151 B(  1-C ,  2-Cl) :   1.0019 B(  1-C ,  3-Cl) :   1.0305
B(  1-C ,  7-H ) :   0.9151

Dispersion correction           -0.003326250
FINAL SINGLE POINT ENERGY     -1918.093154440840

DIPOLE MOMENT
-------------

Method             : SCF
Type of density    : Electron Density
Multiplicity       :   1
Irrep              :   0
Energy             : -1918.1006286986480518 Eh
Relativity type    :
Basis              : AO
                                X                 Y                 Z
Electronic contribution:     -0.000277403      -2.614318000      -0.000455940
Nuclear contribution   :      0.000627981       3.348658917       0.000677918
                        -----------------------------------------
Total Dipole Moment    :      0.000350579       0.734340917       0.000221978
                        -----------------------------------------
Magnitude (a.u.)       :      0.734341034
Magnitude (Debye)      :      1.866546572

Rotational constants in cm-1:             0.060451             0.038015             0.031926
Rotational constants in MHz :          1812.262059          1139.663983           957.107265

                             ****ORCA TERMINATED NORMALLY****
TOTAL RUN TIME: 0 days 0 hours 0 minutes 41 seconds 392 msec
