                         Program Version 6.0.0  -   RELEASE  -
|  1> ! r2scan-3c def2/J RI DEFGRID2 scfconv6 printgap
|  2> %output
|  3>     printlevel normal
|  4> end
|  5> %cpcm
|  6>     smd true
|  7>     smdsolvent "water"
|  8> end
|  9> * xyz 0 1
| 10> C 0.7211900362 0.5770539622 -0.2374619345
| 11> C -0.7205737355 0.5767428642 0.2377763556
| 12> Cl -1.8017104095 0.6465777841 -1.1727055649
| 13> Cl -1.0790227873 -0.8833743889 1.1910917242
| 14> Cl 1.8021910415 0.6464496963 1.1732296449
| 15> Cl 1.0783232392 -0.8827695444 -1.191737901
| 16> H 0.928194087 1.4464549735 -0.8656070461
| 17> H -0.9278379204 1.4459959042 0.8661549563
| 18> *
| 19>
| 20>                          ****END OF INPUT****

CARTESIAN COORDINATES (ANGSTROEM)
---------------------------------
  C      0.721190    0.577054   -0.237462
  C     -0.720574    0.576743    0.237776
  Cl    -1.801710    0.646578   -1.172706
  Cl    -1.079023   -0.883374    1.191092
  Cl     1.802191    0.646450    1.173230
  Cl     1.078323   -0.882770   -1.191738
  H      0.928194    1.446455   -0.865607
  H     -0.927838    1.445996    0.866155

 Total Charge           Charge          ....    0
 Multiplicity           Mult            ....    1
 Number of Electrons    NEL             ....   82
 Basis Dimension        Dim             ....  156

ORBITAL ENERGIES
----------------

  NO   OCC          E(Eh)            E(eV)
   0   2.0000    -101.235026     -2754.7451
   1   2.0000    -101.234981     -2754.7439
   2   2.0000    -101.231488     -2754.6488
   3   2.0000    -101.231483     -2754.6487
   4   2.0000     -10.180213      -277.0177
   5   2.0000     -10.180076      -277.0140
   6   2.0000      -9.391029      -255.5429
   7   2.0000      -9.390989      -255.5418
   8   2.0000      -9.387567      -255.4487
   9   2.0000      -9.387564      -255.4486
  10   2.0000      -7.137732      -194.2276
  11   2.0000      -7.137692      -194.2265
  12   2.0000      -7.134284      -194.1337
  13   2.0000      -7.134280      -194.1336
  14   2.0000      -7.126987      -193.9352
  15   2.0000      -7.126946      -193.9341
  16   2.0000      -7.126651      -193.9260
  17   2.0000      -7.126611      -193.9250
  18   2.0000      -7.123469      -193.8395
  19   2.0000      -7.123467      -193.8394
  20   2.0000      -7.123204      -193.8322
  21   2.0000      -7.123200      -193.8321
  22   2.0000      -0.915741       -24.9186
  23   2.0000      -0.853598       -23.2276
  24   2.0000      -0.803006       -21.8509
  25   2.0000      -0.794890       -21.6301
  26   2.0000      -0.687122       -18.6975
  27   2.0000      -0.582324       -15.8459
  28   2.0000      -0.495118       -13.4729
  29   2.0000      -0.472755       -12.8643
  30   2.0000      -0.457622       -12.4525
  31   2.0000      -0.414174       -11.2703
  32   2.0000      -0.411203       -11.1894
  33   2.0000      -0.327915        -8.9230
  34   2.0000      -0.318549        -8.6682
  35   2.0000      -0.309384        -8.4188
  36   2.0000      -0.306545        -8.3415
  37   2.0000      -0.293429        -7.9846
  38   2.0000      -0.289055        -7.8656
  39   2.0000      -0.286125        -7.7858
  40   2.0000      -0.282217        -7.6795
  41   0.0000      -0.052325        -1.4238
  42   0.0000      -0.043142        -1.1740
  43   0.0000      -0.002027        -0.0552
  44   0.0000       0.014108         0.3839
  45   0.0000       0.099645         2.7115

MULLIKEN ATOMIC CHARGES
-----------------------
   0 C :   -0.005071
   1 C :   -0.005046
   2 Cl:   -0.128370
   3 Cl:   -0.132226
   4 Cl:   -0.128291
   5 Cl:   -0.132249
   6 H :    0.265639
   7 H :    0.265614
Sum of atomic charges:   -0.0000000

LOEWDIN ATOMIC CHARGES
----------------------
   0 C :   -0.356597
   1 C :   -0.356704
   2 Cl:    0.083222
   3 Cl:    0.072648
   4 Cl:    0.083299
   5 Cl:    0.072650
   6 H :    0.200753
   7 H :    0.200730

  Mayer bond orders larger than 0.100000
B(  0-C ,  1-C ) :   0.9280 B(  0-C ,  4-Cl) :   0.9859 B(  0-C ,  5-Cl) :   1.0011
B(  0-C ,  6-H ) :   0.8975 B(  1-C ,  2-Cl) :   0.9858 B(  1-C ,  3-Cl) :   1.0011
B(  1-C ,  7-H ) :   0.8975

Dispersion correction           -0.003326250
FINAL SINGLE POINT ENERGY     -1918.099189005483

DIPOLE MOMENT
-------------

Method             : SCF
Type of density    : Electron Density
Multiplicity       :   1
Irrep              :   0
Energy             : -1918.1066632632905566 Eh
Relativity type    :
Basis              : AO
                                X                 Y                 Z
Electronic contribution:     -0.000146921      -2.193524789      -0.000351304
Nuclear contribution   :      0.000627981       3.348658917       0.000677918
                        -----------------------------------------
Total Dipole Moment    :      0.000481061       1.155134128       0.000326614
                        -----------------------------------------
Magnitude (a.u.)       :      1.155134274
Magnitude (Debye)      :      2.936117987

Rotational constants in cm-1:             0.060451             0.038015             0.031926
Rotational constants in MHz :          1812.262059          1139.663983           957.107265

                             ****ORCA TERMINATED NORMALLY****
TOTAL RUN TIME: 0 days 0 hours 0 minutes 59 seconds 439 msec
