                         Program Version 6.0.0  -   RELEASE  -
|  1> ! pbe def2-sv(p) def2/J RI DEFGRID1 loosescf d4 GCP(DFT/SV(P)) printgap
|  2> %output
|  3>     printlevel normal
|  4> end
|  5> * xyz 0 1
|  6> C 5.2877062599 -0.5711701765 -2.4056918196
|  7> C 3.8769982706 -0.9557007751 -2.0089474095
|  8> O 3.5263277965 -0.2012124165 -0.8299500975
|  9> P 2.0132580183 -0.0304249209 -0.3803398302
| 10> S 0.8341133658 0.6637566501 -1.7783321072
| 11> O 2.1006639684 0.9325467094 0.8562528739
| 12> C 2.9363094736 0.7035104001 2.019481971
| 13> C 4.2618234012 1.4211911593 1.8762011048
| 14> S 1.5993619546 -1.9759341954 0.3796070281
| 15> C -0.0337355394 -1.7111710752 1.1186366448
| 16> S -1.3888059287 -1.5617066408 -0.0842646568
| 17> P -2.0312372441 0.435809203 0.3129545756
| 18> S -1.005980558 1.4088251619 1.6634592462
| 19> O -3.5640239892 0.226078507 0.7013858295
| 20> C -3.9416401912 -0.3922602068 1.9467900482
| 21> C -5.4201226004 -0.1402218462 2.1634145836
| 22> O -2.154357417 1.1998813212 -1.0486969778
| 23> C -2.7204007266 0.6383907772 -2.2592764027
| 24> C -4.1881022203 0.9876062589 -2.3829878833
| 25> H 5.3370959335 0.4918742894 -2.6248512835
| 26> H 5.9769205561 -0.7982442529 -1.597552327
| 27> H 5.5729692204 -1.1323302257 -3.2893337681
| 28> H 3.8045720155 -2.0185676844 -1.764153254
| 29> H 3.1572522465 -0.718665332 -2.7993971958
| 30> H 2.3488012149 1.1028013544 2.8490870196
| 31> H 3.0812983393 -0.3730465555 2.1460391381
| 32> H 4.0940558746 2.4812998144 1.7064620627
| 33> H 4.8347291614 1.2900289676 2.7887948456
| 34> H 4.8206219778 1.015349904 1.0371712491
| 35> H -0.0190169761 -0.805520796 1.7327951313
| 36> H -0.2231942583 -2.5981610371 1.7174343885
| 37> H -3.724730526 -1.4620960733 1.8756599275
| 38> H -3.3381566257 0.046174722 2.7487084762
| 39> H -5.7244189679 -0.5946280693 3.1004269235
| 40> H -5.6134166303 0.9280939316 2.2028248977
| 41> H -5.9956825026 -0.572830694 1.3502380382
| 42> H -2.1236704086 1.0816923714 -3.0591275353
| 43> H -2.5650249338 -0.4442410327 -2.2531580856
| 44> H -4.3173022236 2.0658814838 -2.3494983307
| 45> H -4.5605855702 0.60972387 -3.3298789192
| 46> H -4.7516624874 0.5405724568 -1.5685210744
| 47> *
| 48>
| 49>                          ****END OF INPUT****

CARTESIAN COORDINATES (ANGSTROEM)
---------------------------------
  C      5.287706   -0.571170   -2.405692
  C      3.876998   -0.955701   -2.008947
  O      3.526328   -0.201212   -0.829950
  P      2.013258   -0.030425   -0.380340
  S      0.834113    0.663757   -1.778332
  O      2.100664    0.932547    0.856253
  C      2.936309    0.703510    2.019482
  C      4.261823    1.421191    1.876201
  S      1.599362   -1.975934    0.379607
  C     -0.033736   -1.711171    1.118637
  S     -1.388806   -1.561707   -0.084265
  P     -2.031237    0.435809    0.312955
  S     -1.005981    1.408825    1.663459
  O     -3.564024    0.226079    0.701386
  C     -3.941640   -0.392260    1.946790
  C     -5.420123   -0.140222    2.163415
  O     -2.154357    1.199881   -1.048697
  C     -2.720401    0.638391   -2.259276
  C     -4.188102    0.987606   -2.382988
  H      5.337096    0.491874   -2.624851
  H      5.976921   -0.798244   -1.597552
  H      5.572969   -1.132330   -3.289334
  H      3.804572   -2.018568   -1.764153
  H      3.157252   -0.718665   -2.799397
  H      2.348801    1.102801    2.849087
  H      3.081298   -0.373047    2.146039
  H      4.094056    2.481300    1.706462
  H      4.834729    1.290029    2.788795
  H      4.820622    1.015350    1.037171
  H     -0.019017   -0.805521    1.732795
  H     -0.223194   -2.598161    1.717434
  H     -3.724731   -1.462096    1.875660
  H     -3.338157    0.046175    2.748708
  H     -5.724419   -0.594628    3.100427
  H     -5.613417    0.928094    2.202825
  H     -5.995683   -0.572831    1.350238
  H     -2.123670    1.081692   -3.059128
  H     -2.565025   -0.444241   -2.253158
  H     -4.317302    2.065881   -2.349498
  H     -4.560586    0.609724   -3.329879
  H     -4.751662    0.540572   -1.568521

 Total Charge           Charge          ....    0
 Multiplicity           Mult            ....    1
 Number of Electrons    NEL             ....  202
 Basis Dimension        Dim             ....  334

ORBITAL ENERGIES
----------------

  NO   OCC          E(Eh)            E(eV)
   0   2.0000     -88.039052     -2395.6644
   1   2.0000     -88.037451     -2395.6208
   2   2.0000     -87.979948     -2394.0561
   3   2.0000     -87.973686     -2393.8857
   4   2.0000     -76.419856     -2079.4900
   5   2.0000     -76.419106     -2079.4696
   6   2.0000     -18.789631      -511.2919
   7   2.0000     -18.786039      -511.1941
   8   2.0000     -18.785811      -511.1879
   9   2.0000     -18.783810      -511.1334
  10   2.0000      -9.954242      -270.8687
  11   2.0000      -9.952195      -270.8130
  12   2.0000      -9.952080      -270.8099
  13   2.0000      -9.950724      -270.7730
  14   2.0000      -9.948120      -270.7021
  15   2.0000      -9.888389      -269.0768
  16   2.0000      -9.886331      -269.0207
  17   2.0000      -9.882414      -268.9142
  18   2.0000      -9.882174      -268.9076
  19   2.0000      -7.684275      -209.0998
  20   2.0000      -7.682314      -209.0464
  21   2.0000      -7.625213      -207.4926
  22   2.0000      -7.618813      -207.3184
  23   2.0000      -6.417360      -174.6253
  24   2.0000      -6.416740      -174.6084
  25   2.0000      -5.711878      -155.4281
  26   2.0000      -5.710166      -155.3815
  27   2.0000      -5.708691      -155.3414
  28   2.0000      -5.706819      -155.2904
  29   2.0000      -5.701593      -155.1482
  30   2.0000      -5.699370      -155.0877
  31   2.0000      -5.654080      -153.8553
  32   2.0000      -5.647838      -153.6855
  33   2.0000      -5.646045      -153.6367
  34   2.0000      -5.645112      -153.6113
  35   2.0000      -5.639391      -153.4556
  36   2.0000      -5.638884      -153.4418
  37   2.0000      -4.640012      -126.2611
  38   2.0000      -4.639738      -126.2537
  39   2.0000      -4.639111      -126.2366
  40   2.0000      -4.638669      -126.2246
  41   2.0000      -4.637739      -126.1993
  42   2.0000      -4.636618      -126.1688
  43   2.0000      -0.984486       -26.7892
  44   2.0000      -0.982229       -26.7278
  45   2.0000      -0.942338       -25.6423
  46   2.0000      -0.938685       -25.5429
  47   2.0000      -0.757074       -20.6010
  48   2.0000      -0.717933       -19.5360
  49   2.0000      -0.709942       -19.3185
  50   2.0000      -0.690084       -18.7781
  51   2.0000      -0.687957       -18.7203
  52   2.0000      -0.671395       -18.2696
  53   2.0000      -0.643195       -17.5022
  54   2.0000      -0.631607       -17.1869
  55   2.0000      -0.587813       -15.9952
  56   2.0000      -0.583547       -15.8791
  57   2.0000      -0.570724       -15.5302
  58   2.0000      -0.564752       -15.3677
  59   2.0000      -0.561229       -15.2718
  60   2.0000      -0.508207       -13.8290
  61   2.0000      -0.500552       -13.6207
  62   2.0000      -0.479176       -13.0390
  63   2.0000      -0.476999       -12.9798
  64   2.0000      -0.447067       -12.1653
  65   2.0000      -0.443603       -12.0710
  66   2.0000      -0.438461       -11.9311
  67   2.0000      -0.435004       -11.8371
  68   2.0000      -0.430126       -11.7043
  69   2.0000      -0.421976       -11.4826
  70   2.0000      -0.404374       -11.0036
  71   2.0000      -0.388495       -10.5715
  72   2.0000      -0.385891       -10.5006
  73   2.0000      -0.380536       -10.3549
  74   2.0000      -0.379757       -10.3337
  75   2.0000      -0.361940        -9.8489
  76   2.0000      -0.361628        -9.8404
  77   2.0000      -0.354967        -9.6591
  78   2.0000      -0.353556        -9.6208
  79   2.0000      -0.350225        -9.5301
  80   2.0000      -0.348872        -9.4933
  81   2.0000      -0.342498        -9.3199
  82   2.0000      -0.341698        -9.2981
  83   2.0000      -0.338974        -9.2240
  84   2.0000      -0.332270        -9.0415
  85   2.0000      -0.314833        -8.5670
  86   2.0000      -0.311681        -8.4813
  87   2.0000      -0.297198        -8.0872
  88   2.0000      -0.295391        -8.0380
  89   2.0000      -0.287794        -7.8313
  90   2.0000      -0.282845        -7.6966
  91   2.0000      -0.270755        -7.3676
  92   2.0000      -0.269475        -7.3328
  93   2.0000      -0.257906        -7.0180
  94   2.0000      -0.253593        -6.9006
  95   2.0000      -0.238622        -6.4932
  96   2.0000      -0.217331        -5.9139
  97   2.0000      -0.200819        -5.4646
  98   2.0000      -0.196757        -5.3540
  99   2.0000      -0.187087        -5.0909
 100   2.0000      -0.184088        -5.0093
 101   0.0000      -0.035189        -0.9575
 102   0.0000      -0.026190        -0.7127
 103   0.0000      -0.008702        -0.2368
 104   0.0000       0.003422         0.0931
 105   0.0000       0.025244         0.6869

MULLIKEN ATOMIC CHARGES
-----------------------
   0 C :   -0.283657
   1 C :   -0.011835
   2 O :   -0.385337
   3 P :    0.601704
   4 S :   -0.307581
   5 O :   -0.339274
   6 C :   -0.014831
   7 C :   -0.289919
   8 S :   -0.121512
   9 C :   -0.339126
  10 S :   -0.108901
  11 P :    0.606042
  12 S :   -0.297717
  13 O :   -0.382634
  14 C :   -0.003281
  15 C :   -0.282350
  16 O :   -0.340034
  17 C :   -0.019992
  18 C :   -0.287372
  19 H :    0.123692
  20 H :    0.115855
  21 H :    0.112504
  22 H :    0.104148
  23 H :    0.105673
  24 H :    0.111552
  25 H :    0.097406
  26 H :    0.122530
  27 H :    0.107272
  28 H :    0.121647
  29 H :    0.188696
  30 H :    0.178603
  31 H :    0.092336
  32 H :    0.098099
  33 H :    0.109850
  34 H :    0.121757
  35 H :    0.115533
  36 H :    0.117844
  37 H :    0.111982
  38 H :    0.120784
  39 H :    0.108841
  40 H :    0.121004
Sum of atomic charges:   -0.0000000

LOEWDIN ATOMIC CHARGES
----------------------
   0 C :   -0.350938
   1 C :   -0.120631
   2 O :   -0.251279
   3 P :    0.559977
   4 S :   -0.307510
   5 O :   -0.221511
   6 C :   -0.115484
   7 C :   -0.359717
   8 S :    0.056386
   9 C :   -0.483603
  10 S :    0.062908
  11 P :    0.571044
  12 S :   -0.291844
  13 O :   -0.254397
  14 C :   -0.124762
  15 C :   -0.350504
  16 O :   -0.218927
  17 C :   -0.110656
  18 C :   -0.360142
  19 H :    0.130323
  20 H :    0.125392
  21 H :    0.131185
  22 H :    0.108989
  23 H :    0.109489
  24 H :    0.120781
  25 H :    0.101650
  26 H :    0.130018
  27 H :    0.128548
  28 H :    0.125182
  29 H :    0.118860
  30 H :    0.135860
  31 H :    0.102850
  32 H :    0.105501
  33 H :    0.129683
  34 H :    0.129336
  35 H :    0.125049
  36 H :    0.122978
  37 H :    0.106380
  38 H :    0.129634
  39 H :    0.129078
  40 H :    0.124823

  Mayer bond orders larger than 0.100000
B(  0-C ,  1-C ) :   1.1603 B(  0-C , 19-H ) :   0.9507 B(  0-C , 20-H ) :   0.9510
B(  0-C , 21-H ) :   0.9417 B(  1-C ,  2-O ) :   0.9065 B(  1-C , 22-H ) :   0.9294
B(  1-C , 23-H ) :   0.9065 B(  2-O ,  3-P ) :   1.0703 B(  3-P ,  4-S ) :   1.6785
B(  3-P ,  5-O ) :   1.1500 B(  3-P ,  8-S ) :   0.9493 B(  4-S ,  8-S ) :   0.1125
B(  5-O ,  6-C ) :   0.8942 B(  6-C ,  7-C ) :   1.1674 B(  6-C , 24-H ) :   0.9315
B(  6-C , 25-H ) :   0.9084 B(  7-C , 26-H ) :   0.9470 B(  7-C , 27-H ) :   0.9397
B(  7-C , 28-H ) :   0.9409 B(  8-S ,  9-C ) :   0.9930 B(  9-C , 10-S ) :   1.0072
B(  9-C , 29-H ) :   0.8460 B(  9-C , 30-H ) :   0.9120 B( 10-S , 11-P ) :   0.9413
B( 10-S , 12-S ) :   0.1172 B( 11-P , 12-S ) :   1.6315 B( 11-P , 13-O ) :   1.0648
B( 11-P , 16-O ) :   1.1653 B( 12-S , 29-H ) :   0.1282 B( 13-O , 14-C ) :   0.9134
B( 14-C , 15-C ) :   1.1603 B( 14-C , 31-H ) :   0.9217 B( 14-C , 32-H ) :   0.9092
B( 15-C , 33-H ) :   0.9424 B( 15-C , 34-H ) :   0.9512 B( 15-C , 35-H ) :   0.9514
B( 16-O , 17-C ) :   0.8894 B( 17-C , 18-C ) :   1.1632 B( 17-C , 36-H ) :   0.9325
B( 17-C , 37-H ) :   0.9164 B( 18-C , 38-H ) :   0.9466 B( 18-C , 39-H ) :   0.9396
B( 18-C , 40-H ) :   0.9397

Dispersion correction           -0.064462529
FINAL SINGLE POINT ENERGY     -2929.513952354025

DIPOLE MOMENT
-------------

Method             : SCF
Type of density    : Electron Density
Multiplicity       :   1
Irrep              :   0
Energy             : -2929.6334813158728139 Eh
Relativity type    :
Basis              : AO
                                X                 Y                 Z
Electronic contribution:      0.028201214      -1.009875613      -0.361918531
Nuclear contribution   :      0.080627661      -0.161049100       0.632057017
                        -----------------------------------------
Total Dipole Moment    :      0.108828875      -1.170924712       0.270138486
                        -----------------------------------------
Magnitude (a.u.)       :      1.206599854
Magnitude (Debye)      :      3.066933096

Rotational constants in cm-1:             0.013565             0.004720             0.004306
Rotational constants in MHz :           406.663913           141.501274           129.099252

                             ****ORCA TERMINATED NORMALLY****
TOTAL RUN TIME: 0 days 0 hours 0 minutes 20 seconds 576 msec
