                         Program Version 6.0.1  -  RELEASE   -
|  1> ! pbe def2-sv(p) def2/J RI DEFGRID1 loosescf d4 GCP(DFT/SV(P)) printgap
|  2> %output
|  3>     printlevel normal
|  4> end
|  5> * xyz 0 1
|  6> C 4.5490666597 0.9637833148 -0.6054877137
|  7> C 4.2285309296 0.2849455387 -1.9267770695
|  8> O 2.8581606833 -0.1579845054 -1.9599131438
|  9> C 2.5715668684 -1.3584128656 -1.4964786507
| 10> O 3.3823022352 -2.1478631711 -1.0695556803
| 11> C 1.0852326422 -1.6549660937 -1.6135825732
| 12> C 0.2569171186 -0.5969705541 -0.8877514379
| 13> H 0.4971007284 0.3988433282 -1.2733818474
| 14> C 0.5073930154 -0.6048241244 0.6064422371
| 15> O -0.3934886658 -0.7075029457 1.4172374652
| 16> O 1.7709320528 -0.4846576463 0.8978936548
| 17> C 2.1492005702 -0.3951761901 2.290583066
| 18> C 2.1745217843 1.0569867248 2.7368848249
| 19> S -1.5257452411 -0.9076077828 -1.1627677418
| 20> P -2.350179836 0.4726829222 0.2211891648
| 21> S -1.297232594 2.0692531541 0.6841914564
| 22> O -3.6924550365 0.8528076063 -0.5664588496
| 23> C -3.6489412354 1.6071474327 -1.7807230256
| 24> O -3.1235839054 -0.2952316848 1.371160652
| 25> C -2.7933435769 -0.2798087706 2.7611236104
| 26> H 4.4604121038 0.2488674515 0.2083321663
| 27> H 5.5641388116 1.3459260921 -0.6343605766
| 28> H 3.8602394315 1.7863311054 -0.4318690798
| 29> H 4.8778948532 -0.5806167011 -2.0854038449
| 30> H 4.310299498 0.981088447 -2.7618402308
| 31> H 0.890118846 -2.6461515735 -1.2044741563
| 32> H 0.8119546844 -1.644061544 -2.6696878945
| 33> H 1.4364595001 -0.9753491066 2.8818987587
| 34> H 3.1385729523 -0.8511291817 2.3359344616
| 35> H 2.9034687465 1.6186460893 2.1601451273
| 36> H 1.1951279829 1.5108922307 2.5946692293
| 37> H 2.4363797129 1.1036081575 3.7884940611
| 38> H -3.0393293074 2.5027730671 -1.6442799202
| 39> H -4.6797821679 1.8802091884 -1.9910511401
| 40> H -3.2419980354 0.9983651583 -2.5886957454
| 41> H -2.1819835825 0.5920649136 2.999662123
| 42> H -2.2487512226 -1.1886831866 3.0096677312
| 43> H -3.741032942 -0.235376688 3.2935395855
| 44> *
| 45>
| 46>                          ****END OF INPUT****

CARTESIAN COORDINATES (ANGSTROEM)
---------------------------------
  C      4.549067    0.963783   -0.605488
  C      4.228531    0.284946   -1.926777
  O      2.858161   -0.157985   -1.959913
  C      2.571567   -1.358413   -1.496479
  O      3.382302   -2.147863   -1.069556
  C      1.085233   -1.654966   -1.613583
  C      0.256917   -0.596971   -0.887751
  H      0.497101    0.398843   -1.273382
  C      0.507393   -0.604824    0.606442
  O     -0.393489   -0.707503    1.417237
  O      1.770932   -0.484658    0.897894
  C      2.149201   -0.395176    2.290583
  C      2.174522    1.056987    2.736885
  S     -1.525745   -0.907608   -1.162768
  P     -2.350180    0.472683    0.221189
  S     -1.297233    2.069253    0.684191
  O     -3.692455    0.852808   -0.566459
  C     -3.648941    1.607147   -1.780723
  O     -3.123584   -0.295232    1.371161
  C     -2.793344   -0.279809    2.761124
  H      4.460412    0.248867    0.208332
  H      5.564139    1.345926   -0.634361
  H      3.860239    1.786331   -0.431869
  H      4.877895   -0.580617   -2.085404
  H      4.310299    0.981088   -2.761840
  H      0.890119   -2.646152   -1.204474
  H      0.811955   -1.644062   -2.669688
  H      1.436460   -0.975349    2.881899
  H      3.138573   -0.851129    2.335934
  H      2.903469    1.618646    2.160145
  H      1.195128    1.510892    2.594669
  H      2.436380    1.103608    3.788494
  H     -3.039329    2.502773   -1.644280
  H     -4.679782    1.880209   -1.991051
  H     -3.241998    0.998365   -2.588696
  H     -2.181984    0.592065    2.999662
  H     -2.248751   -1.188683    3.009668
  H     -3.741033   -0.235377    3.293540

 Total Charge           Charge          ....    0
 Multiplicity           Mult            ....    1
 Number of Electrons    NEL             ....  174
 Basis Dimension        Dim             ....  316

ORBITAL ENERGIES
----------------

  NO   OCC          E(Eh)            E(eV)
   0   2.0000     -88.036758     -2395.6020
   1   2.0000     -87.977340     -2393.9851
   2   2.0000     -76.421637     -2079.5385
   3   2.0000     -18.827328      -512.3176
   4   2.0000     -18.808521      -511.8059
   5   2.0000     -18.781391      -511.0676
   6   2.0000     -18.776234      -510.9273
   7   2.0000     -18.758785      -510.4525
   8   2.0000     -18.743507      -510.0367
   9   2.0000     -10.031094      -272.9600
  10   2.0000     -10.017679      -272.5949
  11   2.0000      -9.960097      -271.0280
  12   2.0000      -9.954218      -270.8680
  13   2.0000      -9.952490      -270.8210
  14   2.0000      -9.933826      -270.3131
  15   2.0000      -9.933595      -270.3069
  16   2.0000      -9.921072      -269.9661
  17   2.0000      -9.893189      -269.2074
  18   2.0000      -9.891590      -269.1638
  19   2.0000      -7.681866      -209.0342
  20   2.0000      -7.622410      -207.4163
  21   2.0000      -6.417389      -174.6260
  22   2.0000      -5.709850      -155.3729
  23   2.0000      -5.706497      -155.2817
  24   2.0000      -5.698635      -155.0677
  25   2.0000      -5.651401      -153.7825
  26   2.0000      -5.643243      -153.5604
  27   2.0000      -5.642252      -153.5335
  28   2.0000      -4.639743      -126.2538
  29   2.0000      -4.639545      -126.2484
  30   2.0000      -4.638013      -126.2067
  31   2.0000      -1.036552       -28.2060
  32   2.0000      -1.016316       -27.6554
  33   2.0000      -0.974850       -26.5270
  34   2.0000      -0.939591       -25.5676
  35   2.0000      -0.928802       -25.2740
  36   2.0000      -0.920899       -25.0589
  37   2.0000      -0.771722       -20.9996
  38   2.0000      -0.716124       -19.4867
  39   2.0000      -0.715268       -19.4634
  40   2.0000      -0.691143       -18.8070
  41   2.0000      -0.658216       -17.9110
  42   2.0000      -0.628004       -17.0889
  43   2.0000      -0.624223       -16.9860
  44   2.0000      -0.613239       -16.6871
  45   2.0000      -0.600554       -16.3419
  46   2.0000      -0.572219       -15.5709
  47   2.0000      -0.515480       -14.0269
  48   2.0000      -0.506975       -13.7955
  49   2.0000      -0.504745       -13.7348
  50   2.0000      -0.485291       -13.2054
  51   2.0000      -0.472968       -12.8701
  52   2.0000      -0.463746       -12.6192
  53   2.0000      -0.452943       -12.3252
  54   2.0000      -0.443556       -12.0698
  55   2.0000      -0.435591       -11.8530
  56   2.0000      -0.424468       -11.5504
  57   2.0000      -0.417752       -11.3676
  58   2.0000      -0.412645       -11.2286
  59   2.0000      -0.410479       -11.1697
  60   2.0000      -0.401819       -10.9340
  61   2.0000      -0.397754       -10.8234
  62   2.0000      -0.391719       -10.6592
  63   2.0000      -0.385242       -10.4830
  64   2.0000      -0.381343       -10.3769
  65   2.0000      -0.372930       -10.1479
  66   2.0000      -0.364107        -9.9079
  67   2.0000      -0.358297        -9.7498
  68   2.0000      -0.356502        -9.7009
  69   2.0000      -0.347403        -9.4533
  70   2.0000      -0.342193        -9.3116
  71   2.0000      -0.334196        -9.0939
  72   2.0000      -0.330820        -9.0021
  73   2.0000      -0.313628        -8.5342
  74   2.0000      -0.305355        -8.3091
  75   2.0000      -0.301457        -8.2031
  76   2.0000      -0.295684        -8.0460
  77   2.0000      -0.285493        -7.7687
  78   2.0000      -0.279265        -7.5992
  79   2.0000      -0.265796        -7.2327
  80   2.0000      -0.261494        -7.1156
  81   2.0000      -0.251353        -6.8397
  82   2.0000      -0.242892        -6.6094
  83   2.0000      -0.227004        -6.1771
  84   2.0000      -0.219835        -5.9820
  85   2.0000      -0.198299        -5.3960
  86   2.0000      -0.191790        -5.2189
  87   0.0000      -0.048178        -1.3110
  88   0.0000      -0.042423        -1.1544
  89   0.0000      -0.023326        -0.6347
  90   0.0000       0.010258         0.2791
  91   0.0000       0.027389         0.7453

MULLIKEN ATOMIC CHARGES
-----------------------
   0 C :   -0.320819
   1 C :   -0.011033
   2 O :   -0.239720
   3 C :    0.113980
   4 O :   -0.194272
   5 C :   -0.053730
   6 C :   -0.321113
   7 H :    0.163790
   8 C :    0.222400
   9 O :   -0.197156
  10 O :   -0.217741
  11 C :   -0.016953
  12 C :   -0.316815
  13 S :   -0.092104
  14 P :    0.627501
  15 S :   -0.356998
  16 O :   -0.371389
  17 C :   -0.099800
  18 O :   -0.365140
  19 C :   -0.085463
  20 H :    0.131242
  21 H :    0.113853
  22 H :    0.125803
  23 H :    0.110213
  24 H :    0.105685
  25 H :    0.110640
  26 H :    0.128956
  27 H :    0.115157
  28 H :    0.119435
  29 H :    0.119027
  30 H :    0.141715
  31 H :    0.114684
  32 H :    0.111621
  33 H :    0.122734
  34 H :    0.109208
  35 H :    0.114011
  36 H :    0.119538
  37 H :    0.119051
Sum of atomic charges:   -0.0000000

LOEWDIN ATOMIC CHARGES
----------------------
   0 C :   -0.356907
   1 C :   -0.108486
   2 O :   -0.061128
   3 C :    0.025646
   4 O :   -0.161451
   5 C :   -0.239397
   6 C :   -0.268852
   7 H :    0.146402
   8 C :    0.026206
   9 O :   -0.158415
  10 O :   -0.024702
  11 C :   -0.105295
  12 C :   -0.357719
  13 S :    0.098822
  14 P :    0.588229
  15 S :   -0.345354
  16 O :   -0.256170
  17 C :   -0.221018
  18 O :   -0.235253
  19 C :   -0.206912
  20 H :    0.127975
  21 H :    0.131148
  22 H :    0.126867
  23 H :    0.120877
  24 H :    0.119182
  25 H :    0.140532
  26 H :    0.147228
  27 H :    0.123193
  28 H :    0.122489
  29 H :    0.125540
  30 H :    0.132563
  31 H :    0.132448
  32 H :    0.107302
  33 H :    0.121089
  34 H :    0.103729
  35 H :    0.108118
  36 H :    0.114151
  37 H :    0.117322

  Mayer bond orders larger than 0.100000
B(  0-C ,  1-C ) :   1.1764 B(  0-C , 20-H ) :   0.9398 B(  0-C , 21-H ) :   0.9409
B(  0-C , 22-H ) :   0.9433 B(  1-C ,  2-O ) :   0.9165 B(  1-C , 23-H ) :   0.9130
B(  1-C , 24-H ) :   0.9368 B(  2-O ,  3-C ) :   1.2061 B(  3-C ,  4-O ) :   2.0723
B(  3-C ,  5-C ) :   1.0237 B(  5-C ,  6-C ) :   1.0503 B(  5-C , 25-H ) :   0.9013
B(  5-C , 26-H ) :   0.8855 B(  6-C ,  7-H ) :   0.8554 B(  6-C ,  8-C ) :   0.8897
B(  6-C , 13-S ) :   1.0271 B(  8-C ,  9-O ) :   1.9488 B(  8-C , 10-O ) :   1.2751
B( 10-O , 11-C ) :   0.8843 B( 11-C , 12-C ) :   1.1817 B( 11-C , 27-H ) :   0.9118
B( 11-C , 28-H ) :   0.9285 B( 12-C , 29-H ) :   0.9461 B( 12-C , 30-H ) :   0.9315
B( 12-C , 31-H ) :   0.9411 B( 13-S , 14-P ) :   0.9338 B( 13-S , 15-S ) :   0.1149
B( 14-P , 15-S ) :   1.5605 B( 14-P , 16-O ) :   1.0911 B( 14-P , 18-O ) :   1.1434
B( 16-O , 17-C ) :   0.9437 B( 17-C , 32-H ) :   0.9346 B( 17-C , 33-H ) :   0.9594
B( 17-C , 34-H ) :   0.9431 B( 18-O , 19-C ) :   0.9263 B( 19-C , 35-H ) :   0.9361
B( 19-C , 36-H ) :   0.9532 B( 19-C , 37-H ) :   0.9540

Dispersion correction           -0.052479894
FINAL SINGLE POINT ENERGY     -1979.015949622605

DIPOLE MOMENT
-------------

Method             : SCF
Type of density    : Electron Density
Multiplicity       :   1
Irrep              :   0
Energy             : -1979.1473900312644219 Eh
Relativity type    :
Basis              : AO
                                X                 Y                 Z
Electronic contribution:    -17.336368198      -5.691154221      -5.450177601
Nuclear contribution   :     18.376287926       5.923431340       5.434670619
                        -----------------------------------------
Total Dipole Moment    :      1.039919728       0.232277119      -0.015506982
                        -----------------------------------------
Magnitude (a.u.)       :      1.065657622
Magnitude (Debye)      :      2.708686412

Rotational constants in cm-1:             0.015750             0.006415             0.005691
Rotational constants in MHz :           472.184173           192.321159           170.596947

                             ****ORCA TERMINATED NORMALLY****
TOTAL RUN TIME: 0 days 0 hours 0 minutes 40 seconds 350 msec
