                         Program Version 6.0.0  -   RELEASE  -
|  1> ! pbe def2-sv(p) def2/J RI DEFGRID1 loosescf d4 GCP(DFT/SV(P)) printgap
|  2> %output
|  3>     printlevel normal
|  4> end
|  5> * xyz 0 1
|  6> C 5.0410099543 0.2208871285 -1.2176473448
|  7> C 4.1654450039 -1.0023143583 -1.3894376664
|  8> O 3.1902854235 -1.117899298 -0.3339172987
|  9> P 1.989172291 -0.0962437264 -0.1671077503
| 10> S 1.2980737648 0.5954231258 -1.8709357345
| 11> O 2.5701443972 0.9953483558 0.8222717986
| 12> C 2.1273164905 2.3620373572 0.9120403255
| 13> C 3.3331108122 3.2356729182 1.1922720436
| 14> S 0.8593954655 -1.3069376173 1.1539727484
| 15> C 0.1364258359 -2.4652806154 -0.0334016507
| 16> S -1.1071250728 -1.7338604512 -1.1573576051
| 17> P -2.0264503824 -0.3122044025 0.1133154023
| 18> S -1.1280740272 1.3632609762 0.6273765395
| 19> O -2.4557691338 -1.2582364594 1.2993905842
| 20> C -2.7484202142 -0.7572704535 2.6216732722
| 21> C -4.0496226919 0.0156217957 2.641619568
| 22> O -3.3905696676 -0.0749454017 -0.6643824639
| 23> C -3.5007895999 0.8475351346 -1.7689405083
| 24> C -4.1833130189 2.1248514618 -1.3191977539
| 25> H 4.4423880231 1.1210958871 -1.3517457985
| 26> H 5.4791511641 0.2324082423 -0.2230620007
| 27> H 5.8299960568 0.207988552 -1.9630775934
| 28> H 4.7396810204 -1.9267201402 -1.315196818
| 29> H 3.6358314912 -0.9643547001 -2.3468643162
| 30> H 1.6357625143 2.6380211598 -0.0271996584
| 31> H 1.3910119192 2.4222374367 1.7173090037
| 32> H 4.0346853186 3.1913019775 0.3637524316
| 33> H 3.0011972037 4.2599646803 1.3253877719
| 34> H 3.8308611492 2.8969806288 2.0961333259
| 35> H -0.3459207264 -3.2390027027 0.5595047029
| 36> H 0.9144718756 -2.8833964837 -0.6692903898
| 37> H -2.7956744016 -1.6564135606 3.2367588379
| 38> H -1.9142640802 -0.1268276862 2.9459030039
| 39> H -4.8552933511 -0.5960696723 2.2447336712
| 40> H -4.281768171 0.3076258564 3.6608756562
| 41> H -3.9528484745 0.9106707368 2.0283458492
| 42> H -2.5049241367 1.057467438 -2.1715968843
| 43> H -4.0903158546 0.3205275301 -2.5212112136
| 44> H -3.5682862895 2.6364270801 -0.5816393831
| 45> H -4.3218955685 2.7758869574 -2.1762202341
| 46> H -5.1492968549 1.8951966843 -0.8785714333
| 47> *
| 48>
| 49>                          ****END OF INPUT****

CARTESIAN COORDINATES (ANGSTROEM)
---------------------------------
  C      5.041010    0.220887   -1.217647
  C      4.165445   -1.002314   -1.389438
  O      3.190285   -1.117899   -0.333917
  P      1.989172   -0.096244   -0.167108
  S      1.298074    0.595423   -1.870936
  O      2.570144    0.995348    0.822272
  C      2.127316    2.362037    0.912040
  C      3.333111    3.235673    1.192272
  S      0.859395   -1.306938    1.153973
  C      0.136426   -2.465281   -0.033402
  S     -1.107125   -1.733860   -1.157358
  P     -2.026450   -0.312204    0.113315
  S     -1.128074    1.363261    0.627377
  O     -2.455769   -1.258236    1.299391
  C     -2.748420   -0.757270    2.621673
  C     -4.049623    0.015622    2.641620
  O     -3.390570   -0.074945   -0.664382
  C     -3.500790    0.847535   -1.768941
  C     -4.183313    2.124851   -1.319198
  H      4.442388    1.121096   -1.351746
  H      5.479151    0.232408   -0.223062
  H      5.829996    0.207989   -1.963078
  H      4.739681   -1.926720   -1.315197
  H      3.635831   -0.964355   -2.346864
  H      1.635763    2.638021   -0.027200
  H      1.391012    2.422237    1.717309
  H      4.034685    3.191302    0.363752
  H      3.001197    4.259965    1.325388
  H      3.830861    2.896981    2.096133
  H     -0.345921   -3.239003    0.559505
  H      0.914472   -2.883396   -0.669290
  H     -2.795674   -1.656414    3.236759
  H     -1.914264   -0.126828    2.945903
  H     -4.855293   -0.596070    2.244734
  H     -4.281768    0.307626    3.660876
  H     -3.952848    0.910671    2.028346
  H     -2.504924    1.057467   -2.171597
  H     -4.090316    0.320528   -2.521211
  H     -3.568286    2.636427   -0.581639
  H     -4.321896    2.775887   -2.176220
  H     -5.149297    1.895197   -0.878571

 Total Charge           Charge          ....    0
 Multiplicity           Mult            ....    1
 Number of Electrons    NEL             ....  202
 Basis Dimension        Dim             ....  334

ORBITAL ENERGIES
----------------

  NO   OCC          E(Eh)            E(eV)
   0   2.0000     -88.038146     -2395.6397
   1   2.0000     -88.031917     -2395.4702
   2   2.0000     -87.979640     -2394.0477
   3   2.0000     -87.979596     -2394.0465
   4   2.0000     -76.423105     -2079.5784
   5   2.0000     -76.421251     -2079.5280
   6   2.0000     -18.790282      -511.3096
   7   2.0000     -18.788532      -511.2620
   8   2.0000     -18.786344      -511.2024
   9   2.0000     -18.784046      -511.1399
  10   2.0000      -9.956981      -270.9432
  11   2.0000      -9.949601      -270.7424
  12   2.0000      -9.949509      -270.7399
  13   2.0000      -9.946889      -270.6686
  14   2.0000      -9.943894      -270.5871
  15   2.0000      -9.882612      -268.9195
  16   2.0000      -9.881644      -268.8932
  17   2.0000      -9.881422      -268.8872
  18   2.0000      -9.877989      -268.7938
  19   2.0000      -7.683180      -209.0700
  20   2.0000      -7.677387      -208.9123
  21   2.0000      -7.624406      -207.4706
  22   2.0000      -7.624299      -207.4677
  23   2.0000      -6.420218      -174.7030
  24   2.0000      -6.418447      -174.6548
  25   2.0000      -5.711181      -155.4091
  26   2.0000      -5.707910      -155.3201
  27   2.0000      -5.705602      -155.2573
  28   2.0000      -5.701981      -155.1588
  29   2.0000      -5.699721      -155.0973
  30   2.0000      -5.693847      -154.9375
  31   2.0000      -5.653329      -153.8349
  32   2.0000      -5.653165      -153.8304
  33   2.0000      -5.645140      -153.6121
  34   2.0000      -5.644976      -153.6076
  35   2.0000      -5.644488      -153.5943
  36   2.0000      -5.644468      -153.5938
  37   2.0000      -4.642915      -126.3401
  38   2.0000      -4.642082      -126.3175
  39   2.0000      -4.640952      -126.2867
  40   2.0000      -4.640561      -126.2761
  41   2.0000      -4.640249      -126.2676
  42   2.0000      -4.638982      -126.2331
  43   2.0000      -0.983753       -26.7693
  44   2.0000      -0.980612       -26.6838
  45   2.0000      -0.943523       -25.6746
  46   2.0000      -0.940674       -25.5971
  47   2.0000      -0.759386       -20.6640
  48   2.0000      -0.717286       -19.5183
  49   2.0000      -0.704906       -19.1815
  50   2.0000      -0.684255       -18.6195
  51   2.0000      -0.683691       -18.6042
  52   2.0000      -0.662610       -18.0305
  53   2.0000      -0.649262       -17.6673
  54   2.0000      -0.634229       -17.2582
  55   2.0000      -0.597055       -16.2467
  56   2.0000      -0.588519       -16.0144
  57   2.0000      -0.565994       -15.4015
  58   2.0000      -0.562909       -15.3175
  59   2.0000      -0.561092       -15.2681
  60   2.0000      -0.502245       -13.6668
  61   2.0000      -0.492182       -13.3929
  62   2.0000      -0.475701       -12.9445
  63   2.0000      -0.472663       -12.8618
  64   2.0000      -0.451175       -12.2771
  65   2.0000      -0.439359       -11.9556
  66   2.0000      -0.432672       -11.7736
  67   2.0000      -0.428579       -11.6622
  68   2.0000      -0.423559       -11.5256
  69   2.0000      -0.405266       -11.0278
  70   2.0000      -0.403314       -10.9747
  71   2.0000      -0.396097       -10.7784
  72   2.0000      -0.390853       -10.6356
  73   2.0000      -0.385952       -10.5023
  74   2.0000      -0.378738       -10.3060
  75   2.0000      -0.371243       -10.1020
  76   2.0000      -0.366112        -9.9624
  77   2.0000      -0.353045        -9.6068
  78   2.0000      -0.351256        -9.5582
  79   2.0000      -0.349680        -9.5153
  80   2.0000      -0.345185        -9.3930
  81   2.0000      -0.344156        -9.3650
  82   2.0000      -0.338347        -9.2069
  83   2.0000      -0.335283        -9.1235
  84   2.0000      -0.326698        -8.8899
  85   2.0000      -0.318215        -8.6591
  86   2.0000      -0.306785        -8.3480
  87   2.0000      -0.293471        -7.9857
  88   2.0000      -0.291680        -7.9370
  89   2.0000      -0.282995        -7.7007
  90   2.0000      -0.277614        -7.5543
  91   2.0000      -0.271924        -7.3994
  92   2.0000      -0.266657        -7.2561
  93   2.0000      -0.258048        -7.0219
  94   2.0000      -0.256815        -6.9883
  95   2.0000      -0.244206        -6.6452
  96   2.0000      -0.221043        -6.0149
  97   2.0000      -0.210083        -5.7166
  98   2.0000      -0.185290        -5.0420
  99   2.0000      -0.183563        -4.9950
 100   2.0000      -0.179636        -4.8882
 101   0.0000      -0.048347        -1.3156
 102   0.0000      -0.029107        -0.7920
 103   0.0000      -0.010492        -0.2855
 104   0.0000       0.011792         0.3209
 105   0.0000       0.023103         0.6287

MULLIKEN ATOMIC CHARGES
-----------------------
   0 C :   -0.316506
   1 C :   -0.001228
   2 O :   -0.372975
   3 P :    0.625734
   4 S :   -0.310830
   5 O :   -0.379621
   6 C :   -0.021625
   7 C :   -0.281079
   8 S :   -0.096137
   9 C :   -0.317093
  10 S :   -0.094122
  11 P :    0.620686
  12 S :   -0.334075
  13 O :   -0.368929
  14 C :   -0.001700
  15 C :   -0.309406
  16 O :   -0.372942
  17 C :   -0.014444
  18 C :   -0.289923
  19 H :    0.126110
  20 H :    0.117588
  21 H :    0.110484
  22 H :    0.101496
  23 H :    0.107550
  24 H :    0.117876
  25 H :    0.111311
  26 H :    0.117972
  27 H :    0.110521
  28 H :    0.114330
  29 H :    0.186926
  30 H :    0.179119
  31 H :    0.101935
  32 H :    0.111732
  33 H :    0.116775
  34 H :    0.110484
  35 H :    0.127302
  36 H :    0.115679
  37 H :    0.106119
  38 H :    0.126380
  39 H :    0.106974
  40 H :    0.111552
Sum of atomic charges:   -0.0000000

LOEWDIN ATOMIC CHARGES
----------------------
   0 C :   -0.366154
   1 C :   -0.120503
   2 O :   -0.248041
   3 P :    0.568766
   4 S :   -0.309225
   5 O :   -0.243020
   6 C :   -0.121029
   7 C :   -0.352097
   8 S :    0.092999
   9 C :   -0.467016
  10 S :    0.073071
  11 P :    0.569988
  12 S :   -0.316468
  13 O :   -0.239591
  14 C :   -0.117580
  15 C :   -0.364954
  16 O :   -0.248213
  17 C :   -0.116081
  18 C :   -0.361047
  19 H :    0.120779
  20 H :    0.126138
  21 H :    0.129646
  22 H :    0.116819
  23 H :    0.108411
  24 H :    0.108490
  25 H :    0.110768
  26 H :    0.124917
  27 H :    0.130493
  28 H :    0.125807
  29 H :    0.135777
  30 H :    0.132454
  31 H :    0.117215
  32 H :    0.110197
  33 H :    0.126551
  34 H :    0.129798
  35 H :    0.123622
  36 H :    0.113929
  37 H :    0.117591
  38 H :    0.124391
  39 H :    0.128406
  40 H :    0.123997

  Mayer bond orders larger than 0.100000
B(  0-C ,  1-C ) :   1.1645 B(  0-C , 19-H ) :   0.9314 B(  0-C , 20-H ) :   0.9462
B(  0-C , 21-H ) :   0.9382 B(  1-C ,  2-O ) :   0.9125 B(  1-C , 22-H ) :   0.9342
B(  1-C , 23-H ) :   0.9134 B(  2-O ,  3-P ) :   1.1079 B(  3-P ,  4-S ) :   1.6245
B(  3-P ,  5-O ) :   1.1235 B(  3-P ,  8-S ) :   0.9304 B(  4-S ,  8-S ) :   0.1190
B(  5-O ,  6-C ) :   0.8965 B(  6-C ,  7-C ) :   1.1539 B(  6-C , 24-H ) :   0.9071
B(  6-C , 25-H ) :   0.9281 B(  7-C , 26-H ) :   0.9481 B(  7-C , 27-H ) :   0.9418
B(  7-C , 28-H ) :   0.9491 B(  8-S ,  9-C ) :   1.0174 B(  9-C , 10-S ) :   0.9809
B(  9-C , 29-H ) :   0.9103 B(  9-C , 30-H ) :   0.9049 B( 10-S , 11-P ) :   0.9824
B( 10-S , 12-S ) :   0.1172 B( 11-P , 12-S ) :   1.5660 B( 11-P , 13-O ) :   1.1257
B( 11-P , 16-O ) :   1.1127 B( 13-O , 14-C ) :   0.8999 B( 14-C , 15-C ) :   1.1657
B( 14-C , 31-H ) :   0.9345 B( 14-C , 32-H ) :   0.9140 B( 15-C , 33-H ) :   0.9461
B( 15-C , 34-H ) :   0.9390 B( 15-C , 35-H ) :   0.9337 B( 16-O , 17-C ) :   0.9004
B( 17-C , 18-C ) :   1.1693 B( 17-C , 36-H ) :   0.9136 B( 17-C , 37-H ) :   0.9344
B( 18-C , 38-H ) :   0.9341 B( 18-C , 39-H ) :   0.9398 B( 18-C , 40-H ) :   0.9471

Dispersion correction           -0.067418080
FINAL SINGLE POINT ENERGY     -2929.511505943809

DIPOLE MOMENT
-------------

Method             : SCF
Type of density    : Electron Density
Multiplicity       :   1
Irrep              :   0
Energy             : -2929.6270327951151557 Eh
Relativity type    :
Basis              : AO
                                X                 Y                 Z
Electronic contribution:     -1.039961616     -15.011053795      -3.427460735
Nuclear contribution   :      1.117451967      14.898567688       3.809416404
                        -----------------------------------------
Total Dipole Moment    :      0.077490351      -0.112486107       0.381955669
                        -----------------------------------------
Magnitude (a.u.)       :      0.405645180
Magnitude (Debye)      :      1.031068107

Rotational constants in cm-1:             0.012601             0.005182             0.004980
Rotational constants in MHz :           377.781154           155.363905           149.310920

                             ****ORCA TERMINATED NORMALLY****
TOTAL RUN TIME: 0 days 0 hours 0 minutes 20 seconds 962 msec
