                         Program Version 6.0.0  -   RELEASE  -
|  1> ! wb97x-v def2-tzvp def2/J RIJCOSX DEFGRID2 scfconv7 GCP(DFT/TZ) printgap
|  2> %output
|  3>     printlevel normal
|  4> end
|  5> %cpcm
|  6>     smd true
|  7>     smdsolvent "water"
|  8> end
|  9> * xyz 0 1
| 10> C -1.712790678154601 0.37413855926225226 -0.0396801261177216
| 11> C -0.5974031311870401 -0.6499363329117921 0.04934885849158523
| 12> S 1.0945188658241143 0.10026794848747435 -0.03114186594856034
| 13> H -2.6831015619951284 -0.1353076023897285 -0.012320674809213028
| 14> H -1.675161204111873 1.0726932078766391 0.8019721175109619
| 15> H -1.6524097652335628 0.9486870098550574 -0.9681675270323553
| 16> H -0.6290139923071073 -1.3429822733151369 -0.7966356840426005
| 17> H -0.6686982761349511 -1.241089072312563 0.9658404244942113
| 18> H 0.9680619663315572 0.8685283994497843 1.0673007559884053
| 19> *
| 20>
| 21>                          ****END OF INPUT****

CARTESIAN COORDINATES (ANGSTROEM)
---------------------------------
  C     -1.712791    0.374139   -0.039680
  C     -0.597403   -0.649936    0.049349
  S      1.094519    0.100268   -0.031142
  H     -2.683102   -0.135308   -0.012321
  H     -1.675161    1.072693    0.801972
  H     -1.652410    0.948687   -0.968168
  H     -0.629014   -1.342982   -0.796636
  H     -0.668698   -1.241089    0.965840
  H      0.968062    0.868528    1.067301

 Total Charge           Charge          ....    0
 Multiplicity           Mult            ....    1
 Number of Electrons    NEL             ....   34
 Basis Dimension        Dim             ....  135

ORBITAL ENERGIES
----------------

  NO   OCC          E(Eh)            E(eV)
   0   2.0000     -94.116154     -2561.0307
   1   2.0000     -12.072277      -328.5034
   2   2.0000     -12.032973      -327.4338
   3   2.0000      -9.627581      -261.9798
   4   2.0000      -7.605247      -206.9493
   5   2.0000      -7.604091      -206.9178
   6   2.0000      -7.603796      -206.9098
   7   2.0000      -1.288934       -35.0737
   8   2.0000      -1.191504       -32.4225
   9   2.0000      -1.071929       -29.1687
  10   2.0000      -0.880454       -23.9584
  11   2.0000      -0.849531       -23.1169
  12   2.0000      -0.839057       -22.8319
  13   2.0000      -0.794468       -21.6186
  14   2.0000      -0.769041       -20.9267
  15   2.0000      -0.739754       -20.1297
  16   2.0000      -0.641981       -17.4692
  17   0.0000      -0.192538        -5.2392
  18   0.0000      -0.096405        -2.6233
  19   0.0000      -0.001427        -0.0388
  20   0.0000       0.013451         0.3660
  21   0.0000       0.034212         0.9309

MULLIKEN ATOMIC CHARGES
-----------------------
   0 C :   -0.361035
   1 C :   -0.165384
   2 S :   -0.299175
   3 H :    0.128856
   4 H :    0.125630
   5 H :    0.124342
   6 H :    0.141187
   7 H :    0.140676
   8 H :    0.164901
Sum of atomic charges:   -0.0000000

LOEWDIN ATOMIC CHARGES
----------------------
   0 C :   -0.342144
   1 C :   -0.488180
   2 S :    0.170993
   3 H :    0.124396
   4 H :    0.119375
   5 H :    0.118263
   6 H :    0.130151
   7 H :    0.124134
   8 H :    0.043012

  Mayer bond orders larger than 0.100000
B(  0-C ,  1-C ) :   0.9832 B(  0-C ,  3-H ) :   0.9654 B(  0-C ,  4-H ) :   0.9732
B(  0-C ,  5-H ) :   0.9736 B(  1-C ,  2-S ) :   1.0170 B(  1-C ,  6-H ) :   0.9556
B(  1-C ,  7-H ) :   0.9661 B(  2-S ,  8-H ) :   0.9662

FINAL SINGLE POINT ENERGY      -477.967856691307

DIPOLE MOMENT
-------------

Method             : SCF
Type of density    : Electron Density
Multiplicity       :   1
Irrep              :   0
Energy             :  -477.9739430577074586 Eh
Relativity type    :
Basis              : AO
                                X                 Y                 Z
Electronic contribution:      5.229216162      -0.254393613      -0.621866474
Nuclear contribution   :     -6.065789895       0.150425277       0.976881459
                        -----------------------------------------
Total Dipole Moment    :     -0.836573733      -0.103968336       0.355014985
                        -----------------------------------------
Magnitude (a.u.)       :      0.914713434
Magnitude (Debye)      :      2.325016776

Rotational constants in cm-1:             0.952918             0.173886             0.159267
Rotational constants in MHz :         28567.777846          5212.982118          4774.719075

                             ****ORCA TERMINATED NORMALLY****
TOTAL RUN TIME: 0 days 0 hours 1 minutes 9 seconds 176 msec
