                         Program Version 6.0.0  -   RELEASE  -
|  1> ! pbe def2-sv(p) def2/J RI DEFGRID1 loosescf d4 GCP(DFT/SV(P)) printgap
|  2> %output
|  3>     printlevel normal
|  4> end
|  5> * xyz 0 1
|  6> C 5.2538303458 -1.5754872634 -0.9827558301
|  7> C 4.2357161493 -0.4881418172 -1.2635314838
|  8> O 3.1572242624 -0.6351761122 -0.3207264633
|  9> P 2.2110733953 0.5866639405 0.0741993911
| 10> S 3.1205691384 2.2996762227 0.3413284547
| 11> O 1.4173815972 0.0027923643 1.3103298835
| 12> C 1.9063360465 0.1468528175 2.6632205649
| 13> C 3.1927461084 -0.6189303416 2.8836126169
| 14> S 0.6979260675 0.577927724 -1.4045099079
| 15> C 0.1722705756 -1.1609295777 -1.2596620123
| 16> S -0.9459057004 -1.4780502631 0.1268493644
| 17> P -2.4414495636 -0.0668814498 -0.4249501004
| 18> S -2.7925626447 0.1322482563 -2.3364466931
| 19> O -1.9923676184 1.2951329372 0.2397564796
| 20> C -1.6945702304 1.4517922992 1.6458698557
| 21> C -2.8956399608 1.9836297107 2.399642935
| 22> O -3.689508828 -0.4864163115 0.4674659814
| 23> C -4.6665793242 -1.4483851662 0.0269836533
| 24> C -4.0869257195 -2.8412927442 -0.1077286994
| 25> H 4.7884233869 -2.5531577795 -1.0662417552
| 26> H 6.061019316 -1.4994991428 -1.7038408355
| 27> H 5.6580774318 -1.4616820899 0.019001431
| 28> H 3.8244616906 -0.575967126 -2.273090546
| 29> H 4.6709501203 0.5099174029 -1.1442860211
| 30> H 2.0509930284 1.2125710729 2.8654703587
| 31> H 1.092057663 -0.2444997845 3.2743369893
| 32> H 3.0682357446 -1.656487356 2.5856234959
| 33> H 3.9923783692 -0.1725962746 2.2941673599
| 34> H 3.4620660127 -0.5727721694 3.9341876462
| 35> H 1.0396225391 -1.8003610624 -1.1169184838
| 36> H -0.3443647349 -1.3819213402 -2.1928147793
| 37> H -1.3686957671 0.4878319327 2.0480746672
| 38> H -0.8615137341 2.1593031775 1.6708694244
| 39> H -3.7083982202 1.2632655646 2.3670415124
| 40> H -2.6142053009 2.1640553723 3.4324058798
| 41> H -3.2321991439 2.9144489391 1.9513061702
| 42> H -5.4376848356 -1.405534007 0.7974991063
| 43> H -5.0756603363 -1.1077557388 -0.9289142429
| 44> H -3.3805063559 -2.8719489976 -0.935493692
| 45> H -3.5722092551 -3.1285934558 0.8056146228
| 46> H -4.8902827789 -3.5434685652 -0.3061050022
| 47> *
| 48>
| 49>                          ****END OF INPUT****

CARTESIAN COORDINATES (ANGSTROEM)
---------------------------------
  C      5.253830   -1.575487   -0.982756
  C      4.235716   -0.488142   -1.263531
  O      3.157224   -0.635176   -0.320726
  P      2.211073    0.586664    0.074199
  S      3.120569    2.299676    0.341328
  O      1.417382    0.002792    1.310330
  C      1.906336    0.146853    2.663221
  C      3.192746   -0.618930    2.883613
  S      0.697926    0.577928   -1.404510
  C      0.172271   -1.160930   -1.259662
  S     -0.945906   -1.478050    0.126849
  P     -2.441450   -0.066881   -0.424950
  S     -2.792563    0.132248   -2.336447
  O     -1.992368    1.295133    0.239756
  C     -1.694570    1.451792    1.645870
  C     -2.895640    1.983630    2.399643
  O     -3.689509   -0.486416    0.467466
  C     -4.666579   -1.448385    0.026984
  C     -4.086926   -2.841293   -0.107729
  H      4.788423   -2.553158   -1.066242
  H      6.061019   -1.499499   -1.703841
  H      5.658077   -1.461682    0.019001
  H      3.824462   -0.575967   -2.273091
  H      4.670950    0.509917   -1.144286
  H      2.050993    1.212571    2.865470
  H      1.092058   -0.244500    3.274337
  H      3.068236   -1.656487    2.585623
  H      3.992378   -0.172596    2.294167
  H      3.462066   -0.572772    3.934188
  H      1.039623   -1.800361   -1.116918
  H     -0.344365   -1.381921   -2.192815
  H     -1.368696    0.487832    2.048075
  H     -0.861514    2.159303    1.670869
  H     -3.708398    1.263266    2.367042
  H     -2.614205    2.164055    3.432406
  H     -3.232199    2.914449    1.951306
  H     -5.437685   -1.405534    0.797499
  H     -5.075660   -1.107756   -0.928914
  H     -3.380506   -2.871949   -0.935494
  H     -3.572209   -3.128593    0.805615
  H     -4.890283   -3.543469   -0.306105

 Total Charge           Charge          ....    0
 Multiplicity           Mult            ....    1
 Number of Electrons    NEL             ....  202
 Basis Dimension        Dim             ....  334

ORBITAL ENERGIES
----------------

  NO   OCC          E(Eh)            E(eV)
   0   2.0000     -88.040421     -2395.7016
   1   2.0000     -88.040155     -2395.6944
   2   2.0000     -87.988879     -2394.2991
   3   2.0000     -87.985125     -2394.1970
   4   2.0000     -76.426819     -2079.6795
   5   2.0000     -76.425923     -2079.6551
   6   2.0000     -18.796723      -511.4848
   7   2.0000     -18.795917      -511.4629
   8   2.0000     -18.795215      -511.4438
   9   2.0000     -18.787318      -511.2289
  10   2.0000      -9.958296      -270.9790
  11   2.0000      -9.956859      -270.9399
  12   2.0000      -9.955652      -270.9071
  13   2.0000      -9.954907      -270.8868
  14   2.0000      -9.950511      -270.7672
  15   2.0000      -9.892422      -269.1865
  16   2.0000      -9.889500      -269.1070
  17   2.0000      -9.885762      -269.0053
  18   2.0000      -9.883015      -268.9305
  19   2.0000      -7.685380      -209.1298
  20   2.0000      -7.685173      -209.1242
  21   2.0000      -7.634030      -207.7325
  22   2.0000      -7.630432      -207.6346
  23   2.0000      -6.424829      -174.8285
  24   2.0000      -6.423145      -174.7827
  25   2.0000      -5.713631      -155.4758
  26   2.0000      -5.712984      -155.4582
  27   2.0000      -5.709750      -155.3702
  28   2.0000      -5.709724      -155.3695
  29   2.0000      -5.702154      -155.1635
  30   2.0000      -5.702112      -155.1623
  31   2.0000      -5.662948      -154.0966
  32   2.0000      -5.659418      -154.0006
  33   2.0000      -5.654604      -153.8696
  34   2.0000      -5.654254      -153.8601
  35   2.0000      -5.650960      -153.7704
  36   2.0000      -5.650594      -153.7605
  37   2.0000      -4.647233      -126.4576
  38   2.0000      -4.646850      -126.4472
  39   2.0000      -4.646043      -126.4253
  40   2.0000      -4.645128      -126.4004
  41   2.0000      -4.644871      -126.3934
  42   2.0000      -4.643420      -126.3539
  43   2.0000      -0.991034       -26.9674
  44   2.0000      -0.986909       -26.8552
  45   2.0000      -0.950218       -25.8568
  46   2.0000      -0.943739       -25.6804
  47   2.0000      -0.763083       -20.7645
  48   2.0000      -0.723490       -19.6872
  49   2.0000      -0.710117       -19.3233
  50   2.0000      -0.693835       -18.8802
  51   2.0000      -0.689867       -18.7722
  52   2.0000      -0.674985       -18.3673
  53   2.0000      -0.653542       -17.7838
  54   2.0000      -0.638131       -17.3644
  55   2.0000      -0.601625       -16.3711
  56   2.0000      -0.594152       -16.1677
  57   2.0000      -0.573224       -15.5982
  58   2.0000      -0.570632       -15.5277
  59   2.0000      -0.563470       -15.3328
  60   2.0000      -0.508665       -13.8415
  61   2.0000      -0.498007       -13.5515
  62   2.0000      -0.481540       -13.1034
  63   2.0000      -0.473988       -12.8979
  64   2.0000      -0.463529       -12.6133
  65   2.0000      -0.447393       -12.1742
  66   2.0000      -0.441038       -12.0012
  67   2.0000      -0.436062       -11.8659
  68   2.0000      -0.427164       -11.6237
  69   2.0000      -0.420776       -11.4499
  70   2.0000      -0.415497       -11.3062
  71   2.0000      -0.404555       -11.0085
  72   2.0000      -0.390523       -10.6267
  73   2.0000      -0.383791       -10.4435
  74   2.0000      -0.380519       -10.3545
  75   2.0000      -0.372113       -10.1257
  76   2.0000      -0.366484        -9.9725
  77   2.0000      -0.362070        -9.8524
  78   2.0000      -0.360569        -9.8116
  79   2.0000      -0.353763        -9.6264
  80   2.0000      -0.352379        -9.5887
  81   2.0000      -0.347346        -9.4518
  82   2.0000      -0.345446        -9.4001
  83   2.0000      -0.343157        -9.3378
  84   2.0000      -0.333865        -9.0849
  85   2.0000      -0.323130        -8.7928
  86   2.0000      -0.316177        -8.6036
  87   2.0000      -0.300302        -8.1716
  88   2.0000      -0.295899        -8.0518
  89   2.0000      -0.294472        -8.0130
  90   2.0000      -0.290365        -7.9012
  91   2.0000      -0.279104        -7.5948
  92   2.0000      -0.269166        -7.3244
  93   2.0000      -0.264254        -7.1907
  94   2.0000      -0.260137        -7.0787
  95   2.0000      -0.230029        -6.2594
  96   2.0000      -0.217701        -5.9239
  97   2.0000      -0.209267        -5.6944
  98   2.0000      -0.206200        -5.6110
  99   2.0000      -0.202258        -5.5037
 100   2.0000      -0.199623        -5.4320
 101   0.0000      -0.040317        -1.0971
 102   0.0000      -0.020133        -0.5478
 103   0.0000      -0.008392        -0.2284
 104   0.0000       0.002440         0.0664
 105   0.0000       0.010132         0.2757

MULLIKEN ATOMIC CHARGES
-----------------------
   0 C :   -0.283691
   1 C :   -0.011136
   2 O :   -0.387465
   3 P :    0.605582
   4 S :   -0.324273
   5 O :   -0.369940
   6 C :   -0.010591
   7 C :   -0.308138
   8 S :   -0.048911
   9 C :   -0.360927
  10 S :   -0.088302
  11 P :    0.599445
  12 S :   -0.313698
  13 O :   -0.346854
  14 C :   -0.026499
  15 C :   -0.284898
  16 O :   -0.381731
  17 C :   -0.000735
  18 C :   -0.316446
  19 H :    0.114137
  20 H :    0.114346
  21 H :    0.120339
  22 H :    0.101719
  23 H :    0.110314
  24 H :    0.114002
  25 H :    0.106111
  26 H :    0.117677
  27 H :    0.126512
  28 H :    0.113177
  29 H :    0.181576
  30 H :    0.193348
  31 H :    0.108105
  32 H :    0.116573
  33 H :    0.118418
  34 H :    0.105704
  35 H :    0.120463
  36 H :    0.104621
  37 H :    0.114585
  38 H :    0.127649
  39 H :    0.116014
  40 H :    0.113815
Sum of atomic charges:   -0.0000000

LOEWDIN ATOMIC CHARGES
----------------------
   0 C :   -0.350432
   1 C :   -0.121480
   2 O :   -0.252499
   3 P :    0.561833
   4 S :   -0.322988
   5 O :   -0.241308
   6 C :   -0.115528
   7 C :   -0.365682
   8 S :    0.103758
   9 C :   -0.480444
  10 S :    0.080681
  11 P :    0.569663
  12 S :   -0.312808
  13 O :   -0.230511
  14 C :   -0.117540
  15 C :   -0.359538
  16 O :   -0.248462
  17 C :   -0.116447
  18 C :   -0.371190
  19 H :    0.125372
  20 H :    0.131972
  21 H :    0.127541
  22 H :    0.110836
  23 H :    0.108972
  24 H :    0.112369
  25 H :    0.116920
  26 H :    0.126690
  27 H :    0.122562
  28 H :    0.131367
  29 H :    0.131176
  30 H :    0.133347
  31 H :    0.101981
  32 H :    0.121118
  33 H :    0.124538
  34 H :    0.127684
  35 H :    0.129188
  36 H :    0.118180
  37 H :    0.113771
  38 H :    0.121309
  39 H :    0.122619
  40 H :    0.131406

  Mayer bond orders larger than 0.100000
B(  0-C ,  1-C ) :   1.1605 B(  0-C , 19-H ) :   0.9511 B(  0-C , 20-H ) :   0.9417
B(  0-C , 21-H ) :   0.9511 B(  1-C ,  2-O ) :   0.9005 B(  1-C , 22-H ) :   0.9289
B(  1-C , 23-H ) :   0.9070 B(  2-O ,  3-P ) :   1.0609 B(  3-P ,  4-S ) :   1.6453
B(  3-P ,  5-O ) :   1.1139 B(  3-P ,  8-S ) :   0.9848 B(  5-O ,  6-C ) :   0.9022
B(  6-C ,  7-C ) :   1.1678 B(  6-C , 24-H ) :   0.9181 B(  6-C , 25-H ) :   0.9306
B(  7-C , 26-H ) :   0.9456 B(  7-C , 27-H ) :   0.9335 B(  7-C , 28-H ) :   0.9368
B(  8-S ,  9-C ) :   0.9889 B(  9-C , 10-S ) :   0.9972 B(  9-C , 29-H ) :   0.8949
B(  9-C , 30-H ) :   0.8878 B( 10-S , 11-P ) :   0.9598 B( 10-S , 12-S ) :   0.1096
B( 11-P , 12-S ) :   1.6302 B( 11-P , 13-O ) :   1.1377 B( 11-P , 16-O ) :   1.0832
B( 13-O , 14-C ) :   0.8965 B( 14-C , 15-C ) :   1.1587 B( 14-C , 31-H ) :   0.9095
B( 14-C , 32-H ) :   0.9319 B( 15-C , 33-H ) :   0.9421 B( 15-C , 34-H ) :   0.9404
B( 15-C , 35-H ) :   0.9465 B( 16-O , 17-C ) :   0.9056 B( 17-C , 18-C ) :   1.1663
B( 17-C , 36-H ) :   0.9343 B( 17-C , 37-H ) :   0.9185 B( 18-C , 38-H ) :   0.9346
B( 18-C , 39-H ) :   0.9437 B( 18-C , 40-H ) :   0.9368

Dispersion correction           -0.064633078
FINAL SINGLE POINT ENERGY     -2929.520495914815

DIPOLE MOMENT
-------------

Method             : SCF
Type of density    : Electron Density
Multiplicity       :   1
Irrep              :   0
Energy             : -2929.6412699729035012 Eh
Relativity type    :
Basis              : AO
                                X                 Y                 Z
Electronic contribution:     -4.818933174      11.349216211     -14.463276020
Nuclear contribution   :      5.086789899     -12.950867735      15.798543480
                        -----------------------------------------
Total Dipole Moment    :      0.267856725      -1.601651524       1.335267461
                        -----------------------------------------
Magnitude (a.u.)       :      2.102373426
Magnitude (Debye)      :      5.343808569

Rotational constants in cm-1:             0.012947             0.004694             0.004374
Rotational constants in MHz :           388.152503           140.712148           131.115723

                             ****ORCA TERMINATED NORMALLY****
TOTAL RUN TIME: 0 days 0 hours 0 minutes 21 seconds 55 msec
