                         Program Version 6.0.0  -   RELEASE  -
|  1> ! pbe def2-sv(p) def2/J RI DEFGRID1 loosescf d4 GCP(DFT/SV(P)) printgap
|  2> %output
|  3>     printlevel normal
|  4> end
|  5> * xyz 0 1
|  6> C 2.4753246955 0.4632339045 -2.4391724421
|  7> C 2.1055772386 1.497989778 -1.3977774773
|  8> O 1.2886083361 0.9613936908 -0.3221839205
|  9> P 1.7980108378 -0.0389201152 0.79553929
| 10> S 0.836666966 0.2592999736 2.4789174743
| 11> O 3.3536949783 0.2728509758 0.8335635272
| 12> C 4.3636946744 -0.6243913329 1.3337038747
| 13> C 4.0766568918 -1.1167409709 2.7360196563
| 14> S 1.7280732844 -2.0100418263 -0.0218054605
| 15> C 0.0930317516 -1.9885507009 -0.7993299823
| 16> S -1.2812374745 -1.5995645548 0.3297922256
| 17> P -1.8921624658 0.2570348384 -0.4618530593
| 18> S -1.2769471422 0.717833048 -2.2671146513
| 19> O -1.4952032053 1.2955834337 0.6631809871
| 20> C -1.333462614 2.7005711853 0.411109113
| 21> C -2.6708827317 3.3872007098 0.2329046194
| 22> O -3.4699564873 0.2201289216 -0.2476716664
| 23> C -4.359873229 -0.8302658107 -0.6669372801
| 24> C -4.2106362244 -1.1893755537 -2.1310757224
| 25> H 3.0751451869 0.9456394566 -3.2046691348
| 26> H 3.0520693299 -0.3445530455 -1.9949356831
| 27> H 1.5800190043 0.0581275293 -2.9049057281
| 28> H 1.4716964326 2.2746475801 -1.829459501
| 29> H 2.9940257836 1.9451019727 -0.9506742293
| 30> H 4.4432166801 -1.4664181063 0.6405113297
| 31> H 5.2754323658 -0.0254052101 1.2994187466
| 32> H 4.9064992074 -1.7252474364 3.0804936532
| 33> H 3.9368188235 -0.2777830212 3.4136945332
| 34> H 3.1679827544 -1.7176064419 2.7437696114
| 35> H -0.0572486279 -3.0023081254 -1.1628062823
| 36> H 0.0748096038 -1.2675176793 -1.6212118279
| 37> H -0.7951993929 3.0641975104 1.2883732309
| 38> H -0.7088571922 2.8247330211 -0.4798317251
| 39> H -2.5149232292 4.4548990339 0.1149298189
| 40> H -3.1684710804 2.9966725035 -0.654194395
| 41> H -3.3024054633 3.2040180227 1.0981242351
| 42> H -4.1778063182 -1.7029223351 -0.0332475693
| 43> H -5.3501213156 -0.4226381249 -0.4552521936
| 44> H -4.3211412645 -0.3046368549 -2.7537288203
| 45> H -3.2281343092 -1.621358368 -2.3157464533
| 46> H -4.971855752 -1.9145951935 -2.3999536539
| 47> *
| 48>
| 49>                          ****END OF INPUT****

CARTESIAN COORDINATES (ANGSTROEM)
---------------------------------
  C      2.475325    0.463234   -2.439172
  C      2.105577    1.497990   -1.397777
  O      1.288608    0.961394   -0.322184
  P      1.798011   -0.038920    0.795539
  S      0.836667    0.259300    2.478917
  O      3.353695    0.272851    0.833564
  C      4.363695   -0.624391    1.333704
  C      4.076657   -1.116741    2.736020
  S      1.728073   -2.010042   -0.021805
  C      0.093032   -1.988551   -0.799330
  S     -1.281237   -1.599565    0.329792
  P     -1.892162    0.257035   -0.461853
  S     -1.276947    0.717833   -2.267115
  O     -1.495203    1.295583    0.663181
  C     -1.333463    2.700571    0.411109
  C     -2.670883    3.387201    0.232905
  O     -3.469956    0.220129   -0.247672
  C     -4.359873   -0.830266   -0.666937
  C     -4.210636   -1.189376   -2.131076
  H      3.075145    0.945639   -3.204669
  H      3.052069   -0.344553   -1.994936
  H      1.580019    0.058128   -2.904906
  H      1.471696    2.274648   -1.829460
  H      2.994026    1.945102   -0.950674
  H      4.443217   -1.466418    0.640511
  H      5.275432   -0.025405    1.299419
  H      4.906499   -1.725247    3.080494
  H      3.936819   -0.277783    3.413695
  H      3.167983   -1.717606    2.743770
  H     -0.057249   -3.002308   -1.162806
  H      0.074810   -1.267518   -1.621212
  H     -0.795199    3.064198    1.288373
  H     -0.708857    2.824733   -0.479832
  H     -2.514923    4.454899    0.114930
  H     -3.168471    2.996673   -0.654194
  H     -3.302405    3.204018    1.098124
  H     -4.177806   -1.702922   -0.033248
  H     -5.350121   -0.422638   -0.455252
  H     -4.321141   -0.304637   -2.753729
  H     -3.228134   -1.621358   -2.315746
  H     -4.971856   -1.914595   -2.399954

 Total Charge           Charge          ....    0
 Multiplicity           Mult            ....    1
 Number of Electrons    NEL             ....  202
 Basis Dimension        Dim             ....  334

ORBITAL ENERGIES
----------------

  NO   OCC          E(Eh)            E(eV)
   0   2.0000     -88.044509     -2395.8129
   1   2.0000     -88.041175     -2395.7222
   2   2.0000     -87.986728     -2394.2406
   3   2.0000     -87.971457     -2393.8250
   4   2.0000     -76.423853     -2079.5988
   5   2.0000     -76.422162     -2079.5528
   6   2.0000     -18.792173      -511.3610
   7   2.0000     -18.787941      -511.2459
   8   2.0000     -18.786508      -511.2069
   9   2.0000     -18.777248      -510.9549
  10   2.0000      -9.960002      -271.0254
  11   2.0000      -9.958582      -270.9868
  12   2.0000      -9.953913      -270.8597
  13   2.0000      -9.949735      -270.7460
  14   2.0000      -9.939128      -270.4574
  15   2.0000      -9.882625      -268.9199
  16   2.0000      -9.882387      -268.9134
  17   2.0000      -9.881501      -268.8893
  18   2.0000      -9.875188      -268.7175
  19   2.0000      -7.689388      -209.2389
  20   2.0000      -7.686267      -209.1540
  21   2.0000      -7.631620      -207.6669
  22   2.0000      -7.616630      -207.2590
  23   2.0000      -6.421105      -174.7271
  24   2.0000      -6.419053      -174.6713
  25   2.0000      -5.717149      -155.5715
  26   2.0000      -5.714142      -155.4897
  27   2.0000      -5.713955      -155.4846
  28   2.0000      -5.710749      -155.3974
  29   2.0000      -5.706399      -155.2790
  30   2.0000      -5.703270      -155.1939
  31   2.0000      -5.660347      -154.0259
  32   2.0000      -5.652654      -153.8165
  33   2.0000      -5.651494      -153.7850
  34   2.0000      -5.645871      -153.6319
  35   2.0000      -5.637091      -153.3931
  36   2.0000      -5.636641      -153.3808
  37   2.0000      -4.643419      -126.3539
  38   2.0000      -4.642886      -126.3393
  39   2.0000      -4.642324      -126.3241
  40   2.0000      -4.641859      -126.3114
  41   2.0000      -4.641132      -126.2916
  42   2.0000      -4.638641      -126.2238
  43   2.0000      -0.985557       -26.8184
  44   2.0000      -0.979509       -26.6538
  45   2.0000      -0.940742       -25.5989
  46   2.0000      -0.936239       -25.4763
  47   2.0000      -0.761982       -20.7346
  48   2.0000      -0.716929       -19.5086
  49   2.0000      -0.707094       -19.2410
  50   2.0000      -0.689879       -18.7726
  51   2.0000      -0.683466       -18.5981
  52   2.0000      -0.672995       -18.3131
  53   2.0000      -0.649133       -17.6638
  54   2.0000      -0.636553       -17.3215
  55   2.0000      -0.595222       -16.1968
  56   2.0000      -0.583964       -15.8905
  57   2.0000      -0.577759       -15.7216
  58   2.0000      -0.570404       -15.5215
  59   2.0000      -0.561550       -15.2805
  60   2.0000      -0.497307       -13.5324
  61   2.0000      -0.489147       -13.3104
  62   2.0000      -0.469462       -12.7747
  63   2.0000      -0.463787       -12.6203
  64   2.0000      -0.452497       -12.3131
  65   2.0000      -0.451659       -12.2903
  66   2.0000      -0.436454       -11.8765
  67   2.0000      -0.431374       -11.7383
  68   2.0000      -0.426871       -11.6158
  69   2.0000      -0.416509       -11.3338
  70   2.0000      -0.410392       -11.1673
  71   2.0000      -0.404143       -10.9973
  72   2.0000      -0.394100       -10.7240
  73   2.0000      -0.385306       -10.4847
  74   2.0000      -0.381410       -10.3787
  75   2.0000      -0.371899       -10.1199
  76   2.0000      -0.352787        -9.5998
  77   2.0000      -0.351181        -9.5561
  78   2.0000      -0.347485        -9.4555
  79   2.0000      -0.345409        -9.3990
  80   2.0000      -0.344798        -9.3824
  81   2.0000      -0.340149        -9.2559
  82   2.0000      -0.336698        -9.1620
  83   2.0000      -0.336316        -9.1516
  84   2.0000      -0.331033        -9.0079
  85   2.0000      -0.323388        -8.7998
  86   2.0000      -0.309897        -8.4327
  87   2.0000      -0.298136        -8.1127
  88   2.0000      -0.293931        -7.9983
  89   2.0000      -0.290069        -7.8932
  90   2.0000      -0.278697        -7.5837
  91   2.0000      -0.272846        -7.4245
  92   2.0000      -0.266469        -7.2510
  93   2.0000      -0.255704        -6.9581
  94   2.0000      -0.254237        -6.9181
  95   2.0000      -0.238516        -6.4904
  96   2.0000      -0.222523        -6.0552
  97   2.0000      -0.203978        -5.5505
  98   2.0000      -0.199984        -5.4418
  99   2.0000      -0.185279        -5.0417
 100   2.0000      -0.180424        -4.9096
 101   0.0000      -0.046209        -1.2574
 102   0.0000      -0.032149        -0.8748
 103   0.0000      -0.015091        -0.4106
 104   0.0000       0.004047         0.1101
 105   0.0000       0.019154         0.5212

MULLIKEN ATOMIC CHARGES
-----------------------
   0 C :   -0.332619
   1 C :    0.008413
   2 O :   -0.367013
   3 P :    0.596816
   4 S :   -0.284213
   5 O :   -0.383258
   6 C :   -0.014042
   7 C :   -0.310229
   8 S :   -0.129635
   9 C :   -0.355738
  10 S :   -0.076340
  11 P :    0.631701
  12 S :   -0.348294
  13 O :   -0.340714
  14 C :   -0.008710
  15 C :   -0.298865
  16 O :   -0.374624
  17 C :   -0.004918
  18 C :   -0.307278
  19 H :    0.108093
  20 H :    0.120032
  21 H :    0.138608
  22 H :    0.113278
  23 H :    0.108350
  24 H :    0.113956
  25 H :    0.109636
  26 H :    0.110658
  27 H :    0.128563
  28 H :    0.129897
  29 H :    0.181138
  30 H :    0.208722
  31 H :    0.105902
  32 H :    0.112931
  33 H :    0.106345
  34 H :    0.117442
  35 H :    0.116146
  36 H :    0.111122
  37 H :    0.107572
  38 H :    0.125517
  39 H :    0.115961
  40 H :    0.109692
Sum of atomic charges:   -0.0000000

LOEWDIN ATOMIC CHARGES
----------------------
   0 C :   -0.371318
   1 C :   -0.112617
   2 O :   -0.239052
   3 P :    0.561426
   4 S :   -0.298133
   5 O :   -0.246545
   6 C :   -0.115528
   7 C :   -0.370470
   8 S :    0.057057
   9 C :   -0.479040
  10 S :    0.103457
  11 P :    0.577685
  12 S :   -0.310059
  13 O :   -0.221855
  14 C :   -0.117788
  15 C :   -0.362940
  16 O :   -0.245311
  17 C :   -0.115736
  18 C :   -0.369730
  19 H :    0.130617
  20 H :    0.115844
  21 H :    0.124345
  22 H :    0.117637
  23 H :    0.113330
  24 H :    0.107144
  25 H :    0.121494
  26 H :    0.129709
  27 H :    0.131263
  28 H :    0.122594
  29 H :    0.138042
  30 H :    0.120153
  31 H :    0.118716
  32 H :    0.106314
  33 H :    0.127571
  34 H :    0.121183
  35 H :    0.126307
  36 H :    0.108356
  37 H :    0.120721
  38 H :    0.128760
  39 H :    0.117448
  40 H :    0.128950

  Mayer bond orders larger than 0.100000
B(  0-C ,  1-C ) :   1.1773 B(  0-C , 19-H ) :   0.9352 B(  0-C , 20-H ) :   0.9353
B(  0-C , 21-H ) :   0.9305 B(  1-C ,  2-O ) :   0.8908 B(  1-C , 22-H ) :   0.9196
B(  1-C , 23-H ) :   0.9262 B(  2-O ,  3-P ) :   1.1075 B(  3-P ,  4-S ) :   1.7031
B(  3-P ,  5-O ) :   1.0650 B(  3-P ,  8-S ) :   0.9290 B(  4-S ,  8-S ) :   0.1128
B(  5-O ,  6-C ) :   0.9160 B(  6-C ,  7-C ) :   1.1676 B(  6-C , 24-H ) :   0.9236
B(  6-C , 25-H ) :   0.9338 B(  7-C , 26-H ) :   0.9337 B(  7-C , 27-H ) :   0.9415
B(  7-C , 28-H ) :   0.9322 B(  8-S ,  9-C ) :   1.0004 B(  9-C , 10-S ) :   1.0106
B(  9-C , 29-H ) :   0.9123 B(  9-C , 30-H ) :   0.8436 B( 10-S , 11-P ) :   0.9642
B( 10-S , 12-S ) :   0.1166 B( 11-P , 12-S ) :   1.5628 B( 11-P , 13-O ) :   1.1597
B( 11-P , 16-O ) :   1.1024 B( 12-S , 30-H ) :   0.1027 B( 13-O , 14-C ) :   0.9048
B( 14-C , 15-C ) :   1.1597 B( 14-C , 31-H ) :   0.9295 B( 14-C , 32-H ) :   0.9123
B( 15-C , 33-H ) :   0.9407 B( 15-C , 34-H ) :   0.9390 B( 15-C , 35-H ) :   0.9464
B( 16-O , 17-C ) :   0.9170 B( 17-C , 18-C ) :   1.1639 B( 17-C , 36-H ) :   0.9260
B( 17-C , 37-H ) :   0.9341 B( 18-C , 38-H ) :   0.9429 B( 18-C , 39-H ) :   0.9356
B( 18-C , 40-H ) :   0.9353

Dispersion correction           -0.070368339
FINAL SINGLE POINT ENERGY     -2929.507273080974

DIPOLE MOMENT
-------------

Method             : SCF
Type of density    : Electron Density
Multiplicity       :   1
Irrep              :   0
Energy             : -2929.6247161088044777 Eh
Relativity type    :
Basis              : AO
                                X                 Y                 Z
Electronic contribution:     -0.909653968      -5.785783168       8.033366299
Nuclear contribution   :      1.375286117       5.527663830      -8.819290879
                        -----------------------------------------
Total Dipole Moment    :      0.465632149      -0.258119338      -0.785924579
                        -----------------------------------------
Magnitude (a.u.)       :      0.949271476
Magnitude (Debye)      :      2.412856339

Rotational constants in cm-1:             0.013005             0.005567             0.005394
Rotational constants in MHz :           389.866259           166.904777           161.698574

                             ****ORCA TERMINATED NORMALLY****
TOTAL RUN TIME: 0 days 0 hours 0 minutes 22 seconds 22 msec
